                         Program Version 4.2.0 -  RELEASE  -
|  1> # ORCA input file
|  2> # SCF done       -155.617197400827          0.000943390928
|  3> ! CAM-B3LYP def2-SVP def2/J RIJCOSX Grid4 TightSCF
|  4> %maxcore 5000
|  5> %tddft
|  6>     Mode sTDDFT
|  7>     Ethresh 5.0
|  8>     maxcore 5000
|  9> end
| 10>
| 11> %pal
| 12>   nprocs 6
| 13>   end
| 14> * xyz 0 1
| 15>    C        7.65328         2.97077        -5.80191
| 16>    C        8.28943         2.57501        -6.95389
| 17>    C        9.05596         1.39286        -6.96838
| 18>    N        9.67656         0.42698        -6.96586
| 19>    C        8.25104         3.25926        -8.17925
| 20>    N        8.25402         3.77180        -9.20780
| 21>    C        6.83176         4.12654        -5.56195
| 22>    C        6.34442         4.18427        -4.23862
| 23>    C        5.53683         5.25130        -3.84970
| 24>    C        5.22363         6.23501        -4.76446
| 25>    C        5.70320         6.17405        -6.06965
| 26>    C        6.50464         5.12735        -6.47574
| 27>    C        6.76599         3.08124        -3.41493
| 28>    S        7.79580         2.00441        -4.35644
| 29>    C        6.42168         2.87029        -2.11517
| 30>    C        6.80710         1.81553        -1.26288
| 31>    C        7.67455         0.74675        -1.46132
| 32>    C        7.77387        -0.06944        -0.34847
| 33>    C        6.98025         0.35753         0.72089
| 34>    S        6.10933         1.78435         0.35626
| 35>    C        7.14589        -0.53678         1.80038
| 36>    C        8.04919        -1.53384         1.43167
| 37>    C        8.53085        -1.32453         0.01567
| 38>    C       10.04383        -1.09658        -0.03417
| 39>    C        8.13056        -2.49525        -0.88651
| 40>    C        8.27161        -2.45960         2.44134
| 41>    C        7.53746        -2.18151         3.58257
| 42>    S        6.55609        -0.73974         3.40155
| 43>    C        7.51041        -2.91954         4.79119
| 44>    C        6.73460        -2.70649         5.91181
| 45>    C        6.95000        -3.63980         6.92328
| 46>    C        7.90117        -4.58712         6.60528
| 47>    S        8.53937        -4.31019         5.00710
| 48>    C        8.35935        -5.67465         7.38880
| 49>    C        9.36582        -6.57414         7.07626
| 50>    C        9.54869        -7.52570         8.06954
| 51>    C        8.67679        -7.36024         9.14582
| 52>    S        7.62697        -6.01595         8.94490
| 53>    C        8.91506        -8.37772        10.09465
| 54>    C        9.94855        -9.19852         9.63051
| 55>    C       10.45517        -8.71359         8.29167
| 56>    C       11.92148        -8.27948         8.37666
| 57>    C       10.26601        -9.77324         7.20346
| 58>    C       10.23500       -10.23599        10.49731
| 59>    C        9.42492       -10.22751        11.63228
| 60>    S        8.29121        -8.88590        11.60717
| 61>    C        9.48532       -11.17418        12.67293
| 62>    C        8.72335       -11.24761        13.79810
| 63>    C        8.81729       -12.24553        14.83127
| 64>    C        7.88959       -12.06468        15.87880
| 65>    C        7.04735       -10.91466        15.68039
| 66>    C        6.03861       -10.43098        16.47757
| 67>    C        5.62295       -10.99616        17.69403
| 68>    N        5.23644       -11.41016        18.69415
| 69>    C        5.32146        -9.27675        16.10370
| 70>    N        4.73716        -8.33771        15.79714
| 71>    S        7.44849       -10.09749        14.18969
| 72>    C        7.86169       -12.95377        16.95193
| 73>    C        8.74919       -14.01013        16.97507
| 74>    C        9.66339       -14.19169        15.94178
| 75>    C        9.70365       -13.31958        14.87364
| 76>    H        5.15996         5.31095        -2.84076
| 77>    H        4.59945         7.06284        -4.46388
| 78>    H        5.44764         6.95259        -6.77150
| 79>    H        6.87464         5.08491        -7.48691
| 80>    H        5.75787         3.59824        -1.66730
| 81>    H        8.21107         0.58420        -2.37689
| 82>    H       10.35264        -0.87051        -1.05157
| 83>    H       10.56627        -1.98845         0.30226
| 84>    H       10.32304        -0.26495         0.60882
| 85>    H        7.05496        -2.65214        -0.84808
| 86>    H        8.62769        -3.40492        -0.55940
| 87>    H        8.41644        -2.28767        -1.91450
| 88>    H        8.92759        -3.30920         2.37739
| 89>    H        6.03170        -1.89504         5.97916
| 90>    H        6.43474        -3.63644         7.86738
| 91>    H        9.92249        -6.51221         6.15824
| 92>    H       12.24008        -7.85395         7.42837
| 93>    H       12.55172        -9.13462         8.60797
| 94>    H       12.04919        -7.53095         9.15537
| 95>    H        9.22284       -10.07602         7.14822
| 96>    H       10.87221       -10.64825         7.42452
| 97>    H       10.56494        -9.37357         6.23769
| 98>    H       10.98998       -10.98532        10.33948
| 99>    H       10.23920       -11.93974        12.54043
|100>    H        7.15580       -12.81895        17.75475
|101>    H        8.73247       -14.70146        17.80323
|102>    H       10.34920       -15.02476        15.97626
|103>    H       10.41675       -13.47039        14.07823
|104> *
|105>
|106>                          ****END OF INPUT****

CARTESIAN COORDINATES (ANGSTROEM)
---------------------------------
  C      7.653280    2.970770   -5.801910
  C      8.289430    2.575010   -6.953890
  C      9.055960    1.392860   -6.968380
  N      9.676560    0.426980   -6.965860
  C      8.251040    3.259260   -8.179250
  N      8.254020    3.771800   -9.207800
  C      6.831760    4.126540   -5.561950
  C      6.344420    4.184270   -4.238620
  C      5.536830    5.251300   -3.849700
  C      5.223630    6.235010   -4.764460
  C      5.703200    6.174050   -6.069650
  C      6.504640    5.127350   -6.475740
  C      6.765990    3.081240   -3.414930
  S      7.795800    2.004410   -4.356440
  C      6.421680    2.870290   -2.115170
  C      6.807100    1.815530   -1.262880
  C      7.674550    0.746750   -1.461320
  C      7.773870   -0.069440   -0.348470
  C      6.980250    0.357530    0.720890
  S      6.109330    1.784350    0.356260
  C      7.145890   -0.536780    1.800380
  C      8.049190   -1.533840    1.431670
  C      8.530850   -1.324530    0.015670
  C     10.043830   -1.096580   -0.034170
  C      8.130560   -2.495250   -0.886510
  C      8.271610   -2.459600    2.441340
  C      7.537460   -2.181510    3.582570
  S      6.556090   -0.739740    3.401550
  C      7.510410   -2.919540    4.791190
  C      6.734600   -2.706490    5.911810
  C      6.950000   -3.639800    6.923280
  C      7.901170   -4.587120    6.605280
  S      8.539370   -4.310190    5.007100
  C      8.359350   -5.674650    7.388800
  C      9.365820   -6.574140    7.076260
  C      9.548690   -7.525700    8.069540
  C      8.676790   -7.360240    9.145820
  S      7.626970   -6.015950    8.944900
  C      8.915060   -8.377720   10.094650
  C      9.948550   -9.198520    9.630510
  C     10.455170   -8.713590    8.291670
  C     11.921480   -8.279480    8.376660
  C     10.266010   -9.773240    7.203460
  C     10.235000  -10.235990   10.497310
  C      9.424920  -10.227510   11.632280
  S      8.291210   -8.885900   11.607170
  C      9.485320  -11.174180   12.672930
  C      8.723350  -11.247610   13.798100
  C      8.817290  -12.245530   14.831270
  C      7.889590  -12.064680   15.878800
  C      7.047350  -10.914660   15.680390
  C      6.038610  -10.430980   16.477570
  C      5.622950  -10.996160   17.694030
  N      5.236440  -11.410160   18.694150
  C      5.321460   -9.276750   16.103700
  N      4.737160   -8.337710   15.797140
  S      7.448490  -10.097490   14.189690
  C      7.861690  -12.953770   16.951930
  C      8.749190  -14.010130   16.975070
  C      9.663390  -14.191690   15.941780
  C      9.703650  -13.319580   14.873640
  H      5.159960    5.310950   -2.840760
  H      4.599450    7.062840   -4.463880
  H      5.447640    6.952590   -6.771500
  H      6.874640    5.084910   -7.486910
  H      5.757870    3.598240   -1.667300
  H      8.211070    0.584200   -2.376890
  H     10.352640   -0.870510   -1.051570
  H     10.566270   -1.988450    0.302260
  H     10.323040   -0.264950    0.608820
  H      7.054960   -2.652140   -0.848080
  H      8.627690   -3.404920   -0.559400
  H      8.416440   -2.287670   -1.914500
  H      8.927590   -3.309200    2.377390
  H      6.031700   -1.895040    5.979160
  H      6.434740   -3.636440    7.867380
  H      9.922490   -6.512210    6.158240
  H     12.240080   -7.853950    7.428370
  H     12.551720   -9.134620    8.607970
  H     12.049190   -7.530950    9.155370
  H      9.222840  -10.076020    7.148220
  H     10.872210  -10.648250    7.424520
  H     10.564940   -9.373570    6.237690
  H     10.989980  -10.985320   10.339480
  H     10.239200  -11.939740   12.540430
  H      7.155800  -12.818950   17.754750
  H      8.732470  -14.701460   17.803230
  H     10.349200  -15.024760   15.976260
  H     10.416750  -13.470390   14.078230

 Total Charge           Charge          ....    0
 Multiplicity           Mult            ....    1
 Number of Electrons    NEL             ....  468
 Basis Dimension        Dim             .... 1022

ORBITAL ENERGIES
----------------

  NO   OCC          E(Eh)            E(eV)
   0   2.0000     -88.973315     -2421.0870
   1   2.0000     -88.972262     -2421.0583
   2   2.0000     -88.970811     -2421.0188
   3   2.0000     -88.970790     -2421.0183
   4   2.0000     -88.970402     -2421.0077
   5   2.0000     -88.969186     -2420.9746
   6   2.0000     -88.964872     -2420.8573
   7   2.0000     -14.407136      -392.0381
   8   2.0000     -14.405894      -392.0043
   9   2.0000     -14.405125      -391.9834
  10   2.0000     -14.402911      -391.9231
  11   2.0000     -10.354483      -281.7598
  12   2.0000     -10.353137      -281.7232
  13   2.0000     -10.333901      -281.1997
  14   2.0000     -10.332524      -281.1623
  15   2.0000     -10.321135      -280.8524
  16   2.0000     -10.319857      -280.8176
  17   2.0000     -10.317739      -280.7599
  18   2.0000     -10.317388      -280.7504
  19   2.0000     -10.315475      -280.6983
  20   2.0000     -10.314735      -280.6782
  21   2.0000     -10.314413      -280.6695
  22   2.0000     -10.314353      -280.6678
  23   2.0000     -10.314272      -280.6656
  24   2.0000     -10.314262      -280.6653
  25   2.0000     -10.311267      -280.5839
  26   2.0000     -10.310068      -280.5512
  27   2.0000     -10.309164      -280.5266
  28   2.0000     -10.309145      -280.5261
  29   2.0000     -10.309115      -280.5253
  30   2.0000     -10.308250      -280.5018
  31   2.0000     -10.307634      -280.4850
  32   2.0000     -10.307305      -280.4760
  33   2.0000     -10.306794      -280.4621
  34   2.0000     -10.304896      -280.4105
  35   2.0000     -10.303297      -280.3670
  36   2.0000     -10.303048      -280.3602
  37   2.0000     -10.302551      -280.3467
  38   2.0000     -10.300811      -280.2993
  39   2.0000     -10.293629      -280.1039
  40   2.0000     -10.293311      -280.0952
  41   2.0000     -10.292653      -280.0773
  42   2.0000     -10.292485      -280.0727
  43   2.0000     -10.292205      -280.0651
  44   2.0000     -10.291789      -280.0538
  45   2.0000     -10.291512      -280.0463
  46   2.0000     -10.289979      -280.0046
  47   2.0000     -10.286364      -279.9062
  48   2.0000     -10.285950      -279.8949
  49   2.0000     -10.285838      -279.8919
  50   2.0000     -10.285688      -279.8878
  51   2.0000     -10.283476      -279.8276
  52   2.0000     -10.283187      -279.8197
  53   2.0000     -10.283088      -279.8171
  54   2.0000     -10.282622      -279.8044
  55   2.0000     -10.282149      -279.7915
  56   2.0000     -10.282106      -279.7903
  57   2.0000     -10.273244      -279.5492
  58   2.0000     -10.273226      -279.5487
  59   2.0000     -10.270121      -279.4642
  60   2.0000     -10.269672      -279.4520
  61   2.0000      -8.067892      -219.5385
  62   2.0000      -8.067367      -219.5242
  63   2.0000      -8.065991      -219.4868
  64   2.0000      -8.065646      -219.4774
  65   2.0000      -8.065197      -219.4652
  66   2.0000      -8.064596      -219.4488
  67   2.0000      -8.060218      -219.3297
  68   2.0000      -6.037262      -164.2822
  69   2.0000      -6.036655      -164.2657
  70   2.0000      -6.035751      -164.2411
  71   2.0000      -6.035096      -164.2233
  72   2.0000      -6.034622      -164.2104
  73   2.0000      -6.034403      -164.2044
  74   2.0000      -6.033094      -164.1688
  75   2.0000      -6.032695      -164.1580
  76   2.0000      -6.031504      -164.1256
  77   2.0000      -6.031007      -164.1121
  78   2.0000      -6.030533      -164.0992
  79   2.0000      -6.030091      -164.0871
  80   2.0000      -6.029978      -164.0841
  81   2.0000      -6.029632      -164.0746
  82   2.0000      -6.029395      -164.0682
  83   2.0000      -6.027516      -164.0170
  84   2.0000      -6.027127      -164.0065
  85   2.0000      -6.027117      -164.0062
  86   2.0000      -6.025625      -163.9656
  87   2.0000      -6.025561      -163.9638
  88   2.0000      -6.022082      -163.8692
  89   2.0000      -1.023120       -27.8405
  90   2.0000      -1.022337       -27.8192
  91   2.0000      -1.019330       -27.7374
  92   2.0000      -1.018190       -27.7064
  93   2.0000      -1.000010       -27.2117
  94   2.0000      -0.996397       -27.1133
  95   2.0000      -0.995089       -27.0777
  96   2.0000      -0.984586       -26.7920
  97   2.0000      -0.984433       -26.7878
  98   2.0000      -0.982651       -26.7393
  99   2.0000      -0.974419       -26.5153
 100   2.0000      -0.948416       -25.8077
 101   2.0000      -0.947782       -25.7905
 102   2.0000      -0.939272       -25.5589
 103   2.0000      -0.933993       -25.4152
 104   2.0000      -0.919791       -25.0288
 105   2.0000      -0.918345       -24.9894
 106   2.0000      -0.887629       -24.1536
 107   2.0000      -0.882318       -24.0091
 108   2.0000      -0.872253       -23.7352
 109   2.0000      -0.865204       -23.5434
 110   2.0000      -0.857782       -23.3414
 111   2.0000      -0.850640       -23.1471
 112   2.0000      -0.848223       -23.0813
 113   2.0000      -0.846423       -23.0323
 114   2.0000      -0.843291       -22.9471
 115   2.0000      -0.838259       -22.8102
 116   2.0000      -0.834206       -22.6999
 117   2.0000      -0.832824       -22.6623
 118   2.0000      -0.827566       -22.5192
 119   2.0000      -0.825368       -22.4594
 120   2.0000      -0.792786       -21.5728
 121   2.0000      -0.784809       -21.3558
 122   2.0000      -0.781605       -21.2686
 123   2.0000      -0.779392       -21.2083
 124   2.0000      -0.761715       -20.7273
 125   2.0000      -0.740998       -20.1636
 126   2.0000      -0.725392       -19.7389
 127   2.0000      -0.723382       -19.6842
 128   2.0000      -0.716852       -19.5065
 129   2.0000      -0.711908       -19.3720
 130   2.0000      -0.707993       -19.2655
 131   2.0000      -0.701593       -19.0913
 132   2.0000      -0.696477       -18.9521
 133   2.0000      -0.695499       -18.9255
 134   2.0000      -0.676708       -18.4142
 135   2.0000      -0.668257       -18.1842
 136   2.0000      -0.654240       -17.8028
 137   2.0000      -0.649107       -17.6631
 138   2.0000      -0.642057       -17.4713
 139   2.0000      -0.639663       -17.4061
 140   2.0000      -0.635627       -17.2963
 141   2.0000      -0.634944       -17.2777
 142   2.0000      -0.630257       -17.1502
 143   2.0000      -0.626299       -17.0425
 144   2.0000      -0.620712       -16.8904
 145   2.0000      -0.615140       -16.7388
 146   2.0000      -0.608049       -16.5459
 147   2.0000      -0.602142       -16.3851
 148   2.0000      -0.587944       -15.9988
 149   2.0000      -0.576621       -15.6907
 150   2.0000      -0.569119       -15.4865
 151   2.0000      -0.566889       -15.4258
 152   2.0000      -0.565067       -15.3763
 153   2.0000      -0.561310       -15.2740
 154   2.0000      -0.559844       -15.2341
 155   2.0000      -0.550912       -14.9911
 156   2.0000      -0.548000       -14.9118
 157   2.0000      -0.536717       -14.6048
 158   2.0000      -0.535148       -14.5621
 159   2.0000      -0.534114       -14.5340
 160   2.0000      -0.532092       -14.4790
 161   2.0000      -0.530750       -14.4424
 162   2.0000      -0.527525       -14.3547
 163   2.0000      -0.527183       -14.3454
 164   2.0000      -0.525815       -14.3082
 165   2.0000      -0.525098       -14.2886
 166   2.0000      -0.520951       -14.1758
 167   2.0000      -0.514230       -13.9929
 168   2.0000      -0.510739       -13.8979
 169   2.0000      -0.507387       -13.8067
 170   2.0000      -0.505047       -13.7430
 171   2.0000      -0.502463       -13.6727
 172   2.0000      -0.492481       -13.4011
 173   2.0000      -0.490713       -13.3530
 174   2.0000      -0.489717       -13.3259
 175   2.0000      -0.489207       -13.3120
 176   2.0000      -0.487882       -13.2760
 177   2.0000      -0.485961       -13.2237
 178   2.0000      -0.483417       -13.1544
 179   2.0000      -0.479823       -13.0566
 180   2.0000      -0.478277       -13.0146
 181   2.0000      -0.474527       -12.9125
 182   2.0000      -0.473933       -12.8964
 183   2.0000      -0.469873       -12.7859
 184   2.0000      -0.467781       -12.7290
 185   2.0000      -0.460170       -12.5219
 186   2.0000      -0.456591       -12.4245
 187   2.0000      -0.454356       -12.3636
 188   2.0000      -0.454131       -12.3575
 189   2.0000      -0.450885       -12.2692
 190   2.0000      -0.448460       -12.2032
 191   2.0000      -0.448241       -12.1973
 192   2.0000      -0.441517       -12.0143
 193   2.0000      -0.441252       -12.0071
 194   2.0000      -0.438148       -11.9226
 195   2.0000      -0.437700       -11.9104
 196   2.0000      -0.436321       -11.8729
 197   2.0000      -0.435441       -11.8489
 198   2.0000      -0.434263       -11.8169
 199   2.0000      -0.432998       -11.7825
 200   2.0000      -0.432822       -11.7777
 201   2.0000      -0.430116       -11.7041
 202   2.0000      -0.429764       -11.6945
 203   2.0000      -0.429234       -11.6801
 204   2.0000      -0.429063       -11.6754
 205   2.0000      -0.419202       -11.4071
 206   2.0000      -0.418228       -11.3806
 207   2.0000      -0.416510       -11.3338
 208   2.0000      -0.414134       -11.2692
 209   2.0000      -0.411637       -11.2012
 210   2.0000      -0.411108       -11.1868
 211   2.0000      -0.410663       -11.1747
 212   2.0000      -0.409352       -11.1390
 213   2.0000      -0.405856       -11.0439
 214   2.0000      -0.403186       -10.9712
 215   2.0000      -0.402148       -10.9430
 216   2.0000      -0.401190       -10.9169
 217   2.0000      -0.399112       -10.8604
 218   2.0000      -0.383950       -10.4478
 219   2.0000      -0.364470        -9.9177
 220   2.0000      -0.343958        -9.3596
 221   2.0000      -0.340631        -9.2690
 222   2.0000      -0.338574        -9.2131
 223   2.0000      -0.337576        -9.1859
 224   2.0000      -0.333305        -9.0697
 225   2.0000      -0.330867        -9.0033
 226   2.0000      -0.328741        -8.9455
 227   2.0000      -0.326399        -8.8818
 228   2.0000      -0.324184        -8.8215
 229   2.0000      -0.314162        -8.5488
 230   2.0000      -0.298309        -8.1174
 231   2.0000      -0.276305        -7.5186
 232   2.0000      -0.245674        -6.6851
 233   2.0000      -0.222677        -6.0593
 234   0.0000      -0.087762        -2.3881
 235   0.0000      -0.079583        -2.1656
 236   0.0000      -0.051311        -1.3963
 237   0.0000      -0.034663        -0.9432
 238   0.0000      -0.019555        -0.5321

MULLIKEN ATOMIC CHARGES
-----------------------
   0 C :    0.095290
   1 C :   -0.290471
   2 C :   -0.208940
   3 N :    0.143631
   4 C :   -0.174713
   5 N :    0.147459
   6 C :    0.030442
   7 C :    0.158511
   8 C :   -0.057242
   9 C :    0.051030
  10 C :    0.025902
  11 C :   -0.020098
  12 C :   -0.053690
  13 S :    0.093471
  14 C :    0.023435
  15 C :   -0.115024
  16 C :   -0.030128
  17 C :   -0.010941
  18 C :   -0.075988
  19 S :    0.146964
  20 C :   -0.094333
  21 C :    0.027057
  22 C :   -0.109300
  23 C :    0.103690
  24 C :    0.103058
  25 C :   -0.073724
  26 C :   -0.031392
  27 S :    0.149631
  28 C :   -0.049211
  29 C :   -0.009883
  30 C :   -0.006118
  31 C :   -0.049685
  32 S :    0.109948
  33 C :   -0.035868
  34 C :   -0.069029
  35 C :    0.017576
  36 C :   -0.086252
  37 S :    0.156954
  38 C :   -0.067228
  39 C :    0.031520
  40 C :   -0.109611
  41 C :    0.106910
  42 C :    0.104726
  43 C :   -0.058488
  44 C :   -0.066373
  45 S :    0.138768
  46 C :   -0.021844
  47 C :   -0.051454
  48 C :    0.150210
  49 C :    0.040116
  50 C :    0.091208
  51 C :   -0.299067
  52 C :   -0.176477
  53 N :    0.152612
  54 C :   -0.209917
  55 N :    0.147138
  56 S :    0.104565
  57 C :   -0.021602
  58 C :    0.026366
  59 C :    0.047707
  60 C :   -0.056327
  61 H :   -0.019692
  62 H :   -0.003637
  63 H :   -0.002164
  64 H :    0.005207
  65 H :   -0.012828
  66 H :    0.001669
  67 H :    0.017888
  68 H :    0.011533
  69 H :    0.022180
  70 H :    0.022960
  71 H :    0.011389
  72 H :    0.019775
  73 H :   -0.016329
  74 H :   -0.009027
  75 H :   -0.008813
  76 H :   -0.018263
  77 H :    0.011774
  78 H :    0.010202
  79 H :    0.024728
  80 H :    0.024117
  81 H :    0.009767
  82 H :    0.011732
  83 H :   -0.021800
  84 H :   -0.008104
  85 H :    0.006444
  86 H :   -0.001719
  87 H :   -0.003544
  88 H :   -0.020920
Sum of atomic charges:   -0.0000000

LOEWDIN ATOMIC CHARGES
----------------------
   0 C :   -0.062858
   1 C :   -0.176048
   2 C :   -0.038455
   3 N :   -0.052815
   4 C :   -0.023740
   5 N :   -0.058772
   6 C :   -0.055283
   7 C :   -0.011915
   8 C :   -0.016948
   9 C :    0.002831
  10 C :   -0.019073
  11 C :    0.010859
  12 C :   -0.162890
  13 S :    0.434684
  14 C :   -0.041475
  15 C :   -0.179657
  16 C :   -0.047371
  17 C :   -0.038477
  18 C :   -0.183654
  19 S :    0.438862
  20 C :   -0.201566
  21 C :   -0.028380
  22 C :   -0.034781
  23 C :   -0.023070
  24 C :   -0.022882
  25 C :   -0.062991
  26 C :   -0.172198
  27 S :    0.439164
  28 C :   -0.182016
  29 C :   -0.059114
  30 C :   -0.058564
  31 C :   -0.181975
  32 S :    0.430496
  33 C :   -0.172599
  34 C :   -0.063659
  35 C :   -0.030335
  36 C :   -0.200400
  37 S :    0.445185
  38 C :   -0.181955
  39 C :   -0.043427
  40 C :   -0.034416
  41 C :   -0.023258
  42 C :   -0.023903
  43 C :   -0.039680
  44 C :   -0.182068
  45 S :    0.443026
  46 C :   -0.037260
  47 C :   -0.170924
  48 C :   -0.012514
  49 C :   -0.054187
  50 C :   -0.063471
  51 C :   -0.175198
  52 C :   -0.023510
  53 N :   -0.059196
  54 C :   -0.038633
  55 N :   -0.050010
  56 S :    0.418933
  57 C :    0.010489
  58 C :   -0.019199
  59 C :    0.001686
  60 C :   -0.017902
  61 H :    0.029573
  62 H :    0.034343
  63 H :    0.034963
  64 H :    0.041134
  65 H :    0.035215
  66 H :    0.020453
  67 H :    0.026635
  68 H :    0.024380
  69 H :    0.030464
  70 H :    0.030783
  71 H :    0.024274
  72 H :    0.027176
  73 H :    0.026230
  74 H :    0.028095
  75 H :    0.028564
  76 H :    0.025715
  77 H :    0.024284
  78 H :    0.023549
  79 H :    0.031363
  80 H :    0.031220
  81 H :    0.023507
  82 H :    0.024262
  83 H :    0.030712
  84 H :    0.042388
  85 H :    0.041205
  86 H :    0.034899
  87 H :    0.034103
  88 H :    0.028971

  Mayer bond orders larger than 0.100000
B(  0-C ,  1-C ) :   1.6079 B(  0-C ,  6-C ) :   1.0929 B(  0-C , 13-S ) :   1.1066
B(  1-C ,  2-C ) :   1.1365 B(  1-C ,  4-C ) :   1.1689 B(  2-C ,  3-N ) :   3.0311
B(  4-C ,  5-N ) :   2.9677 B(  6-C ,  7-C ) :   1.3155 B(  6-C , 11-C ) :   1.3354
B(  7-C ,  8-C ) :   1.3416 B(  7-C , 12-C ) :   1.0740 B(  8-C ,  9-C ) :   1.4219
B(  8-C , 61-H ) :   0.9899 B(  9-C , 10-C ) :   1.3374 B(  9-C , 62-H ) :   0.9862
B( 10-C , 11-C ) :   1.4222 B( 10-C , 63-H ) :   0.9869 B( 11-C , 64-H ) :   0.9812
B( 12-C , 13-S ) :   0.9897 B( 12-C , 14-C ) :   1.6825 B( 14-C , 15-C ) :   1.1684
B( 14-C , 65-H ) :   0.9412 B( 15-C , 16-C ) :   1.4164 B( 15-C , 19-S ) :   1.0893
B( 16-C , 17-C ) :   1.3641 B( 16-C , 66-H ) :   0.9787 B( 17-C , 18-C ) :   1.5047
B( 17-C , 22-C ) :   0.9401 B( 18-C , 19-S ) :   1.0992 B( 18-C , 20-C ) :   1.1833
B( 20-C , 21-C ) :   1.5310 B( 20-C , 27-S ) :   1.0716 B( 21-C , 22-C ) :   0.9401
B( 21-C , 25-C ) :   1.3141 B( 22-C , 23-C ) :   1.0333 B( 22-C , 24-C ) :   1.0334
B( 23-C , 67-H ) :   0.9651 B( 23-C , 68-H ) :   0.9644 B( 23-C , 69-H ) :   0.9645
B( 24-C , 70-H ) :   0.9643 B( 24-C , 71-H ) :   0.9643 B( 24-C , 72-H ) :   0.9651
B( 25-C , 26-C ) :   1.4528 B( 25-C , 73-H ) :   0.9979 B( 26-C , 27-S ) :   1.1138
B( 26-C , 28-C ) :   1.1637 B( 28-C , 29-C ) :   1.4986 B( 28-C , 32-S ) :   1.1149
B( 29-C , 30-C ) :   1.2703 B( 29-C , 74-H ) :   0.9928 B( 30-C , 31-C ) :   1.4974
B( 30-C , 75-H ) :   0.9924 B( 31-C , 32-S ) :   1.1147 B( 31-C , 33-C ) :   1.1657
B( 33-C , 34-C ) :   1.4499 B( 33-C , 37-S ) :   1.1149 B( 34-C , 35-C ) :   1.3188
B( 34-C , 76-H ) :   0.9976 B( 35-C , 36-C ) :   1.5243 B( 35-C , 40-C ) :   0.9429
B( 36-C , 37-S ) :   1.0752 B( 36-C , 38-C ) :   1.1827 B( 38-C , 39-C ) :   1.4919
B( 38-C , 45-S ) :   1.1050 B( 39-C , 40-C ) :   0.9338 B( 39-C , 43-C ) :   1.3301
B( 40-C , 41-C ) :   1.0328 B( 40-C , 42-C ) :   1.0374 B( 41-C , 77-H ) :   0.9648
B( 41-C , 78-H ) :   0.9645 B( 41-C , 79-H ) :   0.9640 B( 42-C , 80-H ) :   0.9646
B( 42-C , 81-H ) :   0.9640 B( 42-C , 82-H ) :   0.9645 B( 43-C , 44-C ) :   1.3877
B( 43-C , 83-H ) :   1.0138 B( 44-C , 45-S ) :   1.0829 B( 44-C , 46-C ) :   1.1968
B( 46-C , 47-C ) :   1.6322 B( 46-C , 84-H ) :   0.9625 B( 47-C , 48-C ) :   1.0718
B( 47-C , 56-S ) :   0.9829 B( 48-C , 49-C ) :   1.3200 B( 48-C , 60-C ) :   1.3459
B( 49-C , 50-C ) :   1.0838 B( 49-C , 57-C ) :   1.3363 B( 50-C , 51-C ) :   1.6170
B( 50-C , 56-S ) :   1.1127 B( 51-C , 52-C ) :   1.1700 B( 51-C , 54-C ) :   1.1378
B( 52-C , 53-N ) :   2.9683 B( 54-C , 55-N ) :   3.0304 B( 57-C , 58-C ) :   1.4204
B( 57-C , 85-H ) :   0.9810 B( 58-C , 59-C ) :   1.3393 B( 58-C , 86-H ) :   0.9871
B( 59-C , 60-C ) :   1.4201 B( 59-C , 87-H ) :   0.9862 B( 60-C , 88-H ) :   0.9898

-----------------------------------------------------------------------------
         ABSORPTION SPECTRUM VIA TRANSITION ELECTRIC DIPOLE MOMENTS
-----------------------------------------------------------------------------
State   Energy  Wavelength   fosc         T2         TX        TY        TZ
        (cm-1)    (nm)                  (au**2)     (au)      (au)      (au)
-----------------------------------------------------------------------------
   0   15889.1    629.4   3.215538997  66.62398  -0.14765  -4.50108   6.80753
   1   18886.2    529.5   0.028355222   0.49427  -0.57639   0.14119  -0.37697
   2   23684.3    422.2   0.003975030   0.05525  -0.08761  -0.13825  -0.16871
   3   23923.6    418.0   0.314307523   4.32518  -1.37226   1.55785   0.12319
   4   26504.2    377.3   0.421305518   5.23309  -0.73955  -0.49055   2.10844
   5   27655.6    361.6   0.003896159   0.04638  -0.14380   0.12312   0.10268
   6   29816.7    335.4   0.233307164   2.57599  -1.04102   1.18927   0.27912
   7   30454.9    328.4   0.109986013   1.18893   0.58107   0.01456  -0.92253
   8   31056.8    322.0   0.019390810   0.20555  -0.30985   0.09566  -0.31685
   9   31707.6    315.4   0.004174943   0.04335   0.08329  -0.05145   0.18375
  10   33625.8    297.4   0.049203458   0.48172  -0.56468   0.35273   0.19608
  11   33933.6    294.7   0.228876567   2.22048  -0.91585   1.14123   0.28159
  12   34652.5    288.6   0.138039760   1.31143  -0.71488   0.86330   0.23471
  13   35046.3    285.3   0.125208317   1.17616   0.71475  -0.75404  -0.31100
  14   36194.8    276.3   0.259292991   2.35842  -0.89691   1.23778  -0.14793
  15   36448.2    274.4   0.165926701   1.49870   0.70116  -0.96047  -0.29083
  16   37162.9    269.1   0.037585630   0.33296  -0.27768   0.06596   0.50150
  17   37535.0    266.4   0.013921998   0.12211  -0.14919   0.05822   0.31058
  18   38222.6    261.6   0.065843158   0.56711   0.58348  -0.36551  -0.30506
  19   38445.9    260.1   0.056688297   0.48542  -0.19102  -0.10219   0.66219
  20   38854.9    257.4   0.007254110   0.06146   0.06573  -0.22075  -0.09171
  21   39037.5    256.2   0.166792538   1.40660   0.80527  -0.53326  -0.68831
  22   39572.8    252.7   0.150134196   1.24899   0.77706  -0.46018  -0.65833
  23   39706.2    251.8   0.003698834   0.03067  -0.08398   0.13375   0.07567

FINAL SINGLE POINT ENERGY     -4924.840013594318

DIPOLE MOMENT
-------------
                                X             Y             Z
Electronic contribution:    -25.13658      15.63424      15.08351
Nuclear contribution   :     26.74795     -16.32180     -14.74471
                        -----------------------------------------
Total Dipole Moment    :      1.61138      -0.68757       0.33880
                        -----------------------------------------
Magnitude (a.u.)       :      1.78439
Magnitude (Debye)      :      4.53557

Rotational constants in cm-1:     0.004393     0.000196     0.000189
Rotational constants in MHz :   131.701587     5.879980     5.656655

                             ****ORCA TERMINATED NORMALLY****
TOTAL RUN TIME: 0 days 0 hours 16 minutes 34 seconds 722 msec
