                         Program Version 4.2.0 -  RELEASE  -
|  1> # ORCA input file
|  2> # SCF done       -228.566013064776          0.000526917409
|  3> ! CAM-B3LYP def2-SVP def2/J RIJCOSX Grid4 TightSCF
|  4> %maxcore 5000
|  5> %tddft
|  6>     Mode sTDDFT
|  7>     Ethresh 5.0
|  8>     maxcore 5000
|  9> end
| 10>
| 11> %pal
| 12>   nprocs 6
| 13>   end
| 14> * xyz 0 1
| 15>    C      -16.71188       -11.45434        -3.65802
| 16>    C      -16.94069       -12.06672        -4.85813
| 17>    F      -18.18904       -12.17361        -5.33265
| 18>    C      -15.87150       -12.59264        -5.61061
| 19>    F      -16.12542       -13.18804        -6.78414
| 20>    C      -14.58740       -12.49905        -5.15196
| 21>    C      -14.31932       -11.87374        -3.91895
| 22>    C      -15.39927       -11.34105        -3.15703
| 23>    C      -15.15507       -10.70930        -1.91611
| 24>    C      -13.86995       -10.61412        -1.44964
| 25>    C      -12.79951       -11.15032        -2.21765
| 26>    C      -13.00255       -11.76396        -3.41945
| 27>    C      -11.52844       -10.92938        -1.50199
| 28>    O      -10.42294       -11.24853        -1.89061
| 29>    C      -11.88520       -10.25228        -0.24318
| 30>    C      -13.32016       -10.03400        -0.22638
| 31>    C      -14.05590        -9.39716         0.74090
| 32>    C      -15.45575        -9.22971         0.68585
| 33>    N      -16.59137        -9.06187         0.70633
| 34>    C      -13.54772        -8.81219         1.91907
| 35>    N      -13.21975        -8.30872         2.89875
| 36>    C      -11.02130        -9.91601         0.76349
| 37>    C       -9.63042       -10.10505         0.88538
| 38>    C       -8.96756        -9.72917         2.04488
| 39>    C       -7.59103       -10.00613         2.04407
| 40>    C       -7.21624       -10.60878         0.80954
| 41>    S       -8.54730       -10.81387        -0.28942
| 42>    C       -5.93308       -11.02858         0.47735
| 43>    O       -5.83858       -11.55688        -0.76823
| 44>    C       -4.60794       -11.96962        -1.30816
| 45>    C       -4.93498       -10.86847         1.45679
| 46>    C       -5.31370       -10.26565         2.68838
| 47>    C       -6.58164        -9.81510         3.01844
| 48>    O       -6.67109        -9.26313         4.25278
| 49>    C       -7.86662        -8.69687         4.73033
| 50>    S       -3.98821       -10.15947         3.81217
| 51>    C       -2.92749       -10.92918         2.65395
| 52>    C       -3.56328       -11.22495         1.47978
| 53>    C       -1.56492       -11.22708         2.98639
| 54>    C       -1.05078       -11.02519         4.26424
| 55>    N        0.16614       -11.34944         4.66920
| 56>    C        1.04266       -11.89485         3.84406
| 57>    C        0.68463       -12.11199         2.48429
| 58>    C       -0.64845       -11.78251         2.05542
| 59>    N       -0.83299       -12.06232         0.76488
| 60>    S        0.52781       -12.66832         0.15851
| 61>    N        1.42015       -12.61537         1.49573
| 62>    C        2.30806       -12.27948         4.38769
| 63>    C        3.37033       -12.85158         3.74798
| 64>    C        4.45577       -13.16814         4.59964
| 65>    C        4.16738       -12.81255         5.96104
| 66>    S        2.57852       -12.07193         6.08855
| 67>    C        5.03240       -13.08405         7.00834
| 68>    O        4.89922       -12.80743         8.32498
| 69>    C        3.85793       -11.98172         8.79608
| 70>    C        6.23144       -13.75933         6.67624
| 71>    C        6.52437       -14.08242         5.33547
| 72>    C        5.67920       -13.78849         4.27387
| 73>    O        6.14742       -14.17782         3.06166
| 74>    C        5.61629       -13.68239         1.85535
| 75>    S        8.05313       -14.88623         5.18851
| 76>    C        8.31503       -14.76493         6.92194
| 77>    C        7.25628       -14.15257         7.55322
| 78>    C        9.47380       -15.35256         7.47856
| 79>    C       10.02074       -15.19918         8.71781
| 80>    C       10.95374       -16.24713         9.21604
| 81>    O       11.47883       -17.12017         8.56502
| 82>    C       11.04650       -16.02351        10.67362
| 83>    C       11.66958       -16.78415        11.61998
| 84>    C       11.59198       -16.39292        12.97563
| 85>    C       10.86503       -15.21754        13.32324
| 86>    C       10.78399       -14.83806        14.67811
| 87>    C       11.39700       -15.58857        15.64169
| 88>    C       12.11633       -16.75010        15.29666
| 89>    C       12.21317       -17.14475        13.99177
| 90>    F       12.70567       -17.46815        16.26288
| 91>    F       11.31830       -15.22580        16.92922
| 92>    C       10.23744       -14.44472        12.31917
| 93>    C       10.33146       -14.83971        11.01171
| 94>    C        9.81729       -14.24052         9.78092
| 95>    C        9.44883       -12.92700         9.64403
| 96>    C        9.20565       -12.30431         8.40336
| 97>    N        9.03644       -11.74267         7.41696
| 98>    C        9.34801       -12.02401        10.72135
| 99>    N        9.22585       -11.25682        11.56669
|100>    H      -17.54190       -11.05715        -3.09481
|101>    H      -13.77962       -12.90691        -5.73919
|102>    H      -15.99529       -10.31892        -1.36555
|103>    H      -12.16958       -12.16089        -3.97950
|104>    H      -11.45765        -9.44024         1.63361
|105>    H       -9.51187        -9.27878         2.85354
|106>    H       -4.20447       -12.83540        -0.77507
|107>    H       -3.87615       -11.15719        -1.31300
|108>    H       -4.83232       -12.25699        -2.33510
|109>    H       -7.61056        -8.26941         5.69928
|110>    H       -8.64240        -9.45510         4.86939
|111>    H       -8.22689        -7.90215         4.07152
|112>    H       -3.02528       -11.69945         0.68306
|113>    H       -1.68098       -10.58622         5.02646
|114>    H        3.32219       -13.04781         2.69536
|115>    H        4.07976       -11.81895         9.85013
|116>    H        2.88280       -12.46572         8.70271
|117>    H        3.84109       -11.02061         8.27794
|118>    H        6.37904       -13.88675         1.10362
|119>    H        5.43593       -12.60598         1.90349
|120>    H        4.69749       -14.20658         1.57613
|121>    H        7.17580       -14.03069         8.61778
|122>    H        9.96414       -16.09836         6.85981
|123>    H       12.21240       -17.67376        11.33911
|124>    H       10.24025       -13.94972        14.95924
|125>    H       12.76720       -18.03651        13.74376
|126>    H        9.68763       -13.56432        12.61150
|127> *
|128>
|129>                          ****END OF INPUT****

CARTESIAN COORDINATES (ANGSTROEM)
---------------------------------
  C    -16.711880  -11.454340   -3.658020
  C    -16.940690  -12.066720   -4.858130
  F    -18.189040  -12.173610   -5.332650
  C    -15.871500  -12.592640   -5.610610
  F    -16.125420  -13.188040   -6.784140
  C    -14.587400  -12.499050   -5.151960
  C    -14.319320  -11.873740   -3.918950
  C    -15.399270  -11.341050   -3.157030
  C    -15.155070  -10.709300   -1.916110
  C    -13.869950  -10.614120   -1.449640
  C    -12.799510  -11.150320   -2.217650
  C    -13.002550  -11.763960   -3.419450
  C    -11.528440  -10.929380   -1.501990
  O    -10.422940  -11.248530   -1.890610
  C    -11.885200  -10.252280   -0.243180
  C    -13.320160  -10.034000   -0.226380
  C    -14.055900   -9.397160    0.740900
  C    -15.455750   -9.229710    0.685850
  N    -16.591370   -9.061870    0.706330
  C    -13.547720   -8.812190    1.919070
  N    -13.219750   -8.308720    2.898750
  C    -11.021300   -9.916010    0.763490
  C     -9.630420  -10.105050    0.885380
  C     -8.967560   -9.729170    2.044880
  C     -7.591030  -10.006130    2.044070
  C     -7.216240  -10.608780    0.809540
  S     -8.547300  -10.813870   -0.289420
  C     -5.933080  -11.028580    0.477350
  O     -5.838580  -11.556880   -0.768230
  C     -4.607940  -11.969620   -1.308160
  C     -4.934980  -10.868470    1.456790
  C     -5.313700  -10.265650    2.688380
  C     -6.581640   -9.815100    3.018440
  O     -6.671090   -9.263130    4.252780
  C     -7.866620   -8.696870    4.730330
  S     -3.988210  -10.159470    3.812170
  C     -2.927490  -10.929180    2.653950
  C     -3.563280  -11.224950    1.479780
  C     -1.564920  -11.227080    2.986390
  C     -1.050780  -11.025190    4.264240
  N      0.166140  -11.349440    4.669200
  C      1.042660  -11.894850    3.844060
  C      0.684630  -12.111990    2.484290
  C     -0.648450  -11.782510    2.055420
  N     -0.832990  -12.062320    0.764880
  S      0.527810  -12.668320    0.158510
  N      1.420150  -12.615370    1.495730
  C      2.308060  -12.279480    4.387690
  C      3.370330  -12.851580    3.747980
  C      4.455770  -13.168140    4.599640
  C      4.167380  -12.812550    5.961040
  S      2.578520  -12.071930    6.088550
  C      5.032400  -13.084050    7.008340
  O      4.899220  -12.807430    8.324980
  C      3.857930  -11.981720    8.796080
  C      6.231440  -13.759330    6.676240
  C      6.524370  -14.082420    5.335470
  C      5.679200  -13.788490    4.273870
  O      6.147420  -14.177820    3.061660
  C      5.616290  -13.682390    1.855350
  S      8.053130  -14.886230    5.188510
  C      8.315030  -14.764930    6.921940
  C      7.256280  -14.152570    7.553220
  C      9.473800  -15.352560    7.478560
  C     10.020740  -15.199180    8.717810
  C     10.953740  -16.247130    9.216040
  O     11.478830  -17.120170    8.565020
  C     11.046500  -16.023510   10.673620
  C     11.669580  -16.784150   11.619980
  C     11.591980  -16.392920   12.975630
  C     10.865030  -15.217540   13.323240
  C     10.783990  -14.838060   14.678110
  C     11.397000  -15.588570   15.641690
  C     12.116330  -16.750100   15.296660
  C     12.213170  -17.144750   13.991770
  F     12.705670  -17.468150   16.262880
  F     11.318300  -15.225800   16.929220
  C     10.237440  -14.444720   12.319170
  C     10.331460  -14.839710   11.011710
  C      9.817290  -14.240520    9.780920
  C      9.448830  -12.927000    9.644030
  C      9.205650  -12.304310    8.403360
  N      9.036440  -11.742670    7.416960
  C      9.348010  -12.024010   10.721350
  N      9.225850  -11.256820   11.566690
  H    -17.541900  -11.057150   -3.094810
  H    -13.779620  -12.906910   -5.739190
  H    -15.995290  -10.318920   -1.365550
  H    -12.169580  -12.160890   -3.979500
  H    -11.457650   -9.440240    1.633610
  H     -9.511870   -9.278780    2.853540
  H     -4.204470  -12.835400   -0.775070
  H     -3.876150  -11.157190   -1.313000
  H     -4.832320  -12.256990   -2.335100
  H     -7.610560   -8.269410    5.699280
  H     -8.642400   -9.455100    4.869390
  H     -8.226890   -7.902150    4.071520
  H     -3.025280  -11.699450    0.683060
  H     -1.680980  -10.586220    5.026460
  H      3.322190  -13.047810    2.695360
  H      4.079760  -11.818950    9.850130
  H      2.882800  -12.465720    8.702710
  H      3.841090  -11.020610    8.277940
  H      6.379040  -13.886750    1.103620
  H      5.435930  -12.605980    1.903490
  H      4.697490  -14.206580    1.576130
  H      7.175800  -14.030690    8.617780
  H      9.964140  -16.098360    6.859810
  H     12.212400  -17.673760   11.339110
  H     10.240250  -13.949720   14.959240
  H     12.767200  -18.036510   13.743760
  H      9.687630  -13.564320   12.611500

 Total Charge           Charge          ....    0
 Multiplicity           Mult            ....    1
 Number of Electrons    NEL             ....  618
 Basis Dimension        Dim             .... 1345

ORBITAL ENERGIES
----------------

  NO   OCC          E(Eh)            E(eV)
   0   2.0000     -89.048118     -2423.1225
   1   2.0000     -88.952309     -2420.5154
   2   2.0000     -88.951424     -2420.4913
   3   2.0000     -88.951104     -2420.4826
   4   2.0000     -88.948156     -2420.4024
   5   2.0000     -24.798902      -674.8124
   6   2.0000     -24.797734      -674.7806
   7   2.0000     -24.796310      -674.7419
   8   2.0000     -24.795740      -674.7264
   9   2.0000     -19.259266      -524.0713
  10   2.0000     -19.254599      -523.9443
  11   2.0000     -19.254358      -523.9377
  12   2.0000     -19.252345      -523.8830
  13   2.0000     -19.220472      -523.0156
  14   2.0000     -19.212663      -522.8031
  15   2.0000     -14.465760      -393.6334
  16   2.0000     -14.460118      -393.4798
  17   2.0000     -14.425544      -392.5390
  18   2.0000     -14.419953      -392.3869
  19   2.0000     -14.415619      -392.2689
  20   2.0000     -14.414810      -392.2469
  21   2.0000     -14.412030      -392.1713
  22   2.0000     -10.382063      -282.5103
  23   2.0000     -10.381113      -282.4844
  24   2.0000     -10.379292      -282.4349
  25   2.0000     -10.378833      -282.4224
  26   2.0000     -10.370044      -282.1833
  27   2.0000     -10.364057      -282.0203
  28   2.0000     -10.347913      -281.5810
  29   2.0000     -10.346616      -281.5457
  30   2.0000     -10.346008      -281.5292
  31   2.0000     -10.345500      -281.5154
  32   2.0000     -10.344067      -281.4764
  33   2.0000     -10.343934      -281.4728
  34   2.0000     -10.343666      -281.4654
  35   2.0000     -10.342723      -281.4398
  36   2.0000     -10.341223      -281.3990
  37   2.0000     -10.341188      -281.3980
  38   2.0000     -10.340148      -281.3697
  39   2.0000     -10.333248      -281.1820
  40   2.0000     -10.330386      -281.1041
  41   2.0000     -10.328717      -281.0587
  42   2.0000     -10.325285      -280.9653
  43   2.0000     -10.324393      -280.9410
  44   2.0000     -10.323527      -280.9174
  45   2.0000     -10.323181      -280.9080
  46   2.0000     -10.318970      -280.7935
  47   2.0000     -10.318482      -280.7802
  48   2.0000     -10.317659      -280.7578
  49   2.0000     -10.313740      -280.6511
  50   2.0000     -10.312682      -280.6223
  51   2.0000     -10.312214      -280.6096
  52   2.0000     -10.311116      -280.5797
  53   2.0000     -10.310944      -280.5751
  54   2.0000     -10.310609      -280.5659
  55   2.0000     -10.310140      -280.5532
  56   2.0000     -10.308483      -280.5081
  57   2.0000     -10.308299      -280.5031
  58   2.0000     -10.308082      -280.4972
  59   2.0000     -10.308007      -280.4951
  60   2.0000     -10.307738      -280.4878
  61   2.0000     -10.305690      -280.4321
  62   2.0000     -10.302741      -280.3518
  63   2.0000     -10.302591      -280.3478
  64   2.0000     -10.301902      -280.3290
  65   2.0000     -10.301610      -280.3211
  66   2.0000     -10.300809      -280.2993
  67   2.0000     -10.300522      -280.2914
  68   2.0000     -10.300494      -280.2907
  69   2.0000     -10.300364      -280.2872
  70   2.0000     -10.299984      -280.2768
  71   2.0000     -10.299376      -280.2603
  72   2.0000     -10.299215      -280.2559
  73   2.0000     -10.298428      -280.2345
  74   2.0000     -10.297528      -280.2100
  75   2.0000     -10.296470      -280.1812
  76   2.0000     -10.296119      -280.1716
  77   2.0000     -10.295621      -280.1581
  78   2.0000     -10.295351      -280.1508
  79   2.0000     -10.293233      -280.0931
  80   2.0000     -10.291484      -280.0455
  81   2.0000     -10.291202      -280.0378
  82   2.0000     -10.286169      -279.9009
  83   2.0000     -10.285540      -279.8838
  84   2.0000     -10.279489      -279.7191
  85   2.0000      -8.139768      -221.4943
  86   2.0000      -8.047597      -218.9862
  87   2.0000      -8.046177      -218.9476
  88   2.0000      -8.046152      -218.9469
  89   2.0000      -8.041711      -218.8261
  90   2.0000      -6.111050      -166.2901
  91   2.0000      -6.103093      -166.0736
  92   2.0000      -6.102241      -166.0504
  93   2.0000      -6.017210      -163.7366
  94   2.0000      -6.016083      -163.7059
  95   2.0000      -6.015901      -163.7010
  96   2.0000      -6.013171      -163.6267
  97   2.0000      -6.011774      -163.5887
  98   2.0000      -6.011682      -163.5862
  99   2.0000      -6.011437      -163.5795
 100   2.0000      -6.008906      -163.5107
 101   2.0000      -6.007418      -163.4701
 102   2.0000      -6.007183      -163.4637
 103   2.0000      -6.007046      -163.4600
 104   2.0000      -6.003033      -163.3508
 105   2.0000      -1.321108       -35.9492
 106   2.0000      -1.318812       -35.8867
 107   2.0000      -1.306236       -35.5445
 108   2.0000      -1.303985       -35.4832
 109   2.0000      -1.163320       -31.6555
 110   2.0000      -1.159374       -31.5482
 111   2.0000      -1.157719       -31.5031
 112   2.0000      -1.156991       -31.4833
 113   2.0000      -1.147622       -31.2284
 114   2.0000      -1.136687       -30.9308
 115   2.0000      -1.128307       -30.7028
 116   2.0000      -1.061901       -28.8958
 117   2.0000      -1.021498       -27.7964
 118   2.0000      -1.017924       -27.6991
 119   2.0000      -1.006397       -27.3855
 120   2.0000      -1.005801       -27.3692
 121   2.0000      -1.001876       -27.2624
 122   2.0000      -1.000199       -27.2168
 123   2.0000      -0.998532       -27.1714
 124   2.0000      -0.996121       -27.1058
 125   2.0000      -0.991521       -26.9807
 126   2.0000      -0.984348       -26.7855
 127   2.0000      -0.981691       -26.7132
 128   2.0000      -0.979810       -26.6620
 129   2.0000      -0.977340       -26.5948
 130   2.0000      -0.936060       -25.4715
 131   2.0000      -0.931746       -25.3541
 132   2.0000      -0.928042       -25.2533
 133   2.0000      -0.918974       -25.0066
 134   2.0000      -0.912197       -24.8222
 135   2.0000      -0.901169       -24.5221
 136   2.0000      -0.898098       -24.4385
 137   2.0000      -0.892679       -24.2910
 138   2.0000      -0.890423       -24.2297
 139   2.0000      -0.886026       -24.1100
 140   2.0000      -0.881740       -23.9934
 141   2.0000      -0.880679       -23.9645
 142   2.0000      -0.871991       -23.7281
 143   2.0000      -0.864064       -23.5124
 144   2.0000      -0.848109       -23.0782
 145   2.0000      -0.843100       -22.9419
 146   2.0000      -0.841049       -22.8861
 147   2.0000      -0.838432       -22.8149
 148   2.0000      -0.834180       -22.6992
 149   2.0000      -0.821586       -22.3565
 150   2.0000      -0.816289       -22.2123
 151   2.0000      -0.813524       -22.1371
 152   2.0000      -0.811394       -22.0792
 153   2.0000      -0.804841       -21.9008
 154   2.0000      -0.792699       -21.5704
 155   2.0000      -0.781469       -21.2649
 156   2.0000      -0.773391       -21.0450
 157   2.0000      -0.769070       -20.9275
 158   2.0000      -0.763256       -20.7693
 159   2.0000      -0.754345       -20.5268
 160   2.0000      -0.749006       -20.3815
 161   2.0000      -0.745435       -20.2843
 162   2.0000      -0.740203       -20.1420
 163   2.0000      -0.731820       -19.9138
 164   2.0000      -0.728553       -19.8249
 165   2.0000      -0.719622       -19.5819
 166   2.0000      -0.715828       -19.4787
 167   2.0000      -0.712414       -19.3858
 168   2.0000      -0.704027       -19.1575
 169   2.0000      -0.690413       -18.7871
 170   2.0000      -0.685698       -18.6588
 171   2.0000      -0.681754       -18.5515
 172   2.0000      -0.679971       -18.5030
 173   2.0000      -0.674371       -18.3506
 174   2.0000      -0.673182       -18.3182
 175   2.0000      -0.668454       -18.1896
 176   2.0000      -0.662634       -18.0312
 177   2.0000      -0.658622       -17.9220
 178   2.0000      -0.654412       -17.8075
 179   2.0000      -0.650847       -17.7105
 180   2.0000      -0.644980       -17.5508
 181   2.0000      -0.643042       -17.4981
 182   2.0000      -0.639817       -17.4103
 183   2.0000      -0.639148       -17.3921
 184   2.0000      -0.634039       -17.2531
 185   2.0000      -0.628728       -17.1085
 186   2.0000      -0.619545       -16.8587
 187   2.0000      -0.616924       -16.7874
 188   2.0000      -0.614632       -16.7250
 189   2.0000      -0.613251       -16.6874
 190   2.0000      -0.610978       -16.6256
 191   2.0000      -0.605666       -16.4810
 192   2.0000      -0.603057       -16.4100
 193   2.0000      -0.594898       -16.1880
 194   2.0000      -0.592654       -16.1269
 195   2.0000      -0.590060       -16.0563
 196   2.0000      -0.585748       -15.9390
 197   2.0000      -0.584853       -15.9147
 198   2.0000      -0.583420       -15.8757
 199   2.0000      -0.581177       -15.8146
 200   2.0000      -0.577832       -15.7236
 201   2.0000      -0.573317       -15.6008
 202   2.0000      -0.568808       -15.4780
 203   2.0000      -0.566044       -15.4028
 204   2.0000      -0.564294       -15.3552
 205   2.0000      -0.563400       -15.3309
 206   2.0000      -0.560363       -15.2483
 207   2.0000      -0.558899       -15.2084
 208   2.0000      -0.555885       -15.1264
 209   2.0000      -0.554735       -15.0951
 210   2.0000      -0.551800       -15.0152
 211   2.0000      -0.550004       -14.9664
 212   2.0000      -0.547383       -14.8951
 213   2.0000      -0.545103       -14.8330
 214   2.0000      -0.543753       -14.7963
 215   2.0000      -0.541294       -14.7294
 216   2.0000      -0.541143       -14.7253
 217   2.0000      -0.537995       -14.6396
 218   2.0000      -0.535996       -14.5852
 219   2.0000      -0.534206       -14.5365
 220   2.0000      -0.534082       -14.5331
 221   2.0000      -0.532381       -14.4868
 222   2.0000      -0.530715       -14.4415
 223   2.0000      -0.528290       -14.3755
 224   2.0000      -0.524768       -14.2797
 225   2.0000      -0.522555       -14.2194
 226   2.0000      -0.516116       -14.0442
 227   2.0000      -0.515158       -14.0182
 228   2.0000      -0.514457       -13.9991
 229   2.0000      -0.511455       -13.9174
 230   2.0000      -0.509913       -13.8754
 231   2.0000      -0.508335       -13.8325
 232   2.0000      -0.506201       -13.7744
 233   2.0000      -0.502758       -13.6807
 234   2.0000      -0.501476       -13.6458
 235   2.0000      -0.500957       -13.6317
 236   2.0000      -0.499339       -13.5877
 237   2.0000      -0.495966       -13.4959
 238   2.0000      -0.494574       -13.4581
 239   2.0000      -0.490551       -13.3486
 240   2.0000      -0.489690       -13.3252
 241   2.0000      -0.488182       -13.2841
 242   2.0000      -0.483284       -13.1508
 243   2.0000      -0.482518       -13.1300
 244   2.0000      -0.479678       -13.0527
 245   2.0000      -0.478096       -13.0096
 246   2.0000      -0.474792       -12.9197
 247   2.0000      -0.472134       -12.8474
 248   2.0000      -0.469734       -12.7821
 249   2.0000      -0.466698       -12.6995
 250   2.0000      -0.466000       -12.6805
 251   2.0000      -0.464794       -12.6477
 252   2.0000      -0.461544       -12.5593
 253   2.0000      -0.460565       -12.5326
 254   2.0000      -0.457617       -12.4524
 255   2.0000      -0.452262       -12.3067
 256   2.0000      -0.451346       -12.2818
 257   2.0000      -0.447783       -12.1848
 258   2.0000      -0.447602       -12.1799
 259   2.0000      -0.445207       -12.1147
 260   2.0000      -0.443910       -12.0794
 261   2.0000      -0.443504       -12.0684
 262   2.0000      -0.443192       -12.0599
 263   2.0000      -0.440364       -11.9829
 264   2.0000      -0.437810       -11.9134
 265   2.0000      -0.434128       -11.8132
 266   2.0000      -0.432782       -11.7766
 267   2.0000      -0.430707       -11.7201
 268   2.0000      -0.430274       -11.7084
 269   2.0000      -0.428573       -11.6621
 270   2.0000      -0.426975       -11.6186
 271   2.0000      -0.425055       -11.5663
 272   2.0000      -0.424304       -11.5459
 273   2.0000      -0.420866       -11.4523
 274   2.0000      -0.418468       -11.3871
 275   2.0000      -0.418110       -11.3774
 276   2.0000      -0.417739       -11.3673
 277   2.0000      -0.409763       -11.1502
 278   2.0000      -0.408758       -11.1229
 279   2.0000      -0.406490       -11.0612
 280   2.0000      -0.403927       -10.9914
 281   2.0000      -0.402209       -10.9447
 282   2.0000      -0.400586       -10.9005
 283   2.0000      -0.396199       -10.7811
 284   2.0000      -0.393400       -10.7050
 285   2.0000      -0.388495       -10.5715
 286   2.0000      -0.386840       -10.5264
 287   2.0000      -0.382136       -10.3985
 288   2.0000      -0.376432       -10.2432
 289   2.0000      -0.368442       -10.0258
 290   2.0000      -0.364301        -9.9131
 291   2.0000      -0.356777        -9.7084
 292   2.0000      -0.350260        -9.5311
 293   2.0000      -0.344434        -9.3725
 294   2.0000      -0.342536        -9.3209
 295   2.0000      -0.340098        -9.2545
 296   2.0000      -0.334880        -9.1125
 297   2.0000      -0.333839        -9.0842
 298   2.0000      -0.331272        -9.0144
 299   2.0000      -0.322729        -8.7819
 300   2.0000      -0.318321        -8.6619
 301   2.0000      -0.315011        -8.5719
 302   2.0000      -0.306146        -8.3307
 303   2.0000      -0.301015        -8.1910
 304   2.0000      -0.295956        -8.0534
 305   2.0000      -0.285508        -7.7691
 306   2.0000      -0.271695        -7.3932
 307   2.0000      -0.241088        -6.5604
 308   2.0000      -0.234505        -6.3812
 309   0.0000      -0.105275        -2.8647
 310   0.0000      -0.094452        -2.5702
 311   0.0000      -0.084752        -2.3062
 312   0.0000      -0.060671        -1.6510
 313   0.0000      -0.055280        -1.5042

MULLIKEN ATOMIC CHARGES
-----------------------
   0 C :   -0.109913
   1 C :    0.244077
   2 F :   -0.171948
   3 C :    0.239167
   4 F :   -0.171879
   5 C :   -0.105078
   6 C :    0.116728
   7 C :    0.113688
   8 C :   -0.082862
   9 C :    0.042581
  10 C :   -0.000936
  11 C :   -0.082537
  12 C :    0.163443
  13 O :   -0.157661
  14 C :   -0.085849
  15 C :    0.337823
  16 C :   -0.360103
  17 C :   -0.182886
  18 N :    0.144050
  19 C :   -0.183552
  20 N :    0.138637
  21 C :   -0.040103
  22 C :   -0.006077
  23 C :   -0.111561
  24 C :    0.092277
  25 C :   -0.133639
  26 S :    0.199564
  27 C :    0.131003
  28 O :   -0.306184
  29 C :    0.186446
  30 C :    0.085493
  31 C :   -0.136792
  32 C :    0.152300
  33 O :   -0.304318
  34 C :    0.178601
  35 S :    0.127412
  36 C :   -0.046453
  37 C :   -0.126672
  38 C :    0.076054
  39 C :   -0.053767
  40 N :   -0.045020
  41 C :    0.027141
  42 C :    0.006299
  43 C :    0.058816
  44 N :   -0.292085
  45 S :    0.528830
  46 N :   -0.268138
  47 C :   -0.058378
  48 C :   -0.099174
  49 C :    0.064671
  50 C :   -0.122470
  51 S :    0.122156
  52 C :    0.120365
  53 O :   -0.308010
  54 C :    0.169164
  55 C :    0.044492
  56 C :   -0.089524
  57 C :    0.117840
  58 O :   -0.312327
  59 C :    0.185887
  60 S :    0.158398
  61 C :   -0.077924
  62 C :   -0.008577
  63 C :    0.089084
  64 C :   -0.134501
  65 C :    0.135041
  66 O :   -0.142705
  67 C :    0.017009
  68 C :   -0.083282
  69 C :    0.111498
  70 C :    0.112274
  71 C :   -0.107031
  72 C :    0.240450
  73 C :    0.238239
  74 C :   -0.103030
  75 F :   -0.172717
  76 F :   -0.172830
  77 C :   -0.084107
  78 C :    0.035722
  79 C :    0.271530
  80 C :   -0.331955
  81 C :   -0.207553
  82 N :    0.180302
  83 C :   -0.176165
  84 N :    0.149906
  85 H :    0.007672
  86 H :   -0.001432
  87 H :   -0.007788
  88 H :   -0.010861
  89 H :    0.004385
  90 H :   -0.011327
  91 H :    0.032015
  92 H :    0.032600
  93 H :    0.036660
  94 H :    0.041755
  95 H :    0.035857
  96 H :    0.035919
  97 H :   -0.025368
  98 H :    0.016697
  99 H :   -0.027209
 100 H :    0.042359
 101 H :    0.040405
 102 H :    0.040224
 103 H :    0.038216
 104 H :    0.032899
 105 H :    0.035733
 106 H :    0.001158
 107 H :    0.024300
 108 H :   -0.009688
 109 H :    0.005780
 110 H :   -0.001695
 111 H :   -0.005454
Sum of atomic charges:   -0.0000000

LOEWDIN ATOMIC CHARGES
----------------------
   0 C :   -0.028854
   1 C :    0.066410
   2 F :   -0.049439
   3 C :    0.067573
   4 F :   -0.049784
   5 C :   -0.033511
   6 C :   -0.008658
   7 C :   -0.006976
   8 C :    0.017969
   9 C :   -0.023045
  10 C :   -0.051227
  11 C :    0.029427
  12 C :    0.082524
  13 O :   -0.151492
  14 C :   -0.107947
  15 C :    0.078426
  16 C :   -0.144674
  17 C :   -0.017242
  18 N :   -0.056277
  19 C :   -0.019791
  20 N :   -0.058614
  21 C :    0.062643
  22 C :   -0.177541
  23 C :   -0.011418
  24 C :   -0.081151
  25 C :   -0.173207
  26 S :    0.476686
  27 C :    0.020755
  28 O :   -0.102844
  29 C :    0.079759
  30 C :   -0.064175
  31 C :   -0.174326
  32 C :    0.031050
  33 O :   -0.100399
  34 C :    0.080599
  35 S :    0.412742
  36 C :   -0.149996
  37 C :   -0.053053
  38 C :   -0.064565
  39 C :    0.016753
  40 N :   -0.072373
  41 C :    0.002011
  42 C :   -0.056836
  43 C :   -0.026843
  44 N :   -0.283287
  45 S :    0.655586
  46 N :   -0.270763
  47 C :   -0.171529
  48 C :   -0.035663
  49 C :   -0.066150
  50 C :   -0.184627
  51 S :    0.428600
  52 C :    0.035563
  53 O :   -0.097757
  54 C :    0.068186
  55 C :   -0.058992
  56 C :   -0.163409
  57 C :    0.026251
  58 O :   -0.104914
  59 C :    0.080927
  60 S :    0.431669
  61 C :   -0.174583
  62 C :    0.008982
  63 C :    0.056802
  64 C :   -0.094651
  65 C :    0.082673
  66 O :   -0.143093
  67 C :   -0.053164
  68 C :    0.029535
  69 C :   -0.009876
  70 C :   -0.006106
  71 C :   -0.030714
  72 C :    0.066389
  73 C :    0.066328
  74 C :   -0.033029
  75 F :   -0.050514
  76 F :   -0.050100
  77 C :    0.012244
  78 C :   -0.019321
  79 C :    0.065146
  80 C :   -0.139121
  81 C :   -0.019248
  82 N :   -0.036726
  83 C :   -0.018798
  84 N :   -0.055673
  85 H :    0.047814
  86 H :    0.044573
  87 H :    0.039797
  88 H :    0.040131
  89 H :    0.048680
  90 H :    0.032291
  91 H :    0.017414
  92 H :    0.018879
  93 H :    0.030881
  94 H :    0.033347
  95 H :    0.018542
  96 H :    0.019495
  97 H :    0.023572
  98 H :    0.022052
  99 H :    0.026429
 100 H :    0.032347
 101 H :    0.012951
 102 H :    0.017195
 103 H :    0.030666
 104 H :    0.020684
 105 H :    0.017111
 106 H :    0.035664
 107 H :    0.046468
 108 H :    0.040356
 109 H :    0.046965
 110 H :    0.044506
 111 H :    0.039046

  Mayer bond orders larger than 0.100000
B(  0-C ,  1-C ) :   1.4392 B(  0-C ,  5-C ) :   0.1091 B(  0-C ,  7-C ) :   1.1882
B(  0-C , 85-H ) :   1.0074 B(  1-C ,  2-F ) :   1.1333 B(  1-C ,  3-C ) :   1.1915
B(  3-C ,  4-F ) :   1.1335 B(  3-C ,  5-C ) :   1.4423 B(  5-C ,  6-C ) :   1.1907
B(  5-C , 86-H ) :   1.0075 B(  6-C ,  7-C ) :   1.2581 B(  6-C , 11-C ) :   1.1857
B(  7-C ,  8-C ) :   1.2152 B(  8-C ,  9-C ) :   1.4494 B(  8-C , 87-H ) :   0.9895
B(  9-C , 10-C ) :   1.2235 B(  9-C , 15-C ) :   0.9796 B( 10-C , 11-C ) :   1.4694
B( 10-C , 12-C ) :   0.9489 B( 11-C , 88-H ) :   1.0171 B( 12-C , 13-O ) :   2.1809
B( 12-C , 14-C ) :   0.9537 B( 14-C , 15-C ) :   1.0841 B( 14-C , 21-C ) :   1.5076
B( 15-C , 16-C ) :   1.6163 B( 16-C , 17-C ) :   1.1490 B( 16-C , 19-C ) :   1.1459
B( 17-C , 18-N ) :   2.9585 B( 19-C , 20-N ) :   2.9560 B( 21-C , 22-C ) :   1.2264
B( 21-C , 89-H ) :   0.9417 B( 22-C , 23-C ) :   1.4261 B( 22-C , 26-S ) :   1.0587
B( 23-C , 24-C ) :   1.1891 B( 23-C , 90-H ) :   1.0093 B( 24-C , 25-C ) :   1.2920
B( 24-C , 32-C ) :   1.1676 B( 25-C , 26-S ) :   1.0148 B( 25-C , 27-C ) :   1.4059
B( 27-C , 28-O ) :   1.2633 B( 27-C , 30-C ) :   1.2120 B( 28-O , 29-C ) :   0.9507
B( 29-C , 91-H ) :   0.9686 B( 29-C , 92-H ) :   0.9684 B( 29-C , 93-H ) :   0.9726
B( 30-C , 31-C ) :   1.3107 B( 30-C , 37-C ) :   1.1257 B( 31-C , 32-C ) :   1.4355
B( 31-C , 35-S ) :   1.0311 B( 32-C , 33-O ) :   1.2717 B( 33-O , 34-C ) :   0.9464
B( 34-C , 94-H ) :   0.9740 B( 34-C , 95-H ) :   0.9688 B( 34-C , 96-H ) :   0.9681
B( 35-S , 36-C ) :   1.0611 B( 36-C , 37-C ) :   1.5964 B( 36-C , 38-C ) :   1.1028
B( 37-C , 97-H ) :   0.9812 B( 38-C , 39-C ) :   1.4257 B( 38-C , 41-C ) :   0.1129
B( 38-C , 43-C ) :   1.2031 B( 39-C , 40-N ) :   1.4416 B( 39-C , 98-H ) :   0.9744
B( 40-N , 41-C ) :   1.6834 B( 41-C , 42-C ) :   1.1607 B( 41-C , 47-C ) :   1.1164
B( 42-C , 43-C ) :   1.1876 B( 42-C , 46-N ) :   1.5403 B( 43-C , 44-N ) :   1.5089
B( 44-N , 45-S ) :   1.2596 B( 44-N , 46-N ) :   0.1479 B( 45-S , 46-N ) :   1.2713
B( 47-C , 48-C ) :   1.5912 B( 47-C , 51-S ) :   1.0569 B( 48-C , 49-C ) :   1.1399
B( 48-C , 99-H ) :   0.9769 B( 49-C , 50-C ) :   1.2646 B( 49-C , 57-C ) :   1.2296
B( 50-C , 51-S ) :   0.9914 B( 50-C , 52-C ) :   1.3988 B( 52-C , 53-O ) :   1.2381
B( 52-C , 55-C ) :   1.2578 B( 53-O , 54-C ) :   0.9362 B( 54-C ,100-H ) :   0.9759
B( 54-C ,101-H ) :   0.9669 B( 54-C ,102-H ) :   0.9687 B( 55-C , 56-C ) :   1.3592
B( 55-C , 62-C ) :   1.2442 B( 56-C , 57-C ) :   1.3911 B( 56-C , 60-S ) :   1.0548
B( 57-C , 58-O ) :   1.2633 B( 58-O , 59-C ) :   0.9445 B( 59-C ,103-H ) :   0.9731
B( 59-C ,104-H ) :   0.9680 B( 59-C ,105-H ) :   0.9685 B( 60-S , 61-C ) :   1.0587
B( 61-C , 62-C ) :   1.4659 B( 61-C , 63-C ) :   1.1342 B( 62-C ,106-H ) :   0.9946
B( 63-C , 64-C ) :   1.6567 B( 63-C ,107-H ) :   0.9289 B( 64-C , 65-C ) :   0.9457
B( 64-C , 79-C ) :   1.0431 B( 65-C , 66-O ) :   2.2686 B( 65-C , 67-C ) :   0.9157
B( 67-C , 68-C ) :   1.4757 B( 67-C , 78-C ) :   1.2211 B( 68-C , 69-C ) :   1.1938
B( 68-C ,108-H ) :   1.0159 B( 69-C , 70-C ) :   1.2568 B( 69-C , 74-C ) :   1.1927
B( 70-C , 71-C ) :   1.1908 B( 70-C , 77-C ) :   1.2128 B( 71-C , 72-C ) :   1.4409
B( 71-C , 74-C ) :   0.1088 B( 71-C ,109-H ) :   1.0066 B( 72-C , 73-C ) :   1.1927
B( 72-C , 76-F ) :   1.1321 B( 73-C , 74-C ) :   1.4440 B( 73-C , 75-F ) :   1.1324
B( 74-C ,110-H ) :   1.0069 B( 77-C , 78-C ) :   1.4602 B( 77-C ,111-H ) :   0.9932
B( 78-C , 79-C ) :   0.9952 B( 79-C , 80-C ) :   1.6470 B( 80-C , 81-C ) :   1.1644
B( 80-C , 83-C ) :   1.1329 B( 81-C , 82-N ) :   3.0052 B( 83-C , 84-N ) :   2.9834

-----------------------------------------------------------------------------
         ABSORPTION SPECTRUM VIA TRANSITION ELECTRIC DIPOLE MOMENTS
-----------------------------------------------------------------------------
State   Energy  Wavelength   fosc         T2         TX        TY        TZ
        (cm-1)    (nm)                  (au**2)     (au)      (au)      (au)
-----------------------------------------------------------------------------
   0   13325.5    750.4   1.084094291  26.78299   4.65632  -0.89050   2.07575
   1   14743.6    678.3   0.077400150   1.72828   1.03404   0.34215   0.73619
   2   16825.9    594.3   0.011243051   0.21998   0.10103   0.24747   0.38540
   3   17277.0    578.8   0.001373505   0.02617  -0.11434  -0.07999   0.08185
   4   20795.5    480.9   1.461881830  23.14297  -4.31978   0.66181  -2.01109
   5   23008.8    434.6   0.140989474   2.01729   1.08320  -0.20464  -0.89560
   6   23737.2    421.3   0.116033760   1.60928  -0.20229  -0.32413  -1.20967
   7   23964.5    417.3   0.007382053   0.10141  -0.07805   0.14038   0.27498
   8   24892.5    401.7   0.192714127   2.54871   1.56117  -0.23136   0.24070
   9   25111.9    398.2   0.036948831   0.48439  -0.26355   0.63622   0.10079
  10   25646.7    389.9   0.157352518   2.01984  -1.20710  -0.05083  -0.74845
  11   27823.8    359.4   0.006170191   0.07301   0.06745   0.26020   0.02747
  12   27959.0    357.7   0.222300126   2.61754  -0.99598   0.20170  -1.25892
  13   28045.0    356.6   0.091322215   1.07200  -0.43286   0.51627  -0.78619
  14   28158.9    355.1   0.045293097   0.52953   0.28556   0.66317   0.09053
  15   29081.1    343.9   0.005663579   0.06411  -0.08463  -0.22441  -0.08118
  16   29271.2    341.6   0.042982342   0.48342  -0.63660   0.16343  -0.22684
  17   29735.5    336.3   0.014258221   0.15786  -0.18168  -0.11272  -0.33488
  18   29872.4    334.8   0.390594778   4.30459   1.93980  -0.31227   0.66651
  19   30203.3    331.1   0.015906983   0.17338   0.15225  -0.07004   0.38118
  20   30231.6    330.8   0.003553005   0.03869  -0.13109   0.08421  -0.12007
  21   30505.8    327.8   0.032537236   0.35113  -0.03095   0.14972  -0.57250
  22   30862.8    324.0   0.077378157   0.82539   0.42197  -0.70983  -0.37877
  23   31343.9    319.0   0.272871581   2.86603   0.67994   0.21468   1.53545
  24   32023.4    312.3   0.144714464   1.48772  -0.64831  -0.64284  -0.80881
  25   32551.8    307.2   0.070512020   0.71312   0.21889  -0.63283  -0.51452
  26   32730.1    305.5   0.000643055   0.00647  -0.07636   0.00242  -0.02514
  27   32911.9    303.8   0.153537385   1.53581   0.52600   0.53121   0.98841
  28   32936.0    303.6   0.237019971   2.36913   0.99621  -0.56777   1.02681
  29   33407.0    299.3   0.073445662   0.72378  -0.37722   0.21743  -0.73089
  30   33899.9    295.0   0.373959017   3.63162  -0.71601   1.12264  -1.36332
  31   34077.7    293.4   0.063615263   0.61456   0.72048  -0.28386   0.12201
  32   34295.5    291.6   0.253807901   2.43637   0.57221   0.05115   1.45132
  33   34360.9    291.0   0.245710960   2.35416  -0.01760  -1.20526  -0.94931
  34   34889.5    286.6   0.058445139   0.55148  -0.28565  -0.18451  -0.66018
  35   34946.3    286.2   0.350729599   3.30405   0.57177  -0.10764   1.72208
  36   35083.1    285.0   0.145544323   1.36576   0.39228  -0.88336   0.65693
  37   35157.6    284.4   0.057227623   0.53587   0.06044  -0.54519   0.48475
  38   35518.9    281.5   0.009600237   0.08898  -0.06194   0.10078   0.27384
  39   36043.3    277.4   0.013266088   0.12117   0.03806   0.06483   0.33988
  40   36484.0    274.1   0.024425161   0.22040  -0.04651   0.01621   0.46688
  41   36629.2    273.0   0.012569770   0.11297  -0.30752  -0.00755   0.13546
  42   37093.1    269.6   0.026899053   0.23874   0.35370  -0.32390   0.09340
  43   37370.7    267.6   0.006683791   0.05888  -0.20819   0.11591  -0.04585
  44   37538.0    266.4   0.009212971   0.08080  -0.25896   0.01926  -0.11561
  45   38108.5    262.4   0.156955904   1.35591   1.09327  -0.37925   0.12981
  46   38332.8    260.9   0.065279060   0.56063   0.53440  -0.33089   0.40689
  47   38370.3    260.6   0.103136187   0.88489   0.06051  -0.12126  -0.93088
  48   38810.8    257.7   0.067853431   0.57557   0.37542   0.61605   0.23475
  49   38838.0    257.5   0.032165348   0.27265  -0.50353   0.13755   0.01371
  50   39132.4    255.5   0.240667249   2.02468   1.29318  -0.58047  -0.12414
  51   39285.2    254.5   0.125919238   1.05521  -0.95554   0.33124   0.18007
  52   39747.4    251.6   0.184869215   1.53120  -0.96475   0.19263  -0.75057
  53   39913.1    250.5   0.073372093   0.60519   0.63093  -0.37813  -0.25325
  54   40179.6    248.9   0.013217596   0.10830   0.31400   0.08175   0.05492

FINAL SINGLE POINT ENERGY     -5636.710237200487

DIPOLE MOMENT
-------------
                                X             Y             Z
Electronic contribution:     -4.39064     -12.72311       3.75273
Nuclear contribution   :      4.65393      11.35911      -5.65986
                        -----------------------------------------
Total Dipole Moment    :      0.26329      -1.36400      -1.90713
                        -----------------------------------------
Magnitude (a.u.)       :      2.35944
Magnitude (Debye)      :      5.99721

Rotational constants in cm-1:     0.001819     0.000113     0.000110
Rotational constants in MHz :    54.543809     3.391533     3.283434

                             ****ORCA TERMINATED NORMALLY****
TOTAL RUN TIME: 0 days 0 hours 25 minutes 28 seconds 42 msec
