                         Program Version 4.2.0 -  RELEASE  -
|  1> # ORCA input file
|  2> # SCF done       -182.220916062368          0.000601062184
|  3> ! CAM-B3LYP def2-SVP def2/J RIJCOSX Grid4 TightSCF
|  4> %maxcore 5000
|  5> %tddft
|  6>     Mode sTDDFT
|  7>     Ethresh 5.0
|  8>     maxcore 5000
|  9> end
| 10>
| 11> %pal
| 12>   nprocs 6
| 13>   end
| 14> * xyz 0 1
| 15>    C        0.90806         2.05664         1.19741
| 16>    C        1.97988         2.40187         0.42341
| 17>    F        2.54327         3.61028         0.55289
| 18>    C        2.50621         1.49487        -0.51804
| 19>    F        3.55831         1.86024        -1.26283
| 20>    C        1.95332         0.25455        -0.67237
| 21>    C        0.84839        -0.13122         0.11100
| 22>    C        0.31456         0.78526         1.06256
| 23>    C       -0.79496         0.42169         1.85909
| 24>    C       -1.35154        -0.82153         1.71024
| 25>    C       -0.80674        -1.73207         0.76500
| 26>    C        0.26039        -1.40857        -0.02225
| 27>    C       -1.55903        -3.00196         0.80957
| 28>    O       -1.36211        -3.96125         0.09297
| 29>    C       -2.55216        -2.84041         1.89610
| 30>    C       -2.47924        -1.46812         2.37413
| 31>    C       -3.34100        -0.84491         3.23840
| 32>    C       -4.49584        -1.41343         3.81773
| 33>    N       -5.46197        -1.78284         4.31681
| 34>    C       -3.21172         0.50089         3.64448
| 35>    N       -3.16144         1.58530         4.01766
| 36>    C       -3.33749        -3.79694         2.48256
| 37>    C       -3.55041        -5.15431         2.17624
| 38>    C       -3.16395        -5.95294         1.10959
| 39>    C       -3.63182        -7.25261         1.24559
| 40>    C       -4.38355        -7.48374         2.41132
| 41>    S       -4.52526        -6.05283         3.34970
| 42>    C       -4.83645        -8.79567         2.54757
| 43>    C       -4.44795        -9.58991         1.49153
| 44>    S       -3.50803        -8.69380         0.30207
| 45>    C       -4.71804       -10.98489         1.27021
| 46>    C       -4.49261       -11.55773         0.02710
| 47>    C       -4.74767       -12.89551        -0.22975
| 48>    C       -5.23543       -13.75994         0.73995
| 49>    C       -5.47208       -13.21654         2.04105
| 50>    N       -5.95409       -14.00274         3.02037
| 51>    C       -6.16011       -13.48652         4.20165
| 52>    C       -5.87490       -12.13791         4.46886
| 53>    N       -5.41829       -11.34388         3.53859
| 54>    C       -5.21464       -11.83783         2.30393
| 55>    C       -5.49568       -15.13770         0.42242
| 56>    C       -5.79729       -16.17872         1.27163
| 57>    C       -5.98696       -17.37831         0.58559
| 58>    C       -5.84185       -17.27117        -0.80640
| 59>    S       -5.44170       -15.65712        -1.26128
| 60>    C       -6.06978       -18.45607        -1.49446
| 61>    C       -6.38163       -19.49887        -0.63587
| 62>    S       -6.36516       -18.99029         1.04784
| 63>    C       -6.62964       -20.85855        -0.92040
| 64>    C       -6.99141       -21.45492        -2.09203
| 65>    C       -6.76703       -22.91941        -2.24414
| 66>    O       -6.48024       -23.70163        -1.36818
| 67>    C       -6.91542       -23.18806        -3.68865
| 68>    C       -6.70368       -24.35084        -4.37118
| 69>    C       -6.88502       -24.36717        -5.77234
| 70>    C       -7.27610       -23.17070        -6.44064
| 71>    C       -7.44789       -23.19159        -7.83921
| 72>    C       -7.24542       -24.34678        -8.54068
| 73>    C       -6.86110       -25.53012        -7.87847
| 74>    C       -6.68409       -25.54156        -6.52337
| 75>    F       -6.66892       -26.64765        -8.59177
| 76>    F       -7.41048       -24.36498        -9.86954
| 77>    C       -7.49457       -21.98285        -5.70574
| 78>    C       -7.32480       -21.99398        -4.34740
| 79>    C       -7.51565       -20.95081        -3.34097
| 80>    C       -8.28420       -19.82832        -3.51390
| 81>    C       -8.67950       -18.97874        -2.46191
| 82>    N       -9.05573       -18.27921        -1.63324
| 83>    C       -8.84121       -19.44154        -4.74970
| 84>    N       -9.29752       -19.07162        -5.73581
| 85>    H        0.51634         2.76295         1.91242
| 86>    H        2.36820        -0.42815        -1.39707
| 87>    H       -1.17120         1.13651         2.57237
| 88>    H        0.65157        -2.11923        -0.73430
| 89>    H       -3.88338        -3.48092         3.36434
| 90>    H       -2.56875        -5.59040         0.29229
| 91>    H       -5.41681        -9.16507         3.37040
| 92>    H       -4.11365       -10.93857        -0.77290
| 93>    H       -4.55774       -13.27777        -1.22214
| 94>    H       -6.55462       -14.14953         4.95948
| 95>    H       -6.02025       -11.70467         5.44902
| 96>    H       -5.87728       -16.05542         2.33413
| 97>    H       -5.97077       -18.56821        -2.55873
| 98>    H       -6.44368       -21.55023        -0.10359
| 99>    H       -6.40270       -25.24647        -3.84946
|100>    H       -7.74600       -22.29562        -8.36092
|101>    H       -6.38973       -26.45536        -6.03144
|102>    H       -7.78338       -21.09066        -6.23809
|103> *
|104>
|105>                          ****END OF INPUT****

CARTESIAN COORDINATES (ANGSTROEM)
---------------------------------
  C      0.908060    2.056640    1.197410
  C      1.979880    2.401870    0.423410
  F      2.543270    3.610280    0.552890
  C      2.506210    1.494870   -0.518040
  F      3.558310    1.860240   -1.262830
  C      1.953320    0.254550   -0.672370
  C      0.848390   -0.131220    0.111000
  C      0.314560    0.785260    1.062560
  C     -0.794960    0.421690    1.859090
  C     -1.351540   -0.821530    1.710240
  C     -0.806740   -1.732070    0.765000
  C      0.260390   -1.408570   -0.022250
  C     -1.559030   -3.001960    0.809570
  O     -1.362110   -3.961250    0.092970
  C     -2.552160   -2.840410    1.896100
  C     -2.479240   -1.468120    2.374130
  C     -3.341000   -0.844910    3.238400
  C     -4.495840   -1.413430    3.817730
  N     -5.461970   -1.782840    4.316810
  C     -3.211720    0.500890    3.644480
  N     -3.161440    1.585300    4.017660
  C     -3.337490   -3.796940    2.482560
  C     -3.550410   -5.154310    2.176240
  C     -3.163950   -5.952940    1.109590
  C     -3.631820   -7.252610    1.245590
  C     -4.383550   -7.483740    2.411320
  S     -4.525260   -6.052830    3.349700
  C     -4.836450   -8.795670    2.547570
  C     -4.447950   -9.589910    1.491530
  S     -3.508030   -8.693800    0.302070
  C     -4.718040  -10.984890    1.270210
  C     -4.492610  -11.557730    0.027100
  C     -4.747670  -12.895510   -0.229750
  C     -5.235430  -13.759940    0.739950
  C     -5.472080  -13.216540    2.041050
  N     -5.954090  -14.002740    3.020370
  C     -6.160110  -13.486520    4.201650
  C     -5.874900  -12.137910    4.468860
  N     -5.418290  -11.343880    3.538590
  C     -5.214640  -11.837830    2.303930
  C     -5.495680  -15.137700    0.422420
  C     -5.797290  -16.178720    1.271630
  C     -5.986960  -17.378310    0.585590
  C     -5.841850  -17.271170   -0.806400
  S     -5.441700  -15.657120   -1.261280
  C     -6.069780  -18.456070   -1.494460
  C     -6.381630  -19.498870   -0.635870
  S     -6.365160  -18.990290    1.047840
  C     -6.629640  -20.858550   -0.920400
  C     -6.991410  -21.454920   -2.092030
  C     -6.767030  -22.919410   -2.244140
  O     -6.480240  -23.701630   -1.368180
  C     -6.915420  -23.188060   -3.688650
  C     -6.703680  -24.350840   -4.371180
  C     -6.885020  -24.367170   -5.772340
  C     -7.276100  -23.170700   -6.440640
  C     -7.447890  -23.191590   -7.839210
  C     -7.245420  -24.346780   -8.540680
  C     -6.861100  -25.530120   -7.878470
  C     -6.684090  -25.541560   -6.523370
  F     -6.668920  -26.647650   -8.591770
  F     -7.410480  -24.364980   -9.869540
  C     -7.494570  -21.982850   -5.705740
  C     -7.324800  -21.993980   -4.347400
  C     -7.515650  -20.950810   -3.340970
  C     -8.284200  -19.828320   -3.513900
  C     -8.679500  -18.978740   -2.461910
  N     -9.055730  -18.279210   -1.633240
  C     -8.841210  -19.441540   -4.749700
  N     -9.297520  -19.071620   -5.735810
  H      0.516340    2.762950    1.912420
  H      2.368200   -0.428150   -1.397070
  H     -1.171200    1.136510    2.572370
  H      0.651570   -2.119230   -0.734300
  H     -3.883380   -3.480920    3.364340
  H     -2.568750   -5.590400    0.292290
  H     -5.416810   -9.165070    3.370400
  H     -4.113650  -10.938570   -0.772900
  H     -4.557740  -13.277770   -1.222140
  H     -6.554620  -14.149530    4.959480
  H     -6.020250  -11.704670    5.449020
  H     -5.877280  -16.055420    2.334130
  H     -5.970770  -18.568210   -2.558730
  H     -6.443680  -21.550230   -0.103590
  H     -6.402700  -25.246470   -3.849460
  H     -7.746000  -22.295620   -8.360920
  H     -6.389730  -26.455360   -6.031440
  H     -7.783380  -21.090660   -6.238090

 Total Charge           Charge          ....    0
 Multiplicity           Mult            ....    1
 Number of Electrons    NEL             ....  500
 Basis Dimension        Dim             .... 1086

ORBITAL ENERGIES
----------------

  NO   OCC          E(Eh)            E(eV)
   0   2.0000     -88.971398     -2421.0348
   1   2.0000     -88.969691     -2420.9884
   2   2.0000     -88.968839     -2420.9652
   3   2.0000     -88.968544     -2420.9572
   4   2.0000     -24.799109      -674.8181
   5   2.0000     -24.798653      -674.8057
   6   2.0000     -24.798110      -674.7909
   7   2.0000     -24.797067      -674.7625
   8   2.0000     -19.220691      -523.0216
   9   2.0000     -19.216549      -522.9089
  10   2.0000     -14.442307      -392.9951
  11   2.0000     -14.442128      -392.9903
  12   2.0000     -14.418469      -392.3465
  13   2.0000     -14.417019      -392.3070
  14   2.0000     -14.415909      -392.2768
  15   2.0000     -14.414109      -392.2278
  16   2.0000     -10.382258      -282.5156
  17   2.0000     -10.381846      -282.5044
  18   2.0000     -10.381148      -282.4854
  19   2.0000     -10.380273      -282.4616
  20   2.0000     -10.371789      -282.2307
  21   2.0000     -10.367983      -282.1272
  22   2.0000     -10.345545      -281.5166
  23   2.0000     -10.344822      -281.4969
  24   2.0000     -10.341714      -281.4123
  25   2.0000     -10.341134      -281.3966
  26   2.0000     -10.339288      -281.3463
  27   2.0000     -10.338968      -281.3376
  28   2.0000     -10.336888      -281.2810
  29   2.0000     -10.336591      -281.2729
  30   2.0000     -10.325729      -280.9774
  31   2.0000     -10.325593      -280.9737
  32   2.0000     -10.324784      -280.9516
  33   2.0000     -10.323592      -280.9192
  34   2.0000     -10.321959      -280.8748
  35   2.0000     -10.321218      -280.8546
  36   2.0000     -10.320487      -280.8347
  37   2.0000     -10.318780      -280.7883
  38   2.0000     -10.317934      -280.7653
  39   2.0000     -10.317385      -280.7503
  40   2.0000     -10.317245      -280.7465
  41   2.0000     -10.315519      -280.6996
  42   2.0000     -10.314617      -280.6750
  43   2.0000     -10.314037      -280.6592
  44   2.0000     -10.313175      -280.6358
  45   2.0000     -10.312015      -280.6042
  46   2.0000     -10.311702      -280.5957
  47   2.0000     -10.311302      -280.5848
  48   2.0000     -10.310011      -280.5497
  49   2.0000     -10.309620      -280.5390
  50   2.0000     -10.309384      -280.5326
  51   2.0000     -10.307627      -280.4848
  52   2.0000     -10.306484      -280.4537
  53   2.0000     -10.303867      -280.3825
  54   2.0000     -10.303587      -280.3748
  55   2.0000     -10.303408      -280.3700
  56   2.0000     -10.302847      -280.3547
  57   2.0000     -10.302084      -280.3340
  58   2.0000     -10.301842      -280.3274
  59   2.0000     -10.301457      -280.3169
  60   2.0000     -10.301353      -280.3141
  61   2.0000     -10.300749      -280.2976
  62   2.0000     -10.300630      -280.2944
  63   2.0000     -10.299815      -280.2722
  64   2.0000     -10.299676      -280.2684
  65   2.0000     -10.298191      -280.2280
  66   2.0000     -10.294886      -280.1381
  67   2.0000     -10.292601      -280.0759
  68   2.0000     -10.288617      -279.9675
  69   2.0000     -10.287885      -279.9476
  70   2.0000      -8.066857      -219.5103
  71   2.0000      -8.065132      -219.4634
  72   2.0000      -8.064157      -219.4369
  73   2.0000      -8.063857      -219.4287
  74   2.0000      -6.036260      -164.2550
  75   2.0000      -6.034486      -164.2067
  76   2.0000      -6.033692      -164.1851
  77   2.0000      -6.033388      -164.1768
  78   2.0000      -6.032335      -164.1482
  79   2.0000      -6.030596      -164.1009
  80   2.0000      -6.029706      -164.0767
  81   2.0000      -6.029442      -164.0695
  82   2.0000      -6.028515      -164.0442
  83   2.0000      -6.026825      -163.9983
  84   2.0000      -6.025630      -163.9657
  85   2.0000      -6.025310      -163.9570
  86   2.0000      -1.321914       -35.9711
  87   2.0000      -1.320529       -35.9334
  88   2.0000      -1.307050       -35.5666
  89   2.0000      -1.305641       -35.5283
  90   2.0000      -1.135554       -30.9000
  91   2.0000      -1.132370       -30.8134
  92   2.0000      -1.100208       -29.9382
  93   2.0000      -1.026413       -27.9301
  94   2.0000      -1.023780       -27.8585
  95   2.0000      -1.020664       -27.7737
  96   2.0000      -1.019135       -27.7321
  97   2.0000      -1.017045       -27.6752
  98   2.0000      -1.005518       -27.3615
  99   2.0000      -1.004087       -27.3226
 100   2.0000      -0.996257       -27.1095
 101   2.0000      -0.993754       -27.0414
 102   2.0000      -0.984817       -26.7982
 103   2.0000      -0.982556       -26.7367
 104   2.0000      -0.980640       -26.6846
 105   2.0000      -0.964153       -26.2359
 106   2.0000      -0.951064       -25.8798
 107   2.0000      -0.932200       -25.3665
 108   2.0000      -0.930455       -25.3190
 109   2.0000      -0.907460       -24.6932
 110   2.0000      -0.902977       -24.5713
 111   2.0000      -0.895062       -24.3559
 112   2.0000      -0.892902       -24.2971
 113   2.0000      -0.890107       -24.2210
 114   2.0000      -0.881755       -23.9938
 115   2.0000      -0.877417       -23.8757
 116   2.0000      -0.876665       -23.8553
 117   2.0000      -0.869464       -23.6593
 118   2.0000      -0.863730       -23.5033
 119   2.0000      -0.841838       -22.9076
 120   2.0000      -0.840063       -22.8593
 121   2.0000      -0.829930       -22.5836
 122   2.0000      -0.820579       -22.3291
 123   2.0000      -0.812486       -22.1089
 124   2.0000      -0.810248       -22.0480
 125   2.0000      -0.797282       -21.6952
 126   2.0000      -0.775943       -21.1145
 127   2.0000      -0.774568       -21.0771
 128   2.0000      -0.767555       -20.8862
 129   2.0000      -0.767226       -20.8773
 130   2.0000      -0.762040       -20.7362
 131   2.0000      -0.750148       -20.4126
 132   2.0000      -0.737596       -20.0710
 133   2.0000      -0.727491       -19.7960
 134   2.0000      -0.719345       -19.5744
 135   2.0000      -0.716012       -19.4837
 136   2.0000      -0.709121       -19.2962
 137   2.0000      -0.699379       -19.0311
 138   2.0000      -0.686732       -18.6869
 139   2.0000      -0.684781       -18.6338
 140   2.0000      -0.674505       -18.3542
 141   2.0000      -0.668233       -18.1835
 142   2.0000      -0.666610       -18.1394
 143   2.0000      -0.666153       -18.1270
 144   2.0000      -0.656679       -17.8691
 145   2.0000      -0.656235       -17.8571
 146   2.0000      -0.652800       -17.7636
 147   2.0000      -0.651054       -17.7161
 148   2.0000      -0.643577       -17.5126
 149   2.0000      -0.641873       -17.4663
 150   2.0000      -0.634816       -17.2742
 151   2.0000      -0.631462       -17.1830
 152   2.0000      -0.628430       -17.1004
 153   2.0000      -0.620617       -16.8879
 154   2.0000      -0.615814       -16.7572
 155   2.0000      -0.611212       -16.6319
 156   2.0000      -0.602020       -16.3818
 157   2.0000      -0.590919       -16.0797
 158   2.0000      -0.588522       -16.0145
 159   2.0000      -0.586360       -15.9557
 160   2.0000      -0.585222       -15.9247
 161   2.0000      -0.585028       -15.9194
 162   2.0000      -0.584184       -15.8965
 163   2.0000      -0.582518       -15.8511
 164   2.0000      -0.578499       -15.7418
 165   2.0000      -0.576425       -15.6853
 166   2.0000      -0.573326       -15.6010
 167   2.0000      -0.555747       -15.1226
 168   2.0000      -0.554259       -15.0822
 169   2.0000      -0.551884       -15.0175
 170   2.0000      -0.550273       -14.9737
 171   2.0000      -0.547975       -14.9111
 172   2.0000      -0.546981       -14.8841
 173   2.0000      -0.546654       -14.8752
 174   2.0000      -0.545976       -14.8568
 175   2.0000      -0.539673       -14.6853
 176   2.0000      -0.538548       -14.6546
 177   2.0000      -0.535768       -14.5790
 178   2.0000      -0.534586       -14.5468
 179   2.0000      -0.531446       -14.4614
 180   2.0000      -0.530513       -14.4360
 181   2.0000      -0.528101       -14.3704
 182   2.0000      -0.523347       -14.2410
 183   2.0000      -0.522108       -14.2073
 184   2.0000      -0.520114       -14.1530
 185   2.0000      -0.516471       -14.0539
 186   2.0000      -0.515340       -14.0231
 187   2.0000      -0.515098       -14.0165
 188   2.0000      -0.511573       -13.9206
 189   2.0000      -0.505477       -13.7547
 190   2.0000      -0.501079       -13.6350
 191   2.0000      -0.500173       -13.6104
 192   2.0000      -0.498597       -13.5675
 193   2.0000      -0.493878       -13.4391
 194   2.0000      -0.489999       -13.3336
 195   2.0000      -0.486924       -13.2499
 196   2.0000      -0.486188       -13.2299
 197   2.0000      -0.485159       -13.2019
 198   2.0000      -0.478978       -13.0336
 199   2.0000      -0.477905       -13.0045
 200   2.0000      -0.473014       -12.8714
 201   2.0000      -0.470533       -12.8039
 202   2.0000      -0.468577       -12.7506
 203   2.0000      -0.466642       -12.6980
 204   2.0000      -0.464801       -12.6479
 205   2.0000      -0.463844       -12.6218
 206   2.0000      -0.462265       -12.5789
 207   2.0000      -0.458640       -12.4802
 208   2.0000      -0.452528       -12.3139
 209   2.0000      -0.448951       -12.2166
 210   2.0000      -0.447560       -12.1787
 211   2.0000      -0.446949       -12.1621
 212   2.0000      -0.445865       -12.1326
 213   2.0000      -0.444776       -12.1030
 214   2.0000      -0.443616       -12.0714
 215   2.0000      -0.441303       -12.0085
 216   2.0000      -0.437785       -11.9127
 217   2.0000      -0.435226       -11.8431
 218   2.0000      -0.430303       -11.7091
 219   2.0000      -0.430106       -11.7038
 220   2.0000      -0.428640       -11.6639
 221   2.0000      -0.425479       -11.5779
 222   2.0000      -0.422470       -11.4960
 223   2.0000      -0.422206       -11.4888
 224   2.0000      -0.419886       -11.4257
 225   2.0000      -0.417082       -11.3494
 226   2.0000      -0.410629       -11.1738
 227   2.0000      -0.407438       -11.0870
 228   2.0000      -0.399752       -10.8778
 229   2.0000      -0.397405       -10.8139
 230   2.0000      -0.395545       -10.7633
 231   2.0000      -0.386320       -10.5123
 232   2.0000      -0.384835       -10.4719
 233   2.0000      -0.374829       -10.1996
 234   2.0000      -0.370798       -10.0899
 235   2.0000      -0.365097        -9.9348
 236   2.0000      -0.351448        -9.5634
 237   2.0000      -0.350012        -9.5243
 238   2.0000      -0.342005        -9.3064
 239   2.0000      -0.338166        -9.2020
 240   2.0000      -0.336547        -9.1579
 241   2.0000      -0.323609        -8.8058
 242   2.0000      -0.318472        -8.6661
 243   2.0000      -0.317241        -8.6326
 244   2.0000      -0.306016        -8.3271
 245   2.0000      -0.304941        -8.2979
 246   2.0000      -0.301994        -8.2177
 247   2.0000      -0.300383        -8.1738
 248   2.0000      -0.281040        -7.6475
 249   2.0000      -0.255358        -6.9486
 250   0.0000      -0.107166        -2.9161
 251   0.0000      -0.094487        -2.5711
 252   0.0000      -0.072193        -1.9645
 253   0.0000      -0.059849        -1.6286
 254   0.0000      -0.057445        -1.5632

MULLIKEN ATOMIC CHARGES
-----------------------
   0 C :   -0.110309
   1 C :    0.242234
   2 F :   -0.171174
   3 C :    0.241098
   4 F :   -0.172257
   5 C :   -0.109453
   6 C :    0.119204
   7 C :    0.115520
   8 C :   -0.084530
   9 C :    0.047642
  10 C :    0.002034
  11 C :   -0.086288
  12 C :    0.159484
  13 O :   -0.159254
  14 C :   -0.094909
  15 C :    0.313596
  16 C :   -0.354389
  17 C :   -0.200341
  18 N :    0.160778
  19 C :   -0.183916
  20 N :    0.145633
  21 C :    0.046850
  22 C :   -0.122207
  23 C :    0.003695
  24 C :   -0.018136
  25 C :    0.010989
  26 S :    0.156792
  27 C :   -0.025863
  28 C :   -0.108729
  29 S :    0.124025
  30 C :    0.154738
  31 C :   -0.056267
  32 C :   -0.059691
  33 C :    0.164157
  34 C :   -0.040314
  35 N :   -0.032425
  36 C :    0.039177
  37 C :    0.038839
  38 N :   -0.032522
  39 C :   -0.044272
  40 C :   -0.108385
  41 C :   -0.031131
  42 C :    0.015121
  43 C :   -0.016137
  44 S :    0.119797
  45 C :    0.018179
  46 C :   -0.124636
  47 S :    0.165756
  48 C :    0.086920
  49 C :   -0.138788
  50 C :    0.135580
  51 O :   -0.143741
  52 C :    0.019175
  53 C :   -0.083722
  54 C :    0.113311
  55 C :    0.112463
  56 C :   -0.106501
  57 C :    0.239958
  58 C :    0.238929
  59 C :   -0.103159
  60 F :   -0.171816
  61 F :   -0.171093
  62 C :   -0.083630
  63 C :    0.032906
  64 C :    0.271710
  65 C :   -0.338779
  66 C :   -0.209358
  67 N :    0.177942
  68 C :   -0.171742
  69 N :    0.152005
  70 H :    0.007851
  71 H :   -0.001231
  72 H :   -0.006669
  73 H :   -0.011903
  74 H :    0.014485
  75 H :    0.018949
  76 H :    0.001207
  77 H :    0.001667
  78 H :    0.001842
  79 H :    0.018132
  80 H :    0.017596
  81 H :    0.001025
  82 H :    0.003846
  83 H :    0.025882
  84 H :   -0.009414
  85 H :    0.004822
  86 H :    0.000093
  87 H :   -0.004554
Sum of atomic charges:    0.0000000

LOEWDIN ATOMIC CHARGES
----------------------
   0 C :   -0.029269
   1 C :    0.066009
   2 F :   -0.049178
   3 C :    0.067316
   4 F :   -0.049750
   5 C :   -0.034071
   6 C :   -0.008800
   7 C :   -0.006728
   8 C :    0.017130
   9 C :   -0.022873
  10 C :   -0.051194
  11 C :    0.027992
  12 C :    0.087537
  13 O :   -0.145556
  14 C :   -0.101111
  15 C :    0.076607
  16 C :   -0.143046
  17 C :   -0.026535
  18 N :   -0.050382
  19 C :   -0.017142
  20 N :   -0.055888
  21 C :    0.050264
  22 C :   -0.173447
  23 C :   -0.012615
  24 C :   -0.202646
  25 C :   -0.181318
  26 S :    0.442455
  27 C :   -0.056782
  28 C :   -0.134469
  29 S :    0.423487
  30 C :   -0.035165
  31 C :   -0.009649
  32 C :   -0.011942
  33 C :   -0.031098
  34 C :    0.003414
  35 N :   -0.025641
  36 C :    0.012193
  37 C :    0.012014
  38 N :   -0.026552
  39 C :    0.003827
  40 C :   -0.137701
  41 C :   -0.053197
  42 C :   -0.181209
  43 C :   -0.194876
  44 S :    0.423371
  45 C :   -0.021308
  46 C :   -0.176730
  47 S :    0.448041
  48 C :    0.051835
  49 C :   -0.098769
  50 C :    0.082336
  51 O :   -0.143643
  52 C :   -0.053550
  53 C :    0.030269
  54 C :   -0.009621
  55 C :   -0.005969
  56 C :   -0.030352
  57 C :    0.066688
  58 C :    0.066751
  59 C :   -0.032949
  60 F :   -0.049381
  61 F :   -0.048690
  62 C :    0.012772
  63 C :   -0.020361
  64 C :    0.064909
  65 C :   -0.142114
  66 C :   -0.020459
  67 N :   -0.038923
  68 C :   -0.020288
  69 N :   -0.053397
  70 H :    0.047823
  71 H :    0.044411
  72 H :    0.039846
  73 H :    0.039353
  74 H :    0.043824
  75 H :    0.038156
  76 H :    0.033259
  77 H :    0.027963
  78 H :    0.027171
  79 H :    0.029157
  80 H :    0.029051
  81 H :    0.032850
  82 H :    0.037576
  83 H :    0.046906
  84 H :    0.040619
  85 H :    0.047008
  86 H :    0.044888
  87 H :    0.039258

  Mayer bond orders larger than 0.100000
B(  0-C ,  1-C ) :   1.4393 B(  0-C ,  5-C ) :   0.1093 B(  0-C ,  7-C ) :   1.1873
B(  0-C , 70-H ) :   1.0074 B(  1-C ,  2-F ) :   1.1354 B(  1-C ,  3-C ) :   1.1919
B(  3-C ,  4-F ) :   1.1331 B(  3-C ,  5-C ) :   1.4417 B(  5-C ,  6-C ) :   1.1916
B(  5-C , 71-H ) :   1.0077 B(  6-C ,  7-C ) :   1.2573 B(  6-C , 11-C ) :   1.1864
B(  7-C ,  8-C ) :   1.2160 B(  8-C ,  9-C ) :   1.4491 B(  8-C , 72-H ) :   0.9904
B(  9-C , 10-C ) :   1.2245 B(  9-C , 15-C ) :   0.9810 B( 10-C , 11-C ) :   1.4697
B( 10-C , 12-C ) :   0.9492 B( 11-C , 73-H ) :   1.0168 B( 12-C , 13-O ) :   2.1690
B( 12-C , 14-C ) :   0.9458 B( 14-C , 15-C ) :   1.0821 B( 14-C , 21-C ) :   1.5720
B( 15-C , 16-C ) :   1.6240 B( 16-C , 17-C ) :   1.1376 B( 16-C , 19-C ) :   1.1484
B( 17-C , 18-N ) :   2.9858 B( 19-C , 20-N ) :   2.9634 B( 21-C , 22-C ) :   1.2393
B( 21-C , 74-H ) :   0.9147 B( 22-C , 23-C ) :   1.4358 B( 22-C , 26-S ) :   1.0746
B( 23-C , 24-C ) :   1.2808 B( 23-C , 75-H ) :   0.9810 B( 24-C , 25-C ) :   1.3723
B( 24-C , 29-S ) :   1.0586 B( 25-C , 26-S ) :   1.1027 B( 25-C , 27-C ) :   1.2106
B( 27-C , 28-C ) :   1.5357 B( 27-C , 76-H ) :   0.9921 B( 28-C , 29-S ) :   1.0982
B( 28-C , 30-C ) :   1.1086 B( 30-C , 31-C ) :   1.3990 B( 30-C , 33-C ) :   0.1154
B( 30-C , 39-C ) :   1.2189 B( 31-C , 32-C ) :   1.2928 B( 31-C , 77-H ) :   0.9864
B( 32-C , 33-C ) :   1.3975 B( 32-C , 78-H ) :   0.9858 B( 33-C , 34-C ) :   1.2151
B( 33-C , 40-C ) :   1.1164 B( 34-C , 35-N ) :   1.4696 B( 34-C , 39-C ) :   1.2368
B( 35-N , 36-C ) :   1.6350 B( 36-C , 37-C ) :   1.2376 B( 36-C , 79-H ) :   0.9739
B( 37-C , 38-N ) :   1.6355 B( 37-C , 80-H ) :   0.9745 B( 38-N , 39-C ) :   1.4683
B( 40-C , 41-C ) :   1.5411 B( 40-C , 44-S ) :   1.0916 B( 41-C , 42-C ) :   1.2061
B( 41-C , 81-H ) :   0.9890 B( 42-C , 43-C ) :   1.3905 B( 42-C , 47-S ) :   1.0956
B( 43-C , 44-S ) :   1.0621 B( 43-C , 45-C ) :   1.3236 B( 45-C , 46-C ) :   1.4392
B( 45-C , 82-H ) :   0.9910 B( 46-C , 47-S ) :   1.0857 B( 46-C , 48-C ) :   1.1517
B( 48-C , 49-C ) :   1.6464 B( 48-C , 83-H ) :   0.9270 B( 49-C , 50-C ) :   0.9466
B( 49-C , 64-C ) :   1.0481 B( 50-C , 51-O ) :   2.2662 B( 50-C , 52-C ) :   0.9168
B( 52-C , 53-C ) :   1.4747 B( 52-C , 63-C ) :   1.2232 B( 53-C , 54-C ) :   1.1931
B( 53-C , 84-H ) :   1.0161 B( 54-C , 55-C ) :   1.2579 B( 54-C , 59-C ) :   1.1927
B( 55-C , 56-C ) :   1.1908 B( 55-C , 62-C ) :   1.2135 B( 56-C , 57-C ) :   1.4411
B( 56-C , 59-C ) :   0.1087 B( 56-C , 85-H ) :   1.0067 B( 57-C , 58-C ) :   1.1927
B( 57-C , 61-F ) :   1.1348 B( 58-C , 59-C ) :   1.4434 B( 58-C , 60-F ) :   1.1332
B( 59-C , 86-H ) :   1.0066 B( 62-C , 63-C ) :   1.4585 B( 62-C , 87-H ) :   0.9931
B( 63-C , 64-C ) :   0.9947 B( 64-C , 65-C ) :   1.6432 B( 65-C , 66-C ) :   1.1662
B( 65-C , 68-C ) :   1.1285 B( 66-C , 67-N ) :   3.0069 B( 68-C , 69-N ) :   2.9841

-----------------------------------------------------------------------------
         ABSORPTION SPECTRUM VIA TRANSITION ELECTRIC DIPOLE MOMENTS
-----------------------------------------------------------------------------
State   Energy  Wavelength   fosc         T2         TX        TY        TZ
        (cm-1)    (nm)                  (au**2)     (au)      (au)      (au)
-----------------------------------------------------------------------------
   0   17362.3    576.0   2.456400918  46.57659  -1.81944  -6.25653  -2.03029
   1   20828.3    480.1   0.346091648   5.47033  -0.13562  -2.07646   1.06783
   2   24530.0    407.7   0.007457322   0.10008   0.25293   0.09405   0.16511
   3   25668.0    389.6   0.006153500   0.07892  -0.21178   0.02209  -0.18326
   4   26617.7    375.7   0.033474372   0.41402  -0.23147   0.15370  -0.58036
   5   27283.4    366.5   0.019296926   0.23284  -0.06763  -0.47591   0.04222
   6   27370.6    365.4   0.026082353   0.31372  -0.14174   0.08579   0.53504
   7   27492.7    363.7   0.046570082   0.55765   0.23726   0.29565  -0.64339
   8   28399.4    352.1   0.246327229   2.85548  -0.96082  -1.29868   0.49573
   9   28615.7    349.5   0.057643713   0.66317  -0.37618   0.11182   0.71355
  10   28665.1    348.9   0.096159589   1.10437   0.34536  -0.82546  -0.55111
  11   28930.9    345.7   0.015394000   0.17517   0.19940  -0.35091   0.11080
  12   29187.1    342.6   0.096456257   1.08797   0.54096  -0.67866  -0.57857
  13   29815.0    335.4   0.099447173   1.09808   0.66531  -0.08413  -0.80521
  14   30121.8    332.0   0.094057579   1.02799   0.88840   0.17553  -0.45597
  15   30242.3    330.7   0.288642939   3.14211   0.40433   1.55060   0.75782
  16   31738.5    315.1   0.005285035   0.05482  -0.14000  -0.05513   0.17939
  17   32363.0    309.0   0.017841435   0.18149  -0.30584   0.24636   0.16511
  18   32830.0    304.6   0.021889546   0.21950  -0.21938   0.32862   0.25176
  19   33561.9    298.0   0.042853299   0.42035   0.24267  -0.32635  -0.50493
  20   33835.8    295.5   0.089633913   0.87211   0.59412  -0.65936  -0.29048
  21   33857.8    295.4   0.582709644   5.66590  -0.61066  -2.20285  -0.66367
  22   34145.7    292.9   0.607302821   5.85524  -1.91746  -0.56291   1.36445
  23   34581.2    289.2   0.044739395   0.42592   0.40586   0.12727  -0.49497
  24   34685.8    288.3   0.296667185   2.81575   0.68326  -1.18305  -0.97431
  25   35121.3    284.7   0.131078001   1.22867   0.01967  -0.78058  -0.78676
  26   36053.6    277.4   0.073372826   0.66998  -0.50905   0.58334   0.26564
  27   36822.5    271.6   0.012143353   0.10857   0.15296  -0.25622   0.13972
  28   37150.6    269.2   0.058234599   0.51605  -0.42061   0.05349   0.57989
  29   37376.7    267.5   0.001887461   0.01662  -0.07929  -0.09661   0.03169
  30   37582.2    266.1   0.024739025   0.21671  -0.06818   0.37849   0.26231
  31   37790.7    264.6   0.019429227   0.16926  -0.29406  -0.12154   0.26080
  32   37865.4    264.1   0.022078736   0.19196   0.20965  -0.25933  -0.28417
  33   38129.3    262.3   0.050791007   0.43853  -0.05841   0.55455   0.35720
  34   38229.1    261.6   0.019854997   0.17098   0.13807   0.38186  -0.07811
  35   38560.0    259.3   0.016916475   0.14443  -0.20967   0.27907   0.15028
  36   38776.6    257.9   0.015281933   0.12974   0.04780  -0.00566  -0.35697
  37   39022.5    256.3   0.105747385   0.89213   0.32151  -0.56989  -0.68117
  38   39231.2    254.9   0.214190434   1.79740   0.72955  -1.11070  -0.17750
  39   39818.2    251.1   0.164207822   1.35765  -0.42836  -0.09382   1.07951
  40   39882.7    250.7   0.234556217   1.93615   0.25437   0.26753  -1.34159
  41   40315.3    248.0   0.008368658   0.06834   0.09260  -0.23233   0.07607

FINAL SINGLE POINT ENERGY     -4535.494450980855

DIPOLE MOMENT
-------------
                                X             Y             Z
Electronic contribution:      7.97042       4.41299     -18.27641
Nuclear contribution   :     -6.08136      -6.56586      18.41600
                        -----------------------------------------
Total Dipole Moment    :      1.88906      -2.15286       0.13959
                        -----------------------------------------
Magnitude (a.u.)       :      2.86755
Magnitude (Debye)      :      7.28874

Rotational constants in cm-1:     0.002037     0.000172     0.000163
Rotational constants in MHz :    61.080133     5.170364     4.883129

                             ****ORCA TERMINATED NORMALLY****
TOTAL RUN TIME: 0 days 0 hours 8 minutes 18 seconds 540 msec
