                         Program Version 4.2.0 -  RELEASE  -
|  1> # ORCA input file
|  2> # SCF done       -180.224949258665          0.000847371007
|  3> ! CAM-B3LYP def2-SVP def2/J RIJCOSX Grid4 TightSCF
|  4> %maxcore 5000
|  5> %tddft
|  6>     Mode sTDDFT
|  7>     Ethresh 5.0
|  8>     maxcore 5000
|  9> end
| 10>
| 11> %pal
| 12>   nprocs 6
| 13>   end
| 14> * xyz 0 1
| 15>    C        4.65780       -10.01043       -10.43839
| 16>    C        3.47188       -10.01393       -11.12657
| 17>    C        2.97377       -11.06867       -11.91124
| 18>    N        2.51257       -11.89223       -12.56494
| 19>    C        2.63440        -8.87963       -11.07363
| 20>    N        1.94702        -7.96268       -11.03319
| 21>    N        5.58093       -11.00315       -10.36478
| 22>    C        5.45202       -12.28064       -11.02298
| 23>    C        6.70230       -10.73941        -9.58518
| 24>    O        7.60266       -11.53353        -9.42849
| 25>    C        6.60981        -9.40784        -9.00055
| 26>    S        5.14014        -8.60728        -9.50384
| 27>    C        7.55553        -8.92064        -8.15144
| 28>    C        7.55453        -7.68773        -7.48006
| 29>    C        8.49084        -7.27279        -6.52924
| 30>    C        8.18075        -6.04425        -5.98361
| 31>    C        7.00842        -5.49355        -6.52518
| 32>    S        6.28509        -6.49433        -7.70910
| 33>    C        6.71484        -4.28374        -5.87176
| 34>    C        7.69298        -4.05028        -4.89312
| 35>    C        8.74060        -5.14058        -4.90782
| 36>    C       10.11231        -4.58593        -5.30330
| 37>    C        8.81606        -5.85878        -3.55825
| 38>    C        7.42229        -2.93147        -4.13171
| 39>    C        6.24000        -2.29941        -4.52095
| 40>    S        5.48327        -3.09033        -5.88817
| 41>    C        5.57761        -1.23565        -3.85956
| 42>    C        4.35896        -0.71156        -4.34965
| 43>    C        3.52859         0.15807        -3.57359
| 44>    N        2.36101         0.58732        -4.08891
| 45>    C        2.00741         0.21523        -5.27739
| 46>    C        2.82960        -0.64710        -6.04615
| 47>    N        3.95506        -1.08416        -5.57890
| 48>    F        2.47458        -1.02305        -7.26997
| 49>    F        0.85540         0.67352        -5.75638
| 50>    C        3.86045         0.54731        -2.25523
| 51>    C        5.15878         0.17076        -1.82859
| 52>    C        6.00337        -0.70120        -2.61790
| 53>    N        7.16088        -0.94655        -2.00624
| 54>    S        7.19916        -0.16413        -0.60361
| 55>    N        5.74559         0.51484        -0.68357
| 56>    C        2.90280         1.15141        -1.40374
| 57>    C        3.06145         1.46903        -0.05337
| 58>    C        1.87475         1.84788         0.53930
| 59>    C        0.79661         1.83809        -0.36006
| 60>    S        1.25650         1.38755        -1.95165
| 61>    C       -0.38679         2.10657         0.34982
| 62>    C       -0.08238         2.28189         1.71087
| 63>    C        1.40888         2.18742         1.93613
| 64>    C        1.98230         3.52850         2.40485
| 65>    C        1.75364         1.07594         2.92987
| 66>    C       -1.20082         2.42676         2.50379
| 67>    C       -2.38509         2.36535         1.76884
| 68>    S       -2.06556         2.16119         0.04252
| 69>    C       -3.73655         2.36573         2.15035
| 70>    C       -4.32749         2.33189         3.38273
| 71>    C       -3.76528         2.31321         4.72214
| 72>    O       -2.59925         2.40758         5.04983
| 73>    N       -4.77419         2.16337         5.66961
| 74>    C       -6.04615         2.07880         5.20093
| 75>    C       -7.19832         1.90144         5.92548
| 76>    C       -7.28546         1.76379         7.32113
| 77>    N       -7.42329         1.64025         8.45464
| 78>    C       -8.43627         1.82812         5.25363
| 79>    N       -9.44644         1.76433         4.71430
| 80>    S       -6.08387         2.21775         3.46324
| 81>    C       -4.43037         2.10345         7.06987
| 82>    H        5.39672       -12.15625       -12.10469
| 83>    H        4.56174       -12.80660       -10.67691
| 84>    H        6.34188       -12.85543       -10.76438
| 85>    H        8.39017        -9.58434        -7.95784
| 86>    H        9.33666        -7.88008        -6.26175
| 87>    H       10.83559        -5.39430        -5.37593
| 88>    H       10.45361        -3.87345        -4.55678
| 89>    H       10.05335        -4.08226        -6.26523
| 90>    H        7.84010        -6.25274        -3.28443
| 91>    H        9.14097        -5.16554        -2.78683
| 92>    H        9.52300        -6.68284        -3.61115
| 93>    H        8.01065        -2.56567        -3.31111
| 94>    H        4.01354         1.38236         0.43585
| 95>    H        3.06394         3.46111         2.48906
| 96>    H        1.56717         3.79006         3.37471
| 97>    H        1.73569         4.31488         1.69518
| 98>    H        1.35094         0.12500         2.58856
| 99>    H        1.32937         1.30439         3.90403
|100>    H        2.83239         0.98378         3.02626
|101>    H       -1.20116         2.55294         3.56997
|102>    H       -4.42988         2.33864         1.31633
|103>    H       -3.34744         2.21562         7.13125
|104>    H       -4.72447         1.14594         7.50147
|105>    H       -4.91454         2.90953         7.62185
|106> *
|107>
|108>                          ****END OF INPUT****

CARTESIAN COORDINATES (ANGSTROEM)
---------------------------------
  C      4.657800  -10.010430  -10.438390
  C      3.471880  -10.013930  -11.126570
  C      2.973770  -11.068670  -11.911240
  N      2.512570  -11.892230  -12.564940
  C      2.634400   -8.879630  -11.073630
  N      1.947020   -7.962680  -11.033190
  N      5.580930  -11.003150  -10.364780
  C      5.452020  -12.280640  -11.022980
  C      6.702300  -10.739410   -9.585180
  O      7.602660  -11.533530   -9.428490
  C      6.609810   -9.407840   -9.000550
  S      5.140140   -8.607280   -9.503840
  C      7.555530   -8.920640   -8.151440
  C      7.554530   -7.687730   -7.480060
  C      8.490840   -7.272790   -6.529240
  C      8.180750   -6.044250   -5.983610
  C      7.008420   -5.493550   -6.525180
  S      6.285090   -6.494330   -7.709100
  C      6.714840   -4.283740   -5.871760
  C      7.692980   -4.050280   -4.893120
  C      8.740600   -5.140580   -4.907820
  C     10.112310   -4.585930   -5.303300
  C      8.816060   -5.858780   -3.558250
  C      7.422290   -2.931470   -4.131710
  C      6.240000   -2.299410   -4.520950
  S      5.483270   -3.090330   -5.888170
  C      5.577610   -1.235650   -3.859560
  C      4.358960   -0.711560   -4.349650
  C      3.528590    0.158070   -3.573590
  N      2.361010    0.587320   -4.088910
  C      2.007410    0.215230   -5.277390
  C      2.829600   -0.647100   -6.046150
  N      3.955060   -1.084160   -5.578900
  F      2.474580   -1.023050   -7.269970
  F      0.855400    0.673520   -5.756380
  C      3.860450    0.547310   -2.255230
  C      5.158780    0.170760   -1.828590
  C      6.003370   -0.701200   -2.617900
  N      7.160880   -0.946550   -2.006240
  S      7.199160   -0.164130   -0.603610
  N      5.745590    0.514840   -0.683570
  C      2.902800    1.151410   -1.403740
  C      3.061450    1.469030   -0.053370
  C      1.874750    1.847880    0.539300
  C      0.796610    1.838090   -0.360060
  S      1.256500    1.387550   -1.951650
  C     -0.386790    2.106570    0.349820
  C     -0.082380    2.281890    1.710870
  C      1.408880    2.187420    1.936130
  C      1.982300    3.528500    2.404850
  C      1.753640    1.075940    2.929870
  C     -1.200820    2.426760    2.503790
  C     -2.385090    2.365350    1.768840
  S     -2.065560    2.161190    0.042520
  C     -3.736550    2.365730    2.150350
  C     -4.327490    2.331890    3.382730
  C     -3.765280    2.313210    4.722140
  O     -2.599250    2.407580    5.049830
  N     -4.774190    2.163370    5.669610
  C     -6.046150    2.078800    5.200930
  C     -7.198320    1.901440    5.925480
  C     -7.285460    1.763790    7.321130
  N     -7.423290    1.640250    8.454640
  C     -8.436270    1.828120    5.253630
  N     -9.446440    1.764330    4.714300
  S     -6.083870    2.217750    3.463240
  C     -4.430370    2.103450    7.069870
  H      5.396720  -12.156250  -12.104690
  H      4.561740  -12.806600  -10.676910
  H      6.341880  -12.855430  -10.764380
  H      8.390170   -9.584340   -7.957840
  H      9.336660   -7.880080   -6.261750
  H     10.835590   -5.394300   -5.375930
  H     10.453610   -3.873450   -4.556780
  H     10.053350   -4.082260   -6.265230
  H      7.840100   -6.252740   -3.284430
  H      9.140970   -5.165540   -2.786830
  H      9.523000   -6.682840   -3.611150
  H      8.010650   -2.565670   -3.311110
  H      4.013540    1.382360    0.435850
  H      3.063940    3.461110    2.489060
  H      1.567170    3.790060    3.374710
  H      1.735690    4.314880    1.695180
  H      1.350940    0.125000    2.588560
  H      1.329370    1.304390    3.904030
  H      2.832390    0.983780    3.026260
  H     -1.201160    2.552940    3.569970
  H     -4.429880    2.338640    1.316330
  H     -3.347440    2.215620    7.131250
  H     -4.724470    1.145940    7.501470
  H     -4.914540    2.909530    7.621850

 Total Charge           Charge          ....    0
 Multiplicity           Mult            ....    1
 Number of Electrons    NEL             ....  516
 Basis Dimension        Dim             .... 1086

ORBITAL ENERGIES
----------------

  NO   OCC          E(Eh)            E(eV)
   0   2.0000     -89.048149     -2423.1233
   1   2.0000     -88.983373     -2421.3607
   2   2.0000     -88.982175     -2421.3281
   3   2.0000     -88.977983     -2421.2140
   4   2.0000     -88.976907     -2421.1847
   5   2.0000     -88.969954     -2420.9955
   6   2.0000     -88.969358     -2420.9793
   7   2.0000     -24.823910      -675.4929
   8   2.0000     -24.823127      -675.4716
   9   2.0000     -19.221904      -523.0546
  10   2.0000     -19.216949      -522.9198
  11   2.0000     -14.495393      -394.4397
  12   2.0000     -14.495331      -394.4380
  13   2.0000     -14.465281      -393.6203
  14   2.0000     -14.465016      -393.6131
  15   2.0000     -14.459510      -393.4633
  16   2.0000     -14.459441      -393.4614
  17   2.0000     -14.404921      -391.9778
  18   2.0000     -14.404519      -391.9669
  19   2.0000     -14.401207      -391.8768
  20   2.0000     -14.400782      -391.8652
  21   2.0000     -10.440385      -284.0973
  22   2.0000     -10.439945      -284.0853
  23   2.0000     -10.410355      -283.2802
  24   2.0000     -10.405553      -283.1495
  25   2.0000     -10.396372      -282.8997
  26   2.0000     -10.393935      -282.8333
  27   2.0000     -10.351225      -281.6711
  28   2.0000     -10.350940      -281.6634
  29   2.0000     -10.348381      -281.5938
  30   2.0000     -10.348153      -281.5876
  31   2.0000     -10.335270      -281.2370
  32   2.0000     -10.330377      -281.1038
  33   2.0000     -10.329019      -281.0669
  34   2.0000     -10.326808      -281.0067
  35   2.0000     -10.324001      -280.9304
  36   2.0000     -10.323649      -280.9208
  37   2.0000     -10.322768      -280.8968
  38   2.0000     -10.322659      -280.8938
  39   2.0000     -10.320923      -280.8466
  40   2.0000     -10.320671      -280.8397
  41   2.0000     -10.320226      -280.8276
  42   2.0000     -10.319473      -280.8071
  43   2.0000     -10.319472      -280.8071
  44   2.0000     -10.319356      -280.8040
  45   2.0000     -10.317897      -280.7642
  46   2.0000     -10.317284      -280.7476
  47   2.0000     -10.311468      -280.5893
  48   2.0000     -10.309455      -280.5345
  49   2.0000     -10.308445      -280.5070
  50   2.0000     -10.308298      -280.5030
  51   2.0000     -10.308137      -280.4987
  52   2.0000     -10.307833      -280.4904
  53   2.0000     -10.304940      -280.4117
  54   2.0000     -10.303520      -280.3730
  55   2.0000     -10.301917      -280.3294
  56   2.0000     -10.291679      -280.0508
  57   2.0000     -10.289015      -279.9783
  58   2.0000     -10.286800      -279.9181
  59   2.0000     -10.286408      -279.9074
  60   2.0000     -10.285821      -279.8914
  61   2.0000     -10.285346      -279.8785
  62   2.0000     -10.284820      -279.8642
  63   2.0000     -10.276908      -279.6489
  64   2.0000     -10.276366      -279.6341
  65   2.0000     -10.272305      -279.5236
  66   2.0000     -10.272272      -279.5227
  67   2.0000      -8.139708      -221.4927
  68   2.0000      -8.079051      -219.8421
  69   2.0000      -8.077014      -219.7867
  70   2.0000      -8.074268      -219.7120
  71   2.0000      -8.072194      -219.6556
  72   2.0000      -8.063438      -219.4173
  73   2.0000      -8.062769      -219.3991
  74   2.0000      -6.110896      -166.2859
  75   2.0000      -6.103029      -166.0719
  76   2.0000      -6.102285      -166.0516
  77   2.0000      -6.049039      -164.6027
  78   2.0000      -6.046298      -164.5281
  79   2.0000      -6.044855      -164.4889
  80   2.0000      -6.044157      -164.4699
  81   2.0000      -6.042192      -164.4164
  82   2.0000      -6.041390      -164.3946
  83   2.0000      -6.040241      -164.3633
  84   2.0000      -6.039434      -164.3414
  85   2.0000      -6.039155      -164.3338
  86   2.0000      -6.037441      -164.2871
  87   2.0000      -6.034538      -164.2081
  88   2.0000      -6.034322      -164.2023
  89   2.0000      -6.032997      -164.1662
  90   2.0000      -6.032363      -164.1489
  91   2.0000      -6.028425      -164.0418
  92   2.0000      -6.027763      -164.0238
  93   2.0000      -6.025533      -163.9631
  94   2.0000      -6.024844      -163.9444
  95   2.0000      -1.352135       -36.7935
  96   2.0000      -1.338104       -36.4117
  97   2.0000      -1.167484       -31.7689
  98   2.0000      -1.164026       -31.6748
  99   2.0000      -1.146599       -31.2006
 100   2.0000      -1.124697       -30.6046
 101   2.0000      -1.095218       -29.8024
 102   2.0000      -1.094875       -29.7931
 103   2.0000      -1.051413       -28.6104
 104   2.0000      -1.027181       -27.9510
 105   2.0000      -1.024030       -27.8653
 106   2.0000      -1.003603       -27.3094
 107   2.0000      -1.001241       -27.2452
 108   2.0000      -0.997693       -27.1486
 109   2.0000      -0.995928       -27.1006
 110   2.0000      -0.986905       -26.8550
 111   2.0000      -0.984622       -26.7929
 112   2.0000      -0.981289       -26.7022
 113   2.0000      -0.975019       -26.5316
 114   2.0000      -0.962743       -26.1976
 115   2.0000      -0.960075       -26.1250
 116   2.0000      -0.939295       -25.5595
 117   2.0000      -0.933419       -25.3996
 118   2.0000      -0.922708       -25.1082
 119   2.0000      -0.920600       -25.0508
 120   2.0000      -0.898380       -24.4462
 121   2.0000      -0.893385       -24.3103
 122   2.0000      -0.888655       -24.1815
 123   2.0000      -0.883492       -24.0410
 124   2.0000      -0.860865       -23.4253
 125   2.0000      -0.849513       -23.1164
 126   2.0000      -0.846528       -23.0352
 127   2.0000      -0.841197       -22.8901
 128   2.0000      -0.834873       -22.7181
 129   2.0000      -0.832574       -22.6555
 130   2.0000      -0.824112       -22.4252
 131   2.0000      -0.821783       -22.3619
 132   2.0000      -0.820661       -22.3313
 133   2.0000      -0.809222       -22.0201
 134   2.0000      -0.801122       -21.7996
 135   2.0000      -0.788533       -21.4571
 136   2.0000      -0.786621       -21.4050
 137   2.0000      -0.784074       -21.3357
 138   2.0000      -0.779589       -21.2137
 139   2.0000      -0.759714       -20.6729
 140   2.0000      -0.755043       -20.5458
 141   2.0000      -0.741344       -20.1730
 142   2.0000      -0.727198       -19.7881
 143   2.0000      -0.717449       -19.5228
 144   2.0000      -0.709227       -19.2990
 145   2.0000      -0.704883       -19.1808
 146   2.0000      -0.694416       -18.8960
 147   2.0000      -0.693286       -18.8653
 148   2.0000      -0.690120       -18.7791
 149   2.0000      -0.683799       -18.6071
 150   2.0000      -0.674838       -18.3633
 151   2.0000      -0.670647       -18.2492
 152   2.0000      -0.656955       -17.8767
 153   2.0000      -0.647980       -17.6324
 154   2.0000      -0.645794       -17.5729
 155   2.0000      -0.639995       -17.4151
 156   2.0000      -0.639387       -17.3986
 157   2.0000      -0.637085       -17.3360
 158   2.0000      -0.635354       -17.2889
 159   2.0000      -0.632971       -17.2240
 160   2.0000      -0.630211       -17.1489
 161   2.0000      -0.628006       -17.0889
 162   2.0000      -0.625246       -17.0138
 163   2.0000      -0.615252       -16.7419
 164   2.0000      -0.607793       -16.5389
 165   2.0000      -0.594891       -16.1878
 166   2.0000      -0.594048       -16.1649
 167   2.0000      -0.594023       -16.1642
 168   2.0000      -0.581203       -15.8153
 169   2.0000      -0.578863       -15.7517
 170   2.0000      -0.578268       -15.7355
 171   2.0000      -0.573929       -15.6174
 172   2.0000      -0.570947       -15.5363
 173   2.0000      -0.565211       -15.3802
 174   2.0000      -0.560908       -15.2631
 175   2.0000      -0.559585       -15.2271
 176   2.0000      -0.552629       -15.0378
 177   2.0000      -0.545679       -14.8487
 178   2.0000      -0.542131       -14.7521
 179   2.0000      -0.540160       -14.6985
 180   2.0000      -0.538772       -14.6607
 181   2.0000      -0.536405       -14.5963
 182   2.0000      -0.534034       -14.5318
 183   2.0000      -0.529975       -14.4213
 184   2.0000      -0.526613       -14.3299
 185   2.0000      -0.521954       -14.2031
 186   2.0000      -0.520718       -14.1694
 187   2.0000      -0.516810       -14.0631
 188   2.0000      -0.514916       -14.0116
 189   2.0000      -0.514222       -13.9927
 190   2.0000      -0.510724       -13.8975
 191   2.0000      -0.510583       -13.8937
 192   2.0000      -0.510450       -13.8900
 193   2.0000      -0.499499       -13.5921
 194   2.0000      -0.499166       -13.5830
 195   2.0000      -0.496991       -13.5238
 196   2.0000      -0.496461       -13.5094
 197   2.0000      -0.496254       -13.5037
 198   2.0000      -0.494876       -13.4663
 199   2.0000      -0.492177       -13.3928
 200   2.0000      -0.489729       -13.3262
 201   2.0000      -0.489043       -13.3075
 202   2.0000      -0.485450       -13.2098
 203   2.0000      -0.483183       -13.1481
 204   2.0000      -0.482611       -13.1325
 205   2.0000      -0.477155       -12.9841
 206   2.0000      -0.476507       -12.9664
 207   2.0000      -0.469292       -12.7701
 208   2.0000      -0.467998       -12.7349
 209   2.0000      -0.462617       -12.5884
 210   2.0000      -0.459063       -12.4917
 211   2.0000      -0.455651       -12.3989
 212   2.0000      -0.454646       -12.3715
 213   2.0000      -0.451263       -12.2795
 214   2.0000      -0.444956       -12.1079
 215   2.0000      -0.443046       -12.0559
 216   2.0000      -0.441829       -12.0228
 217   2.0000      -0.439275       -11.9533
 218   2.0000      -0.438856       -11.9419
 219   2.0000      -0.437539       -11.9060
 220   2.0000      -0.435730       -11.8568
 221   2.0000      -0.434489       -11.8230
 222   2.0000      -0.434473       -11.8226
 223   2.0000      -0.432394       -11.7660
 224   2.0000      -0.431079       -11.7303
 225   2.0000      -0.430128       -11.7044
 226   2.0000      -0.427881       -11.6432
 227   2.0000      -0.422491       -11.4966
 228   2.0000      -0.421007       -11.4562
 229   2.0000      -0.418736       -11.3944
 230   2.0000      -0.417694       -11.3660
 231   2.0000      -0.416413       -11.3312
 232   2.0000      -0.415470       -11.3055
 233   2.0000      -0.414658       -11.2834
 234   2.0000      -0.414084       -11.2678
 235   2.0000      -0.413969       -11.2647
 236   2.0000      -0.412622       -11.2280
 237   2.0000      -0.403505       -10.9799
 238   2.0000      -0.400322       -10.8933
 239   2.0000      -0.385569       -10.4919
 240   2.0000      -0.383328       -10.4309
 241   2.0000      -0.377909       -10.2834
 242   2.0000      -0.370701       -10.0873
 243   2.0000      -0.369130       -10.0445
 244   2.0000      -0.368721       -10.0334
 245   2.0000      -0.364512        -9.9189
 246   2.0000      -0.350517        -9.5381
 247   2.0000      -0.348583        -9.4854
 248   2.0000      -0.340136        -9.2556
 249   2.0000      -0.337938        -9.1958
 250   2.0000      -0.333581        -9.0772
 251   2.0000      -0.329625        -8.9695
 252   2.0000      -0.328392        -8.9360
 253   2.0000      -0.316454        -8.6112
 254   2.0000      -0.303587        -8.2610
 255   2.0000      -0.286168        -7.7870
 256   2.0000      -0.260229        -7.0812
 257   2.0000      -0.228987        -6.2311
 258   0.0000      -0.125545        -3.4163
 259   0.0000      -0.076721        -2.0877
 260   0.0000      -0.074029        -2.0144
 261   0.0000      -0.033758        -0.9186
 262   0.0000      -0.025868        -0.7039

MULLIKEN ATOMIC CHARGES
-----------------------
   0 C :    0.156447
   1 C :   -0.319586
   2 C :   -0.196884
   3 N :    0.167161
   4 C :   -0.213521
   5 N :    0.144473
   6 N :   -0.233577
   7 C :    0.116585
   8 C :    0.211218
   9 O :   -0.183097
  10 C :   -0.157141
  11 S :    0.116109
  12 C :    0.015347
  13 C :   -0.064465
  14 C :   -0.036897
  15 C :    0.029902
  16 C :   -0.068064
  17 S :    0.143082
  18 C :   -0.050623
  19 C :    0.034422
  20 C :   -0.110845
  21 C :    0.110164
  22 C :    0.101202
  23 C :   -0.058460
  24 C :   -0.178197
  25 S :    0.173911
  26 C :    0.184444
  27 C :   -0.065371
  28 C :   -0.063422
  29 N :   -0.042246
  30 C :    0.149206
  31 C :    0.149928
  32 N :   -0.041899
  33 F :   -0.132625
  34 F :   -0.134738
  35 C :    0.179793
  36 C :   -0.014510
  37 C :   -0.016244
  38 N :   -0.290379
  39 S :    0.537039
  40 N :   -0.291486
  41 C :   -0.175345
  42 C :   -0.057019
  43 C :    0.039470
  44 C :   -0.055290
  45 S :    0.169220
  46 C :   -0.072836
  47 C :   -0.000690
  48 C :   -0.112609
  49 C :    0.113848
  50 C :    0.097437
  51 C :   -0.011447
  52 C :   -0.122910
  53 S :    0.154528
  54 C :    0.100597
  55 C :   -0.191492
  56 C :    0.244020
  57 O :   -0.200338
  58 N :   -0.239139
  59 C :    0.125494
  60 C :   -0.309672
  61 C :   -0.195906
  62 N :    0.163035
  63 C :   -0.219844
  64 N :    0.142124
  65 S :    0.143248
  66 C :    0.116333
  67 H :    0.064932
  68 H :    0.063136
  69 H :    0.065688
  70 H :    0.027404
  71 H :   -0.013286
  72 H :    0.012634
  73 H :    0.015643
  74 H :    0.022041
  75 H :    0.022655
  76 H :    0.014205
  77 H :    0.012566
  78 H :   -0.010448
  79 H :   -0.009081
  80 H :    0.013976
  81 H :    0.017469
  82 H :    0.019613
  83 H :    0.020664
  84 H :    0.020062
  85 H :    0.012255
  86 H :    0.008206
  87 H :    0.006679
  88 H :    0.063748
  89 H :    0.064264
  90 H :    0.064000
Sum of atomic charges:   -0.0000000

LOEWDIN ATOMIC CHARGES
----------------------
   0 C :   -0.028386
   1 C :   -0.211118
   2 C :   -0.033884
   3 N :   -0.062400
   4 C :   -0.041144
   5 N :   -0.052477
   6 N :   -0.007523
   7 C :    0.038424
   8 C :    0.068449
   9 O :   -0.175920
  10 C :   -0.237023
  11 S :    0.414100
  12 C :    0.001347
  13 C :   -0.184089
  14 C :   -0.026903
  15 C :   -0.037427
  16 C :   -0.176208
  17 S :    0.448256
  18 C :   -0.199121
  19 C :   -0.032269
  20 C :   -0.035135
  21 C :   -0.023163
  22 C :   -0.024456
  23 C :   -0.039119
  24 C :   -0.157469
  25 S :    0.479462
  26 C :   -0.047930
  27 C :   -0.017231
  28 C :   -0.017264
  29 N :   -0.054401
  30 C :    0.062806
  31 C :    0.062382
  32 N :   -0.053945
  33 F :   -0.022780
  34 F :   -0.024396
  35 C :   -0.048143
  36 C :   -0.037785
  37 C :   -0.038323
  38 N :   -0.280246
  39 S :    0.660612
  40 N :   -0.279451
  41 C :   -0.156633
  42 C :   -0.038906
  43 C :   -0.028967
  44 C :   -0.200427
  45 S :    0.476124
  46 C :   -0.173686
  47 C :   -0.037432
  48 C :   -0.035685
  49 C :   -0.022436
  50 C :   -0.024622
  51 C :   -0.015842
  52 C :   -0.179018
  53 S :    0.446583
  54 C :   -0.004501
  55 C :   -0.229493
  56 C :    0.074837
  57 O :   -0.177350
  58 N :   -0.005030
  59 C :   -0.034056
  60 C :   -0.217044
  61 C :   -0.034487
  62 N :   -0.067647
  63 C :   -0.041037
  64 N :   -0.054925
  65 S :    0.423510
  66 C :    0.036958
  67 H :    0.040430
  68 H :    0.040130
  69 H :    0.043508
  70 H :    0.055313
  71 H :    0.035093
  72 H :    0.024177
  73 H :    0.026057
  74 H :    0.030787
  75 H :    0.030335
  76 H :    0.025601
  77 H :    0.024112
  78 H :    0.029081
  79 H :    0.029312
  80 H :    0.025179
  81 H :    0.026605
  82 H :    0.029948
  83 H :    0.029597
  84 H :    0.027525
  85 H :    0.024452
  86 H :    0.034575
  87 H :    0.038130
  88 H :    0.041661
  89 H :    0.040467
  90 H :    0.040427

  Mayer bond orders larger than 0.100000
B(  0-C ,  1-C ) :   1.5766 B(  0-C ,  6-N ) :   1.2090 B(  0-C , 11-S ) :   1.0775
B(  1-C ,  2-C ) :   1.1674 B(  1-C ,  4-C ) :   1.1450 B(  2-C ,  3-N ) :   3.0111
B(  4-C ,  5-N ) :   3.0335 B(  6-N ,  7-C ) :   0.9337 B(  6-N ,  8-C ) :   1.0394
B(  7-C , 67-H ) :   0.9692 B(  7-C , 68-H ) :   0.9694 B(  7-C , 69-H ) :   0.9441
B(  8-C ,  9-O ) :   2.1562 B(  8-C , 10-C ) :   0.9799 B( 10-C , 11-S ) :   0.9909
B( 10-C , 12-C ) :   1.6511 B( 12-C , 13-C ) :   1.1873 B( 12-C , 70-H ) :   0.9631
B( 13-C , 14-C ) :   1.3717 B( 13-C , 17-S ) :   1.0797 B( 14-C , 15-C ) :   1.3462
B( 14-C , 71-H ) :   1.0147 B( 15-C , 16-C ) :   1.4669 B( 15-C , 20-C ) :   0.9314
B( 16-C , 17-S ) :   1.1166 B( 16-C , 18-C ) :   1.1961 B( 18-C , 19-C ) :   1.4681
B( 18-C , 25-S ) :   1.0573 B( 19-C , 20-C ) :   0.9390 B( 19-C , 23-C ) :   1.3167
B( 20-C , 21-C ) :   1.0307 B( 20-C , 22-C ) :   1.0417 B( 21-C , 72-H ) :   0.9648
B( 21-C , 73-H ) :   0.9652 B( 21-C , 74-H ) :   0.9631 B( 22-C , 75-H ) :   0.9650
B( 22-C , 76-H ) :   0.9642 B( 22-C , 77-H ) :   0.9640 B( 23-C , 24-C ) :   1.4039
B( 23-C , 78-H ) :   0.9953 B( 24-C , 25-S ) :   1.1002 B( 24-C , 26-C ) :   1.2059
B( 26-C , 27-C ) :   1.2790 B( 26-C , 35-C ) :   0.1173 B( 26-C , 37-C ) :   1.1926
B( 27-C , 28-C ) :   1.1308 B( 27-C , 32-N ) :   1.3825 B( 28-C , 29-N ) :   1.3808
B( 28-C , 35-C ) :   1.2789 B( 29-N , 30-C ) :   1.6486 B( 30-C , 31-C ) :   1.1122
B( 30-C , 34-F ) :   1.1869 B( 31-C , 32-N ) :   1.6493 B( 31-C , 33-F ) :   1.1887
B( 35-C , 36-C ) :   1.1880 B( 35-C , 41-C ) :   1.2083 B( 36-C , 37-C ) :   1.1038
B( 36-C , 40-N ) :   1.5180 B( 37-C , 38-N ) :   1.5191 B( 38-N , 39-S ) :   1.2674
B( 38-N , 40-N ) :   0.1491 B( 39-S , 40-N ) :   1.2679 B( 41-C , 42-C ) :   1.3990
B( 41-C , 45-S ) :   1.1035 B( 42-C , 43-C ) :   1.3201 B( 42-C , 79-H ) :   0.9943
B( 43-C , 44-C ) :   1.4698 B( 43-C , 48-C ) :   0.9390 B( 44-C , 45-S ) :   1.0495
B( 44-C , 46-C ) :   1.1982 B( 46-C , 47-C ) :   1.4559 B( 46-C , 53-S ) :   1.1172
B( 47-C , 48-C ) :   0.9357 B( 47-C , 51-C ) :   1.3488 B( 48-C , 49-C ) :   1.0305
B( 48-C , 50-C ) :   1.0437 B( 49-C , 80-H ) :   0.9647 B( 49-C , 81-H ) :   0.9652
B( 49-C , 82-H ) :   0.9621 B( 50-C , 83-H ) :   0.9654 B( 50-C , 84-H ) :   0.9643
B( 50-C , 85-H ) :   0.9635 B( 51-C , 52-C ) :   1.3884 B( 51-C , 86-H ) :   0.9841
B( 52-C , 53-S ) :   1.0703 B( 52-C , 54-C ) :   1.2437 B( 54-C , 55-C ) :   1.6468
B( 54-C , 87-H ) :   0.9258 B( 55-C , 56-C ) :   0.9938 B( 55-C , 65-S ) :   1.0042
B( 56-C , 57-O ) :   2.0448 B( 56-C , 58-N ) :   1.0595 B( 58-N , 59-C ) :   1.2045
B( 58-N , 66-C ) :   0.9357 B( 59-C , 60-C ) :   1.5381 B( 59-C , 65-S ) :   1.1018
B( 60-C , 61-C ) :   1.1719 B( 60-C , 63-C ) :   1.1522 B( 61-C , 62-N ) :   3.0084
B( 63-C , 64-N ) :   3.0327 B( 66-C , 88-H ) :   0.9428 B( 66-C , 89-H ) :   0.9691
B( 66-C , 90-H ) :   0.9693

-----------------------------------------------------------------------------
         ABSORPTION SPECTRUM VIA TRANSITION ELECTRIC DIPOLE MOMENTS
-----------------------------------------------------------------------------
State   Energy  Wavelength   fosc         T2         TX        TY        TZ
        (cm-1)    (nm)                  (au**2)     (au)      (au)      (au)
-----------------------------------------------------------------------------
   0    8231.6   1214.8   0.859093309  34.35826  -3.19601   3.34340   3.60076
   1   16407.7    609.5   0.202636675   4.06579   1.52203   1.25915  -0.40467
   2   19566.4    511.1   1.365075420  22.96787  -2.58155   2.12478   3.43348
   3   20418.5    489.8   0.632950377  10.20518   2.18059   2.31386   0.31026
   4   22856.3    437.5   0.069518329   1.00131   0.24388  -0.38903  -0.88909
   5   24639.0    405.9   0.001588454   0.02122  -0.09744   0.03787  -0.10146
   6   26519.6    377.1   0.034431948   0.42743  -0.62848  -0.17968   0.01264
   7   26847.9    372.5   0.000527227   0.00646   0.06037   0.02430   0.04723
   8   27439.0    364.4   0.145389517   1.74438  -1.26702  -0.33018  -0.17330
   9   28081.7    356.1   0.128718319   1.50901   0.35139  -0.34904   1.12415
  10   28538.0    350.4   0.155153722   1.78984   1.20830   0.46450   0.33778
  11   29603.7    337.8   0.070150295   0.78012   0.61416   0.23592   0.58929
  12   29930.9    334.1   0.017476958   0.19223   0.30587  -0.29997   0.09324
  13   30413.3    328.8   0.011215289   0.12140  -0.13619  -0.15821  -0.27897
  14   30932.7    323.3   0.227878302   2.42527  -1.11848   0.98319   0.45565
  15   32327.7    309.3   0.003458742   0.03522  -0.16844   0.03208   0.07631
  16   32719.5    305.6   0.207435656   2.08715  -1.06530   0.18902  -0.95737
  17   33038.0    302.7   0.001766399   0.01760   0.11956  -0.02782   0.05034
  18   33267.0    300.6   0.022095459   0.21866   0.39008  -0.22794   0.12058
  19   33422.6    299.2   0.030883026   0.30420   0.42053   0.09300   0.34454
  20   34001.9    294.1   0.067392104   0.65250  -0.78414   0.06346   0.18330
  21   34382.2    290.8   0.109928038   1.05257   0.70405  -0.31025   0.67869
  22   34626.4    288.8   0.010137292   0.09638   0.20909   0.00673   0.22939
  23   34703.3    288.2   0.000472046   0.00448   0.01940  -0.03005   0.05656
  24   35541.3    281.4   0.012134655   0.11240  -0.08270   0.21200   0.24621
  25   35908.1    278.5   0.626371124   5.74269   1.59933   0.10831   1.78132
  26   36801.9    271.7   0.049909683   0.44647   0.38782  -0.15099  -0.52275
  27   37292.6    268.1   0.001605776   0.01418  -0.08359  -0.06723   0.05166
  28   37896.6    263.9   0.071508445   0.62120  -0.52265   0.52637  -0.26641
  29   38052.1    262.8   0.008346988   0.07221   0.24825  -0.09572  -0.03776
  30   38313.7    261.0   0.014954070   0.12849  -0.15628   0.06227   0.31653
  31   38506.2    259.7   0.078388634   0.67019  -0.80724   0.10314  -0.08896
  32   38978.6    256.6   0.056044398   0.47335   0.14677   0.14784   0.65571
  33   39317.1    254.3   0.010353106   0.08669  -0.24627  -0.10315  -0.12410
  34   39447.5    253.5   0.057119865   0.47670   0.61264   0.08549   0.30670
  35   39529.9    253.0   0.142577541   1.18741  -0.86042   0.10557  -0.66026
  36   39768.3    251.5   0.013162103   0.10896  -0.24091   0.03990  -0.22210
  37   39908.2    250.6   0.035630407   0.29392  -0.40318   0.11458  -0.34386

FINAL SINGLE POINT ENERGY     -5448.110991312777

DIPOLE MOMENT
-------------
                                X             Y             Z
Electronic contribution:    -32.47688      15.17460     -39.45022
Nuclear contribution   :     38.93223     -13.98089      40.46358
                        -----------------------------------------
Total Dipole Moment    :      6.45535       1.19370       1.01336
                        -----------------------------------------
Magnitude (a.u.)       :      6.64255
Magnitude (Debye)      :     16.88401

Rotational constants in cm-1:     0.001372     0.000254     0.000232
Rotational constants in MHz :    41.142881     7.624037     6.942876

                             ****ORCA TERMINATED NORMALLY****
TOTAL RUN TIME: 0 days 0 hours 8 minutes 10 seconds 261 msec
