                         Program Version 4.2.0 -  RELEASE  -
|  1> # ORCA input file
|  2> # SCF done       -177.029542368037          0.000855044288
|  3> ! CAM-B3LYP def2-SVP def2/J RIJCOSX Grid4 TightSCF
|  4> %maxcore 5000
|  5> %tddft
|  6>     Mode sTDDFT
|  7>     Ethresh 5.0
|  8>     maxcore 5000
|  9> end
| 10>
| 11> %pal
| 12>   nprocs 6
| 13>   end
| 14> * xyz 0 1
| 15>    C        5.26621         1.87140         5.21578
| 16>    S        6.10583         3.11315         4.37769
| 17>    C        5.59315         2.46997         2.83879
| 18>    C        4.80857         1.35214         3.01128
| 19>    C        4.62807         1.01135         4.37552
| 20>    C        3.79332        -0.15225         4.81334
| 21>    C        3.57577        -1.12619         3.65652
| 22>    C        3.11638        -0.39064         2.38419
| 23>    N        1.89423         0.38222         2.53151
| 24>    C        4.22832         0.54151         1.89345
| 25>    C        5.98000         3.08661         1.60753
| 26>    C        6.75806         4.17749         1.52101
| 27>    C        7.17278         4.76386         0.26099
| 28>    C        7.49139         3.95494        -0.79023
| 29>    S        8.01945         4.77631        -2.20255
| 30>    C        7.77182         6.29387        -1.40002
| 31>    C        7.33756         6.16151        -0.07347
| 32>    C        7.10421         7.33989         0.67601
| 33>    C        6.58269         7.20288         2.08376
| 34>    C        7.72284         7.08781         3.09990
| 35>    C        7.36498         8.59018         0.12914
| 36>    C        7.17347         9.83329         0.95890
| 37>    C        5.80675        10.47104         0.69539
| 38>    C        7.77770         8.71884        -1.22196
| 39>    C        8.08352         9.87724        -2.04149
| 40>    C        8.40511         9.50741        -3.31844
| 41>    S        8.41681         7.82041        -3.61535
| 42>    C        7.95540         7.54217        -1.96888
| 43>    C        8.18470        11.26927        -1.65119
| 44>    C        9.04943        12.10847        -2.25188
| 45>    C        9.33053        13.44999        -1.86059
| 46>    S        8.19553        14.39041        -0.93576
| 47>    C        9.22109        15.77194        -1.01968
| 48>    C       10.36718        15.54454        -1.70751
| 49>    C       11.43060        16.57047        -1.91956
| 50>    C       10.46041        14.19693        -2.18229
| 51>    C       11.59514        13.69497        -2.90722
| 52>    C       11.96975        12.39367        -2.94110
| 53>    C       12.93065        11.82494        -3.81651
| 54>    C       12.92433        10.48425        -4.06404
| 55>    C       13.74674         9.79576        -4.97112
| 56>    C       13.49625         8.50654        -5.37250
| 57>    C       14.28670         7.68914        -6.21647
| 58>    C       13.75849         6.45821        -6.46246
| 59>    C       12.49972         6.23822        -5.85760
| 60>    S       12.03205         7.63844        -4.91613
| 61>    C       11.68225         5.13184        -5.96603
| 62>    C       11.97457         3.89983        -6.60218
| 63>    C       10.97073         2.99065        -6.52061
| 64>    C        9.80411         3.45420        -5.84386
| 65>    S       10.06159         5.10520        -5.30357
| 66>    C        8.70573         2.69638        -5.57172
| 67>    C        7.48067         3.12166        -4.95895
| 68>    C        6.76320         2.23613        -4.14887
| 69>    O        7.35528         1.01912        -3.98176
| 70>    C        6.59422        -0.12893        -3.67480
| 71>    C        5.56509         2.64372        -3.48091
| 72>    O        5.01578         1.73636        -2.61730
| 73>    C        3.83803         2.08921        -1.93310
| 74>    C        5.03081         3.89374        -3.68382
| 75>    C        5.68390         4.77677        -4.55311
| 76>    C        6.91990         4.40490        -5.18292
| 77>    N        7.36378         5.35175        -6.00254
| 78>    S        6.34679         6.59847        -5.95594
| 79>    N        5.27912         5.99430        -4.91122
| 80>    H        5.29348         1.84875         6.28735
| 81>    H        2.82646         0.21542         5.17620
| 82>    H        4.27285        -0.66248         5.65189
| 83>    H        2.83112        -1.87389         3.94106
| 84>    H        4.50911        -1.64792         3.43591
| 85>    H        2.91636        -1.13908         1.60547
| 86>    H        2.04797         1.16118         3.16293
| 87>    H        1.15217        -0.19265         2.91550
| 88>    H        3.81059         1.20012         1.12960
| 89>    H        5.02232        -0.05252         1.43032
| 90>    H        5.58750         2.62763         0.71058
| 91>    H        7.13577         4.61098         2.43439
| 92>    H        7.48985         2.88207        -0.79449
| 93>    H        5.95043         8.05089         2.34403
| 94>    H        5.95208         6.31505         2.13641
| 95>    H        7.32898         6.85545         4.08727
| 96>    H        8.28236         8.01854         3.16134
| 97>    H        8.42210         6.30707         2.80966
| 98>    H        7.97356        10.53622         0.72954
| 99>    H        7.25902         9.60679         2.01933
|100>    H        5.01062         9.80962         1.03109
|101>    H        5.65879        10.65273        -0.36634
|102>    H        5.71831        11.41587         1.22817
|103>    H        8.63146        10.16049        -4.13824
|104>    H        7.60008        11.64280        -0.82817
|105>    H        9.64032        11.75243        -3.08271
|106>    H        8.90808        16.68092        -0.54431
|107>    H       11.16206        17.50229        -1.42835
|108>    H       11.56421        16.76448        -2.98373
|109>    H       12.38049        16.22073        -1.51705
|110>    H       12.15830        14.42167        -3.47940
|111>    H       11.47137        11.69019        -2.28864
|112>    H       13.59654        12.47812        -4.36486
|113>    H       12.17714         9.88214        -3.55806
|114>    H       14.60667        10.30084        -5.39095
|115>    H       15.22678         8.03646        -6.60889
|116>    H       14.22776         5.71221        -7.07904
|117>    H       12.92041         3.71811        -7.08134
|118>    H       11.01278         1.99671        -6.93086
|119>    H        8.77446         1.63842        -5.79041
|120>    H        5.66957        -0.16949        -4.25459
|121>    H        6.35498        -0.18537        -2.61099
|122>    H        7.22917        -0.97306        -3.94713
|123>    H        3.58298         1.22119        -1.32624
|124>    H        3.01735         2.29712        -2.62601
|125>    H        3.99498         2.95806        -1.28592
|126>    H        4.13363         4.22708        -3.19276
|127> *
|128>
|129>                          ****END OF INPUT****

CARTESIAN COORDINATES (ANGSTROEM)
---------------------------------
  C      5.266210    1.871400    5.215780
  S      6.105830    3.113150    4.377690
  C      5.593150    2.469970    2.838790
  C      4.808570    1.352140    3.011280
  C      4.628070    1.011350    4.375520
  C      3.793320   -0.152250    4.813340
  C      3.575770   -1.126190    3.656520
  C      3.116380   -0.390640    2.384190
  N      1.894230    0.382220    2.531510
  C      4.228320    0.541510    1.893450
  C      5.980000    3.086610    1.607530
  C      6.758060    4.177490    1.521010
  C      7.172780    4.763860    0.260990
  C      7.491390    3.954940   -0.790230
  S      8.019450    4.776310   -2.202550
  C      7.771820    6.293870   -1.400020
  C      7.337560    6.161510   -0.073470
  C      7.104210    7.339890    0.676010
  C      6.582690    7.202880    2.083760
  C      7.722840    7.087810    3.099900
  C      7.364980    8.590180    0.129140
  C      7.173470    9.833290    0.958900
  C      5.806750   10.471040    0.695390
  C      7.777700    8.718840   -1.221960
  C      8.083520    9.877240   -2.041490
  C      8.405110    9.507410   -3.318440
  S      8.416810    7.820410   -3.615350
  C      7.955400    7.542170   -1.968880
  C      8.184700   11.269270   -1.651190
  C      9.049430   12.108470   -2.251880
  C      9.330530   13.449990   -1.860590
  S      8.195530   14.390410   -0.935760
  C      9.221090   15.771940   -1.019680
  C     10.367180   15.544540   -1.707510
  C     11.430600   16.570470   -1.919560
  C     10.460410   14.196930   -2.182290
  C     11.595140   13.694970   -2.907220
  C     11.969750   12.393670   -2.941100
  C     12.930650   11.824940   -3.816510
  C     12.924330   10.484250   -4.064040
  C     13.746740    9.795760   -4.971120
  C     13.496250    8.506540   -5.372500
  C     14.286700    7.689140   -6.216470
  C     13.758490    6.458210   -6.462460
  C     12.499720    6.238220   -5.857600
  S     12.032050    7.638440   -4.916130
  C     11.682250    5.131840   -5.966030
  C     11.974570    3.899830   -6.602180
  C     10.970730    2.990650   -6.520610
  C      9.804110    3.454200   -5.843860
  S     10.061590    5.105200   -5.303570
  C      8.705730    2.696380   -5.571720
  C      7.480670    3.121660   -4.958950
  C      6.763200    2.236130   -4.148870
  O      7.355280    1.019120   -3.981760
  C      6.594220   -0.128930   -3.674800
  C      5.565090    2.643720   -3.480910
  O      5.015780    1.736360   -2.617300
  C      3.838030    2.089210   -1.933100
  C      5.030810    3.893740   -3.683820
  C      5.683900    4.776770   -4.553110
  C      6.919900    4.404900   -5.182920
  N      7.363780    5.351750   -6.002540
  S      6.346790    6.598470   -5.955940
  N      5.279120    5.994300   -4.911220
  H      5.293480    1.848750    6.287350
  H      2.826460    0.215420    5.176200
  H      4.272850   -0.662480    5.651890
  H      2.831120   -1.873890    3.941060
  H      4.509110   -1.647920    3.435910
  H      2.916360   -1.139080    1.605470
  H      2.047970    1.161180    3.162930
  H      1.152170   -0.192650    2.915500
  H      3.810590    1.200120    1.129600
  H      5.022320   -0.052520    1.430320
  H      5.587500    2.627630    0.710580
  H      7.135770    4.610980    2.434390
  H      7.489850    2.882070   -0.794490
  H      5.950430    8.050890    2.344030
  H      5.952080    6.315050    2.136410
  H      7.328980    6.855450    4.087270
  H      8.282360    8.018540    3.161340
  H      8.422100    6.307070    2.809660
  H      7.973560   10.536220    0.729540
  H      7.259020    9.606790    2.019330
  H      5.010620    9.809620    1.031090
  H      5.658790   10.652730   -0.366340
  H      5.718310   11.415870    1.228170
  H      8.631460   10.160490   -4.138240
  H      7.600080   11.642800   -0.828170
  H      9.640320   11.752430   -3.082710
  H      8.908080   16.680920   -0.544310
  H     11.162060   17.502290   -1.428350
  H     11.564210   16.764480   -2.983730
  H     12.380490   16.220730   -1.517050
  H     12.158300   14.421670   -3.479400
  H     11.471370   11.690190   -2.288640
  H     13.596540   12.478120   -4.364860
  H     12.177140    9.882140   -3.558060
  H     14.606670   10.300840   -5.390950
  H     15.226780    8.036460   -6.608890
  H     14.227760    5.712210   -7.079040
  H     12.920410    3.718110   -7.081340
  H     11.012780    1.996710   -6.930860
  H      8.774460    1.638420   -5.790410
  H      5.669570   -0.169490   -4.254590
  H      6.354980   -0.185370   -2.610990
  H      7.229170   -0.973060   -3.947130
  H      3.582980    1.221190   -1.326240
  H      3.017350    2.297120   -2.626010
  H      3.994980    2.958060   -1.285920
  H      4.133630    4.227080   -3.192760

 Total Charge           Charge          ....    0
 Multiplicity           Mult            ....    1
 Number of Electrons    NEL             ....  514
 Basis Dimension        Dim             .... 1173

ORBITAL ENERGIES
----------------

  NO   OCC          E(Eh)            E(eV)
   0   2.0000     -88.994949     -2421.6757
   1   2.0000     -88.939256     -2420.1602
   2   2.0000     -88.935909     -2420.0691
   3   2.0000     -88.935766     -2420.0652
   4   2.0000     -88.934763     -2420.0379
   5   2.0000     -88.926436     -2419.8113
   6   2.0000     -88.922284     -2419.6984
   7   2.0000     -19.254049      -523.9293
   8   2.0000     -19.242695      -523.6204
   9   2.0000     -14.410496      -392.1295
  10   2.0000     -14.410093      -392.1186
  11   2.0000     -14.379083      -391.2747
  12   2.0000     -10.341981      -281.4196
  13   2.0000     -10.337160      -281.2884
  14   2.0000     -10.325512      -280.9715
  15   2.0000     -10.312791      -280.6253
  16   2.0000     -10.299343      -280.2594
  17   2.0000     -10.298985      -280.2496
  18   2.0000     -10.292714      -280.0790
  19   2.0000     -10.291911      -280.0571
  20   2.0000     -10.291244      -280.0390
  21   2.0000     -10.289715      -279.9974
  22   2.0000     -10.289141      -279.9818
  23   2.0000     -10.282228      -279.7936
  24   2.0000     -10.281843      -279.7832
  25   2.0000     -10.280969      -279.7594
  26   2.0000     -10.280326      -279.7419
  27   2.0000     -10.277928      -279.6766
  28   2.0000     -10.276656      -279.6420
  29   2.0000     -10.276094      -279.6267
  30   2.0000     -10.274969      -279.5961
  31   2.0000     -10.274163      -279.5742
  32   2.0000     -10.272370      -279.5254
  33   2.0000     -10.271745      -279.5084
  34   2.0000     -10.269236      -279.4401
  35   2.0000     -10.268831      -279.4291
  36   2.0000     -10.268101      -279.4092
  37   2.0000     -10.268007      -279.4067
  38   2.0000     -10.267748      -279.3996
  39   2.0000     -10.267449      -279.3915
  40   2.0000     -10.266258      -279.3591
  41   2.0000     -10.265942      -279.3505
  42   2.0000     -10.264375      -279.3079
  43   2.0000     -10.263545      -279.2853
  44   2.0000     -10.263524      -279.2847
  45   2.0000     -10.263381      -279.2808
  46   2.0000     -10.263040      -279.2715
  47   2.0000     -10.262671      -279.2615
  48   2.0000     -10.261933      -279.2414
  49   2.0000     -10.261167      -279.2205
  50   2.0000     -10.260992      -279.2158
  51   2.0000     -10.260862      -279.2123
  52   2.0000     -10.260343      -279.1981
  53   2.0000     -10.260255      -279.1957
  54   2.0000     -10.260028      -279.1896
  55   2.0000     -10.259791      -279.1831
  56   2.0000     -10.259338      -279.1708
  57   2.0000     -10.259283      -279.1693
  58   2.0000     -10.258774      -279.1554
  59   2.0000     -10.257778      -279.1283
  60   2.0000     -10.257451      -279.1194
  61   2.0000     -10.252450      -278.9833
  62   2.0000     -10.251449      -278.9561
  63   2.0000     -10.247059      -278.8367
  64   2.0000     -10.245564      -278.7960
  65   2.0000      -8.086597      -220.0475
  66   2.0000      -8.034798      -218.6380
  67   2.0000      -8.031511      -218.5485
  68   2.0000      -8.030766      -218.5283
  69   2.0000      -8.030526      -218.5217
  70   2.0000      -8.022582      -218.3056
  71   2.0000      -8.017954      -218.1796
  72   2.0000      -6.057863      -164.8428
  73   2.0000      -6.050209      -164.6346
  74   2.0000      -6.048828      -164.5970
  75   2.0000      -6.004014      -163.3775
  76   2.0000      -6.000961      -163.2944
  77   2.0000      -6.000311      -163.2768
  78   2.0000      -5.999929      -163.2664
  79   2.0000      -5.999815      -163.2633
  80   2.0000      -5.997120      -163.1899
  81   2.0000      -5.996667      -163.1776
  82   2.0000      -5.996084      -163.1617
  83   2.0000      -5.995646      -163.1498
  84   2.0000      -5.993368      -163.0878
  85   2.0000      -5.992746      -163.0709
  86   2.0000      -5.992496      -163.0641
  87   2.0000      -5.992316      -163.0592
  88   2.0000      -5.988337      -162.9509
  89   2.0000      -5.987772      -162.9355
  90   2.0000      -5.983664      -162.8238
  91   2.0000      -5.983440      -162.8177
  92   2.0000      -5.978702      -162.6887
  93   2.0000      -1.162075       -31.6217
  94   2.0000      -1.137622       -30.9563
  95   2.0000      -1.096802       -29.8455
  96   2.0000      -0.986142       -26.8343
  97   2.0000      -0.982748       -26.7419
  98   2.0000      -0.977168       -26.5901
  99   2.0000      -0.966998       -26.3134
 100   2.0000      -0.961842       -26.1730
 101   2.0000      -0.958717       -26.0880
 102   2.0000      -0.954980       -25.9863
 103   2.0000      -0.949529       -25.8380
 104   2.0000      -0.939338       -25.5607
 105   2.0000      -0.911076       -24.7916
 106   2.0000      -0.900326       -24.4991
 107   2.0000      -0.893703       -24.3189
 108   2.0000      -0.884291       -24.0628
 109   2.0000      -0.877293       -23.8724
 110   2.0000      -0.872295       -23.7363
 111   2.0000      -0.865571       -23.5534
 112   2.0000      -0.853956       -23.2373
 113   2.0000      -0.851841       -23.1798
 114   2.0000      -0.848105       -23.0781
 115   2.0000      -0.844208       -22.9721
 116   2.0000      -0.839625       -22.8474
 117   2.0000      -0.835952       -22.7474
 118   2.0000      -0.826875       -22.5004
 119   2.0000      -0.821601       -22.3569
 120   2.0000      -0.814881       -22.1740
 121   2.0000      -0.804965       -21.9042
 122   2.0000      -0.801463       -21.8089
 123   2.0000      -0.797876       -21.7113
 124   2.0000      -0.795778       -21.6542
 125   2.0000      -0.786752       -21.4086
 126   2.0000      -0.779814       -21.2198
 127   2.0000      -0.772819       -21.0295
 128   2.0000      -0.768150       -20.9024
 129   2.0000      -0.752230       -20.4692
 130   2.0000      -0.749225       -20.3875
 131   2.0000      -0.734375       -19.9833
 132   2.0000      -0.721431       -19.6311
 133   2.0000      -0.709226       -19.2990
 134   2.0000      -0.708195       -19.2710
 135   2.0000      -0.701626       -19.0922
 136   2.0000      -0.694769       -18.9056
 137   2.0000      -0.690131       -18.7794
 138   2.0000      -0.681663       -18.5490
 139   2.0000      -0.677784       -18.4434
 140   2.0000      -0.675203       -18.3732
 141   2.0000      -0.674062       -18.3422
 142   2.0000      -0.656105       -17.8535
 143   2.0000      -0.654284       -17.8040
 144   2.0000      -0.652733       -17.7618
 145   2.0000      -0.635389       -17.2898
 146   2.0000      -0.632605       -17.2141
 147   2.0000      -0.625155       -17.0113
 148   2.0000      -0.619102       -16.8466
 149   2.0000      -0.616960       -16.7883
 150   2.0000      -0.612725       -16.6731
 151   2.0000      -0.608150       -16.5486
 152   2.0000      -0.606423       -16.5016
 153   2.0000      -0.600354       -16.3365
 154   2.0000      -0.598294       -16.2804
 155   2.0000      -0.593377       -16.1466
 156   2.0000      -0.591463       -16.0945
 157   2.0000      -0.589447       -16.0397
 158   2.0000      -0.579437       -15.7673
 159   2.0000      -0.578399       -15.7390
 160   2.0000      -0.574944       -15.6450
 161   2.0000      -0.572831       -15.5875
 162   2.0000      -0.565446       -15.3866
 163   2.0000      -0.562976       -15.3194
 164   2.0000      -0.560431       -15.2501
 165   2.0000      -0.543501       -14.7894
 166   2.0000      -0.541237       -14.7278
 167   2.0000      -0.535525       -14.5724
 168   2.0000      -0.534130       -14.5344
 169   2.0000      -0.530677       -14.4404
 170   2.0000      -0.529673       -14.4131
 171   2.0000      -0.526643       -14.3307
 172   2.0000      -0.524044       -14.2600
 173   2.0000      -0.522194       -14.2096
 174   2.0000      -0.518505       -14.1092
 175   2.0000      -0.517172       -14.0730
 176   2.0000      -0.515071       -14.0158
 177   2.0000      -0.513314       -13.9680
 178   2.0000      -0.507575       -13.8118
 179   2.0000      -0.505615       -13.7585
 180   2.0000      -0.502179       -13.6650
 181   2.0000      -0.496920       -13.5219
 182   2.0000      -0.495164       -13.4741
 183   2.0000      -0.493681       -13.4337
 184   2.0000      -0.492585       -13.4039
 185   2.0000      -0.488244       -13.2858
 186   2.0000      -0.484954       -13.1963
 187   2.0000      -0.481656       -13.1065
 188   2.0000      -0.480144       -13.0654
 189   2.0000      -0.479000       -13.0343
 190   2.0000      -0.478110       -13.0100
 191   2.0000      -0.477398       -12.9907
 192   2.0000      -0.470485       -12.8025
 193   2.0000      -0.468581       -12.7507
 194   2.0000      -0.468085       -12.7372
 195   2.0000      -0.466257       -12.6875
 196   2.0000      -0.464709       -12.6454
 197   2.0000      -0.461090       -12.5469
 198   2.0000      -0.460519       -12.5314
 199   2.0000      -0.457287       -12.4434
 200   2.0000      -0.455318       -12.3898
 201   2.0000      -0.450666       -12.2633
 202   2.0000      -0.446832       -12.1589
 203   2.0000      -0.445382       -12.1195
 204   2.0000      -0.443564       -12.0700
 205   2.0000      -0.441901       -12.0247
 206   2.0000      -0.440802       -11.9948
 207   2.0000      -0.438905       -11.9432
 208   2.0000      -0.437481       -11.9045
 209   2.0000      -0.434616       -11.8265
 210   2.0000      -0.432655       -11.7732
 211   2.0000      -0.431572       -11.7437
 212   2.0000      -0.429786       -11.6951
 213   2.0000      -0.428121       -11.6498
 214   2.0000      -0.426866       -11.6156
 215   2.0000      -0.424349       -11.5471
 216   2.0000      -0.423215       -11.5163
 217   2.0000      -0.418310       -11.3828
 218   2.0000      -0.417533       -11.3617
 219   2.0000      -0.415434       -11.3045
 220   2.0000      -0.414039       -11.2666
 221   2.0000      -0.411084       -11.1862
 222   2.0000      -0.409260       -11.1365
 223   2.0000      -0.402282       -10.9466
 224   2.0000      -0.399344       -10.8667
 225   2.0000      -0.396760       -10.7964
 226   2.0000      -0.395235       -10.7549
 227   2.0000      -0.391679       -10.6581
 228   2.0000      -0.390791       -10.6340
 229   2.0000      -0.389344       -10.5946
 230   2.0000      -0.386832       -10.5262
 231   2.0000      -0.383197       -10.4273
 232   2.0000      -0.380106       -10.3432
 233   2.0000      -0.376255       -10.2384
 234   2.0000      -0.373070       -10.1517
 235   2.0000      -0.370669       -10.0864
 236   2.0000      -0.367945       -10.0123
 237   2.0000      -0.363910        -9.9025
 238   2.0000      -0.356003        -9.6873
 239   2.0000      -0.355289        -9.6679
 240   2.0000      -0.345469        -9.4007
 241   2.0000      -0.337039        -9.1713
 242   2.0000      -0.325333        -8.8528
 243   2.0000      -0.318401        -8.6641
 244   2.0000      -0.312846        -8.5130
 245   2.0000      -0.306207        -8.3323
 246   2.0000      -0.305175        -8.3042
 247   2.0000      -0.294806        -8.0221
 248   2.0000      -0.293948        -7.9987
 249   2.0000      -0.282886        -7.6977
 250   2.0000      -0.278681        -7.5833
 251   2.0000      -0.273914        -7.4536
 252   2.0000      -0.269157        -7.3241
 253   2.0000      -0.252754        -6.8778
 254   2.0000      -0.237453        -6.4614
 255   2.0000      -0.230204        -6.2642
 256   2.0000      -0.192326        -5.2334
 257   0.0000      -0.064944        -1.7672
 258   0.0000      -0.032515        -0.8848
 259   0.0000      -0.017248        -0.4693
 260   0.0000      -0.012573        -0.3421
 261   0.0000       0.013262         0.3609

MULLIKEN ATOMIC CHARGES
-----------------------
   0 C :   -0.126511
   1 S :    0.087117
   2 C :   -0.126618
   3 C :   -0.080610
   4 C :   -0.060487
   5 C :    0.123949
   6 C :    0.049808
   7 C :   -0.028505
   8 N :   -0.187612
   9 C :    0.157564
  10 C :   -0.006026
  11 C :   -0.030162
  12 C :    0.071931
  13 C :   -0.120546
  14 S :    0.112416
  15 C :   -0.125839
  16 C :    0.114327
  17 C :   -0.129572
  18 C :    0.016438
  19 C :    0.042877
  20 C :   -0.115992
  21 C :    0.018405
  22 C :    0.042333
  23 C :    0.110305
  24 C :    0.076701
  25 C :   -0.138619
  26 S :    0.140964
  27 C :   -0.144504
  28 C :   -0.040676
  29 C :   -0.009626
  30 C :   -0.140999
  31 S :    0.095954
  32 C :   -0.128463
  33 C :   -0.073236
  34 C :    0.118691
  35 C :    0.122993
  36 C :   -0.047683
  37 C :   -0.002073
  38 C :    0.010739
  39 C :   -0.011212
  40 C :   -0.015045
  41 C :   -0.019140
  42 C :    0.032485
  43 C :    0.026929
  44 C :   -0.060910
  45 S :    0.066765
  46 C :   -0.051863
  47 C :    0.030442
  48 C :    0.032466
  49 C :    0.009292
  50 S :    0.115219
  51 C :   -0.060993
  52 C :    0.009250
  53 C :    0.104234
  54 O :   -0.312946
  55 C :    0.207326
  56 C :    0.223615
  57 O :   -0.338637
  58 C :    0.168605
  59 C :   -0.194301
  60 C :    0.088767
  61 C :   -0.021385
  62 N :   -0.277568
  63 S :    0.479787
  64 N :   -0.269602
  65 H :    0.005707
  66 H :    0.000333
  67 H :    0.006165
  68 H :   -0.008788
  69 H :   -0.000906
  70 H :   -0.013883
  71 H :    0.096232
  72 H :    0.088171
  73 H :    0.009142
  74 H :    0.014281
  75 H :   -0.030284
  76 H :    0.001898
  77 H :    0.018680
  78 H :   -0.001836
  79 H :    0.010623
  80 H :    0.013311
  81 H :    0.006480
  82 H :    0.019834
  83 H :    0.012382
  84 H :   -0.006471
  85 H :    0.004085
  86 H :    0.018867
  87 H :    0.013439
  88 H :    0.025388
  89 H :   -0.010682
  90 H :    0.003833
  91 H :    0.007784
  92 H :    0.004233
  93 H :    0.026432
  94 H :    0.026192
  95 H :   -0.020841
  96 H :    0.016599
  97 H :   -0.018043
  98 H :    0.004071
  99 H :   -0.020507
 100 H :   -0.018986
 101 H :   -0.017387
 102 H :   -0.020119
 103 H :   -0.017277
 104 H :   -0.008923
 105 H :    0.014039
 106 H :    0.027100
 107 H :    0.025074
 108 H :    0.044013
 109 H :    0.030123
 110 H :    0.044390
 111 H :   -0.034699
Sum of atomic charges:   -0.0000000

LOEWDIN ATOMIC CHARGES
----------------------
   0 C :   -0.194466
   1 S :    0.421671
   2 C :   -0.177527
   3 C :   -0.067934
   4 C :   -0.073157
   5 C :   -0.029563
   6 C :   -0.041751
   7 C :    0.013105
   8 N :   -0.104396
   9 C :   -0.028841
  10 C :   -0.044197
  11 C :   -0.025336
  12 C :   -0.063884
  13 C :   -0.170984
  14 S :    0.451899
  15 C :   -0.178064
  16 C :   -0.044813
  17 C :   -0.022364
  18 C :   -0.032898
  19 C :   -0.052032
  20 C :   -0.021753
  21 C :   -0.033336
  22 C :   -0.052296
  23 C :   -0.040397
  24 C :   -0.060093
  25 C :   -0.176709
  26 S :    0.427532
  27 C :   -0.178613
  28 C :   -0.034958
  29 C :   -0.037316
  30 C :   -0.166625
  31 S :    0.416342
  32 C :   -0.195891
  33 C :   -0.059528
  34 C :   -0.044997
  35 C :   -0.062292
  36 C :   -0.033928
  37 C :   -0.023105
  38 C :   -0.028593
  39 C :   -0.033106
  40 C :   -0.068676
  41 C :   -0.139348
  42 C :   -0.043186
  43 C :   -0.030726
  44 C :   -0.186380
  45 S :    0.365457
  46 C :   -0.176394
  47 C :   -0.036871
  48 C :   -0.029174
  49 C :   -0.135281
  50 S :    0.399071
  51 C :   -0.047033
  52 C :   -0.068614
  53 C :    0.042987
  54 O :   -0.098893
  55 C :    0.076804
  56 C :    0.035841
  57 O :   -0.098884
  58 C :    0.076251
  59 C :   -0.079107
  60 C :   -0.060108
  61 C :   -0.070936
  62 N :   -0.296673
  63 S :    0.622134
  64 N :   -0.294589
  65 H :    0.018835
  66 H :    0.022899
  67 H :    0.031925
  68 H :    0.018467
  69 H :    0.022986
  70 H :    0.017922
  71 H :    0.051417
  72 H :    0.052243
  73 H :    0.028271
  74 H :    0.032564
  75 H :    0.027373
  76 H :    0.021925
  77 H :    0.020516
  78 H :    0.024807
  79 H :    0.029117
  80 H :    0.023432
  81 H :    0.023163
  82 H :    0.022919
  83 H :    0.028164
  84 H :    0.024099
  85 H :    0.023523
  86 H :    0.024164
  87 H :    0.023554
  88 H :    0.021418
  89 H :    0.020916
  90 H :    0.032383
  91 H :    0.018343
  92 H :    0.031033
  93 H :    0.033469
  94 H :    0.034924
  95 H :    0.024203
  96 H :    0.034021
  97 H :    0.024598
  98 H :    0.021856
  99 H :    0.029889
 100 H :    0.030723
 101 H :    0.029803
 102 H :    0.029023
 103 H :    0.030894
 104 H :    0.032758
 105 H :    0.014283
 106 H :    0.013502
 107 H :    0.020971
 108 H :    0.028549
 109 H :    0.018835
 110 H :    0.019433
 111 H :    0.037406

  Mayer bond orders larger than 0.100000
B(  0-C ,  1-S ) :   1.1463 B(  0-C ,  4-C ) :   1.5838 B(  0-C , 65-H ) :   0.9715
B(  1-S ,  2-C ) :   1.1277 B(  2-C ,  3-C ) :   1.5197 B(  2-C , 10-C ) :   1.1209
B(  3-C ,  4-C ) :   1.2832 B(  3-C ,  9-C ) :   1.0466 B(  4-C ,  5-C ) :   1.0236
B(  5-C ,  6-C ) :   1.0768 B(  5-C , 66-H ) :   0.9177 B(  5-C , 67-H ) :   0.9222
B(  6-C ,  7-C ) :   1.0269 B(  6-C , 68-H ) :   0.9317 B(  6-C , 69-H ) :   0.9362
B(  7-C ,  8-N ) :   1.1003 B(  7-C ,  9-C ) :   1.0520 B(  7-C , 70-H ) :   0.9194
B(  8-N , 71-H ) :   0.9734 B(  8-N , 72-H ) :   0.9731 B(  9-C , 73-H ) :   0.9001
B(  9-C , 74-H ) :   0.9131 B( 10-C , 11-C ) :   1.7616 B( 10-C , 75-H ) :   0.9692
B( 11-C , 12-C ) :   1.0114 B( 11-C , 76-H ) :   0.9509 B( 12-C , 13-C ) :   1.6087
B( 12-C , 16-C ) :   1.1466 B( 13-C , 14-S ) :   1.1148 B( 13-C , 77-H ) :   0.9644
B( 14-S , 15-C ) :   1.0805 B( 15-C , 16-C ) :   1.3697 B( 15-C , 27-C ) :   1.3712
B( 16-C , 17-C ) :   1.2590 B( 17-C , 18-C ) :   1.0593 B( 17-C , 20-C ) :   1.5190
B( 18-C , 19-C ) :   1.1109 B( 18-C , 78-H ) :   0.9111 B( 18-C , 79-H ) :   0.9211
B( 19-C , 80-H ) :   0.9657 B( 19-C , 81-H ) :   0.9565 B( 19-C , 82-H ) :   0.9568
B( 20-C , 21-C ) :   1.0596 B( 20-C , 23-C ) :   1.2517 B( 21-C , 22-C ) :   1.1106
B( 21-C , 83-H ) :   0.9249 B( 21-C , 84-H ) :   0.9105 B( 22-C , 85-H ) :   0.9559
B( 22-C , 86-H ) :   0.9645 B( 22-C , 87-H ) :   0.9652 B( 23-C , 24-C ) :   1.1409
B( 23-C , 27-C ) :   1.3761 B( 24-C , 25-C ) :   1.5977 B( 24-C , 28-C ) :   1.0418
B( 25-C , 26-S ) :   1.1146 B( 25-C , 88-H ) :   0.9558 B( 26-S , 27-C ) :   1.0852
B( 28-C , 29-C ) :   1.7378 B( 28-C , 89-H ) :   0.9656 B( 29-C , 30-C ) :   1.1295
B( 29-C , 90-H ) :   0.9595 B( 30-C , 31-S ) :   1.1312 B( 30-C , 35-C ) :   1.4577
B( 31-S , 32-C ) :   1.1255 B( 32-C , 33-C ) :   1.6150 B( 32-C , 91-H ) :   0.9648
B( 33-C , 34-C ) :   1.0963 B( 33-C , 35-C ) :   1.2118 B( 34-C , 92-H ) :   0.9514
B( 34-C , 93-H ) :   0.9422 B( 34-C , 94-H ) :   0.9454 B( 35-C , 36-C ) :   1.0972
B( 36-C , 37-C ) :   1.6653 B( 36-C , 95-H ) :   0.9607 B( 37-C , 38-C ) :   1.1264
B( 37-C , 96-H ) :   0.9793 B( 38-C , 39-C ) :   1.6264 B( 38-C , 97-H ) :   0.9912
B( 39-C , 40-C ) :   1.1472 B( 39-C , 98-H ) :   0.9722 B( 40-C , 41-C ) :   1.5714
B( 40-C , 99-H ) :   0.9815 B( 41-C , 42-C ) :   1.1420 B( 41-C , 45-S ) :   1.0316
B( 42-C , 43-C ) :   1.5907 B( 42-C ,100-H ) :   0.9984 B( 43-C , 44-C ) :   1.1876
B( 43-C ,101-H ) :   0.9926 B( 44-C , 45-S ) :   1.0376 B( 44-C , 46-C ) :   1.5158
B( 46-C , 47-C ) :   1.1673 B( 46-C , 50-S ) :   1.0692 B( 47-C , 48-C ) :   1.6161
B( 47-C ,102-H ) :   0.9920 B( 48-C , 49-C ) :   1.1219 B( 48-C ,103-H ) :   0.9967
B( 49-C , 50-S ) :   1.0335 B( 49-C , 51-C ) :   1.6434 B( 51-C , 52-C ) :   1.0836
B( 51-C ,104-H ) :   0.9509 B( 52-C , 53-C ) :   1.4699 B( 52-C , 59-C ) :   0.1140
B( 52-C , 61-C ) :   1.1704 B( 53-C , 54-O ) :   1.2174 B( 53-C , 56-C ) :   1.1592
B( 54-O , 55-C ) :   0.9370 B( 55-C ,105-H ) :   0.9732 B( 55-C ,106-H ) :   0.9739
B( 55-C ,107-H ) :   0.9774 B( 56-C , 57-O ) :   1.1219 B( 56-C , 59-C ) :   1.3769
B( 57-O , 58-C ) :   0.9535 B( 58-C ,108-H ) :   0.9742 B( 58-C ,109-H ) :   0.9652
B( 58-C ,110-H ) :   0.9620 B( 59-C , 60-C ) :   1.1382 B( 59-C ,111-H ) :   1.0387
B( 60-C , 61-C ) :   1.1624 B( 60-C , 64-N ) :   1.5403 B( 61-C , 62-N ) :   1.5400
B( 62-N , 63-S ) :   1.2517 B( 62-N , 64-N ) :   0.1412 B( 63-S , 64-N ) :   1.2585

-----------------------------------------------------------------------------
         ABSORPTION SPECTRUM VIA TRANSITION ELECTRIC DIPOLE MOMENTS
-----------------------------------------------------------------------------
State   Energy  Wavelength   fosc         T2         TX        TY        TZ
        (cm-1)    (nm)                  (au**2)     (au)      (au)      (au)
-----------------------------------------------------------------------------
   0   13568.2    737.0   0.676793229  16.42139   1.78505   3.56989   0.70064
   1   19111.5    523.2   0.198491800   3.41919   0.64143  -1.48871  -0.88967
   2   21170.4    472.4   0.132145737   2.05495  -1.16265  -0.78037   0.30696
   3   23409.8    427.2   0.433678246   6.09882  -1.86972  -1.59492   0.24330
   4   23821.7    419.8   0.064966551   0.89783  -0.72909  -0.60253  -0.05662
   5   25785.7    387.8   0.360130662   4.59788  -1.71217   0.72450   1.06839
   6   27192.3    367.8   0.108347588   1.31174   0.83343   0.74834  -0.23901
   7   27208.7    367.5   0.014871456   0.17994   0.23383   0.34950  -0.05578
   8   29351.2    340.7   0.155152047   1.74023  -0.94753  -0.00956   0.91779
   9   29471.8    339.3   0.113978881   1.27319   1.00101  -0.52070   0.00563
  10   29769.2    335.9   0.018036724   0.19946  -0.24617   0.16326   0.33498
  11   30725.8    325.5   0.211706042   2.26832  -0.07810  -1.34818  -0.66681
  12   30868.9    324.0   0.440793637   4.70100  -0.08074  -2.15051  -0.26420
  13   31591.2    316.5   0.004866207   0.05071   0.17448   0.08996  -0.11034
  14   32196.1    310.6   0.074572401   0.76252  -0.65145   0.04374   0.57984
  15   32214.6    310.4   0.633020965   6.46905  -0.53313  -1.74201   1.77489
  16   32377.1    308.9   0.240188311   2.44224  -1.02481   0.28868   1.14397
  17   32692.2    305.9   0.007742017   0.07796  -0.20482   0.16116   0.10019
  18   32985.7    303.2   0.011800066   0.11777   0.15416  -0.25776   0.16603
  19   33168.0    301.5   0.034886521   0.34627  -0.27220   0.15171   0.49916
  20   34009.5    294.0   0.133723326   1.29444  -0.05866   1.10371   0.26986
  21   34287.9    291.6   0.033021187   0.31705  -0.11624   0.53128   0.14587
  22   35063.6    285.2   0.065360318   0.61367  -0.70210  -0.32469   0.12370
  23   35231.0    283.8   0.063247280   0.59101  -0.51845  -0.26046   0.50436
  24   36176.6    276.4   0.042592958   0.38760  -0.18204   0.31713   0.50388
  25   36967.1    270.5   0.048809753   0.43468   0.38524  -0.42706  -0.32231
  26   36982.9    270.4   0.037952788   0.33785  -0.19511  -0.49235   0.23952
  27   37227.6    268.6   0.055843788   0.49384  -0.20614  -0.34571   0.57605
  28   37498.6    266.7   0.100289313   0.88047   0.08709  -0.93425   0.00800
  29   37834.6    264.3   0.065479121   0.56976  -0.47156   0.16344   0.56628
  30   37953.2    263.5   0.163954453   1.42217   0.00050  -1.17482   0.20488
  31   38401.3    260.4   0.132929623   1.13960   0.21195   1.04265   0.08693
  32   38591.2    259.1   0.022407613   0.19115   0.08613   0.30083  -0.30535
  33   38973.2    256.6   0.052709417   0.44524  -0.24319  -0.53797  -0.31095
  34   39087.6    255.8   0.054162573   0.45618  -0.39476   0.15935   0.52436
  35   39413.9    253.7   0.029722475   0.24826   0.06877  -0.37151  -0.32483
  36   39873.0    250.8   0.094620886   0.78124  -0.29363   0.83309   0.03127
  37   40135.7    249.2   0.116969745   0.95944  -0.78174   0.55321   0.20564
  38   40266.3    248.3   0.438075780   3.58165   0.51612   1.59857  -0.87169

FINAL SINGLE POINT ENERGY     -5145.988825817587

DIPOLE MOMENT
-------------
                                X             Y             Z
Electronic contribution:     24.04638      10.68229     -57.08667
Nuclear contribution   :    -24.61688     -12.26721      57.87543
                        -----------------------------------------
Total Dipole Moment    :     -0.57049      -1.58491       0.78877
                        -----------------------------------------
Magnitude (a.u.)       :      1.85999
Magnitude (Debye)      :      4.72772

Rotational constants in cm-1:     0.001274     0.000630     0.000481
Rotational constants in MHz :    38.204140    18.886197    14.408611

                             ****ORCA TERMINATED NORMALLY****
TOTAL RUN TIME: 0 days 0 hours 16 minutes 21 seconds 128 msec
