                         Program Version 4.2.0 -  RELEASE  -
|  1> # ORCA input file
|  2> # SCF done       -138.074420419269          0.004031152255
|  3> ! CAM-B3LYP def2-SVP def2/J RIJCOSX Grid4 TightSCF
|  4> %maxcore 5000
|  5> %tddft
|  6>     Mode sTDDFT
|  7>     Ethresh 5.0
|  8>     maxcore 5000
|  9> end
| 10>
| 11> %pal
| 12>   nprocs 6
| 13>   end
| 14> * xyz 0 1
| 15>    C       -0.04177        -8.12695        -1.63558
| 16>    O       -1.18619        -7.76059        -1.60257
| 17>    C        0.56556        -9.39242        -1.16610
| 18>    C        1.93956        -9.34380        -1.41729
| 19>    C        2.76459       -10.39915        -1.08773
| 20>    C        2.18034       -11.51002        -0.48774
| 21>    C        0.81853       -11.55512        -0.23177
| 22>    C       -0.01409       -10.49325        -0.57142
| 23>    C        2.25924        -8.03693        -2.03265
| 24>    O        3.31870        -7.56835        -2.34528
| 25>    N        1.01978        -7.38766        -2.16853
| 26>    C        0.87702        -6.10317        -2.69057
| 27>    S        0.06465        -4.89407        -1.75691
| 28>    C        0.45624        -3.70599        -2.94337
| 29>    C        1.17399        -4.19952        -3.98086
| 30>    C        1.63323        -3.38246        -5.14235
| 31>    C        1.41521        -5.60982        -3.86055
| 32>    C        2.10151        -6.37058        -4.86744
| 33>    C        1.93265        -7.69112        -5.11367
| 34>    C        2.61832        -8.44172        -6.10591
| 35>    C        3.67138        -8.00993        -6.85671
| 36>    C        4.31806        -8.80788        -7.81176
| 37>    C        5.41245        -8.40508        -8.53426
| 38>    C        6.15386        -9.16284        -9.47184
| 39>    C        7.24189        -8.52071        -9.98194
| 40>    C        7.43632        -7.22143        -9.46111
| 41>    S        6.14180        -6.81024        -8.36133
| 42>    C        8.50866        -6.37786        -9.66835
| 43>    C        9.67237        -6.60854       -10.43198
| 44>    C       10.62507        -5.64870       -10.28176
| 45>    C       10.28518        -4.61816        -9.36444
| 46>    S        8.63943        -4.84824        -8.81741
| 47>    C       11.14459        -3.61404        -8.98499
| 48>    C       11.05228        -2.61301        -7.99928
| 49>    S       12.02609        -1.18528        -8.31421
| 50>    C       11.36778        -0.37618        -6.94730
| 51>    C       10.47936        -1.13259        -6.25960
| 52>    C        9.79433        -0.66038        -5.02000
| 53>    C       10.31507        -2.44688        -6.81414
| 54>    C        9.56453        -3.43791        -6.12416
| 55>    C        9.71328        -4.78580        -6.24462
| 56>    C        8.81391        -5.71473        -5.67432
| 57>    C        8.80626        -7.03746        -6.00840
| 58>    C        7.78076        -7.91085        -5.60365
| 59>    C        7.55513        -9.17184        -6.09719
| 60>    C        8.35344        -9.81401        -7.15035
| 61>    O        9.25654        -9.30779        -7.77982
| 62>    O        7.93662       -11.07782        -7.36364
| 63>    C        8.62796       -11.79567        -8.37048
| 64>    C        6.45054        -9.90305        -5.62473
| 65>    N        5.53099       -10.47725        -5.24459
| 66>    H        3.82182       -10.35851        -1.29690
| 67>    H        2.79939       -12.35180        -0.21658
| 68>    H        0.39596       -12.42960         0.23946
| 69>    H       -1.07507       -10.52057        -0.37846
| 70>    H        0.12000        -2.69794        -2.79932
| 71>    H        1.31904        -2.34881        -5.02302
| 72>    H        1.21547        -3.77270        -6.06945
| 73>    H        2.71942        -3.41085        -5.22087
| 74>    H        2.76922        -5.80166        -5.49679
| 75>    H        1.19287        -8.23925        -4.54439
| 76>    H        2.28195        -9.45950        -6.25356
| 77>    H        4.06648        -7.01376        -6.71480
| 78>    H        3.95536        -9.81384        -7.97299
| 79>    H        5.86302       -10.16858        -9.72322
| 80>    H        7.92637        -8.94864       -10.69255
| 81>    H        9.78832        -7.48629       -11.04105
| 82>    H       11.58912        -5.66992       -10.75848
| 83>    H       12.03726        -3.53988        -9.59822
| 84>    H       11.68728         0.62328        -6.72534
| 85>    H       10.07136         0.36965        -4.80966
| 86>    H       10.07677        -1.27776        -4.16784
| 87>    H        8.71222        -0.71287        -5.13664
| 88>    H        8.81385        -3.06898        -5.43677
| 89>    H       10.53049        -5.18198        -6.83088
| 90>    H        8.03012        -5.32732        -5.03381
| 91>    H        9.55617        -7.41757        -6.68605
| 92>    H        7.07183        -7.54171        -4.86938
| 93>    H        9.66914       -11.95521        -8.07729
| 94>    H        8.60974       -11.24124        -9.31227
| 95>    H        8.11188       -12.74722        -8.47220
| 96> *
| 97>
| 98>                          ****END OF INPUT****

CARTESIAN COORDINATES (ANGSTROEM)
---------------------------------
  C     -0.041770   -8.126950   -1.635580
  O     -1.186190   -7.760590   -1.602570
  C      0.565560   -9.392420   -1.166100
  C      1.939560   -9.343800   -1.417290
  C      2.764590  -10.399150   -1.087730
  C      2.180340  -11.510020   -0.487740
  C      0.818530  -11.555120   -0.231770
  C     -0.014090  -10.493250   -0.571420
  C      2.259240   -8.036930   -2.032650
  O      3.318700   -7.568350   -2.345280
  N      1.019780   -7.387660   -2.168530
  C      0.877020   -6.103170   -2.690570
  S      0.064650   -4.894070   -1.756910
  C      0.456240   -3.705990   -2.943370
  C      1.173990   -4.199520   -3.980860
  C      1.633230   -3.382460   -5.142350
  C      1.415210   -5.609820   -3.860550
  C      2.101510   -6.370580   -4.867440
  C      1.932650   -7.691120   -5.113670
  C      2.618320   -8.441720   -6.105910
  C      3.671380   -8.009930   -6.856710
  C      4.318060   -8.807880   -7.811760
  C      5.412450   -8.405080   -8.534260
  C      6.153860   -9.162840   -9.471840
  C      7.241890   -8.520710   -9.981940
  C      7.436320   -7.221430   -9.461110
  S      6.141800   -6.810240   -8.361330
  C      8.508660   -6.377860   -9.668350
  C      9.672370   -6.608540  -10.431980
  C     10.625070   -5.648700  -10.281760
  C     10.285180   -4.618160   -9.364440
  S      8.639430   -4.848240   -8.817410
  C     11.144590   -3.614040   -8.984990
  C     11.052280   -2.613010   -7.999280
  S     12.026090   -1.185280   -8.314210
  C     11.367780   -0.376180   -6.947300
  C     10.479360   -1.132590   -6.259600
  C      9.794330   -0.660380   -5.020000
  C     10.315070   -2.446880   -6.814140
  C      9.564530   -3.437910   -6.124160
  C      9.713280   -4.785800   -6.244620
  C      8.813910   -5.714730   -5.674320
  C      8.806260   -7.037460   -6.008400
  C      7.780760   -7.910850   -5.603650
  C      7.555130   -9.171840   -6.097190
  C      8.353440   -9.814010   -7.150350
  O      9.256540   -9.307790   -7.779820
  O      7.936620  -11.077820   -7.363640
  C      8.627960  -11.795670   -8.370480
  C      6.450540   -9.903050   -5.624730
  N      5.530990  -10.477250   -5.244590
  H      3.821820  -10.358510   -1.296900
  H      2.799390  -12.351800   -0.216580
  H      0.395960  -12.429600    0.239460
  H     -1.075070  -10.520570   -0.378460
  H      0.120000   -2.697940   -2.799320
  H      1.319040   -2.348810   -5.023020
  H      1.215470   -3.772700   -6.069450
  H      2.719420   -3.410850   -5.220870
  H      2.769220   -5.801660   -5.496790
  H      1.192870   -8.239250   -4.544390
  H      2.281950   -9.459500   -6.253560
  H      4.066480   -7.013760   -6.714800
  H      3.955360   -9.813840   -7.972990
  H      5.863020  -10.168580   -9.723220
  H      7.926370   -8.948640  -10.692550
  H      9.788320   -7.486290  -11.041050
  H     11.589120   -5.669920  -10.758480
  H     12.037260   -3.539880   -9.598220
  H     11.687280    0.623280   -6.725340
  H     10.071360    0.369650   -4.809660
  H     10.076770   -1.277760   -4.167840
  H      8.712220   -0.712870   -5.136640
  H      8.813850   -3.068980   -5.436770
  H     10.530490   -5.181980   -6.830880
  H      8.030120   -5.327320   -5.033810
  H      9.556170   -7.417570   -6.686050
  H      7.071830   -7.541710   -4.869380
  H      9.669140  -11.955210   -8.077290
  H      8.609740  -11.241240   -9.312270
  H      8.111880  -12.747220   -8.472200

 Total Charge           Charge          ....    0
 Multiplicity           Mult            ....    1
 Number of Electrons    NEL             ....  386
 Basis Dimension        Dim             ....  880

ORBITAL ENERGIES
----------------

  NO   OCC          E(Eh)            E(eV)
   0   2.0000     -88.943796     -2420.2837
   1   2.0000     -88.939958     -2420.1793
   2   2.0000     -88.939306     -2420.1616
   3   2.0000     -88.938667     -2420.1442
   4   2.0000     -19.252047      -523.8748
   5   2.0000     -19.210234      -522.7370
   6   2.0000     -19.208940      -522.7018
   7   2.0000     -19.195799      -522.3442
   8   2.0000     -14.461253      -393.5107
   9   2.0000     -14.379080      -391.2747
  10   2.0000     -10.394766      -282.8560
  11   2.0000     -10.390555      -282.7414
  12   2.0000     -10.388518      -282.6859
  13   2.0000     -10.321773      -280.8697
  14   2.0000     -10.317745      -280.7601
  15   2.0000     -10.309254      -280.5291
  16   2.0000     -10.301020      -280.3050
  17   2.0000     -10.299415      -280.2613
  18   2.0000     -10.298991      -280.2498
  19   2.0000     -10.297161      -280.2000
  20   2.0000     -10.296788      -280.1899
  21   2.0000     -10.292112      -280.0626
  22   2.0000     -10.291859      -280.0557
  23   2.0000     -10.290754      -280.0256
  24   2.0000     -10.290362      -280.0150
  25   2.0000     -10.289898      -280.0024
  26   2.0000     -10.289166      -279.9824
  27   2.0000     -10.288318      -279.9594
  28   2.0000     -10.283606      -279.8312
  29   2.0000     -10.282527      -279.8018
  30   2.0000     -10.282277      -279.7950
  31   2.0000     -10.280922      -279.7581
  32   2.0000     -10.279010      -279.7061
  33   2.0000     -10.277409      -279.6625
  34   2.0000     -10.276235      -279.6306
  35   2.0000     -10.276112      -279.6272
  36   2.0000     -10.274664      -279.5878
  37   2.0000     -10.273458      -279.5550
  38   2.0000     -10.272603      -279.5317
  39   2.0000     -10.271644      -279.5056
  40   2.0000     -10.270091      -279.4634
  41   2.0000     -10.269645      -279.4513
  42   2.0000     -10.268420      -279.4179
  43   2.0000     -10.268208      -279.4121
  44   2.0000     -10.267126      -279.3827
  45   2.0000     -10.266520      -279.3662
  46   2.0000     -10.263778      -279.2916
  47   2.0000     -10.263542      -279.2852
  48   2.0000     -10.262684      -279.2618
  49   2.0000     -10.261481      -279.2291
  50   2.0000     -10.259673      -279.1799
  51   2.0000      -8.039876      -218.7761
  52   2.0000      -8.035756      -218.6640
  53   2.0000      -8.035235      -218.6499
  54   2.0000      -8.034273      -218.6237
  55   2.0000      -6.009198      -163.5186
  56   2.0000      -6.005132      -163.4080
  57   2.0000      -6.004913      -163.4020
  58   2.0000      -6.004882      -163.4011
  59   2.0000      -6.004031      -163.3780
  60   2.0000      -6.001971      -163.3219
  61   2.0000      -6.000921      -163.2934
  62   2.0000      -6.000700      -163.2874
  63   2.0000      -6.000100      -163.2710
  64   2.0000      -5.997641      -163.2041
  65   2.0000      -5.996538      -163.1741
  66   2.0000      -5.995169      -163.1368
  67   2.0000      -1.182797       -32.1856
  68   2.0000      -1.157250       -31.4904
  69   2.0000      -1.132886       -30.8274
  70   2.0000      -1.087314       -29.5873
  71   2.0000      -1.052411       -28.6376
  72   2.0000      -0.988414       -26.8961
  73   2.0000      -0.980408       -26.6783
  74   2.0000      -0.975179       -26.5360
  75   2.0000      -0.967332       -26.3224
  76   2.0000      -0.962772       -26.1984
  77   2.0000      -0.958412       -26.0797
  78   2.0000      -0.919517       -25.0213
  79   2.0000      -0.907200       -24.6862
  80   2.0000      -0.894544       -24.3418
  81   2.0000      -0.886223       -24.1154
  82   2.0000      -0.884285       -24.0626
  83   2.0000      -0.873086       -23.7579
  84   2.0000      -0.859667       -23.3927
  85   2.0000      -0.855322       -23.2745
  86   2.0000      -0.850944       -23.1554
  87   2.0000      -0.842581       -22.9278
  88   2.0000      -0.833618       -22.6839
  89   2.0000      -0.827135       -22.5075
  90   2.0000      -0.818436       -22.2708
  91   2.0000      -0.811730       -22.0883
  92   2.0000      -0.799878       -21.7658
  93   2.0000      -0.784521       -21.3479
  94   2.0000      -0.774045       -21.0628
  95   2.0000      -0.765073       -20.8187
  96   2.0000      -0.752124       -20.4663
  97   2.0000      -0.744146       -20.2492
  98   2.0000      -0.732042       -19.9199
  99   2.0000      -0.728154       -19.8141
 100   2.0000      -0.716005       -19.4835
 101   2.0000      -0.696897       -18.9635
 102   2.0000      -0.694452       -18.8970
 103   2.0000      -0.679698       -18.4955
 104   2.0000      -0.673780       -18.3345
 105   2.0000      -0.667746       -18.1703
 106   2.0000      -0.659298       -17.9404
 107   2.0000      -0.641950       -17.4683
 108   2.0000      -0.636739       -17.3265
 109   2.0000      -0.636379       -17.3168
 110   2.0000      -0.629588       -17.1319
 111   2.0000      -0.626109       -17.0373
 112   2.0000      -0.619546       -16.8587
 113   2.0000      -0.613531       -16.6950
 114   2.0000      -0.610598       -16.6152
 115   2.0000      -0.604712       -16.4551
 116   2.0000      -0.598943       -16.2981
 117   2.0000      -0.592345       -16.1185
 118   2.0000      -0.582459       -15.8495
 119   2.0000      -0.574521       -15.6335
 120   2.0000      -0.567369       -15.4389
 121   2.0000      -0.565668       -15.3926
 122   2.0000      -0.562010       -15.2931
 123   2.0000      -0.559369       -15.2212
 124   2.0000      -0.556253       -15.1364
 125   2.0000      -0.542554       -14.7636
 126   2.0000      -0.541305       -14.7297
 127   2.0000      -0.536784       -14.6066
 128   2.0000      -0.528974       -14.3941
 129   2.0000      -0.525398       -14.2968
 130   2.0000      -0.521933       -14.2025
 131   2.0000      -0.519124       -14.1261
 132   2.0000      -0.516441       -14.0531
 133   2.0000      -0.513090       -13.9619
 134   2.0000      -0.510664       -13.8959
 135   2.0000      -0.507504       -13.8099
 136   2.0000      -0.503559       -13.7025
 137   2.0000      -0.501662       -13.6509
 138   2.0000      -0.500414       -13.6170
 139   2.0000      -0.499239       -13.5850
 140   2.0000      -0.492255       -13.3949
 141   2.0000      -0.488742       -13.2993
 142   2.0000      -0.485583       -13.2134
 143   2.0000      -0.481356       -13.0984
 144   2.0000      -0.480703       -13.0806
 145   2.0000      -0.478024       -13.0077
 146   2.0000      -0.477163       -12.9843
 147   2.0000      -0.471757       -12.8372
 148   2.0000      -0.466187       -12.6856
 149   2.0000      -0.462330       -12.5806
 150   2.0000      -0.459943       -12.5157
 151   2.0000      -0.457684       -12.4542
 152   2.0000      -0.457176       -12.4404
 153   2.0000      -0.453640       -12.3442
 154   2.0000      -0.451057       -12.2739
 155   2.0000      -0.445501       -12.1227
 156   2.0000      -0.444052       -12.0833
 157   2.0000      -0.443051       -12.0560
 158   2.0000      -0.442029       -12.0282
 159   2.0000      -0.438075       -11.9206
 160   2.0000      -0.434213       -11.8155
 161   2.0000      -0.431092       -11.7306
 162   2.0000      -0.429658       -11.6916
 163   2.0000      -0.428102       -11.6493
 164   2.0000      -0.423984       -11.5372
 165   2.0000      -0.421849       -11.4791
 166   2.0000      -0.416757       -11.3405
 167   2.0000      -0.414790       -11.2870
 168   2.0000      -0.409657       -11.1473
 169   2.0000      -0.407558       -11.0902
 170   2.0000      -0.403953       -10.9921
 171   2.0000      -0.400289       -10.8924
 172   2.0000      -0.392809       -10.6889
 173   2.0000      -0.390059       -10.6141
 174   2.0000      -0.381162       -10.3719
 175   2.0000      -0.370747       -10.0886
 176   2.0000      -0.365245        -9.9388
 177   2.0000      -0.362190        -9.8557
 178   2.0000      -0.360729        -9.8159
 179   2.0000      -0.347225        -9.4485
 180   2.0000      -0.340917        -9.2768
 181   2.0000      -0.340407        -9.2629
 182   2.0000      -0.338313        -9.2060
 183   2.0000      -0.337078        -9.1724
 184   2.0000      -0.328494        -8.9388
 185   2.0000      -0.322437        -8.7740
 186   2.0000      -0.314708        -8.5636
 187   2.0000      -0.299725        -8.1559
 188   2.0000      -0.289834        -7.8868
 189   2.0000      -0.282264        -7.6808
 190   2.0000      -0.256400        -6.9770
 191   2.0000      -0.247172        -6.7259
 192   2.0000      -0.199869        -5.4387
 193   0.0000      -0.076678        -2.0865
 194   0.0000      -0.055047        -1.4979
 195   0.0000      -0.042362        -1.1527
 196   0.0000      -0.018438        -0.5017
 197   0.0000      -0.000696        -0.0189

MULLIKEN ATOMIC CHARGES
-----------------------
   0 C :    0.198161
   1 O :   -0.140783
   2 C :   -0.003301
   3 C :   -0.000888
   4 C :   -0.025695
   5 C :    0.036995
   6 C :    0.039774
   7 C :   -0.036610
   8 C :    0.200412
   9 O :   -0.128894
  10 N :   -0.273159
  11 C :   -0.111327
  12 S :    0.144260
  13 C :   -0.129537
  14 C :   -0.092619
  15 C :    0.117803
  16 C :    0.180644
  17 C :   -0.023242
  18 C :    0.035428
  19 C :    0.024047
  20 C :    0.007296
  21 C :    0.037555
  22 C :   -0.063572
  23 C :    0.052629
  24 C :    0.025407
  25 C :   -0.024709
  26 S :    0.061377
  27 C :   -0.071828
  28 C :    0.045531
  29 C :    0.033211
  30 C :   -0.054727
  31 S :    0.106539
  32 C :   -0.001522
  33 C :   -0.164267
  34 S :    0.093198
  35 C :   -0.118992
  36 C :   -0.090277
  37 C :    0.119545
  38 C :    0.138504
  39 C :   -0.051112
  40 C :    0.017439
  41 C :    0.037752
  42 C :   -0.008168
  43 C :    0.059883
  44 C :   -0.210215
  45 C :    0.232774
  46 O :   -0.228075
  47 O :   -0.299325
  48 C :    0.194861
  49 C :   -0.110055
  50 N :    0.079996
  51 H :    0.010106
  52 H :    0.002331
  53 H :   -0.000553
  54 H :    0.000924
  55 H :    0.009879
  56 H :    0.006659
  57 H :    0.029658
  58 H :    0.029940
  59 H :   -0.024350
  60 H :   -0.020193
  61 H :   -0.012433
  62 H :   -0.005005
  63 H :   -0.010292
  64 H :   -0.011868
  65 H :   -0.011798
  66 H :   -0.018430
  67 H :   -0.017975
  68 H :   -0.010207
  69 H :    0.011772
  70 H :    0.006953
  71 H :    0.028899
  72 H :    0.028933
  73 H :   -0.018510
  74 H :    0.020309
  75 H :   -0.005990
  76 H :    0.027765
  77 H :    0.013149
  78 H :    0.029765
  79 H :    0.017337
  80 H :    0.035100
Sum of atomic charges:    0.0000000

LOEWDIN ATOMIC CHARGES
----------------------
   0 C :    0.086804
   1 O :   -0.146046
   2 C :   -0.053661
   3 C :   -0.050748
   4 C :    0.017452
   5 C :   -0.002620
   6 C :   -0.004467
   7 C :    0.009867
   8 C :    0.096804
   9 O :   -0.129285
  10 N :   -0.043442
  11 C :   -0.137566
  12 S :    0.443518
  13 C :   -0.195382
  14 C :   -0.055736
  15 C :   -0.044614
  16 C :   -0.064054
  17 C :    0.000046
  18 C :   -0.030933
  19 C :   -0.002640
  20 C :   -0.030874
  21 C :   -0.023831
  22 C :   -0.159439
  23 C :   -0.024861
  24 C :   -0.035411
  25 C :   -0.153774
  26 S :    0.376225
  27 C :   -0.190234
  28 C :   -0.031140
  29 C :   -0.041662
  30 C :   -0.150448
  31 S :    0.437030
  32 C :   -0.099184
  33 C :   -0.151277
  34 S :    0.412784
  35 C :   -0.195777
  36 C :   -0.055553
  37 C :   -0.045297
  38 C :   -0.077587
  39 C :   -0.016144
  40 C :   -0.046429
  41 C :    0.027010
  42 C :   -0.056681
  43 C :    0.073993
  44 C :   -0.150883
  45 C :    0.099938
  46 O :   -0.185080
  47 O :   -0.084624
  48 C :    0.079471
  49 C :   -0.027846
  50 N :   -0.087606
  51 H :    0.044297
  52 H :    0.035126
  53 H :    0.033891
  54 H :    0.039974
  55 H :    0.020194
  56 H :    0.032527
  57 H :    0.036262
  58 H :    0.034260
  59 H :    0.025132
  60 H :    0.025019
  61 H :    0.031388
  62 H :    0.016577
  63 H :    0.036535
  64 H :    0.033587
  65 H :    0.029770
  66 H :    0.031359
  67 H :    0.031012
  68 H :    0.032227
  69 H :    0.019981
  70 H :    0.032753
  71 H :    0.035529
  72 H :    0.033763
  73 H :    0.026994
  74 H :    0.031772
  75 H :    0.028315
  76 H :    0.033195
  77 H :    0.044905
  78 H :    0.022976
  79 H :    0.016337
  80 H :    0.026235

  Mayer bond orders larger than 0.100000
B(  0-C ,  1-O ) :   2.2605 B(  0-C ,  2-C ) :   0.8865 B(  0-C , 10-N ) :   1.0103
B(  2-C ,  3-C ) :   1.3666 B(  2-C ,  7-C ) :   1.4124 B(  3-C ,  4-C ) :   1.4119
B(  3-C ,  8-C ) :   0.8978 B(  4-C ,  5-C ) :   1.3487 B(  4-C , 51-H ) :   1.0071
B(  5-C ,  6-C ) :   1.4000 B(  5-C , 52-H ) :   0.9891 B(  6-C ,  7-C ) :   1.3489
B(  6-C , 53-H ) :   0.9891 B(  7-C , 54-H ) :   1.0066 B(  8-C ,  9-O ) :   2.2541
B(  8-C , 10-N ) :   0.9941 B( 10-N , 11-C ) :   0.9588 B( 11-C , 12-S ) :   1.1689
B( 11-C , 16-C ) :   1.4913 B( 12-S , 13-C ) :   1.1384 B( 13-C , 14-C ) :   1.6145
B( 13-C , 55-H ) :   0.9671 B( 14-C , 15-C ) :   1.0965 B( 14-C , 16-C ) :   1.2124
B( 15-C , 56-H ) :   0.9506 B( 15-C , 57-H ) :   0.9451 B( 15-C , 58-H ) :   0.9416
B( 16-C , 17-C ) :   1.0970 B( 17-C , 18-C ) :   1.7011 B( 17-C , 59-H ) :   0.9457
B( 18-C , 19-C ) :   1.1477 B( 18-C , 60-H ) :   0.9648 B( 19-C , 20-C ) :   1.6487
B( 19-C , 61-H ) :   0.9769 B( 20-C , 21-C ) :   1.1684 B( 20-C , 62-H ) :   0.9594
B( 21-C , 22-C ) :   1.5548 B( 21-C , 63-H ) :   0.9837 B( 22-C , 23-C ) :   1.1501
B( 22-C , 26-S ) :   1.0197 B( 23-C , 24-C ) :   1.5627 B( 23-C , 64-H ) :   1.0001
B( 24-C , 25-C ) :   1.1955 B( 24-C , 65-H ) :   0.9913 B( 25-C , 26-S ) :   1.0634
B( 25-C , 27-C ) :   1.4963 B( 27-C , 28-C ) :   1.1935 B( 27-C , 31-S ) :   1.0346
B( 28-C , 29-C ) :   1.5846 B( 28-C , 66-H ) :   0.9900 B( 29-C , 30-C ) :   1.1408
B( 29-C , 67-H ) :   0.9972 B( 30-C , 31-S ) :   1.0772 B( 30-C , 32-C ) :   1.5687
B( 32-C , 33-C ) :   1.1899 B( 32-C , 68-H ) :   0.9371 B( 33-C , 34-S ) :   1.1309
B( 33-C , 38-C ) :   1.3717 B( 34-S , 35-C ) :   1.1129 B( 35-C , 36-C ) :   1.6302
B( 35-C , 69-H ) :   0.9648 B( 36-C , 37-C ) :   1.0986 B( 36-C , 38-C ) :   1.1997
B( 37-C , 70-H ) :   0.9503 B( 37-C , 71-H ) :   0.9417 B( 37-C , 72-H ) :   0.9419
B( 38-C , 39-C ) :   1.1565 B( 39-C , 40-C ) :   1.5971 B( 39-C , 73-H ) :   0.9590
B( 40-C , 41-C ) :   1.1442 B( 40-C , 74-H ) :   0.9801 B( 41-C , 42-C ) :   1.5505
B( 41-C , 75-H ) :   0.9914 B( 42-C , 43-C ) :   1.1796 B( 42-C , 76-H ) :   0.9718
B( 43-C , 44-C ) :   1.6318 B( 43-C , 77-H ) :   0.9763 B( 44-C , 45-C ) :   0.9910
B( 44-C , 49-C ) :   1.0718 B( 45-C , 46-O ) :   2.0085 B( 45-C , 47-O ) :   1.2217
B( 47-O , 48-C ) :   0.9294 B( 48-C , 78-H ) :   0.9763 B( 48-C , 79-H ) :   0.9728
B( 48-C , 80-H ) :   0.9804 B( 49-C , 50-N ) :   3.0044

-----------------------------------------------------------------------------
         ABSORPTION SPECTRUM VIA TRANSITION ELECTRIC DIPOLE MOMENTS
-----------------------------------------------------------------------------
State   Energy  Wavelength   fosc         T2         TX        TY        TZ
        (cm-1)    (nm)                  (au**2)     (au)      (au)      (au)
-----------------------------------------------------------------------------
   0   10667.4    937.4   0.191445600   5.90832  -2.34320  -0.63678  -0.11058
   1   15815.5    632.3   0.594472464  12.37440   2.96618   1.30813  -1.36564
   2   20754.9    481.8   0.020632491   0.32727   0.22237   0.16483  -0.50066
   3   21122.8    473.4   0.635464920   9.90409  -2.15095  -1.26118   1.92015
   4   22795.4    438.7   0.055977866   0.80844   0.51763   0.02995  -0.73458
   5   23768.0    420.7   0.316245647   4.38034   1.10480   0.69120  -1.63768
   6   27440.8    364.4   0.172399329   2.06831   0.82277   1.17226   0.13102
   7   28053.0    356.5   1.291189801  15.15259  -0.62637  -3.44508  -1.70048
   8   29122.0    343.4   0.060403283   0.68283  -0.37139  -0.73811  -0.00959
   9   29568.1    338.2   0.021535664   0.23978  -0.05589   0.48283   0.05945
  10   29891.5    334.5   0.012914845   0.14224  -0.18608  -0.12075   0.30501
  11   31211.4    320.4   0.342917389   3.61702   0.07437  -1.82190  -0.54053
  12   31572.3    316.7   0.017182463   0.17917   0.23220   0.31476  -0.16179
  13   31993.6    312.6   0.047409160   0.48784   0.08792  -0.69272  -0.01570
  14   33289.4    300.4   0.000578639   0.00572  -0.02817  -0.01032  -0.06944
  15   33526.0    298.3   0.030775563   0.30220  -0.38134  -0.35938   0.16622
  16   33842.4    295.5   0.016004559   0.15569   0.25478   0.12219  -0.27540
  17   33960.3    294.5   0.097946241   0.94949   0.52490   0.81999   0.03987
  18   34669.0    288.4   0.004644165   0.04410  -0.11319   0.07745   0.15903
  19   34934.2    286.3   0.028624903   0.26975   0.11549  -0.23747  -0.44724
  20   35229.9    283.8   0.004198418   0.03923   0.13948  -0.11465   0.08145
  21   36164.2    276.5   0.004192215   0.03816   0.03758  -0.08529  -0.17169
  22   36505.0    273.9   0.005639013   0.05085  -0.00999  -0.18069   0.13456
  23   36737.1    272.2   0.076231796   0.68314  -0.21065  -0.67436  -0.42895
  24   37102.8    269.5   0.118484386   1.05131   0.36479   0.93375  -0.21529
  25   37578.3    266.1   0.041398467   0.36268  -0.25786   0.36412   0.40448
  26   38025.0    263.0   0.013876957   0.12014  -0.31867   0.13564   0.01395
  27   38571.6    259.3   0.007161972   0.06113   0.17344  -0.16503  -0.06174
  28   39694.6    251.9   0.004026774   0.03340   0.07325   0.03405  -0.16393
  29   39866.8    250.8   0.075786466   0.62583   0.18882  -0.34079  -0.68850
  30   39957.9    250.3   0.016293075   0.13424   0.09766   0.34766   0.06190

FINAL SINGLE POINT ENERGY     -3580.508941776348

DIPOLE MOMENT
-------------
                                X             Y             Z
Electronic contribution:     -9.33238       0.35327       5.64940
Nuclear contribution   :     10.02748      -0.73677      -5.87085
                        -----------------------------------------
Total Dipole Moment    :      0.69510      -0.38350      -0.22145
                        -----------------------------------------
Magnitude (a.u.)       :      0.82418
Magnitude (Debye)      :      2.09491

Rotational constants in cm-1:     0.002366     0.000856     0.000714
Rotational constants in MHz :    70.928416    25.668493    21.416444

                             ****ORCA TERMINATED NORMALLY****
TOTAL RUN TIME: 0 days 0 hours 6 minutes 45 seconds 862 msec
