                         Program Version 4.2.0 -  RELEASE  -
|  1> # ORCA input file
|  2> # SCF done       -179.841476330027          0.000422796879
|  3> ! CAM-B3LYP def2-SVP def2/J RIJCOSX Grid4 TightSCF
|  4> %maxcore 5000
|  5> %tddft
|  6>     Mode sTDDFT
|  7>     Ethresh 5.0
|  8>     maxcore 5000
|  9> end
| 10>
| 11> %pal
| 12>   nprocs 6
| 13>   end
| 14> * xyz 0 1
| 15>    C        2.41708         3.14248        -8.42073
| 16>    C        1.33793         3.95989        -8.61078
| 17>    F        1.10140         4.47117        -9.83226
| 18>    C        0.45608         4.29370        -7.57365
| 19>    C        0.68070         3.78497        -6.32472
| 20>    C        1.77893         2.93742        -6.07191
| 21>    C        2.66302         2.60822        -7.14087
| 22>    C        3.76647         1.75328        -6.91494
| 23>    C        3.97856         1.24784        -5.66067
| 24>    C        3.10066         1.59310        -4.59213
| 25>    C        2.02434         2.41106        -4.78388
| 26>    C        3.57138         0.95452        -3.34884
| 27>    O        3.05515         0.97525        -2.25598
| 28>    C        4.87361         0.31800        -3.70801
| 29>    C        4.99495         0.33451        -5.15094
| 30>    C        5.76333        -0.50270        -5.91421
| 31>    C        6.55362        -1.54468        -5.39005
| 32>    N        7.19783        -2.41865        -5.01634
| 33>    C        5.82456        -0.45069        -7.32159
| 34>    N        5.94182        -0.42962        -8.46332
| 35>    C        5.73132        -0.04005        -2.72149
| 36>    C        7.13054        -0.33112        -2.80878
| 37>    C        7.75155        -1.16789        -1.88385
| 38>    N        9.02150        -1.54588        -1.89900
| 39>    C        9.85230        -1.10306        -2.82754
| 40>    C        9.37801        -0.17294        -3.79458
| 41>    C        7.99732         0.21393        -3.79053
| 42>    N        7.72635         1.09926        -4.74921
| 43>    S        9.07590         1.39559        -5.57707
| 44>    N       10.06600         0.43054        -4.76153
| 45>    C       11.22184        -1.53588        -2.89319
| 46>    C       11.79617        -2.49433        -2.14708
| 47>    C       11.08489        -3.28155        -1.10335
| 48>    C       13.24822        -2.84052        -2.36967
| 49>    N       13.38849        -4.20966        -2.79734
| 50>    C       14.11071        -5.14575        -2.17028
| 51>    C       14.19233        -6.45103        -2.56316
| 52>    C       15.00736        -7.38907        -1.91846
| 53>    C       15.13942        -8.70390        -2.29768
| 54>    C       15.96906        -9.68468        -1.71138
| 55>    C       15.90308       -10.90675        -2.31473
| 56>    C       15.00982       -10.95533        -3.40559
| 57>    S       14.25921        -9.40455        -3.65192
| 58>    C       14.71006       -12.04517        -4.21264
| 59>    C       15.24736       -13.34294        -4.15323
| 60>    C       14.73035       -14.19384        -5.09168
| 61>    C       13.75955       -13.60775        -5.92782
| 62>    S       13.52734       -11.93065        -5.49800
| 63>    C       13.05517       -14.23369        -6.94554
| 64>    C       12.09167       -13.58901        -7.70363
| 65>    C       11.34347       -14.17762        -8.71119
| 66>    C       10.32375       -13.54503        -9.49988
| 67>    C        9.90392       -12.23354        -9.43345
| 68>    C        8.89022       -11.68721       -10.24252
| 69>    N        8.07110       -11.17862       -10.86858
| 70>    C       10.41217       -11.24733        -8.56705
| 71>    N       10.76399       -10.37697        -7.90260
| 72>    C        9.78318       -14.54868       -10.41782
| 73>    C       10.46624       -15.76950       -10.20358
| 74>    C       11.46788       -15.58218        -9.12944
| 75>    O       12.22277       -16.43640        -8.70145
| 76>    C       10.18773       -16.91000       -10.91357
| 77>    C        9.18126       -16.84522       -11.88447
| 78>    C        8.50321       -15.62311       -12.08994
| 79>    C        8.78753       -14.46701       -11.37123
| 80>    S        7.29487       -15.76342       -13.33281
| 81>    C        7.71467       -17.44106       -13.55445
| 82>    C        8.70633       -17.87564       -12.74266
| 83>   Br        6.80185       -18.46201       -14.83801
| 84>    H        3.07302         2.90332        -9.24315
| 85>    H       -0.37880         4.94331        -7.78348
| 86>    H        0.01505         4.02800        -5.51024
| 87>    H        4.42406         1.52660        -7.73905
| 88>    H        1.36713         2.65481        -3.96257
| 89>    H        5.30628        -0.05899        -1.72232
| 90>    H        7.16238        -1.60577        -1.08826
| 91>    H       11.80112        -1.02144        -3.64810
| 92>    H       11.66874        -4.14510        -0.79310
| 93>    H       10.89111        -2.65236        -0.23562
| 94>    H       10.11176        -3.60103        -1.46890
| 95>    H       13.80517        -2.71388        -1.43640
| 96>    H       13.68128        -2.17372        -3.12468
| 97>    H       12.83718        -4.48991        -3.59618
| 98>    H       14.67311        -4.80370        -1.31060
| 99>    H       13.62072        -6.78237        -3.41926
|100>    H       15.58956        -7.06154        -1.06641
|101>    H       16.59272        -9.45921        -0.86406
|102>    H       16.46650       -11.76719        -2.00237
|103>    H       15.99517       -13.62195        -3.43260
|104>    H       15.01613       -15.22463        -5.20269
|105>    H       13.26876       -15.27476        -7.13905
|106>    H       11.90876       -12.54565        -7.47697
|107>    H       10.72722       -17.82539       -10.72683
|108>    H        8.24015       -13.56044       -11.56717
|109>    H        9.08892       -18.88004       -12.74612
|110> *
|111>
|112>                          ****END OF INPUT****

CARTESIAN COORDINATES (ANGSTROEM)
---------------------------------
  C      2.417080    3.142480   -8.420730
  C      1.337930    3.959890   -8.610780
  F      1.101400    4.471170   -9.832260
  C      0.456080    4.293700   -7.573650
  C      0.680700    3.784970   -6.324720
  C      1.778930    2.937420   -6.071910
  C      2.663020    2.608220   -7.140870
  C      3.766470    1.753280   -6.914940
  C      3.978560    1.247840   -5.660670
  C      3.100660    1.593100   -4.592130
  C      2.024340    2.411060   -4.783880
  C      3.571380    0.954520   -3.348840
  O      3.055150    0.975250   -2.255980
  C      4.873610    0.318000   -3.708010
  C      4.994950    0.334510   -5.150940
  C      5.763330   -0.502700   -5.914210
  C      6.553620   -1.544680   -5.390050
  N      7.197830   -2.418650   -5.016340
  C      5.824560   -0.450690   -7.321590
  N      5.941820   -0.429620   -8.463320
  C      5.731320   -0.040050   -2.721490
  C      7.130540   -0.331120   -2.808780
  C      7.751550   -1.167890   -1.883850
  N      9.021500   -1.545880   -1.899000
  C      9.852300   -1.103060   -2.827540
  C      9.378010   -0.172940   -3.794580
  C      7.997320    0.213930   -3.790530
  N      7.726350    1.099260   -4.749210
  S      9.075900    1.395590   -5.577070
  N     10.066000    0.430540   -4.761530
  C     11.221840   -1.535880   -2.893190
  C     11.796170   -2.494330   -2.147080
  C     11.084890   -3.281550   -1.103350
  C     13.248220   -2.840520   -2.369670
  N     13.388490   -4.209660   -2.797340
  C     14.110710   -5.145750   -2.170280
  C     14.192330   -6.451030   -2.563160
  C     15.007360   -7.389070   -1.918460
  C     15.139420   -8.703900   -2.297680
  C     15.969060   -9.684680   -1.711380
  C     15.903080  -10.906750   -2.314730
  C     15.009820  -10.955330   -3.405590
  S     14.259210   -9.404550   -3.651920
  C     14.710060  -12.045170   -4.212640
  C     15.247360  -13.342940   -4.153230
  C     14.730350  -14.193840   -5.091680
  C     13.759550  -13.607750   -5.927820
  S     13.527340  -11.930650   -5.498000
  C     13.055170  -14.233690   -6.945540
  C     12.091670  -13.589010   -7.703630
  C     11.343470  -14.177620   -8.711190
  C     10.323750  -13.545030   -9.499880
  C      9.903920  -12.233540   -9.433450
  C      8.890220  -11.687210  -10.242520
  N      8.071100  -11.178620  -10.868580
  C     10.412170  -11.247330   -8.567050
  N     10.763990  -10.376970   -7.902600
  C      9.783180  -14.548680  -10.417820
  C     10.466240  -15.769500  -10.203580
  C     11.467880  -15.582180   -9.129440
  O     12.222770  -16.436400   -8.701450
  C     10.187730  -16.910000  -10.913570
  C      9.181260  -16.845220  -11.884470
  C      8.503210  -15.623110  -12.089940
  C      8.787530  -14.467010  -11.371230
  S      7.294870  -15.763420  -13.332810
  C      7.714670  -17.441060  -13.554450
  C      8.706330  -17.875640  -12.742660
  Br     6.801850  -18.462010  -14.838010
  H      3.073020    2.903320   -9.243150
  H     -0.378800    4.943310   -7.783480
  H      0.015050    4.028000   -5.510240
  H      4.424060    1.526600   -7.739050
  H      1.367130    2.654810   -3.962570
  H      5.306280   -0.058990   -1.722320
  H      7.162380   -1.605770   -1.088260
  H     11.801120   -1.021440   -3.648100
  H     11.668740   -4.145100   -0.793100
  H     10.891110   -2.652360   -0.235620
  H     10.111760   -3.601030   -1.468900
  H     13.805170   -2.713880   -1.436400
  H     13.681280   -2.173720   -3.124680
  H     12.837180   -4.489910   -3.596180
  H     14.673110   -4.803700   -1.310600
  H     13.620720   -6.782370   -3.419260
  H     15.589560   -7.061540   -1.066410
  H     16.592720   -9.459210   -0.864060
  H     16.466500  -11.767190   -2.002370
  H     15.995170  -13.621950   -3.432600
  H     15.016130  -15.224630   -5.202690
  H     13.268760  -15.274760   -7.139050
  H     11.908760  -12.545650   -7.476970
  H     10.727220  -17.825390  -10.726830
  H      8.240150  -13.560440  -11.567170
  H      9.088920  -18.880040  -12.746120

 Total Charge           Charge          ....    0
 Multiplicity           Mult            ....    1
 Number of Electrons    NEL             ....  524
 Basis Dimension        Dim             .... 1130

ORBITAL ENERGIES
----------------

  NO   OCC          E(Eh)            E(eV)
   0   2.0000    -482.866679    -13139.4703
   1   2.0000     -89.046511     -2423.0788
   2   2.0000     -88.953806     -2420.5561
   3   2.0000     -88.952187     -2420.5121
   4   2.0000     -88.943354     -2420.2717
   5   2.0000     -62.544398     -1701.9196
   6   2.0000     -56.378318     -1534.1320
   7   2.0000     -56.375658     -1534.0596
   8   2.0000     -56.375611     -1534.0584
   9   2.0000     -24.788164      -674.5202
  10   2.0000     -19.219664      -522.9936
  11   2.0000     -19.180690      -521.9331
  12   2.0000     -14.472500      -393.8167
  13   2.0000     -14.464178      -393.5903
  14   2.0000     -14.455592      -393.3566
  15   2.0000     -14.428519      -392.6200
  16   2.0000     -14.421500      -392.4290
  17   2.0000     -14.419815      -392.3831
  18   2.0000     -14.383178      -391.3862
  19   2.0000     -14.380730      -391.3196
  20   2.0000     -10.372302      -282.2447
  21   2.0000     -10.370563      -282.1974
  22   2.0000     -10.351907      -281.6897
  23   2.0000     -10.351410      -281.6762
  24   2.0000     -10.346163      -281.5334
  25   2.0000     -10.344941      -281.5002
  26   2.0000     -10.343258      -281.4544
  27   2.0000     -10.341283      -281.4006
  28   2.0000     -10.340650      -281.3834
  29   2.0000     -10.336499      -281.2704
  30   2.0000     -10.335989      -281.2566
  31   2.0000     -10.331055      -281.1223
  32   2.0000     -10.326444      -280.9968
  33   2.0000     -10.323235      -280.9095
  34   2.0000     -10.323197      -280.9085
  35   2.0000     -10.322039      -280.8770
  36   2.0000     -10.314816      -280.6804
  37   2.0000     -10.313291      -280.6389
  38   2.0000     -10.309164      -280.5266
  39   2.0000     -10.309108      -280.5251
  40   2.0000     -10.308848      -280.5180
  41   2.0000     -10.308573      -280.5105
  42   2.0000     -10.306259      -280.4476
  43   2.0000     -10.305134      -280.4170
  44   2.0000     -10.304438      -280.3980
  45   2.0000     -10.304221      -280.3921
  46   2.0000     -10.303528      -280.3732
  47   2.0000     -10.301642      -280.3219
  48   2.0000     -10.301283      -280.3122
  49   2.0000     -10.300816      -280.2994
  50   2.0000     -10.300443      -280.2893
  51   2.0000     -10.298823      -280.2452
  52   2.0000     -10.298505      -280.2366
  53   2.0000     -10.297117      -280.1988
  54   2.0000     -10.293454      -280.0991
  55   2.0000     -10.291541      -280.0471
  56   2.0000     -10.289862      -280.0014
  57   2.0000     -10.289554      -279.9930
  58   2.0000     -10.288103      -279.9535
  59   2.0000     -10.287750      -279.9439
  60   2.0000     -10.286190      -279.9015
  61   2.0000     -10.280960      -279.7592
  62   2.0000     -10.280598      -279.7493
  63   2.0000     -10.277707      -279.6706
  64   2.0000     -10.277073      -279.6534
  65   2.0000     -10.276249      -279.6309
  66   2.0000     -10.274770      -279.5907
  67   2.0000     -10.274395      -279.5805
  68   2.0000     -10.272641      -279.5328
  69   2.0000     -10.272361      -279.5251
  70   2.0000     -10.261495      -279.2295
  71   2.0000     -10.253324      -279.0071
  72   2.0000     -10.251116      -278.9471
  73   2.0000      -8.773822      -238.7478
  74   2.0000      -8.137921      -221.4441
  75   2.0000      -8.050070      -219.0535
  76   2.0000      -8.048105      -219.0001
  77   2.0000      -8.039199      -218.7577
  78   2.0000      -6.609995      -179.8671
  79   2.0000      -6.595587      -179.4750
  80   2.0000      -6.595475      -179.4720
  81   2.0000      -6.109077      -166.2364
  82   2.0000      -6.101323      -166.0254
  83   2.0000      -6.100471      -166.0022
  84   2.0000      -6.019655      -163.8031
  85   2.0000      -6.017799      -163.7526
  86   2.0000      -6.015652      -163.6942
  87   2.0000      -6.013557      -163.6372
  88   2.0000      -6.011215      -163.5735
  89   2.0000      -6.009341      -163.5225
  90   2.0000      -6.008732      -163.5059
  91   2.0000      -6.004725      -163.3969
  92   2.0000      -6.000546      -163.2831
  93   2.0000      -2.725912       -74.1758
  94   2.0000      -2.721845       -74.0652
  95   2.0000      -2.721716       -74.0617
  96   2.0000      -2.710288       -73.7507
  97   2.0000      -2.710272       -73.7503
  98   2.0000      -1.303092       -35.4589
  99   2.0000      -1.146233       -31.1906
 100   2.0000      -1.134786       -30.8791
 101   2.0000      -1.093727       -29.7618
 102   2.0000      -1.072227       -29.1768
 103   2.0000      -1.064596       -28.9691
 104   2.0000      -1.024214       -27.8703
 105   2.0000      -1.004679       -27.3387
 106   2.0000      -1.001976       -27.2652
 107   2.0000      -0.999122       -27.1875
 108   2.0000      -0.997347       -27.1392
 109   2.0000      -0.994964       -27.0743
 110   2.0000      -0.982346       -26.7310
 111   2.0000      -0.979184       -26.6450
 112   2.0000      -0.974321       -26.5126
 113   2.0000      -0.961610       -26.1667
 114   2.0000      -0.957784       -26.0626
 115   2.0000      -0.942867       -25.6567
 116   2.0000      -0.935304       -25.4509
 117   2.0000      -0.924360       -25.1531
 118   2.0000      -0.915910       -24.9232
 119   2.0000      -0.912990       -24.8437
 120   2.0000      -0.903075       -24.5739
 121   2.0000      -0.893551       -24.3148
 122   2.0000      -0.888589       -24.1797
 123   2.0000      -0.885821       -24.1044
 124   2.0000      -0.879603       -23.9352
 125   2.0000      -0.865961       -23.5640
 126   2.0000      -0.859051       -23.3760
 127   2.0000      -0.857309       -23.3286
 128   2.0000      -0.847903       -23.0726
 129   2.0000      -0.844384       -22.9769
 130   2.0000      -0.837322       -22.7847
 131   2.0000      -0.822929       -22.3930
 132   2.0000      -0.822138       -22.3715
 133   2.0000      -0.815539       -22.1919
 134   2.0000      -0.802656       -21.8414
 135   2.0000      -0.798142       -21.7185
 136   2.0000      -0.789786       -21.4912
 137   2.0000      -0.773047       -21.0357
 138   2.0000      -0.765713       -20.8361
 139   2.0000      -0.763573       -20.7779
 140   2.0000      -0.747502       -20.3406
 141   2.0000      -0.740598       -20.1527
 142   2.0000      -0.730939       -19.8899
 143   2.0000      -0.728640       -19.8273
 144   2.0000      -0.724378       -19.7113
 145   2.0000      -0.715471       -19.4689
 146   2.0000      -0.711833       -19.3700
 147   2.0000      -0.701278       -19.0828
 148   2.0000      -0.687545       -18.7091
 149   2.0000      -0.683880       -18.6093
 150   2.0000      -0.679195       -18.4818
 151   2.0000      -0.667930       -18.1753
 152   2.0000      -0.659756       -17.9529
 153   2.0000      -0.657285       -17.8856
 154   2.0000      -0.648122       -17.6363
 155   2.0000      -0.642153       -17.4739
 156   2.0000      -0.639552       -17.4031
 157   2.0000      -0.634200       -17.2575
 158   2.0000      -0.632891       -17.2219
 159   2.0000      -0.631811       -17.1925
 160   2.0000      -0.628672       -17.1070
 161   2.0000      -0.620439       -16.8830
 162   2.0000      -0.615944       -16.7607
 163   2.0000      -0.613027       -16.6813
 164   2.0000      -0.603726       -16.4282
 165   2.0000      -0.601230       -16.3603
 166   2.0000      -0.597632       -16.2624
 167   2.0000      -0.594017       -16.1640
 168   2.0000      -0.591556       -16.0971
 169   2.0000      -0.580487       -15.7959
 170   2.0000      -0.577845       -15.7240
 171   2.0000      -0.572373       -15.5751
 172   2.0000      -0.569929       -15.5085
 173   2.0000      -0.567521       -15.4430
 174   2.0000      -0.566684       -15.4202
 175   2.0000      -0.565970       -15.4008
 176   2.0000      -0.560700       -15.2574
 177   2.0000      -0.554896       -15.0995
 178   2.0000      -0.554025       -15.0758
 179   2.0000      -0.550369       -14.9763
 180   2.0000      -0.538434       -14.6515
 181   2.0000      -0.537041       -14.6136
 182   2.0000      -0.535335       -14.5672
 183   2.0000      -0.528764       -14.3884
 184   2.0000      -0.526415       -14.3245
 185   2.0000      -0.524813       -14.2809
 186   2.0000      -0.517325       -14.0771
 187   2.0000      -0.516396       -14.0519
 188   2.0000      -0.513328       -13.9684
 189   2.0000      -0.510590       -13.8939
 190   2.0000      -0.508443       -13.8354
 191   2.0000      -0.506466       -13.7816
 192   2.0000      -0.503173       -13.6920
 193   2.0000      -0.501687       -13.6516
 194   2.0000      -0.499819       -13.6008
 195   2.0000      -0.499552       -13.5935
 196   2.0000      -0.497126       -13.5275
 197   2.0000      -0.495854       -13.4929
 198   2.0000      -0.492202       -13.3935
 199   2.0000      -0.489860       -13.3298
 200   2.0000      -0.484839       -13.1931
 201   2.0000      -0.483885       -13.1672
 202   2.0000      -0.482914       -13.1408
 203   2.0000      -0.482093       -13.1184
 204   2.0000      -0.481342       -13.0980
 205   2.0000      -0.477496       -12.9933
 206   2.0000      -0.474644       -12.9157
 207   2.0000      -0.471690       -12.8353
 208   2.0000      -0.471372       -12.8267
 209   2.0000      -0.466628       -12.6976
 210   2.0000      -0.465218       -12.6592
 211   2.0000      -0.464582       -12.6419
 212   2.0000      -0.461638       -12.5618
 213   2.0000      -0.460384       -12.5277
 214   2.0000      -0.457027       -12.4363
 215   2.0000      -0.457009       -12.4359
 216   2.0000      -0.452154       -12.3037
 217   2.0000      -0.446699       -12.1553
 218   2.0000      -0.443206       -12.0602
 219   2.0000      -0.443176       -12.0594
 220   2.0000      -0.441256       -12.0072
 221   2.0000      -0.434256       -11.8167
 222   2.0000      -0.433169       -11.7871
 223   2.0000      -0.431836       -11.7509
 224   2.0000      -0.431616       -11.7449
 225   2.0000      -0.424681       -11.5562
 226   2.0000      -0.423745       -11.5307
 227   2.0000      -0.421364       -11.4659
 228   2.0000      -0.420212       -11.4345
 229   2.0000      -0.418902       -11.3989
 230   2.0000      -0.413913       -11.2632
 231   2.0000      -0.412984       -11.2379
 232   2.0000      -0.411972       -11.2103
 233   2.0000      -0.406228       -11.0540
 234   2.0000      -0.404396       -11.0042
 235   2.0000      -0.397500       -10.8165
 236   2.0000      -0.395483       -10.7616
 237   2.0000      -0.391922       -10.6648
 238   2.0000      -0.387884       -10.5549
 239   2.0000      -0.385727       -10.4962
 240   2.0000      -0.384223       -10.4552
 241   2.0000      -0.375757       -10.2249
 242   2.0000      -0.373774       -10.1709
 243   2.0000      -0.369092       -10.0435
 244   2.0000      -0.366159        -9.9637
 245   2.0000      -0.359605        -9.7853
 246   2.0000      -0.356421        -9.6987
 247   2.0000      -0.352632        -9.5956
 248   2.0000      -0.351639        -9.5686
 249   2.0000      -0.343099        -9.3362
 250   2.0000      -0.338143        -9.2013
 251   2.0000      -0.336546        -9.1579
 252   2.0000      -0.321898        -8.7593
 253   2.0000      -0.314284        -8.5521
 254   2.0000      -0.310043        -8.4367
 255   2.0000      -0.301940        -8.2162
 256   2.0000      -0.301692        -8.2095
 257   2.0000      -0.294953        -8.0261
 258   2.0000      -0.289186        -7.8691
 259   2.0000      -0.272111        -7.4045
 260   2.0000      -0.263638        -7.1739
 261   2.0000      -0.206812        -5.6276
 262   0.0000      -0.109866        -2.9896
 263   0.0000      -0.089847        -2.4449
 264   0.0000      -0.071400        -1.9429
 265   0.0000      -0.055339        -1.5058
 266   0.0000      -0.041203        -1.1212

MULLIKEN ATOMIC CHARGES
-----------------------
   0 C :   -0.095906
   1 C :    0.303515
   2 F :   -0.188953
   3 C :   -0.031819
   4 C :   -0.007799
   5 C :    0.098589
   6 C :    0.101673
   7 C :   -0.086586
   8 C :    0.041498
   9 C :    0.008831
  10 C :   -0.077080
  11 C :    0.135115
  12 O :   -0.140748
  13 C :   -0.113000
  14 C :    0.328582
  15 C :   -0.334053
  16 C :   -0.200118
  17 N :    0.165224
  18 C :   -0.189696
  19 N :    0.159063
  20 C :    0.018024
  21 C :    0.020727
  22 C :    0.008660
  23 N :   -0.068534
  24 C :   -0.013546
  25 C :    0.031082
  26 C :    0.027290
  27 N :   -0.282220
  28 S :    0.538266
  29 N :   -0.250488
  30 C :   -0.010490
  31 C :   -0.216649
  32 C :    0.154781
  33 C :    0.230718
  34 N :   -0.137861
  35 C :    0.071068
  36 C :   -0.037762
  37 C :    0.017180
  38 C :   -0.055524
  39 C :    0.056607
  40 C :    0.004790
  41 C :   -0.019249
  42 S :    0.106100
  43 C :   -0.066923
  44 C :    0.043048
  45 C :    0.013245
  46 C :    0.009205
  47 S :    0.105479
  48 C :   -0.032975
  49 C :   -0.036212
  50 C :   -0.100328
  51 C :    0.331099
  52 C :   -0.373706
  53 C :   -0.190920
  54 N :    0.124220
  55 C :   -0.191516
  56 N :    0.118930
  57 C :    0.010603
  58 C :   -0.008162
  59 C :    0.134364
  60 O :   -0.175740
  61 C :   -0.080704
  62 C :    0.115031
  63 C :   -0.094281
  64 C :   -0.025396
  65 S :    0.171799
  66 C :   -0.124345
  67 C :    0.038211
  68 Br:    0.004926
  69 H :   -0.001283
  70 H :    0.005564
  71 H :   -0.007863
  72 H :   -0.005776
  73 H :   -0.010696
  74 H :    0.024238
  75 H :    0.007848
  76 H :   -0.010758
  77 H :    0.001723
  78 H :    0.033838
  79 H :    0.047278
  80 H :    0.029287
  81 H :    0.022316
  82 H :    0.138379
  83 H :    0.013046
  84 H :    0.005502
  85 H :   -0.010982
  86 H :   -0.010495
  87 H :   -0.013036
  88 H :   -0.013004
  89 H :   -0.008145
  90 H :    0.009642
  91 H :    0.008384
  92 H :   -0.020398
  93 H :   -0.012564
  94 H :   -0.010298
Sum of atomic charges:   -0.0000000

LOEWDIN ATOMIC CHARGES
----------------------
   0 C :   -0.042034
   1 C :    0.094240
   2 F :   -0.063733
   3 C :   -0.036030
   4 C :    0.005217
   5 C :   -0.018526
   6 C :    0.004383
   7 C :    0.011298
   8 C :   -0.013989
   9 C :   -0.060453
  10 C :    0.036268
  11 C :    0.085631
  12 O :   -0.139863
  13 C :   -0.074391
  14 C :    0.078620
  15 C :   -0.132602
  16 C :   -0.016906
  17 N :   -0.053989
  18 C :   -0.020208
  19 N :   -0.049391
  20 C :    0.070181
  21 C :   -0.070770
  22 C :    0.056943
  23 N :   -0.064656
  24 C :    0.044149
  25 C :   -0.060746
  26 C :   -0.036615
  27 N :   -0.284022
  28 S :    0.668618
  29 N :   -0.264772
  30 C :   -0.057595
  31 C :    0.010775
  32 C :   -0.052592
  33 C :    0.051636
  34 N :    0.028502
  35 C :    0.069961
  36 C :   -0.124777
  37 C :    0.002669
  38 C :   -0.189710
  39 C :   -0.006399
  40 C :   -0.059226
  41 C :   -0.136295
  42 S :    0.399229
  43 C :   -0.213971
  44 C :   -0.008417
  45 C :   -0.058856
  46 C :   -0.101473
  47 S :    0.411700
  48 C :   -0.087470
  49 C :    0.046241
  50 C :   -0.123784
  51 C :    0.072722
  52 C :   -0.169382
  53 C :   -0.019342
  54 N :   -0.081499
  55 C :   -0.020426
  56 N :   -0.080157
  57 C :   -0.016146
  58 C :   -0.046699
  59 C :    0.079721
  60 O :   -0.168113
  61 C :    0.012961
  62 C :   -0.039087
  63 C :   -0.147600
  64 C :   -0.016793
  65 S :    0.421548
  66 C :   -0.278201
  67 C :   -0.071393
  68 Br:    0.122286
  69 H :    0.043532
  70 H :    0.042574
  71 H :    0.036179
  72 H :    0.039059
  73 H :    0.040124
  74 H :    0.048879
  75 H :    0.029844
  76 H :    0.033404
  77 H :    0.021695
  78 H :    0.047647
  79 H :    0.046338
  80 H :    0.037919
  81 H :    0.029982
  82 H :    0.091923
  83 H :    0.032524
  84 H :    0.025243
  85 H :    0.035221
  86 H :    0.034662
  87 H :    0.031806
  88 H :    0.032234
  89 H :    0.035336
  90 H :    0.035958
  91 H :    0.029637
  92 H :    0.036777
  93 H :    0.039087
  94 H :    0.036014

  Mayer bond orders larger than 0.100000
B(  0-C ,  1-C ) :   1.4417 B(  0-C ,  6-C ) :   1.2019 B(  0-C , 69-H ) :   1.0059
B(  1-C ,  2-F ) :   1.0907 B(  1-C ,  3-C ) :   1.2545 B(  3-C ,  4-C ) :   1.4619
B(  3-C , 70-H ) :   0.9929 B(  4-C ,  5-C ) :   1.2339 B(  4-C , 71-H ) :   0.9964
B(  5-C ,  6-C ) :   1.2534 B(  5-C , 10-C ) :   1.1954 B(  6-C ,  7-C ) :   1.2050
B(  7-C ,  8-C ) :   1.4594 B(  7-C , 72-H ) :   0.9931 B(  8-C ,  9-C ) :   1.2131
B(  8-C , 14-C ) :   1.0095 B(  9-C , 10-C ) :   1.4697 B(  9-C , 11-C ) :   0.9212
B( 10-C , 73-H ) :   1.0139 B( 11-C , 12-O ) :   2.2734 B( 11-C , 13-C ) :   0.9306
B( 13-C , 14-C ) :   1.0250 B( 13-C , 20-C ) :   1.7085 B( 14-C , 15-C ) :   1.6493
B( 15-C , 16-C ) :   1.1675 B( 15-C , 18-C ) :   1.1414 B( 16-C , 17-N ) :   2.9978
B( 18-C , 19-N ) :   2.9837 B( 20-C , 21-C ) :   1.0539 B( 20-C , 74-H ) :   0.9427
B( 21-C , 22-C ) :   1.4057 B( 21-C , 26-C ) :   1.1956 B( 22-C , 23-N ) :   1.4470
B( 22-C , 75-H ) :   0.9823 B( 23-N , 24-C ) :   1.5880 B( 24-C , 25-C ) :   1.1305
B( 24-C , 30-C ) :   1.1420 B( 25-C , 26-C ) :   1.1930 B( 25-C , 29-N ) :   1.5624
B( 26-C , 27-N ) :   1.5211 B( 27-N , 28-S ) :   1.2510 B( 27-N , 29-N ) :   0.1416
B( 28-S , 29-N ) :   1.2882 B( 30-C , 31-C ) :   1.7185 B( 30-C , 76-H ) :   0.9630
B( 31-C , 32-C ) :   1.1007 B( 31-C , 33-C ) :   1.0465 B( 32-C , 77-H ) :   0.9443
B( 32-C , 78-H ) :   0.9266 B( 32-C , 79-H ) :   0.9241 B( 33-C , 34-N ) :   0.9840
B( 33-C , 80-H ) :   0.9252 B( 33-C , 81-H ) :   0.9354 B( 34-N , 35-C ) :   1.2821
B( 34-N , 82-H ) :   0.9337 B( 35-C , 36-C ) :   1.5303 B( 35-C , 83-H ) :   0.9680
B( 36-C , 37-C ) :   1.2218 B( 36-C , 84-H ) :   0.9662 B( 37-C , 38-C ) :   1.5274
B( 37-C , 85-H ) :   0.9795 B( 38-C , 39-C ) :   1.1788 B( 38-C , 42-S ) :   1.0155
B( 39-C , 40-C ) :   1.5449 B( 39-C , 86-H ) :   0.9990 B( 40-C , 41-C ) :   1.2251
B( 40-C , 87-H ) :   0.9952 B( 41-C , 42-S ) :   1.1065 B( 41-C , 43-C ) :   1.4135
B( 43-C , 44-C ) :   1.2572 B( 43-C , 47-S ) :   1.0420 B( 44-C , 45-C ) :   1.4944
B( 44-C , 88-H ) :   0.9951 B( 45-C , 46-C ) :   1.2183 B( 45-C , 89-H ) :   1.0019
B( 46-C , 47-S ) :   1.1031 B( 46-C , 48-C ) :   1.3557 B( 48-C , 49-C ) :   1.3236
B( 48-C , 90-H ) :   0.9778 B( 49-C , 50-C ) :   1.4186 B( 49-C , 91-H ) :   0.9422
B( 50-C , 51-C ) :   1.1452 B( 50-C , 59-C ) :   0.9802 B( 51-C , 52-C ) :   1.5526
B( 51-C , 57-C ) :   0.9806 B( 52-C , 53-C ) :   1.1532 B( 52-C , 55-C ) :   1.1600
B( 53-C , 54-N ) :   2.9570 B( 55-C , 56-N ) :   2.9524 B( 57-C , 58-C ) :   1.2811
B( 57-C , 64-C ) :   1.4262 B( 58-C , 59-C ) :   0.9304 B( 58-C , 61-C ) :   1.4373
B( 59-C , 60-O ) :   2.1747 B( 61-C , 62-C ) :   1.2332 B( 61-C , 92-H ) :   1.0156
B( 62-C , 63-C ) :   1.3245 B( 62-C , 67-C ) :   1.1599 B( 63-C , 64-C ) :   1.3137
B( 63-C , 65-S ) :   1.0796 B( 64-C , 93-H ) :   0.9785 B( 65-S , 66-C ) :   1.0844
B( 66-C , 67-C ) :   1.6222 B( 66-C , 68-Br) :   1.0075 B( 67-C , 94-H ) :   0.9995

-----------------------------------------------------------------------------
         ABSORPTION SPECTRUM VIA TRANSITION ELECTRIC DIPOLE MOMENTS
-----------------------------------------------------------------------------
State   Energy  Wavelength   fosc         T2         TX        TY        TZ
        (cm-1)    (nm)                  (au**2)     (au)      (au)      (au)
-----------------------------------------------------------------------------
   0   11459.2    872.7   0.946173158  27.18274   1.47445   3.78475   3.26870
   1   12567.4    795.7   0.281291881   7.36863  -1.46000  -1.29103  -1.88952
   2   21145.7    472.9   0.204934137   3.19056   0.86797  -1.55041   0.18282
   3   21458.0    466.0   0.013713681   0.21040  -0.13413  -0.38598  -0.20839
   4   22370.1    447.0   0.658846477   9.69598   2.44726  -1.20930   1.49816
   5   23495.5    425.6   0.182270565   2.55392   0.31566  -1.54791  -0.24137
   6   24535.0    407.6   0.090801081   1.21837  -0.92640   0.45624  -0.38987
   7   25152.8    397.6   0.335745980   4.39440   1.66690  -1.00047   0.78415
   8   25607.5    390.5   0.333199310   4.28364   0.51619  -2.00091  -0.11640
   9   26185.8    381.9   0.002464464   0.03098   0.14062   0.07891   0.07059
  10   26627.5    375.6   0.027279014   0.33727   0.54079  -0.21144   0.01050
  11   27062.4    369.5   0.351750635   4.27902   1.41730  -0.87416   1.22724
  12   27668.6    361.4   0.026280872   0.31270   0.43613  -0.32273   0.13542
  13   27971.5    357.5   0.000124034   0.00146   0.02298  -0.02997   0.00578
  14   28371.4    352.5   0.023735773   0.27542  -0.34366  -0.00633  -0.39659
  15   28802.4    347.2   0.005526161   0.06316   0.09799   0.03103   0.22935
  16   29708.3    336.6   0.011926342   0.13216  -0.25116  -0.00896  -0.26268
  17   30321.4    329.8   0.135428323   1.47040   0.72850  -0.94087  -0.23333
  18   31172.1    320.8   0.016111316   0.17015   0.26565  -0.22139   0.22488
  19   31766.3    314.8   0.171786482   1.78032   1.10689  -0.58999   0.45500
  20   31959.4    312.9   0.063309281   0.65215  -0.45932  -0.26779  -0.60783
  21   32101.6    311.5   0.000112892   0.00116  -0.01252  -0.02948  -0.01148
  22   32404.7    308.6   0.167465481   1.70135  -0.47020  -0.83547  -0.88444
  23   32661.8    306.2   0.131159097   1.32201  -0.14429  -0.97159  -0.59767
  24   33056.8    302.5   0.116740542   1.16262   0.11475   0.93050   0.53256
  25   33118.6    301.9   0.166332022   1.65340   0.94823  -0.69625   0.51914
  26   33590.0    297.7   0.001283526   0.01258  -0.04538  -0.09597  -0.03621
  27   33685.1    296.9   0.045101606   0.44079   0.13942   0.57066   0.30934
  28   33766.8    296.1   0.260522744   2.53999   0.12289   1.43939   0.67308
  29   33929.6    294.7   0.065969022   0.64008  -0.53218   0.39920  -0.44442
  30   34243.0    292.0   0.306682588   2.94845  -1.38921   0.89922  -0.45820
  31   34803.3    287.3   0.041837995   0.39575  -0.58312  -0.13720   0.19209
  32   35050.2    285.3   0.037781425   0.35487  -0.29884  -0.51029   0.07187
  33   35187.3    284.2   0.004738555   0.04433  -0.15700   0.01200   0.13979
  34   35429.4    282.3   0.073830541   0.68604  -0.01366   0.78240   0.27147
  35   35464.8    282.0   0.000558386   0.00518   0.00363   0.06954   0.01828
  36   35576.5    281.1   0.006340501   0.05867   0.23786  -0.03388   0.03080
  37   35657.0    280.4   0.017449347   0.16111  -0.18907  -0.31341  -0.16472
  38   36457.1    274.3   0.171016272   1.54430  -0.62536   1.05553  -0.19771
  39   36650.2    272.8   0.335424568   3.01296   1.19946  -1.22651   0.26443
  40   37008.7    270.2   0.001272883   0.01132  -0.04767   0.09435  -0.01219
  41   37308.5    268.0   0.180937343   1.59660   0.85955  -0.54843  -0.74632
  42   37391.6    267.4   0.051834292   0.45637   0.48696  -0.25317   0.39389
  43   38078.8    262.6   0.001498171   0.01295   0.07228  -0.07566   0.04475
  44   38213.5    261.7   0.052872182   0.45550   0.21120   0.44826   0.45821
  45   38505.2    259.7   0.065136703   0.55691  -0.46819   0.42265   0.39884
  46   38564.8    259.3   0.065784373   0.56157   0.22225  -0.66745   0.25824
  47   38613.4    259.0   0.098819768   0.84252   0.48062  -0.74848   0.22649
  48   39328.1    254.3   0.002151607   0.01801  -0.04809   0.06828   0.10505
  49   39801.1    251.2   0.026499569   0.21919   0.41823  -0.17667   0.11429
  50   39944.5    250.3   0.204468089   1.68517   0.09475  -0.66250   1.11233
  51   39977.8    250.1   0.006887794   0.05672  -0.06254   0.21828  -0.07185

FINAL SINGLE POINT ENERGY     -6886.274846752865

DIPOLE MOMENT
-------------
                                X             Y             Z
Electronic contribution:    -57.55358    -119.72016    -128.19436
Nuclear contribution   :     59.91599     124.69814     133.23510
                        -----------------------------------------
Total Dipole Moment    :      2.36241       4.97798       5.04074
                        -----------------------------------------
Magnitude (a.u.)       :      7.46796
Magnitude (Debye)      :     18.98203

Rotational constants in cm-1:     0.000715     0.000236     0.000182
Rotational constants in MHz :    21.448897     7.062015     5.447728

                             ****ORCA TERMINATED NORMALLY****
TOTAL RUN TIME: 0 days 0 hours 8 minutes 43 seconds 133 msec
