                         Program Version 4.2.0 -  RELEASE  -
|  1> # ORCA input file
|  2> # SCF done       -187.674163057536          0.000376246337
|  3> ! CAM-B3LYP def2-SVP def2/J RIJCOSX Grid4 TightSCF
|  4> %maxcore 5000
|  5> %tddft
|  6>     Mode sTDDFT
|  7>     Ethresh 5.0
|  8>     maxcore 5000
|  9> end
| 10>
| 11> %pal
| 12>   nprocs 6
| 13>   end
| 14> * xyz 0 1
| 15>    C       -3.73520        -3.07949        -0.95214
| 16>    C       -4.14534        -3.64739        -2.13099
| 17>    C       -4.36905        -5.02914        -2.30855
| 18>    N       -4.57545        -6.13916        -2.51481
| 19>    C       -4.43099        -2.93805        -3.31570
| 20>    N       -4.68466        -2.42401        -4.31078
| 21>    C       -3.44984        -3.79605         0.28431
| 22>    C       -3.15397        -2.85835         1.30563
| 23>    C       -2.83625        -3.23292         2.58811
| 24>    C       -2.79243        -4.60090         2.87564
| 25>    C       -3.08776        -5.53186         1.84969
| 26>    C       -3.41984        -5.15250         0.55551
| 27>    S       -2.97528        -7.16847         2.42077
| 28>    C       -2.53758        -6.58971         4.00643
| 29>    C       -2.47876        -5.24004         4.10568
| 30>   Br       -2.20132        -7.82029         5.37952
| 31>    C       -3.25055        -1.49490         0.76059
| 32>    O       -3.28648        -0.45973         1.38365
| 33>    C       -3.48050        -1.67052        -0.70729
| 34>    C       -3.50297        -0.65459        -1.60913
| 35>    C       -2.95944         0.63361        -1.35009
| 36>    O       -3.39476         1.70512        -2.06889
| 37>    C       -1.92218         1.04885        -0.53754
| 38>    C       -0.86660         0.59076         0.37900
| 39>    O       -0.56774        -0.51110         0.75636
| 40>    N       -0.18555         1.76103         0.69963
| 41>    C       -0.63905         2.91421         0.06152
| 42>    O       -0.17093         4.01349         0.19474
| 43>    C       -1.75369         2.43304        -0.76219
| 44>    C       -2.68655         2.80646        -1.71250
| 45>    C       -2.92625         4.07797        -2.30143
| 46>    C       -3.82560         4.30776        -3.28250
| 47>    C       -3.99225         5.60256        -3.86640
| 48>    C       -4.79898         5.93642        -4.88828
| 49>    C       -5.69674         5.00911        -5.63702
| 50>    C       -4.77269         7.35199        -5.41286
| 51>    N       -3.88772         7.40989        -6.55392
| 52>    C       -4.08138         8.13250        -7.66564
| 53>    C       -3.20073         8.15889        -8.70765
| 54>    C       -3.36813         8.94371        -9.85550
| 55>    C       -2.48329         8.96262       -10.90703
| 56>    C       -2.53753         9.75823       -12.07252
| 57>    C       -1.50157         9.55691       -12.93772
| 58>    C       -0.58126         8.57782       -12.50759
| 59>    S       -1.05480         7.93306       -10.96152
| 60>    C        0.55132         8.11826       -13.16507
| 61>    C        1.10055         8.56896       -14.37832
| 62>    C        2.22267         7.88619       -14.76043
| 63>    C        2.60260         6.85987       -13.87292
| 64>    S        1.50120         6.79524       -12.52157
| 65>    C        3.65943         5.97610       -14.03055
| 66>    C        3.94021         4.96326       -13.12870
| 67>    C        4.90566         3.97516       -13.19891
| 68>    C        5.74139         3.50876       -14.26594
| 69>    C        5.51699         3.61628       -15.62207
| 70>    C        6.39119         3.11917       -16.60626
| 71>    N        7.07420         2.75851       -17.45752
| 72>    C        4.34323         4.12634       -16.20700
| 73>    N        3.39552         4.47693       -16.75486
| 74>    C        6.79640         2.68515       -13.66853
| 75>    C        6.50073         2.49887       -12.29593
| 76>    C        5.28003         3.26440       -11.96122
| 77>    O        4.72094         3.32243       -10.88448
| 78>    C        7.27795         1.72705       -11.46952
| 79>    C        8.41117         1.11734       -12.02063
| 80>    C        8.70751         1.32345       -13.38661
| 81>    C        7.91455         2.09861       -14.22628
| 82>    S       10.15739         0.48822       -13.85916
| 83>    C       10.33781        -0.12247       -12.23604
| 84>    C        9.36694         0.27856       -11.38286
| 85>   Br       11.79346        -1.23185       -11.82049
| 86>    H       -2.61529        -2.49291         3.34058
| 87>    H       -3.63552        -5.90002        -0.18952
| 88>    H       -2.22382        -4.71527         5.00818
| 89>    H       -3.91084        -0.79541        -2.60083
| 90>    H        0.60097         1.76943         1.33374
| 91>    H       -2.30711         4.87441        -1.91315
| 92>    H       -4.42531         3.48557        -3.64341
| 93>    H       -3.38212         6.38103        -3.42352
| 94>    H       -5.49592         3.96764        -5.41160
| 95>    H       -5.57976         5.16405        -6.70916
| 96>    H       -6.73711         5.22054        -5.38658
| 97>    H       -4.42151         8.03913        -4.63134
| 98>    H       -5.76979         7.66707        -5.72989
| 99>    H       -3.02146         6.89664        -6.47148
|100>    H       -4.99614         8.70893        -7.70106
|101>    H       -2.30665         7.55225        -8.64736
|102>    H       -4.23561         9.58732        -9.92088
|103>    H       -3.33738        10.45889       -12.23670
|104>    H       -1.38353        10.07515       -13.87199
|105>    H        0.66806         9.37983       -14.93657
|106>    H        2.77597         8.07949       -15.66186
|107>    H        4.27435         6.11502       -14.90679
|108>    H        3.38272         4.96682       -12.19542
|109>    H        7.02106         1.59456       -10.43021
|110>    H        8.18475         2.22574       -15.26127
|111>    H        9.32322        -0.00379       -10.34675
|112> *
|113>
|114>                          ****END OF INPUT****

CARTESIAN COORDINATES (ANGSTROEM)
---------------------------------
  C     -3.735200   -3.079490   -0.952140
  C     -4.145340   -3.647390   -2.130990
  C     -4.369050   -5.029140   -2.308550
  N     -4.575450   -6.139160   -2.514810
  C     -4.430990   -2.938050   -3.315700
  N     -4.684660   -2.424010   -4.310780
  C     -3.449840   -3.796050    0.284310
  C     -3.153970   -2.858350    1.305630
  C     -2.836250   -3.232920    2.588110
  C     -2.792430   -4.600900    2.875640
  C     -3.087760   -5.531860    1.849690
  C     -3.419840   -5.152500    0.555510
  S     -2.975280   -7.168470    2.420770
  C     -2.537580   -6.589710    4.006430
  C     -2.478760   -5.240040    4.105680
  Br    -2.201320   -7.820290    5.379520
  C     -3.250550   -1.494900    0.760590
  O     -3.286480   -0.459730    1.383650
  C     -3.480500   -1.670520   -0.707290
  C     -3.502970   -0.654590   -1.609130
  C     -2.959440    0.633610   -1.350090
  O     -3.394760    1.705120   -2.068890
  C     -1.922180    1.048850   -0.537540
  C     -0.866600    0.590760    0.379000
  O     -0.567740   -0.511100    0.756360
  N     -0.185550    1.761030    0.699630
  C     -0.639050    2.914210    0.061520
  O     -0.170930    4.013490    0.194740
  C     -1.753690    2.433040   -0.762190
  C     -2.686550    2.806460   -1.712500
  C     -2.926250    4.077970   -2.301430
  C     -3.825600    4.307760   -3.282500
  C     -3.992250    5.602560   -3.866400
  C     -4.798980    5.936420   -4.888280
  C     -5.696740    5.009110   -5.637020
  C     -4.772690    7.351990   -5.412860
  N     -3.887720    7.409890   -6.553920
  C     -4.081380    8.132500   -7.665640
  C     -3.200730    8.158890   -8.707650
  C     -3.368130    8.943710   -9.855500
  C     -2.483290    8.962620  -10.907030
  C     -2.537530    9.758230  -12.072520
  C     -1.501570    9.556910  -12.937720
  C     -0.581260    8.577820  -12.507590
  S     -1.054800    7.933060  -10.961520
  C      0.551320    8.118260  -13.165070
  C      1.100550    8.568960  -14.378320
  C      2.222670    7.886190  -14.760430
  C      2.602600    6.859870  -13.872920
  S      1.501200    6.795240  -12.521570
  C      3.659430    5.976100  -14.030550
  C      3.940210    4.963260  -13.128700
  C      4.905660    3.975160  -13.198910
  C      5.741390    3.508760  -14.265940
  C      5.516990    3.616280  -15.622070
  C      6.391190    3.119170  -16.606260
  N      7.074200    2.758510  -17.457520
  C      4.343230    4.126340  -16.207000
  N      3.395520    4.476930  -16.754860
  C      6.796400    2.685150  -13.668530
  C      6.500730    2.498870  -12.295930
  C      5.280030    3.264400  -11.961220
  O      4.720940    3.322430  -10.884480
  C      7.277950    1.727050  -11.469520
  C      8.411170    1.117340  -12.020630
  C      8.707510    1.323450  -13.386610
  C      7.914550    2.098610  -14.226280
  S     10.157390    0.488220  -13.859160
  C     10.337810   -0.122470  -12.236040
  C      9.366940    0.278560  -11.382860
  Br    11.793460   -1.231850  -11.820490
  H     -2.615290   -2.492910    3.340580
  H     -3.635520   -5.900020   -0.189520
  H     -2.223820   -4.715270    5.008180
  H     -3.910840   -0.795410   -2.600830
  H      0.600970    1.769430    1.333740
  H     -2.307110    4.874410   -1.913150
  H     -4.425310    3.485570   -3.643410
  H     -3.382120    6.381030   -3.423520
  H     -5.495920    3.967640   -5.411600
  H     -5.579760    5.164050   -6.709160
  H     -6.737110    5.220540   -5.386580
  H     -4.421510    8.039130   -4.631340
  H     -5.769790    7.667070   -5.729890
  H     -3.021460    6.896640   -6.471480
  H     -4.996140    8.708930   -7.701060
  H     -2.306650    7.552250   -8.647360
  H     -4.235610    9.587320   -9.920880
  H     -3.337380   10.458890  -12.236700
  H     -1.383530   10.075150  -13.871990
  H      0.668060    9.379830  -14.936570
  H      2.775970    8.079490  -15.661860
  H      4.274350    6.115020  -14.906790
  H      3.382720    4.966820  -12.195420
  H      7.021060    1.594560  -10.430210
  H      8.184750    2.225740  -15.261270
  H      9.323220   -0.003790  -10.346750

 Total Charge           Charge          ....    0
 Multiplicity           Mult            ....    1
 Number of Electrons    NEL             ....  566
 Basis Dimension        Dim             .... 1176

ORBITAL ENERGIES
----------------

  NO   OCC          E(Eh)            E(eV)
   0   2.0000    -482.890276    -13140.1124
   1   2.0000    -482.868495    -13139.5198
   2   2.0000     -88.980976     -2421.2955
   3   2.0000     -88.956886     -2420.6399
   4   2.0000     -88.954234     -2420.5678
   5   2.0000     -88.947466     -2420.3836
   6   2.0000     -62.567976     -1702.5612
   7   2.0000     -62.546216     -1701.9691
   8   2.0000     -56.401935     -1534.7747
   9   2.0000     -56.399205     -1534.7004
  10   2.0000     -56.399178     -1534.6997
  11   2.0000     -56.380142     -1534.1817
  12   2.0000     -56.377474     -1534.1091
  13   2.0000     -56.377429     -1534.1078
  14   2.0000     -19.328403      -525.9526
  15   2.0000     -19.224336      -523.1208
  16   2.0000     -19.223738      -523.1045
  17   2.0000     -19.222512      -523.0711
  18   2.0000     -19.181285      -521.9493
  19   2.0000     -14.473416      -393.8417
  20   2.0000     -14.465898      -393.6371
  21   2.0000     -14.426761      -392.5721
  22   2.0000     -14.423818      -392.4920
  23   2.0000     -14.385050      -391.4371
  24   2.0000     -14.382444      -391.3662
  25   2.0000     -10.412319      -283.3336
  26   2.0000     -10.411937      -283.3232
  27   2.0000     -10.380006      -282.4543
  28   2.0000     -10.377009      -282.3728
  29   2.0000     -10.374980      -282.3176
  30   2.0000     -10.364587      -282.0347
  31   2.0000     -10.353544      -281.7343
  32   2.0000     -10.353505      -281.7332
  33   2.0000     -10.352308      -281.7006
  34   2.0000     -10.343739      -281.4674
  35   2.0000     -10.337917      -281.3090
  36   2.0000     -10.332616      -281.1648
  37   2.0000     -10.332008      -281.1482
  38   2.0000     -10.331941      -281.1464
  39   2.0000     -10.329005      -281.0665
  40   2.0000     -10.328931      -281.0645
  41   2.0000     -10.326106      -280.9876
  42   2.0000     -10.317324      -280.7487
  43   2.0000     -10.316249      -280.7194
  44   2.0000     -10.315829      -280.7080
  45   2.0000     -10.314057      -280.6598
  46   2.0000     -10.313571      -280.6465
  47   2.0000     -10.312389      -280.6144
  48   2.0000     -10.311420      -280.5880
  49   2.0000     -10.310960      -280.5755
  50   2.0000     -10.310456      -280.5618
  51   2.0000     -10.309714      -280.5416
  52   2.0000     -10.309499      -280.5357
  53   2.0000     -10.309026      -280.5229
  54   2.0000     -10.306796      -280.4622
  55   2.0000     -10.306317      -280.4491
  56   2.0000     -10.305283      -280.4210
  57   2.0000     -10.304684      -280.4047
  58   2.0000     -10.301746      -280.3248
  59   2.0000     -10.301463      -280.3171
  60   2.0000     -10.301328      -280.3134
  61   2.0000     -10.300938      -280.3028
  62   2.0000     -10.299109      -280.2530
  63   2.0000     -10.293444      -280.0989
  64   2.0000     -10.291959      -280.0585
  65   2.0000     -10.290699      -280.0242
  66   2.0000     -10.289818      -280.0002
  67   2.0000     -10.286855      -279.9196
  68   2.0000     -10.283857      -279.8380
  69   2.0000     -10.282921      -279.8125
  70   2.0000     -10.281524      -279.7745
  71   2.0000     -10.281130      -279.7638
  72   2.0000     -10.278919      -279.7036
  73   2.0000     -10.276854      -279.6474
  74   2.0000     -10.275748      -279.6173
  75   2.0000     -10.275115      -279.6001
  76   2.0000     -10.264571      -279.3132
  77   2.0000     -10.260813      -279.2109
  78   2.0000     -10.255801      -279.0745
  79   2.0000      -8.797393      -239.3892
  80   2.0000      -8.775634      -238.7972
  81   2.0000      -8.076971      -219.7856
  82   2.0000      -8.053121      -219.1366
  83   2.0000      -8.050245      -219.0583
  84   2.0000      -8.043648      -218.8788
  85   2.0000      -6.633724      -180.5128
  86   2.0000      -6.619125      -180.1155
  87   2.0000      -6.618899      -180.1094
  88   2.0000      -6.611841      -179.9173
  89   2.0000      -6.597386      -179.5240
  90   2.0000      -6.597265      -179.5207
  91   2.0000      -6.046668      -164.5382
  92   2.0000      -6.042371      -164.4213
  93   2.0000      -6.038196      -164.3077
  94   2.0000      -6.022714      -163.8864
  95   2.0000      -6.019952      -163.8112
  96   2.0000      -6.018742      -163.7783
  97   2.0000      -6.015682      -163.6950
  98   2.0000      -6.014276      -163.6568
  99   2.0000      -6.013207      -163.6277
 100   2.0000      -6.011449      -163.5798
 101   2.0000      -6.009206      -163.5188
 102   2.0000      -6.004901      -163.4017
 103   2.0000      -2.749596       -74.8203
 104   2.0000      -2.745497       -74.7088
 105   2.0000      -2.745323       -74.7040
 106   2.0000      -2.733730       -74.3886
 107   2.0000      -2.733710       -74.3880
 108   2.0000      -2.727710       -74.2248
 109   2.0000      -2.723683       -74.1152
 110   2.0000      -2.723560       -74.1118
 111   2.0000      -2.712093       -73.7998
 112   2.0000      -2.712071       -73.7992
 113   2.0000      -1.244031       -33.8518
 114   2.0000      -1.168114       -31.7860
 115   2.0000      -1.148605       -31.2551
 116   2.0000      -1.139327       -31.0027
 117   2.0000      -1.095248       -29.8032
 118   2.0000      -1.073097       -29.2005
 119   2.0000      -1.055075       -28.7101
 120   2.0000      -1.030871       -28.0514
 121   2.0000      -1.021340       -27.7921
 122   2.0000      -1.003634       -27.3103
 123   2.0000      -1.002294       -27.2738
 124   2.0000      -0.998405       -27.1680
 125   2.0000      -0.997400       -27.1406
 126   2.0000      -0.984397       -26.7868
 127   2.0000      -0.977904       -26.6101
 128   2.0000      -0.962984       -26.2041
 129   2.0000      -0.960365       -26.1329
 130   2.0000      -0.958330       -26.0775
 131   2.0000      -0.951958       -25.9041
 132   2.0000      -0.938547       -25.5392
 133   2.0000      -0.936813       -25.4920
 134   2.0000      -0.919386       -25.0178
 135   2.0000      -0.916944       -24.9513
 136   2.0000      -0.915557       -24.9136
 137   2.0000      -0.905698       -24.6453
 138   2.0000      -0.892407       -24.2836
 139   2.0000      -0.891007       -24.2455
 140   2.0000      -0.882471       -24.0132
 141   2.0000      -0.879929       -23.9441
 142   2.0000      -0.865878       -23.5617
 143   2.0000      -0.860821       -23.4241
 144   2.0000      -0.852998       -23.2113
 145   2.0000      -0.851127       -23.1604
 146   2.0000      -0.842669       -22.9302
 147   2.0000      -0.835596       -22.7377
 148   2.0000      -0.825403       -22.4604
 149   2.0000      -0.822425       -22.3793
 150   2.0000      -0.808485       -22.0000
 151   2.0000      -0.805300       -21.9133
 152   2.0000      -0.800557       -21.7843
 153   2.0000      -0.788252       -21.4494
 154   2.0000      -0.778892       -21.1947
 155   2.0000      -0.774041       -21.0627
 156   2.0000      -0.770532       -20.9672
 157   2.0000      -0.763006       -20.7624
 158   2.0000      -0.750087       -20.4109
 159   2.0000      -0.734756       -19.9937
 160   2.0000      -0.731553       -19.9066
 161   2.0000      -0.723975       -19.7004
 162   2.0000      -0.713540       -19.4164
 163   2.0000      -0.708006       -19.2658
 164   2.0000      -0.700724       -19.0677
 165   2.0000      -0.696929       -18.9644
 166   2.0000      -0.685992       -18.6668
 167   2.0000      -0.681893       -18.5553
 168   2.0000      -0.673811       -18.3353
 169   2.0000      -0.664461       -18.0809
 170   2.0000      -0.661084       -17.9890
 171   2.0000      -0.652043       -17.7430
 172   2.0000      -0.648176       -17.6378
 173   2.0000      -0.641306       -17.4508
 174   2.0000      -0.637372       -17.3438
 175   2.0000      -0.634214       -17.2578
 176   2.0000      -0.630406       -17.1542
 177   2.0000      -0.628105       -17.0916
 178   2.0000      -0.619163       -16.8483
 179   2.0000      -0.617413       -16.8007
 180   2.0000      -0.610531       -16.6134
 181   2.0000      -0.607642       -16.5348
 182   2.0000      -0.605752       -16.4834
 183   2.0000      -0.602512       -16.3952
 184   2.0000      -0.601219       -16.3600
 185   2.0000      -0.597891       -16.2694
 186   2.0000      -0.596269       -16.2253
 187   2.0000      -0.594987       -16.1904
 188   2.0000      -0.590847       -16.0778
 189   2.0000      -0.576071       -15.6757
 190   2.0000      -0.573135       -15.5958
 191   2.0000      -0.568737       -15.4761
 192   2.0000      -0.562012       -15.2931
 193   2.0000      -0.560834       -15.2611
 194   2.0000      -0.558471       -15.1968
 195   2.0000      -0.557329       -15.1657
 196   2.0000      -0.553708       -15.0672
 197   2.0000      -0.548074       -14.9139
 198   2.0000      -0.543892       -14.8001
 199   2.0000      -0.541129       -14.7249
 200   2.0000      -0.533601       -14.5200
 201   2.0000      -0.532613       -14.4931
 202   2.0000      -0.531363       -14.4591
 203   2.0000      -0.528060       -14.3692
 204   2.0000      -0.523177       -14.2364
 205   2.0000      -0.520891       -14.1742
 206   2.0000      -0.519243       -14.1293
 207   2.0000      -0.517862       -14.0917
 208   2.0000      -0.514761       -14.0074
 209   2.0000      -0.514578       -14.0024
 210   2.0000      -0.510915       -13.9027
 211   2.0000      -0.508876       -13.8472
 212   2.0000      -0.507003       -13.7962
 213   2.0000      -0.504473       -13.7274
 214   2.0000      -0.502980       -13.6868
 215   2.0000      -0.502627       -13.6772
 216   2.0000      -0.501049       -13.6342
 217   2.0000      -0.500631       -13.6229
 218   2.0000      -0.497581       -13.5399
 219   2.0000      -0.489718       -13.3259
 220   2.0000      -0.488686       -13.2978
 221   2.0000      -0.486656       -13.2426
 222   2.0000      -0.485344       -13.2069
 223   2.0000      -0.483167       -13.1476
 224   2.0000      -0.480359       -13.0712
 225   2.0000      -0.475483       -12.9386
 226   2.0000      -0.474020       -12.8987
 227   2.0000      -0.473420       -12.8824
 228   2.0000      -0.469703       -12.7813
 229   2.0000      -0.468042       -12.7361
 230   2.0000      -0.464368       -12.6361
 231   2.0000      -0.464134       -12.6297
 232   2.0000      -0.460629       -12.5343
 233   2.0000      -0.458223       -12.4689
 234   2.0000      -0.457480       -12.4487
 235   2.0000      -0.453011       -12.3270
 236   2.0000      -0.452530       -12.3140
 237   2.0000      -0.446247       -12.1430
 238   2.0000      -0.445096       -12.1117
 239   2.0000      -0.444319       -12.0905
 240   2.0000      -0.441811       -12.0223
 241   2.0000      -0.437807       -11.9133
 242   2.0000      -0.436333       -11.8732
 243   2.0000      -0.435288       -11.8448
 244   2.0000      -0.433460       -11.7950
 245   2.0000      -0.426392       -11.6027
 246   2.0000      -0.424746       -11.5579
 247   2.0000      -0.422248       -11.4900
 248   2.0000      -0.420357       -11.4385
 249   2.0000      -0.418029       -11.3751
 250   2.0000      -0.416741       -11.3401
 251   2.0000      -0.414004       -11.2656
 252   2.0000      -0.409621       -11.1464
 253   2.0000      -0.401768       -10.9327
 254   2.0000      -0.399014       -10.8577
 255   2.0000      -0.396304       -10.7840
 256   2.0000      -0.392927       -10.6921
 257   2.0000      -0.391652       -10.6574
 258   2.0000      -0.389788       -10.6067
 259   2.0000      -0.386525       -10.5179
 260   2.0000      -0.382639       -10.4121
 261   2.0000      -0.380195       -10.3456
 262   2.0000      -0.379475       -10.3260
 263   2.0000      -0.372719       -10.1422
 264   2.0000      -0.368536       -10.0284
 265   2.0000      -0.367881       -10.0106
 266   2.0000      -0.361054        -9.8248
 267   2.0000      -0.358322        -9.7504
 268   2.0000      -0.357491        -9.7278
 269   2.0000      -0.345629        -9.4050
 270   2.0000      -0.345572        -9.4035
 271   2.0000      -0.338213        -9.2032
 272   2.0000      -0.335766        -9.1367
 273   2.0000      -0.325212        -8.8495
 274   2.0000      -0.320849        -8.7307
 275   2.0000      -0.314812        -8.5665
 276   2.0000      -0.304603        -8.2887
 277   2.0000      -0.300026        -8.1641
 278   2.0000      -0.291426        -7.9301
 279   2.0000      -0.283061        -7.7025
 280   2.0000      -0.273746        -7.4490
 281   2.0000      -0.267266        -7.2727
 282   2.0000      -0.210281        -5.7220
 283   0.0000      -0.109613        -2.9827
 284   0.0000      -0.092965        -2.5297
 285   0.0000      -0.070226        -1.9109
 286   0.0000      -0.064300        -1.7497
 287   0.0000      -0.043611        -1.1867

MULLIKEN ATOMIC CHARGES
-----------------------
   0 C :    0.303488
   1 C :   -0.344367
   2 C :   -0.182330
   3 N :    0.156764
   4 C :   -0.184682
   5 N :    0.153418
   6 C :    0.021073
   7 C :   -0.003277
   8 C :   -0.056557
   9 C :    0.112810
  10 C :   -0.089333
  11 C :   -0.019460
  12 S :    0.190036
  13 C :   -0.123141
  14 C :    0.042116
  15 Br:    0.028887
  16 C :    0.150140
  17 O :   -0.147060
  18 C :   -0.064951
  19 C :   -0.035679
  20 C :    0.121899
  21 O :   -0.200510
  22 C :   -0.024298
  23 C :    0.188958
  24 O :   -0.143257
  25 N :   -0.162242
  26 C :    0.172914
  27 O :   -0.138242
  28 C :   -0.051426
  29 C :    0.106636
  30 C :   -0.040519
  31 C :    0.037427
  32 C :    0.015930
  33 C :   -0.214917
  34 C :    0.097904
  35 C :    0.219025
  36 N :   -0.144467
  37 C :    0.076548
  38 C :   -0.042363
  39 C :    0.022502
  40 C :   -0.055624
  41 C :    0.054936
  42 C :    0.009111
  43 C :   -0.019834
  44 S :    0.086601
  45 C :   -0.067467
  46 C :    0.038604
  47 C :    0.029450
  48 C :   -0.018594
  49 S :    0.098210
  50 C :   -0.005046
  51 C :    0.015890
  52 C :   -0.134209
  53 C :    0.302572
  54 C :   -0.362197
  55 C :   -0.180132
  56 N :    0.122175
  57 C :   -0.218431
  58 N :    0.147643
  59 C :    0.003199
  60 C :   -0.002678
  61 C :    0.132717
  62 O :   -0.169853
  63 C :   -0.080521
  64 C :    0.113909
  65 C :   -0.090911
  66 C :   -0.028127
  67 S :    0.172243
  68 C :   -0.125308
  69 C :    0.038026
  70 Br:    0.005628
  71 H :   -0.007155
  72 H :   -0.004612
  73 H :   -0.001605
  74 H :    0.028099
  75 H :    0.142295
  76 H :    0.015948
  77 H :    0.011252
  78 H :   -0.013262
  79 H :    0.026483
  80 H :    0.028830
  81 H :    0.037861
  82 H :    0.025348
  83 H :    0.017924
  84 H :    0.132303
  85 H :    0.013563
  86 H :   -0.000964
  87 H :   -0.009118
  88 H :   -0.008369
  89 H :   -0.011475
  90 H :   -0.009187
  91 H :   -0.003391
  92 H :    0.002615
  93 H :    0.008721
  94 H :   -0.019107
  95 H :   -0.010372
  96 H :   -0.010002
Sum of atomic charges:   -0.0000000

LOEWDIN ATOMIC CHARGES
----------------------
   0 C :    0.074375
   1 C :   -0.132778
   2 C :   -0.018489
   3 N :   -0.045511
   4 C :   -0.018993
   5 N :   -0.047320
   6 C :   -0.019668
   7 C :   -0.043963
   8 C :    0.028531
   9 C :   -0.029237
  10 C :   -0.141739
  11 C :   -0.008612
  12 S :    0.435647
  13 C :   -0.269333
  14 C :   -0.069496
  15 Br:    0.141367
  16 C :    0.088602
  17 O :   -0.133183
  18 C :   -0.060805
  19 C :    0.041738
  20 C :    0.052065
  21 O :    0.022233
  22 C :   -0.057581
  23 C :    0.091017
  24 O :   -0.147494
  25 N :    0.000689
  26 C :    0.087009
  27 O :   -0.154413
  28 C :   -0.096128
  29 C :    0.079137
  30 C :   -0.038882
  31 C :    0.010056
  32 C :   -0.047574
  33 C :   -0.024688
  34 C :   -0.047007
  35 C :    0.052825
  36 N :    0.019632
  37 C :    0.069148
  38 C :   -0.126609
  39 C :   -0.000419
  40 C :   -0.186706
  41 C :   -0.007109
  42 C :   -0.056566
  43 C :   -0.137829
  44 S :    0.388314
  45 C :   -0.211122
  46 C :   -0.006557
  47 C :   -0.050686
  48 C :   -0.097371
  49 S :    0.400092
  50 C :   -0.082758
  51 C :    0.048783
  52 C :   -0.123772
  53 C :    0.068773
  54 C :   -0.164982
  55 C :   -0.019800
  56 N :   -0.077232
  57 C :   -0.023180
  58 N :   -0.072919
  59 C :   -0.013501
  60 C :   -0.049678
  61 C :    0.076114
  62 O :   -0.169549
  63 C :    0.014190
  64 C :   -0.039882
  65 C :   -0.146389
  66 C :   -0.019096
  67 S :    0.422094
  68 C :   -0.278204
  69 C :   -0.071334
  70 Br:    0.122988
  71 H :    0.042910
  72 H :    0.041552
  73 H :    0.039685
  74 H :    0.051115
  75 H :    0.097220
  76 H :    0.046775
  77 H :    0.033304
  78 H :    0.029907
  79 H :    0.033714
  80 H :    0.037452
  81 H :    0.043325
  82 H :    0.025967
  83 H :    0.031893
  84 H :    0.086727
  85 H :    0.032997
  86 H :    0.021545
  87 H :    0.035679
  88 H :    0.035427
  89 H :    0.032688
  90 H :    0.033773
  91 H :    0.037915
  92 H :    0.035953
  93 H :    0.030900
  94 H :    0.037274
  95 H :    0.038954
  96 H :    0.036074

  Mayer bond orders larger than 0.100000
B(  0-C ,  1-C ) :   1.6395 B(  0-C ,  6-C ) :   1.0142 B(  0-C , 18-C ) :   1.0702
B(  1-C ,  2-C ) :   1.1392 B(  1-C ,  4-C ) :   1.1454 B(  2-C ,  3-N ) :   2.9722
B(  4-C ,  5-N ) :   2.9657 B(  6-C ,  7-C ) :   1.2707 B(  6-C , 11-C ) :   1.4001
B(  7-C ,  8-C ) :   1.4258 B(  7-C , 16-C ) :   0.9364 B(  8-C ,  9-C ) :   1.2525
B(  8-C , 71-H ) :   1.0141 B(  9-C , 10-C ) :   1.2980 B(  9-C , 14-C ) :   1.1648
B( 10-C , 11-C ) :   1.3413 B( 10-C , 12-S ) :   1.0868 B( 11-C , 72-H ) :   0.9788
B( 12-S , 13-C ) :   1.0869 B( 13-C , 14-C ) :   1.6165 B( 13-C , 15-Br) :   1.0216
B( 14-C , 73-H ) :   0.9999 B( 16-C , 17-O ) :   2.2328 B( 16-C , 18-C ) :   0.9153
B( 18-C , 19-C ) :   1.6432 B( 19-C , 20-C ) :   1.1357 B( 19-C , 74-H ) :   0.9316
B( 20-C , 21-O ) :   1.1291 B( 20-C , 22-C ) :   1.4511 B( 21-O , 29-C ) :   1.1701
B( 22-C , 23-C ) :   0.8674 B( 22-C , 28-C ) :   1.3090 B( 23-C , 24-O ) :   2.2300
B( 23-C , 25-N ) :   1.0907 B( 25-N , 26-C ) :   1.0779 B( 25-N , 75-H ) :   0.9144
B( 26-C , 27-O ) :   2.2689 B( 26-C , 28-C ) :   0.8776 B( 28-C , 29-C ) :   1.3844
B( 29-C , 30-C ) :   1.1435 B( 30-C , 31-C ) :   1.6626 B( 30-C , 76-H ) :   0.9688
B( 31-C , 32-C ) :   1.0900 B( 31-C , 77-H ) :   0.9819 B( 32-C , 33-C ) :   1.7554
B( 32-C , 78-H ) :   0.9751 B( 33-C , 34-C ) :   1.0801 B( 33-C , 35-C ) :   1.0363
B( 34-C , 79-H ) :   0.9542 B( 34-C , 80-H ) :   0.9473 B( 34-C , 81-H ) :   0.9438
B( 35-C , 36-N ) :   0.9808 B( 35-C , 82-H ) :   0.9354 B( 35-C , 83-H ) :   0.9326
B( 36-N , 37-C ) :   1.2771 B( 36-N , 84-H ) :   0.9324 B( 37-C , 38-C ) :   1.5379
B( 37-C , 85-H ) :   0.9693 B( 38-C , 39-C ) :   1.2200 B( 38-C , 86-H ) :   0.9640
B( 39-C , 40-C ) :   1.5364 B( 39-C , 87-H ) :   0.9785 B( 40-C , 41-C ) :   1.1774
B( 40-C , 44-S ) :   1.0134 B( 41-C , 42-C ) :   1.5497 B( 41-C , 88-H ) :   0.9982
B( 42-C , 43-C ) :   1.2228 B( 42-C , 89-H ) :   0.9949 B( 43-C , 44-S ) :   1.0987
B( 43-C , 45-C ) :   1.4244 B( 45-C , 46-C ) :   1.2522 B( 45-C , 49-S ) :   1.0367
B( 46-C , 47-C ) :   1.5048 B( 46-C , 90-H ) :   0.9950 B( 47-C , 48-C ) :   1.2175
B( 47-C , 91-H ) :   1.0004 B( 48-C , 49-S ) :   1.1005 B( 48-C , 50-C ) :   1.4385
B( 50-C , 51-C ) :   1.2772 B( 50-C , 92-H ) :   0.9640 B( 51-C , 52-C ) :   1.4691
B( 51-C , 93-H ) :   0.9363 B( 52-C , 53-C ) :   1.1142 B( 52-C , 61-C ) :   0.9815
B( 53-C , 54-C ) :   1.5686 B( 53-C , 59-C ) :   0.9981 B( 54-C , 55-C ) :   1.1369
B( 54-C , 57-C ) :   1.1738 B( 55-C , 56-N ) :   2.9678 B( 57-C , 58-N ) :   3.0054
B( 59-C , 60-C ) :   1.2793 B( 59-C , 66-C ) :   1.4264 B( 60-C , 61-C ) :   0.9165
B( 60-C , 63-C ) :   1.4376 B( 61-C , 62-O ) :   2.2278 B( 63-C , 64-C ) :   1.2387
B( 63-C , 94-H ) :   1.0159 B( 64-C , 65-C ) :   1.3242 B( 64-C , 69-C ) :   1.1593
B( 65-C , 66-C ) :   1.3131 B( 65-C , 67-S ) :   1.0794 B( 66-C , 95-H ) :   0.9812
B( 67-S , 68-C ) :   1.0845 B( 68-C , 69-C ) :   1.6236 B( 68-C , 70-Br) :   1.0075
B( 69-C , 96-H ) :   0.9995

-----------------------------------------------------------------------------
         ABSORPTION SPECTRUM VIA TRANSITION ELECTRIC DIPOLE MOMENTS
-----------------------------------------------------------------------------
State   Energy  Wavelength   fosc         T2         TX        TY        TZ
        (cm-1)    (nm)                  (au**2)     (au)      (au)      (au)
-----------------------------------------------------------------------------
   0   11872.9    842.3   1.362006145  37.76571   4.81251  -2.41105  -2.96518
   1   14310.6    698.8   0.024917270   0.57322   0.40178  -0.63817   0.06734
   2   20626.5    484.8   0.790256090  12.61297   0.33757   3.42223  -0.88734
   3   21245.3    470.7   0.006735777   0.10438   0.22030  -0.09994  -0.21415
   4   21973.9    455.1   0.016332561   0.24469   0.35080  -0.16754   0.30588
   5   23663.9    422.6   0.030603107   0.42575   0.20229   0.44391  -0.43333
   6   24236.9    412.6   0.004659310   0.06329   0.02679  -0.18015   0.17354
   7   25041.1    399.3   0.161714979   2.12605  -0.41004   0.48310  -1.31321
   8   25398.8    393.7   0.075701430   0.98122   0.71525   0.39099  -0.56282
   9   26332.3    379.8   0.244195781   3.05299  -0.22567   1.49598  -0.87413
  10   26990.8    370.5   0.225808640   2.75423  -0.50838   0.78969  -1.36827
  11   27100.9    369.0   0.454709080   5.52364   0.47188  -1.53224   1.71849
  12   27862.1    358.9   0.031948537   0.37750  -0.19676   0.02954  -0.58130
  13   28396.7    352.2   0.012283903   0.14241  -0.17719  -0.12559   0.30861
  14   28701.0    348.4   0.078641449   0.90205   0.03389   0.40395  -0.85891
  15   28996.9    344.9   0.006903320   0.07838   0.04828  -0.19525   0.19474
  16   29647.7    337.3   0.002419695   0.02687  -0.11394   0.06771   0.09644
  17   30831.1    324.3   0.711797064   7.60052  -1.20076   1.72320  -1.78586
  18   31247.2    320.0   0.025318021   0.26674  -0.26543   0.22323  -0.38270
  19   31878.9    313.7   0.039650742   0.40947  -0.29095   0.17432  -0.54262
  20   32080.3    311.7   0.012898455   0.13237  -0.03274   0.30711  -0.19229
  21   32143.3    311.1   0.489395377   5.01239   0.96138  -1.22554   1.60817
  22   32198.1    310.6   0.342524632   3.50217   0.15574  -0.44870   1.81013
  23   32244.7    310.1   0.062248612   0.63555   0.39228  -0.46665   0.51371
  24   33060.5    302.5   0.145962749   1.45348  -0.69898   0.51448  -0.83679
  25   33196.8    301.2   0.042750339   0.42395   0.32418  -0.32561   0.46135
  26   33378.4    299.6   0.094142357   0.92853  -0.56667   0.45910  -0.62979
  27   33649.4    297.2   0.008466233   0.08283   0.11861  -0.10094   0.24202
  28   33820.0    295.7   0.027891805   0.27151   0.30472  -0.38163   0.18169
  29   34075.2    293.5   0.070616160   0.68225   0.21707  -0.74389   0.28592
  30   34163.5    292.7   0.202142490   1.94792  -1.06742   0.21380  -0.87340
  31   34370.3    290.9   0.080925670   0.77514   0.75408  -0.23789   0.38718
  32   35104.0    284.9   0.003459264   0.03244   0.15310  -0.05809  -0.07503
  33   35458.8    282.0   0.078318124   0.72713  -0.55160   0.03053   0.64957
  34   36484.0    274.1   0.063758637   0.57532  -0.11009   0.08451   0.74570
  35   36863.9    271.3   0.044652093   0.39876   0.24276   0.55320   0.18384
  36   36909.6    270.9   0.265647773   2.36942   0.54052   1.24040   0.73395
  37   37151.6    269.2   0.034270521   0.30368  -0.20724  -0.47112  -0.19693
  38   37308.2    268.0   0.024015403   0.21191  -0.25735   0.37008  -0.09342
  39   37751.6    264.9   0.011503043   0.10031  -0.18649   0.21194  -0.14358
  40   37996.3    263.2   0.023474659   0.20339   0.25567  -0.09077   0.36025
  41   38044.9    262.8   0.146367476   1.26655  -0.37558   0.45087  -0.96032
  42   38584.4    259.2   0.021836511   0.18631  -0.00046   0.03484  -0.43023
  43   38632.3    258.9   0.027406919   0.23355  -0.14835   0.01614  -0.45966
  44   38857.8    257.3   0.007350068   0.06227   0.19272   0.09291  -0.12845
  45   38895.7    257.1   0.037146757   0.31441   0.07807   0.19858   0.51854
  46   39004.7    256.4   0.004024164   0.03397  -0.00128   0.01681  -0.18352
  47   39347.1    254.1   0.000214389   0.00179   0.00562  -0.01407  -0.03955
  48   39694.9    251.9   0.044577854   0.36971   0.11661   0.54647   0.23975
  49   39738.4    251.6   0.000638958   0.00529   0.06214   0.02707  -0.02644
  50   39881.7    250.7   0.037488060   0.30945   0.07547  -0.54007   0.10992
  51   40277.7    248.3   0.242025062   1.97821  -0.65992   0.25099   1.21643

FINAL SINGLE POINT ENERGY     -9514.627712897040

DIPOLE MOMENT
-------------
                                X             Y             Z
Electronic contribution:    120.96952    -184.06791      80.31297
Nuclear contribution   :   -125.82116     187.78092     -74.37622
                        -----------------------------------------
Total Dipole Moment    :     -4.85164       3.71301       5.93675
                        -----------------------------------------
Magnitude (a.u.)       :      8.51880
Magnitude (Debye)      :     21.65306

Rotational constants in cm-1:     0.000550     0.000194     0.000151
Rotational constants in MHz :    16.483865     5.806100     4.540924

                             ****ORCA TERMINATED NORMALLY****
TOTAL RUN TIME: 0 days 0 hours 9 minutes 56 seconds 291 msec
