                         Program Version 4.2.0 -  RELEASE  -
|  1> # ORCA input file
|  2> # SCF done       -197.164630149767          0.000730437370
|  3> ! CAM-B3LYP def2-SVP def2/J RIJCOSX Grid4 TightSCF
|  4> %maxcore 5000
|  5> %tddft
|  6>     Mode sTDDFT
|  7>     Ethresh 5.0
|  8>     maxcore 5000
|  9> end
| 10>
| 11> %pal
| 12>   nprocs 6
| 13>   end
| 14> * xyz 0 1
| 15>    C      -11.65806        -9.29428        -9.75038
| 16>    C      -11.76495        -9.89504        -8.51630
| 17>    C      -12.16121       -11.23240        -8.31912
| 18>    N      -12.47519       -12.31233        -8.08310
| 19>    C      -11.50148        -9.28720        -7.27312
| 20>    N      -11.31309        -8.88081        -6.21419
| 21>    C      -11.93847        -9.94746       -11.02783
| 22>    C      -11.71087        -9.01839       -12.07204
| 23>    C      -11.89146        -9.33191       -13.39615
| 24>    C      -12.31903       -10.62757       -13.70790
| 25>    C      -12.54410       -11.54868       -12.65898
| 26>    C      -12.36045       -11.23047       -11.31815
| 27>    S      -13.07015       -13.09067       -13.26423
| 28>    C      -12.98029       -12.48419       -14.89652
| 29>    C      -12.57839       -11.19441       -14.98600
| 30>   Br      -13.42873       -13.61078       -16.32811
| 31>    C      -11.27479        -7.73089       -11.49112
| 32>    O      -10.99565        -6.72154       -12.10852
| 33>    C      -11.25880        -7.93938       -10.02968
| 34>    C      -10.92387        -6.97199        -9.10306
| 35>    C      -10.54666        -5.66782        -9.40501
| 36>    C      -10.24702        -4.73407        -8.42961
| 37>    C       -9.86759        -3.38822        -8.62816
| 38>    C       -9.65089        -2.69342        -7.47184
| 39>    C       -9.84912        -3.46195        -6.30752
| 40>    S      -10.31242        -5.09451        -6.71930
| 41>    C       -9.73436        -3.07073        -4.98094
| 42>    C       -9.40276        -1.80306        -4.45902
| 43>    C       -9.40436        -1.75685        -3.09520
| 44>    C       -9.73526        -2.98465        -2.47482
| 45>    S      -10.03559        -4.20648        -3.69096
| 46>    C       -9.83464        -3.21315        -1.11995
| 47>    C      -10.16909        -4.41649        -0.50155
| 48>    S      -10.48480        -5.92580        -1.33310
| 49>    C      -10.81054        -6.80083         0.16013
| 50>    C      -10.67617        -5.92874         1.24696
| 51>    C      -10.31664        -4.62424         0.87141
| 52>    C      -10.17952        -3.74635         2.02955
| 53>    O       -9.88485        -2.57541         2.04089
| 54>    C      -10.48497        -4.61826         3.23673
| 55>    C      -10.81828        -6.00615         2.70360
| 56>    O      -11.14100        -6.95337         3.38198
| 57>    C      -11.12812        -8.15749         0.03932
| 58>    C      -11.44738        -9.02991         1.05292
| 59>    C      -11.74091       -10.36507         0.77824
| 60>    C      -12.11021       -11.31974         1.70365
| 61>    C      -12.40799       -12.67356         1.42396
| 62>    C      -12.76965       -13.40295         2.51799
| 63>    C      -12.77623       -12.65567         3.71486
| 64>    S      -12.29843       -11.00314         3.41396
| 65>    C      -13.10743       -13.09458         4.98753
| 66>    C      -13.49648       -14.38181         5.41140
| 67>    C      -13.73834       -14.46414         6.75134
| 68>    C      -13.53838       -13.25398         7.45989
| 69>    S      -13.04499       -12.00280         6.34731
| 70>    C      -13.80325       -13.06161         8.80418
| 71>    C      -13.67790       -11.89367         9.55826
| 72>    C      -12.94874       -10.74523         9.32803
| 73>    C      -11.79018       -10.46893         8.53104
| 74>    C      -10.82079       -11.36870         8.14731
| 75>    C       -9.66742       -11.02342         7.41891
| 76>    N       -8.71742       -10.80404         6.81163
| 77>    C      -10.84675       -12.72925         8.50323
| 78>    N      -10.83547       -13.84446         8.77765
| 79>    C      -11.71910        -9.02384         8.34407
| 80>    C      -12.67139        -8.41052         9.19549
| 81>    C      -13.40938        -9.46507         9.92581
| 82>    O      -14.24720        -9.32260        10.78818
| 83>    C      -12.85238        -7.05037         9.23436
| 84>    C      -12.07156        -6.26453         8.37716
| 85>    C      -11.13563        -6.89271         7.52319
| 86>    C      -10.93891        -8.26822         7.49462
| 87>    S      -10.30222        -5.74396         6.52957
| 88>    C      -11.21135        -4.44683         7.25900
| 89>    C      -12.09182        -4.85284         8.20403
| 90>   Br      -10.92409        -2.68035         6.68596
| 91>    H      -11.70952        -8.60130       -14.16869
| 92>    H      -12.54694       -11.96934       -10.55706
| 93>    H      -12.46915       -10.66275       -15.91358
| 94>    H      -10.95954        -7.23606        -8.05301
| 95>    H      -10.49002        -5.36204       -10.43970
| 96>    H       -9.76929        -2.97462        -9.61597
| 97>    H       -9.35845        -1.65958        -7.43186
| 98>    H       -9.17865        -0.96463        -5.09333
| 99>    H       -9.18161        -0.87996        -2.51383
|100>    H       -9.64923        -2.38257        -0.45018
|101>    H      -11.31677        -4.20767         3.81253
|102>    H       -9.62631        -4.65913         3.91044
|103>    H      -11.12181        -8.54002        -0.97487
|104>    H      -11.47671        -8.68238         2.07688
|105>    H      -11.68351       -10.69433        -0.25254
|106>    H      -12.34627       -13.06609         0.42441
|107>    H      -13.03031       -14.44541         2.49458
|108>    H      -13.58572       -15.20678         4.72823
|109>    H      -14.04067       -15.36199         7.25976
|110>    H      -14.26387       -13.90559         9.30203
|111>    H      -14.31755       -11.83204        10.43442
|112>    H      -13.58041        -6.60319         9.89292
|113>    H      -10.22641        -8.70454         6.81471
|114>    H      -12.73401        -4.18836         8.75279
|115> *
|116>
|117>                          ****END OF INPUT****

CARTESIAN COORDINATES (ANGSTROEM)
---------------------------------
  C    -11.658060   -9.294280   -9.750380
  C    -11.764950   -9.895040   -8.516300
  C    -12.161210  -11.232400   -8.319120
  N    -12.475190  -12.312330   -8.083100
  C    -11.501480   -9.287200   -7.273120
  N    -11.313090   -8.880810   -6.214190
  C    -11.938470   -9.947460  -11.027830
  C    -11.710870   -9.018390  -12.072040
  C    -11.891460   -9.331910  -13.396150
  C    -12.319030  -10.627570  -13.707900
  C    -12.544100  -11.548680  -12.658980
  C    -12.360450  -11.230470  -11.318150
  S    -13.070150  -13.090670  -13.264230
  C    -12.980290  -12.484190  -14.896520
  C    -12.578390  -11.194410  -14.986000
  Br   -13.428730  -13.610780  -16.328110
  C    -11.274790   -7.730890  -11.491120
  O    -10.995650   -6.721540  -12.108520
  C    -11.258800   -7.939380  -10.029680
  C    -10.923870   -6.971990   -9.103060
  C    -10.546660   -5.667820   -9.405010
  C    -10.247020   -4.734070   -8.429610
  C     -9.867590   -3.388220   -8.628160
  C     -9.650890   -2.693420   -7.471840
  C     -9.849120   -3.461950   -6.307520
  S    -10.312420   -5.094510   -6.719300
  C     -9.734360   -3.070730   -4.980940
  C     -9.402760   -1.803060   -4.459020
  C     -9.404360   -1.756850   -3.095200
  C     -9.735260   -2.984650   -2.474820
  S    -10.035590   -4.206480   -3.690960
  C     -9.834640   -3.213150   -1.119950
  C    -10.169090   -4.416490   -0.501550
  S    -10.484800   -5.925800   -1.333100
  C    -10.810540   -6.800830    0.160130
  C    -10.676170   -5.928740    1.246960
  C    -10.316640   -4.624240    0.871410
  C    -10.179520   -3.746350    2.029550
  O     -9.884850   -2.575410    2.040890
  C    -10.484970   -4.618260    3.236730
  C    -10.818280   -6.006150    2.703600
  O    -11.141000   -6.953370    3.381980
  C    -11.128120   -8.157490    0.039320
  C    -11.447380   -9.029910    1.052920
  C    -11.740910  -10.365070    0.778240
  C    -12.110210  -11.319740    1.703650
  C    -12.407990  -12.673560    1.423960
  C    -12.769650  -13.402950    2.517990
  C    -12.776230  -12.655670    3.714860
  S    -12.298430  -11.003140    3.413960
  C    -13.107430  -13.094580    4.987530
  C    -13.496480  -14.381810    5.411400
  C    -13.738340  -14.464140    6.751340
  C    -13.538380  -13.253980    7.459890
  S    -13.044990  -12.002800    6.347310
  C    -13.803250  -13.061610    8.804180
  C    -13.677900  -11.893670    9.558260
  C    -12.948740  -10.745230    9.328030
  C    -11.790180  -10.468930    8.531040
  C    -10.820790  -11.368700    8.147310
  C     -9.667420  -11.023420    7.418910
  N     -8.717420  -10.804040    6.811630
  C    -10.846750  -12.729250    8.503230
  N    -10.835470  -13.844460    8.777650
  C    -11.719100   -9.023840    8.344070
  C    -12.671390   -8.410520    9.195490
  C    -13.409380   -9.465070    9.925810
  O    -14.247200   -9.322600   10.788180
  C    -12.852380   -7.050370    9.234360
  C    -12.071560   -6.264530    8.377160
  C    -11.135630   -6.892710    7.523190
  C    -10.938910   -8.268220    7.494620
  S    -10.302220   -5.743960    6.529570
  C    -11.211350   -4.446830    7.259000
  C    -12.091820   -4.852840    8.204030
  Br   -10.924090   -2.680350    6.685960
  H    -11.709520   -8.601300  -14.168690
  H    -12.546940  -11.969340  -10.557060
  H    -12.469150  -10.662750  -15.913580
  H    -10.959540   -7.236060   -8.053010
  H    -10.490020   -5.362040  -10.439700
  H     -9.769290   -2.974620   -9.615970
  H     -9.358450   -1.659580   -7.431860
  H     -9.178650   -0.964630   -5.093330
  H     -9.181610   -0.879960   -2.513830
  H     -9.649230   -2.382570   -0.450180
  H    -11.316770   -4.207670    3.812530
  H     -9.626310   -4.659130    3.910440
  H    -11.121810   -8.540020   -0.974870
  H    -11.476710   -8.682380    2.076880
  H    -11.683510  -10.694330   -0.252540
  H    -12.346270  -13.066090    0.424410
  H    -13.030310  -14.445410    2.494580
  H    -13.585720  -15.206780    4.728230
  H    -14.040670  -15.361990    7.259760
  H    -14.263870  -13.905590    9.302030
  H    -14.317550  -11.832040   10.434420
  H    -13.580410   -6.603190    9.892920
  H    -10.226410   -8.704540    6.814710
  H    -12.734010   -4.188360    8.752790

 Total Charge           Charge          ....    0
 Multiplicity           Mult            ....    1
 Number of Electrons    NEL             ....  620
 Basis Dimension        Dim             .... 1248

ORBITAL ENERGIES
----------------

  NO   OCC          E(Eh)            E(eV)
   0   2.0000    -482.881998    -13139.8872
   1   2.0000    -482.881138    -13139.8638
   2   2.0000     -88.983929     -2421.3758
   3   2.0000     -88.973388     -2421.0890
   4   2.0000     -88.970705     -2421.0160
   5   2.0000     -88.967282     -2420.9228
   6   2.0000     -88.966601     -2420.9043
   7   2.0000     -88.964150     -2420.8376
   8   2.0000     -88.963826     -2420.8288
   9   2.0000     -62.559708     -1702.3362
  10   2.0000     -62.558628     -1702.3068
  11   2.0000     -56.393654     -1534.5493
  12   2.0000     -56.392579     -1534.5201
  13   2.0000     -56.390948     -1534.4757
  14   2.0000     -56.390912     -1534.4747
  15   2.0000     -56.389921     -1534.4478
  16   2.0000     -56.389797     -1534.4444
  17   2.0000     -19.222667      -523.0754
  18   2.0000     -19.220364      -523.0127
  19   2.0000     -19.208420      -522.6877
  20   2.0000     -19.199877      -522.4552
  21   2.0000     -14.410186      -392.1211
  22   2.0000     -14.406726      -392.0269
  23   2.0000     -14.400043      -391.8451
  24   2.0000     -14.399023      -391.8173
  25   2.0000     -10.376033      -282.3462
  26   2.0000     -10.372558      -282.2516
  27   2.0000     -10.358641      -281.8730
  28   2.0000     -10.354119      -281.7499
  29   2.0000     -10.350545      -281.6527
  30   2.0000     -10.348978      -281.6100
  31   2.0000     -10.341809      -281.4149
  32   2.0000     -10.337532      -281.2986
  33   2.0000     -10.335576      -281.2453
  34   2.0000     -10.335127      -281.2331
  35   2.0000     -10.334537      -281.2171
  36   2.0000     -10.333087      -281.1776
  37   2.0000     -10.332907      -281.1727
  38   2.0000     -10.332499      -281.1616
  39   2.0000     -10.330991      -281.1205
  40   2.0000     -10.325969      -280.9839
  41   2.0000     -10.324957      -280.9564
  42   2.0000     -10.324796      -280.9520
  43   2.0000     -10.321835      -280.8714
  44   2.0000     -10.319662      -280.8123
  45   2.0000     -10.319599      -280.8106
  46   2.0000     -10.314144      -280.6621
  47   2.0000     -10.313492      -280.6444
  48   2.0000     -10.313043      -280.6322
  49   2.0000     -10.311595      -280.5928
  50   2.0000     -10.311165      -280.5811
  51   2.0000     -10.310985      -280.5762
  52   2.0000     -10.310207      -280.5550
  53   2.0000     -10.306496      -280.4540
  54   2.0000     -10.305211      -280.4191
  55   2.0000     -10.304252      -280.3930
  56   2.0000     -10.303789      -280.3804
  57   2.0000     -10.302659      -280.3496
  58   2.0000     -10.302462      -280.3443
  59   2.0000     -10.301563      -280.3198
  60   2.0000     -10.301052      -280.3059
  61   2.0000     -10.300848      -280.3003
  62   2.0000     -10.300708      -280.2965
  63   2.0000     -10.299534      -280.2646
  64   2.0000     -10.298718      -280.2424
  65   2.0000     -10.298695      -280.2417
  66   2.0000     -10.298427      -280.2345
  67   2.0000     -10.295246      -280.1479
  68   2.0000     -10.294959      -280.1401
  69   2.0000     -10.294568      -280.1294
  70   2.0000     -10.294238      -280.1205
  71   2.0000     -10.293167      -280.0913
  72   2.0000     -10.292304      -280.0678
  73   2.0000     -10.291721      -280.0520
  74   2.0000     -10.290270      -280.0125
  75   2.0000     -10.288595      -279.9669
  76   2.0000     -10.287869      -279.9471
  77   2.0000     -10.286578      -279.9120
  78   2.0000     -10.284912      -279.8667
  79   2.0000     -10.284907      -279.8665
  80   2.0000     -10.284325      -279.8507
  81   2.0000     -10.284308      -279.8502
  82   2.0000     -10.279401      -279.7167
  83   2.0000     -10.277822      -279.6738
  84   2.0000      -8.789128      -239.1643
  85   2.0000      -8.787962      -239.1326
  86   2.0000      -8.078890      -219.8378
  87   2.0000      -8.069636      -219.5860
  88   2.0000      -8.066686      -219.5057
  89   2.0000      -8.063350      -219.4149
  90   2.0000      -8.062078      -219.3803
  91   2.0000      -8.060298      -219.3319
  92   2.0000      -8.058896      -219.2937
  93   2.0000      -6.625419      -180.2868
  94   2.0000      -6.624094      -180.2508
  95   2.0000      -6.610855      -179.8905
  96   2.0000      -6.610685      -179.8859
  97   2.0000      -6.609772      -179.8610
  98   2.0000      -6.609597      -179.8563
  99   2.0000      -6.048134      -164.5781
 100   2.0000      -6.043900      -164.4629
 101   2.0000      -6.041131      -164.3875
 102   2.0000      -6.039307      -164.3379
 103   2.0000      -6.036376      -164.2581
 104   2.0000      -6.035112      -164.2238
 105   2.0000      -6.032955      -164.1650
 106   2.0000      -6.032116      -164.1422
 107   2.0000      -6.031790      -164.1333
 108   2.0000      -6.030731      -164.1045
 109   2.0000      -6.029967      -164.0837
 110   2.0000      -6.028882      -164.0542
 111   2.0000      -6.028393      -164.0409
 112   2.0000      -6.027915      -164.0279
 113   2.0000      -6.027475      -164.0159
 114   2.0000      -6.025850      -163.9717
 115   2.0000      -6.024530      -163.9358
 116   2.0000      -6.024205      -163.9270
 117   2.0000      -6.023401      -163.9051
 118   2.0000      -6.021368      -163.8498
 119   2.0000      -6.020531      -163.8270
 120   2.0000      -2.741260       -74.5935
 121   2.0000      -2.740005       -74.5593
 122   2.0000      -2.737229       -74.4838
 123   2.0000      -2.737067       -74.4794
 124   2.0000      -2.735960       -74.4493
 125   2.0000      -2.735852       -74.4463
 126   2.0000      -2.725511       -74.1649
 127   2.0000      -2.725493       -74.1644
 128   2.0000      -2.724449       -74.1360
 129   2.0000      -2.724446       -74.1359
 130   2.0000      -1.139146       -30.9977
 131   2.0000      -1.134037       -30.8587
 132   2.0000      -1.121876       -30.5278
 133   2.0000      -1.114295       -30.3215
 134   2.0000      -1.023239       -27.8437
 135   2.0000      -1.016417       -27.6581
 136   2.0000      -1.014034       -27.5933
 137   2.0000      -1.013411       -27.5763
 138   2.0000      -1.009858       -27.4796
 139   2.0000      -1.007218       -27.4078
 140   2.0000      -0.999814       -27.2063
 141   2.0000      -0.997106       -27.1326
 142   2.0000      -0.988672       -26.9031
 143   2.0000      -0.987425       -26.8692
 144   2.0000      -0.982268       -26.7289
 145   2.0000      -0.977850       -26.6087
 146   2.0000      -0.975014       -26.5315
 147   2.0000      -0.938171       -25.5289
 148   2.0000      -0.935810       -25.4647
 149   2.0000      -0.932410       -25.3722
 150   2.0000      -0.930715       -25.3261
 151   2.0000      -0.916944       -24.9513
 152   2.0000      -0.909062       -24.7368
 153   2.0000      -0.902031       -24.5455
 154   2.0000      -0.900293       -24.4982
 155   2.0000      -0.896141       -24.3852
 156   2.0000      -0.884942       -24.0805
 157   2.0000      -0.879739       -23.9389
 158   2.0000      -0.875411       -23.8211
 159   2.0000      -0.873534       -23.7701
 160   2.0000      -0.871092       -23.7036
 161   2.0000      -0.863988       -23.5103
 162   2.0000      -0.861755       -23.4496
 163   2.0000      -0.849617       -23.1193
 164   2.0000      -0.846152       -23.0250
 165   2.0000      -0.837796       -22.7976
 166   2.0000      -0.834404       -22.7053
 167   2.0000      -0.827078       -22.5059
 168   2.0000      -0.823645       -22.4125
 169   2.0000      -0.820693       -22.3322
 170   2.0000      -0.816784       -22.2258
 171   2.0000      -0.801803       -21.8182
 172   2.0000      -0.788912       -21.4674
 173   2.0000      -0.772421       -21.0186
 174   2.0000      -0.763292       -20.7702
 175   2.0000      -0.752419       -20.4744
 176   2.0000      -0.747099       -20.3296
 177   2.0000      -0.738717       -20.1015
 178   2.0000      -0.736723       -20.0472
 179   2.0000      -0.716684       -19.5020
 180   2.0000      -0.710433       -19.3319
 181   2.0000      -0.705056       -19.1856
 182   2.0000      -0.696046       -18.9404
 183   2.0000      -0.690541       -18.7906
 184   2.0000      -0.689644       -18.7662
 185   2.0000      -0.685054       -18.6413
 186   2.0000      -0.680500       -18.5173
 187   2.0000      -0.673608       -18.3298
 188   2.0000      -0.666091       -18.1253
 189   2.0000      -0.663127       -18.0446
 190   2.0000      -0.658044       -17.9063
 191   2.0000      -0.652469       -17.7546
 192   2.0000      -0.647773       -17.6268
 193   2.0000      -0.642672       -17.4880
 194   2.0000      -0.641464       -17.4551
 195   2.0000      -0.639160       -17.3924
 196   2.0000      -0.630528       -17.1575
 197   2.0000      -0.627136       -17.0652
 198   2.0000      -0.624073       -16.9819
 199   2.0000      -0.618645       -16.8342
 200   2.0000      -0.617361       -16.7993
 201   2.0000      -0.615193       -16.7402
 202   2.0000      -0.609234       -16.5781
 203   2.0000      -0.596914       -16.2429
 204   2.0000      -0.594137       -16.1673
 205   2.0000      -0.588442       -16.0123
 206   2.0000      -0.585505       -15.9324
 207   2.0000      -0.581566       -15.8252
 208   2.0000      -0.573752       -15.6126
 209   2.0000      -0.569489       -15.4966
 210   2.0000      -0.568220       -15.4621
 211   2.0000      -0.564809       -15.3692
 212   2.0000      -0.559245       -15.2178
 213   2.0000      -0.558432       -15.1957
 214   2.0000      -0.552815       -15.0429
 215   2.0000      -0.541280       -14.7290
 216   2.0000      -0.539325       -14.6758
 217   2.0000      -0.538101       -14.6425
 218   2.0000      -0.533779       -14.5249
 219   2.0000      -0.532968       -14.5028
 220   2.0000      -0.529968       -14.4211
 221   2.0000      -0.529030       -14.3956
 222   2.0000      -0.527291       -14.3483
 223   2.0000      -0.523176       -14.2363
 224   2.0000      -0.522889       -14.2285
 225   2.0000      -0.520391       -14.1606
 226   2.0000      -0.519298       -14.1308
 227   2.0000      -0.516659       -14.0590
 228   2.0000      -0.515146       -14.0178
 229   2.0000      -0.514700       -14.0057
 230   2.0000      -0.512170       -13.9369
 231   2.0000      -0.510150       -13.8819
 232   2.0000      -0.506455       -13.7813
 233   2.0000      -0.505315       -13.7503
 234   2.0000      -0.504978       -13.7412
 235   2.0000      -0.503223       -13.6934
 236   2.0000      -0.502689       -13.6789
 237   2.0000      -0.498361       -13.5611
 238   2.0000      -0.497271       -13.5314
 239   2.0000      -0.492567       -13.4034
 240   2.0000      -0.490546       -13.3484
 241   2.0000      -0.490234       -13.3400
 242   2.0000      -0.487710       -13.2713
 243   2.0000      -0.487095       -13.2545
 244   2.0000      -0.485916       -13.2224
 245   2.0000      -0.485164       -13.2020
 246   2.0000      -0.483778       -13.1643
 247   2.0000      -0.481524       -13.1029
 248   2.0000      -0.480438       -13.0734
 249   2.0000      -0.474199       -12.9036
 250   2.0000      -0.472565       -12.8592
 251   2.0000      -0.468829       -12.7575
 252   2.0000      -0.466238       -12.6870
 253   2.0000      -0.463275       -12.6064
 254   2.0000      -0.459645       -12.5076
 255   2.0000      -0.454748       -12.3743
 256   2.0000      -0.453236       -12.3332
 257   2.0000      -0.451580       -12.2881
 258   2.0000      -0.446630       -12.1534
 259   2.0000      -0.445094       -12.1116
 260   2.0000      -0.443977       -12.0812
 261   2.0000      -0.442742       -12.0476
 262   2.0000      -0.441450       -12.0125
 263   2.0000      -0.438771       -11.9396
 264   2.0000      -0.437665       -11.9095
 265   2.0000      -0.436895       -11.8885
 266   2.0000      -0.435120       -11.8402
 267   2.0000      -0.434613       -11.8264
 268   2.0000      -0.433940       -11.8081
 269   2.0000      -0.433127       -11.7860
 270   2.0000      -0.429774       -11.6947
 271   2.0000      -0.428746       -11.6668
 272   2.0000      -0.425042       -11.5660
 273   2.0000      -0.420773       -11.4498
 274   2.0000      -0.418207       -11.3800
 275   2.0000      -0.417576       -11.3628
 276   2.0000      -0.415084       -11.2950
 277   2.0000      -0.413082       -11.2405
 278   2.0000      -0.411230       -11.1901
 279   2.0000      -0.405836       -11.0434
 280   2.0000      -0.402018       -10.9395
 281   2.0000      -0.401160       -10.9161
 282   2.0000      -0.393421       -10.7055
 283   2.0000      -0.390967       -10.6387
 284   2.0000      -0.382666       -10.4129
 285   2.0000      -0.379686       -10.3318
 286   2.0000      -0.374704       -10.1962
 287   2.0000      -0.371534       -10.1100
 288   2.0000      -0.370831       -10.0908
 289   2.0000      -0.366384        -9.9698
 290   2.0000      -0.362624        -9.8675
 291   2.0000      -0.355491        -9.6734
 292   2.0000      -0.352399        -9.5893
 293   2.0000      -0.351257        -9.5582
 294   2.0000      -0.349643        -9.5143
 295   2.0000      -0.344347        -9.3702
 296   2.0000      -0.342126        -9.3097
 297   2.0000      -0.333871        -9.0851
 298   2.0000      -0.328832        -8.9480
 299   2.0000      -0.328559        -8.9405
 300   2.0000      -0.327877        -8.9220
 301   2.0000      -0.317456        -8.6384
 302   2.0000      -0.309937        -8.4338
 303   2.0000      -0.303717        -8.2646
 304   2.0000      -0.300921        -8.1885
 305   2.0000      -0.288866        -7.8604
 306   2.0000      -0.281666        -7.6645
 307   2.0000      -0.279593        -7.6081
 308   2.0000      -0.243841        -6.6352
 309   2.0000      -0.221001        -6.0138
 310   0.0000      -0.129385        -3.5207
 311   0.0000      -0.105392        -2.8679
 312   0.0000      -0.070702        -1.9239
 313   0.0000      -0.060401        -1.6436
 314   0.0000      -0.051182        -1.3927

MULLIKEN ATOMIC CHARGES
-----------------------
   0 C :    0.329633
   1 C :   -0.364120
   2 C :   -0.191048
   3 N :    0.141393
   4 C :   -0.189219
   5 N :    0.127306
   6 C :    0.012439
   7 C :   -0.011012
   8 C :   -0.074050
   9 C :    0.116790
  10 C :   -0.093167
  11 C :   -0.023325
  12 S :    0.182122
  13 C :   -0.121756
  14 C :    0.036428
  15 Br:    0.017972
  16 C :    0.138191
  17 O :   -0.162406
  18 C :   -0.081692
  19 C :   -0.046595
  20 C :   -0.019121
  21 C :    0.005172
  22 C :    0.027803
  23 C :    0.045051
  24 C :   -0.048229
  25 S :    0.108279
  26 C :   -0.019098
  27 C :    0.030900
  28 C :    0.046041
  29 C :   -0.030225
  30 S :    0.092150
  31 C :   -0.008901
  32 C :   -0.110442
  33 S :    0.143967
  34 C :   -0.101180
  35 C :    0.043518
  36 C :    0.012795
  37 C :    0.027910
  38 O :   -0.152480
  39 C :    0.044939
  40 C :    0.031563
  41 O :   -0.153855
  42 C :    0.022250
  43 C :    0.006989
  44 C :   -0.007015
  45 C :   -0.022086
  46 C :    0.049688
  47 C :    0.026280
  48 C :   -0.024811
  49 S :    0.127957
  50 C :   -0.054634
  51 C :    0.039946
  52 C :    0.053239
  53 C :   -0.031795
  54 S :    0.114973
  55 C :    0.001913
  56 C :    0.030557
  57 C :   -0.144279
  58 C :    0.257213
  59 C :   -0.342088
  60 C :   -0.181086
  61 N :    0.145941
  62 C :   -0.200347
  63 N :    0.157086
  64 C :    0.006842
  65 C :    0.009173
  66 C :    0.134562
  67 O :   -0.149884
  68 C :   -0.079138
  69 C :    0.110159
  70 C :   -0.083317
  71 C :   -0.021648
  72 S :    0.171872
  73 C :   -0.132143
  74 C :    0.044289
  75 Br:    0.013576
  76 H :   -0.013601
  77 H :   -0.009352
  78 H :   -0.005134
  79 H :    0.016787
  80 H :    0.019662
  81 H :    0.002874
  82 H :   -0.002360
  83 H :   -0.004314
  84 H :    0.005481
  85 H :    0.020543
  86 H :    0.067860
  87 H :    0.072522
  88 H :   -0.003097
  89 H :    0.030647
  90 H :    0.000343
  91 H :    0.002544
  92 H :   -0.001353
  93 H :   -0.008033
  94 H :   -0.003236
  95 H :    0.000256
  96 H :    0.025039
  97 H :   -0.013471
  98 H :   -0.004636
  99 H :   -0.006643
Sum of atomic charges:   -0.0000000

LOEWDIN ATOMIC CHARGES
----------------------
   0 C :    0.073295
   1 C :   -0.154845
   2 C :   -0.019064
   3 N :   -0.067163
   4 C :   -0.019791
   5 N :   -0.070010
   6 C :   -0.018769
   7 C :   -0.049298
   8 C :    0.018676
   9 C :   -0.034888
  10 C :   -0.145205
  11 C :   -0.012908
  12 S :    0.429101
  13 C :   -0.273528
  14 C :   -0.070712
  15 Br:    0.132554
  16 C :    0.082469
  17 O :   -0.155604
  18 C :   -0.102064
  19 C :    0.046995
  20 C :   -0.064656
  21 C :   -0.106195
  22 C :   -0.034993
  23 C :   -0.009274
  24 C :   -0.183599
  25 S :    0.414585
  26 C :   -0.153687
  27 C :   -0.035103
  28 C :   -0.010523
  29 C :   -0.151240
  30 S :    0.398448
  31 C :   -0.043035
  32 C :   -0.150762
  33 S :    0.461005
  34 C :   -0.127386
  35 C :   -0.091062
  36 C :   -0.081133
  37 C :    0.077065
  38 O :   -0.139633
  39 C :   -0.073793
  40 C :    0.083716
  41 O :   -0.136701
  42 C :   -0.040362
  43 C :    0.000659
  44 C :   -0.032170
  45 C :   -0.142676
  46 C :   -0.012035
  47 C :   -0.029066
  48 C :   -0.147920
  49 S :    0.412645
  50 C :   -0.187011
  51 C :   -0.022749
  52 C :   -0.024451
  53 C :   -0.116228
  54 S :    0.457086
  55 C :   -0.061652
  56 C :    0.036434
  57 C :   -0.107537
  58 C :    0.035544
  59 C :   -0.160895
  60 C :   -0.020832
  61 N :   -0.064782
  62 C :   -0.021948
  63 N :   -0.058042
  64 C :   -0.012640
  65 C :   -0.052786
  66 C :    0.083262
  67 O :   -0.149099
  68 C :    0.019344
  69 C :   -0.039456
  70 C :   -0.142548
  71 C :   -0.015477
  72 S :    0.442762
  73 C :   -0.280180
  74 C :   -0.068968
  75 Br:    0.130861
  76 H :    0.039566
  77 H :    0.040175
  78 H :    0.038091
  79 H :    0.031183
  80 H :    0.039808
  81 H :    0.040131
  82 H :    0.036603
  83 H :    0.036023
  84 H :    0.041330
  85 H :    0.051134
  86 H :    0.056976
  87 H :    0.054332
  88 H :    0.033943
  89 H :    0.029078
  90 H :    0.038613
  91 H :    0.039814
  92 H :    0.036837
  93 H :    0.034669
  94 H :    0.038477
  95 H :    0.041066
  96 H :    0.046200
  97 H :    0.039304
  98 H :    0.040787
  99 H :    0.037484

  Mayer bond orders larger than 0.100000
B(  0-C ,  1-C ) :   1.5818 B(  0-C ,  6-C ) :   0.9911 B(  0-C , 18-C ) :   1.1111
B(  1-C ,  2-C ) :   1.1497 B(  1-C ,  4-C ) :   1.1562 B(  2-C ,  3-N ) :   2.9630
B(  4-C ,  5-N ) :   2.9545 B(  6-C ,  7-C ) :   1.2781 B(  6-C , 11-C ) :   1.4171
B(  7-C ,  8-C ) :   1.4294 B(  7-C , 16-C ) :   0.9365 B(  8-C ,  9-C ) :   1.2392
B(  8-C , 76-H ) :   1.0164 B(  9-C , 10-C ) :   1.3154 B(  9-C , 14-C ) :   1.1614
B( 10-C , 11-C ) :   1.3214 B( 10-C , 12-S ) :   1.0851 B( 11-C , 77-H ) :   0.9794
B( 12-S , 13-C ) :   1.0860 B( 13-C , 14-C ) :   1.6181 B( 13-C , 15-Br) :   1.0146
B( 14-C , 78-H ) :   1.0008 B( 16-C , 17-O ) :   2.1895 B( 16-C , 18-C ) :   0.9609
B( 18-C , 19-C ) :   1.4884 B( 19-C , 20-C ) :   1.2514 B( 19-C , 79-H ) :   0.9423
B( 20-C , 21-C ) :   1.4185 B( 20-C , 80-H ) :   0.9796 B( 21-C , 22-C ) :   1.1788
B( 21-C , 25-S ) :   1.0823 B( 22-C , 23-C ) :   1.5381 B( 22-C , 81-H ) :   1.0029
B( 23-C , 24-C ) :   1.2198 B( 23-C , 82-H ) :   0.9947 B( 24-C , 25-S ) :   1.0551
B( 24-C , 26-C ) :   1.4552 B( 26-C , 27-C ) :   1.2046 B( 26-C , 30-S ) :   1.0747
B( 27-C , 28-C ) :   1.5634 B( 27-C , 83-H ) :   0.9938 B( 28-C , 29-C ) :   1.1643
B( 28-C , 84-H ) :   1.0013 B( 29-C , 30-S ) :   1.0416 B( 29-C , 31-C ) :   1.4952
B( 31-C , 32-C ) :   1.2533 B( 31-C , 85-H ) :   0.9630 B( 32-C , 33-S ) :   1.0911
B( 32-C , 36-C ) :   1.4028 B( 33-S , 34-C ) :   1.1339 B( 34-C , 35-C ) :   1.3624
B( 34-C , 42-C ) :   1.2071 B( 35-C , 36-C ) :   1.2675 B( 35-C , 40-C ) :   0.9504
B( 36-C , 37-C ) :   0.9590 B( 37-C , 38-O ) :   2.2029 B( 37-C , 39-C ) :   0.9988
B( 39-C , 40-C ) :   1.0002 B( 39-C , 86-H ) :   0.8938 B( 39-C , 87-H ) :   0.8925
B( 40-C , 41-O ) :   2.1521 B( 42-C , 43-C ) :   1.5713 B( 42-C , 88-H ) :   0.9569
B( 43-C , 44-C ) :   1.1989 B( 43-C , 89-H ) :   0.9503 B( 44-C , 45-C ) :   1.5027
B( 44-C , 90-H ) :   0.9838 B( 45-C , 46-C ) :   1.1598 B( 45-C , 49-S ) :   1.0490
B( 46-C , 47-C ) :   1.5653 B( 46-C , 91-H ) :   1.0007 B( 47-C , 48-C ) :   1.2033
B( 47-C , 92-H ) :   0.9957 B( 48-C , 49-S ) :   1.0786 B( 48-C , 50-C ) :   1.4585
B( 50-C , 51-C ) :   1.2073 B( 50-C , 54-S ) :   1.0514 B( 51-C , 52-C ) :   1.5626
B( 51-C , 93-H ) :   0.9926 B( 52-C , 53-C ) :   1.1755 B( 52-C , 94-H ) :   0.9980
B( 53-C , 54-S ) :   1.1057 B( 53-C , 55-C ) :   1.4559 B( 55-C , 56-C ) :   1.3089
B( 55-C , 95-H ) :   0.9555 B( 56-C , 57-C ) :   1.4931 B( 56-C , 96-H ) :   0.9333
B( 57-C , 58-C ) :   1.1218 B( 57-C , 66-C ) :   0.9558 B( 58-C , 59-C ) :   1.5719
B( 58-C , 64-C ) :   0.9989 B( 59-C , 60-C ) :   1.1429 B( 59-C , 62-C ) :   1.1703
B( 60-C , 61-N ) :   2.9838 B( 62-C , 63-N ) :   3.0005 B( 64-C , 65-C ) :   1.2767
B( 64-C , 71-C ) :   1.4319 B( 65-C , 66-C ) :   0.9135 B( 65-C , 68-C ) :   1.4349
B( 66-C , 67-O ) :   2.2613 B( 68-C , 69-C ) :   1.2414 B( 68-C , 97-H ) :   1.0157
B( 69-C , 70-C ) :   1.3204 B( 69-C , 74-C ) :   1.1628 B( 70-C , 71-C ) :   1.3128
B( 70-C , 72-S ) :   1.0914 B( 71-C , 98-H ) :   0.9835 B( 72-S , 73-C ) :   1.0936
B( 73-C , 74-C ) :   1.6175 B( 73-C , 75-Br) :   1.0140 B( 74-C , 99-H ) :   0.9997

-----------------------------------------------------------------------------
         ABSORPTION SPECTRUM VIA TRANSITION ELECTRIC DIPOLE MOMENTS
-----------------------------------------------------------------------------
State   Energy  Wavelength   fosc         T2         TX        TY        TZ
        (cm-1)    (nm)                  (au**2)     (au)      (au)      (au)
-----------------------------------------------------------------------------
   0    7825.1   1277.9   1.297323708  54.57977  -0.41849  -1.15135   7.28554
   1   12545.7    797.1   0.229651409   6.02630  -0.69515  -2.35137  -0.11888
   2   13518.7    739.7   0.046759630   1.13871   0.25093   0.70235   0.76318
   3   18713.3    534.4   0.672420446  11.82950  -1.13356  -3.11781  -0.90763
   4   19393.2    515.6   0.083059594   1.40999  -0.24669  -0.95497  -0.66119
   5   20125.4    496.9   0.025409247   0.41565   0.09248  -0.62949   0.10412
   6   21286.7    469.8   0.136929839   2.11771   0.87117   1.08964   0.41409
   7   21633.0    462.3   0.694175083  10.56398   1.18046   2.89203  -0.89814
   8   22862.8    437.4   0.078326981   1.12787  -0.07085   1.05889  -0.03987
   9   23518.7    425.2   0.293878851   4.11368  -0.25328  -1.42889  -1.41697
  10   23967.1    417.2   0.363024301   4.98650  -0.66146  -1.65819  -1.34141
  11   24766.1    403.8   0.034018248   0.45220  -0.01216   0.62327   0.25216
  12   25671.4    389.5   0.001425535   0.01828  -0.04644   0.12303  -0.03141
  13   26175.4    382.0   0.000127080   0.00160  -0.00762  -0.02056  -0.03343
  14   26328.0    379.8   0.043606309   0.54526   0.11143   0.38184   0.62213
  15   26513.5    377.2   0.022534342   0.27980  -0.13146   0.28227  -0.42760
  16   26920.4    371.5   0.033068740   0.40440   0.32023   0.49884   0.23023
  17   26944.8    371.1   0.003709832   0.04533  -0.07450  -0.19830  -0.02128
  18   27154.9    368.3   0.029256769   0.35469  -0.14379  -0.03745  -0.57673
  19   27487.3    363.8   0.013452891   0.16112  -0.06393  -0.36208   0.16104
  20   28103.4    355.8   0.109394836   1.28149   0.51480   0.66300  -0.75954
  21   28606.6    349.6   0.018347953   0.21115   0.03864   0.36442   0.27723
  22   28682.0    348.7   0.018079970   0.20752  -0.04202  -0.23966   0.38513
  23   28776.5    347.5   0.028202334   0.32264   0.06762   0.03477  -0.56290
  24   29149.2    343.1   0.056225510   0.63501   0.03812  -0.50355  -0.61644
  25   29823.4    335.3   0.039084241   0.43144   0.36805   0.39196  -0.37729
  26   30422.3    328.7   0.168168982   1.81983   0.10903   0.01089  -1.34455
  27   30595.5    326.8   0.070530057   0.75891  -0.28486  -0.64963   0.50571
  28   30685.0    325.9   0.019827773   0.21273  -0.15822  -0.43129   0.04096
  29   31032.4    322.2   0.088835362   0.94242  -0.13008  -0.60011  -0.75191
  30   31314.6    319.3   0.004924015   0.05177   0.17184  -0.00007  -0.14912
  31   31434.5    318.1   0.066042867   0.69166  -0.16877   0.06451  -0.81180
  32   31790.1    314.6   0.061780299   0.63979   0.17023  -0.78149   0.00937
  33   31837.3    314.1   0.181956457   1.88151  -0.51786   1.20741  -0.39434
  34   32171.8    310.8   0.570818358   5.84114   0.33626   1.98288   1.34024
  35   32320.4    309.4   0.000209042   0.00213  -0.02164   0.03869   0.01280
  36   32405.5    308.6   0.049506122   0.50294  -0.04855   0.40381  -0.58096
  37   32701.3    305.8   0.203126745   2.04493  -0.01251  -1.15498   0.84308
  38   33129.9    301.8   0.064569620   0.64163  -0.50181  -0.10592   0.61530
  39   33343.4    299.9   0.130169104   1.28521  -0.53672  -0.82162   0.56752
  40   33542.3    298.1   0.012817620   0.12580  -0.17625  -0.28551   0.11501
  41   33858.2    295.3   0.030189219   0.29354  -0.25604   0.26616   0.39641
  42   34143.9    292.9   0.008244589   0.07949  -0.24375  -0.07452   0.12053
  43   34348.6    291.1   0.056770575   0.54411  -0.06291   0.20475  -0.70586
  44   34630.7    288.8   0.008151752   0.07749  -0.01346   0.23084   0.15500
  45   35096.2    284.9   0.085888257   0.80566  -0.07109  -0.32275   0.83453
  46   35185.9    284.2   0.210265123   1.96732   0.36554  -0.54110  -1.24133
  47   35334.0    283.0   0.076621492   0.71389   0.13207  -0.50869   0.66158
  48   35456.7    282.0   0.068536841   0.63636  -0.36230   0.67998   0.20670
  49   35895.3    278.6   0.037778209   0.34648   0.06700  -0.03895   0.58350
  50   36033.6    277.5   0.024397729   0.22290   0.25727  -0.19364   0.34528
  51   36340.5    275.2   0.059761949   0.54139   0.52498  -0.30561  -0.41519
  52   36472.7    274.2   0.087932465   0.79370  -0.20848  -0.30356   0.81122
  53   36866.9    271.2   0.035507364   0.31707  -0.10940  -0.07865   0.54673
  54   36969.8    270.5   0.181515802   1.61638   0.16940  -1.25934  -0.04185
  55   37110.5    269.5   0.095450256   0.84675   0.03815   0.76412  -0.51129
  56   37381.0    267.5   0.040830858   0.35959   0.13073  -0.03997  -0.58387
  57   37536.0    266.4   0.017740018   0.15559  -0.15763  -0.35368   0.07521
  58   37964.3    263.4   0.009224017   0.07999   0.11530   0.09656  -0.23952
  59   37973.4    263.3   0.033614207   0.29142  -0.22312  -0.20487   0.44684
  60   38070.3    262.7   0.064097417   0.55428   0.25821   0.35051  -0.60394
  61   38172.5    262.0   0.034227475   0.29519  -0.28230   0.18668   0.42502
  62   38374.2    260.6   0.081114809   0.69588  -0.23997  -0.38443   0.70037
  63   38501.4    259.7   0.132596146   1.13378   0.11042  -1.02191  -0.27801
  64   38623.3    258.9   0.019022423   0.16214   0.21071  -0.02337  -0.34234
  65   38764.1    258.0   0.013469268   0.11439   0.32660   0.07822  -0.04005
  66   38937.2    256.8   0.039649820   0.33524  -0.10075  -0.22303   0.52473
  67   39470.5    253.4   0.011242234   0.09377   0.05973   0.08427  -0.28827
  68   39581.0    252.6   0.002593218   0.02157  -0.00032   0.12004  -0.08461
  69   39812.9    251.2   0.061633126   0.50964   0.03368   0.07289  -0.70936
  70   40081.0    249.5   0.060928928   0.50045   0.41524   0.23159  -0.52382

FINAL SINGLE POINT ENERGY    -10713.382925795571

DIPOLE MOMENT
-------------
                                X             Y             Z
Electronic contribution:    -10.96922      -0.94456     -83.22609
Nuclear contribution   :     10.26699       3.34254      79.89889
                        -----------------------------------------
Total Dipole Moment    :     -0.70223       2.39798      -3.32720
                        -----------------------------------------
Magnitude (a.u.)       :      4.16097
Magnitude (Debye)      :     10.57634

Rotational constants in cm-1:     0.000859     0.000189     0.000157
Rotational constants in MHz :    25.756898     5.679084     4.720054

                             ****ORCA TERMINATED NORMALLY****
TOTAL RUN TIME: 0 days 0 hours 11 minutes 9 seconds 879 msec
