                         Program Version 4.2.0 -  RELEASE  -
|  1> # ORCA input file
|  2> # SCF done       -183.172780825455          0.001748924976
|  3> ! CAM-B3LYP def2-SVP def2/J RIJCOSX Grid4 TightSCF
|  4> %maxcore 5000
|  5> %tddft
|  6>     Mode sTDDFT
|  7>     Ethresh 5.0
|  8>     maxcore 5000
|  9> end
| 10>
| 11> %pal
| 12>   nprocs 6
| 13>   end
| 14> * xyz 0 1
| 15>    C       -4.99234        -7.26968        -2.36628
| 16>    C       -4.16587        -8.03414        -3.15180
| 17>    C       -4.62008        -8.96182        -4.11189
| 18>    N       -4.91430        -9.73987        -4.90356
| 19>    C       -2.75686        -8.02730        -3.12853
| 20>    N       -1.61111        -8.10927        -3.17471
| 21>    C       -6.45138        -7.30392        -2.41292
| 22>    C       -6.95551        -6.35734        -1.48959
| 23>    C       -8.29868        -6.13996        -1.30839
| 24>    C       -9.19157        -6.90359        -2.06869
| 25>    C       -8.67907        -7.85126        -2.98460
| 26>    C       -7.31914        -8.06510        -3.17314
| 27>    S       -9.95374        -8.68485        -3.82287
| 28>    C      -11.14002        -7.76201        -2.94151
| 29>    C      -10.61313        -6.87445        -2.06511
| 30>   Br      -12.96571        -8.05429        -3.26128
| 31>    C       -5.82690        -5.68575        -0.81259
| 32>    O       -5.90995        -4.74748        -0.04373
| 33>    C       -4.60475        -6.32223        -1.34188
| 34>    C       -3.31162        -5.96770        -1.03774
| 35>    C       -2.83418        -5.20278         0.03714
| 36>    S       -1.27709        -4.43370        -0.16192
| 37>    C       -1.40507        -3.71463         1.37769
| 38>    C       -2.54182        -4.04957         2.05530
| 39>    C       -2.81888        -3.52754         3.42459
| 40>    C       -3.37091        -4.93766         1.31014
| 41>    C       -4.49085        -5.68043         1.79237
| 42>    C       -5.29795        -5.42241         2.84811
| 43>    C       -6.26032        -6.37105         3.29098
| 44>    C       -6.95711        -6.26474         4.44521
| 45>    C       -7.75850        -7.33436         4.94908
| 46>    C       -8.26993        -7.42600         6.19125
| 47>    C       -8.09808        -6.37861         7.24302
| 48>    C       -8.82591        -8.75155         6.65227
| 49>    N       -7.69843        -9.51670         7.16085
| 50>    C       -7.28843        -9.46501         8.43800
| 51>    C       -5.97417        -9.57883         8.78928
| 52>    C       -5.46851        -9.49280        10.09070
| 53>    C       -4.14517        -9.20599        10.33684
| 54>    C       -3.51506        -8.89594        11.56081
| 55>    C       -2.26533        -8.35867        11.42747
| 56>    C       -1.84967        -8.22195        10.08633
| 57>    S       -3.02776        -8.90785         9.00788
| 58>    C       -0.79126        -7.49256         9.56273
| 59>    C        0.08542        -6.60188        10.20409
| 60>    C        0.75377        -5.78216         9.33674
| 61>    C        0.42723        -5.97926         7.97710
| 62>    S       -0.63981        -7.34012         7.82363
| 63>    C        0.91362        -5.21203         6.92310
| 64>    C        0.61442        -5.22860         5.57335
| 65>    C       -0.35415        -5.85961         4.79323
| 66>    C       -0.02192        -6.05317         3.36479
| 67>    O        0.90852        -5.56465         2.75581
| 68>    C       -1.05678        -6.96389         2.83159
| 69>    C       -1.14973        -7.54146         1.60176
| 70>    C       -2.25312        -8.38127         1.31987
| 71>    C       -3.23547        -8.59897         2.32652
| 72>    C       -4.34893        -9.40499         2.02320
| 73>    C       -4.46660        -9.95150         0.77519
| 74>    C       -3.49843        -9.76962        -0.21812
| 75>    C       -2.40454        -8.99589         0.06227
| 76>    F       -5.55512       -10.69631         0.48189
| 77>    C       -3.10262        -7.99174         3.59946
| 78>    C       -2.02922        -7.18475         3.84598
| 79>    C       -1.64565        -6.40604         5.02641
| 80>    C       -2.50803        -6.10376         6.07149
| 81>    C       -2.24840        -5.06412         6.98176
| 82>    N       -2.08148        -4.19052         7.70971
| 83>    C       -3.76747        -6.68988         6.25640
| 84>    N       -4.80280        -7.14497         6.47895
| 85>    H       -8.64964        -5.40623        -0.59972
| 86>    H       -6.98177        -8.79688        -3.88745
| 87>    H      -11.20060        -6.22378        -1.44336
| 88>    H       -2.54222        -6.27580        -1.73553
| 89>    H       -0.61437        -3.07767         1.72459
| 90>    H       -1.92219        -3.07466         3.84188
| 91>    H       -3.14613        -4.32807         4.08402
| 92>    H       -3.60149        -2.77000         3.38954
| 93>    H       -4.67142        -6.60328         1.25194
| 94>    H       -5.23766        -4.49316         3.39066
| 95>    H       -6.37054        -7.26507         2.68898
| 96>    H       -6.83300        -5.38574         5.05941
| 97>    H       -7.89864        -8.17006         4.27226
| 98>    H       -8.22690        -5.38253         6.82813
| 99>    H       -7.09137        -6.43931         7.66131
|100>    H       -8.81560        -6.51284         8.04981
|101>    H       -9.27323        -9.30583         5.82272
|102>    H       -9.56366        -8.63708         7.44782
|103>    H       -6.94699        -9.59781         6.48424
|104>    H       -8.05984        -9.32116         9.18305
|105>    H       -5.24771        -9.61790         7.98707
|106>    H       -6.14428        -9.55409        10.93314
|107>    H       -4.01557        -9.03673        12.50295
|108>    H       -1.65555        -8.02689        12.24837
|109>    H        0.16436        -6.54686        11.27488
|110>    H        1.42854        -5.00224         9.64105
|111>    H        1.69323        -4.51867         7.21681
|112>    H        1.33328        -4.69842         4.95213
|113>    H       -0.39975        -7.36116         0.84620
|114>    H       -5.10687        -9.58429         2.77041
|115>    H       -3.62755       -10.24951        -1.17568
|116>    H       -1.64059        -8.84550        -0.68523
|117>    H       -3.85887        -8.18062         4.34475
|118> *
|119>
|120>                          ****END OF INPUT****

CARTESIAN COORDINATES (ANGSTROEM)
---------------------------------
  C     -4.992340   -7.269680   -2.366280
  C     -4.165870   -8.034140   -3.151800
  C     -4.620080   -8.961820   -4.111890
  N     -4.914300   -9.739870   -4.903560
  C     -2.756860   -8.027300   -3.128530
  N     -1.611110   -8.109270   -3.174710
  C     -6.451380   -7.303920   -2.412920
  C     -6.955510   -6.357340   -1.489590
  C     -8.298680   -6.139960   -1.308390
  C     -9.191570   -6.903590   -2.068690
  C     -8.679070   -7.851260   -2.984600
  C     -7.319140   -8.065100   -3.173140
  S     -9.953740   -8.684850   -3.822870
  C    -11.140020   -7.762010   -2.941510
  C    -10.613130   -6.874450   -2.065110
  Br   -12.965710   -8.054290   -3.261280
  C     -5.826900   -5.685750   -0.812590
  O     -5.909950   -4.747480   -0.043730
  C     -4.604750   -6.322230   -1.341880
  C     -3.311620   -5.967700   -1.037740
  C     -2.834180   -5.202780    0.037140
  S     -1.277090   -4.433700   -0.161920
  C     -1.405070   -3.714630    1.377690
  C     -2.541820   -4.049570    2.055300
  C     -2.818880   -3.527540    3.424590
  C     -3.370910   -4.937660    1.310140
  C     -4.490850   -5.680430    1.792370
  C     -5.297950   -5.422410    2.848110
  C     -6.260320   -6.371050    3.290980
  C     -6.957110   -6.264740    4.445210
  C     -7.758500   -7.334360    4.949080
  C     -8.269930   -7.426000    6.191250
  C     -8.098080   -6.378610    7.243020
  C     -8.825910   -8.751550    6.652270
  N     -7.698430   -9.516700    7.160850
  C     -7.288430   -9.465010    8.438000
  C     -5.974170   -9.578830    8.789280
  C     -5.468510   -9.492800   10.090700
  C     -4.145170   -9.205990   10.336840
  C     -3.515060   -8.895940   11.560810
  C     -2.265330   -8.358670   11.427470
  C     -1.849670   -8.221950   10.086330
  S     -3.027760   -8.907850    9.007880
  C     -0.791260   -7.492560    9.562730
  C      0.085420   -6.601880   10.204090
  C      0.753770   -5.782160    9.336740
  C      0.427230   -5.979260    7.977100
  S     -0.639810   -7.340120    7.823630
  C      0.913620   -5.212030    6.923100
  C      0.614420   -5.228600    5.573350
  C     -0.354150   -5.859610    4.793230
  C     -0.021920   -6.053170    3.364790
  O      0.908520   -5.564650    2.755810
  C     -1.056780   -6.963890    2.831590
  C     -1.149730   -7.541460    1.601760
  C     -2.253120   -8.381270    1.319870
  C     -3.235470   -8.598970    2.326520
  C     -4.348930   -9.404990    2.023200
  C     -4.466600   -9.951500    0.775190
  C     -3.498430   -9.769620   -0.218120
  C     -2.404540   -8.995890    0.062270
  F     -5.555120  -10.696310    0.481890
  C     -3.102620   -7.991740    3.599460
  C     -2.029220   -7.184750    3.845980
  C     -1.645650   -6.406040    5.026410
  C     -2.508030   -6.103760    6.071490
  C     -2.248400   -5.064120    6.981760
  N     -2.081480   -4.190520    7.709710
  C     -3.767470   -6.689880    6.256400
  N     -4.802800   -7.144970    6.478950
  H     -8.649640   -5.406230   -0.599720
  H     -6.981770   -8.796880   -3.887450
  H    -11.200600   -6.223780   -1.443360
  H     -2.542220   -6.275800   -1.735530
  H     -0.614370   -3.077670    1.724590
  H     -1.922190   -3.074660    3.841880
  H     -3.146130   -4.328070    4.084020
  H     -3.601490   -2.770000    3.389540
  H     -4.671420   -6.603280    1.251940
  H     -5.237660   -4.493160    3.390660
  H     -6.370540   -7.265070    2.688980
  H     -6.833000   -5.385740    5.059410
  H     -7.898640   -8.170060    4.272260
  H     -8.226900   -5.382530    6.828130
  H     -7.091370   -6.439310    7.661310
  H     -8.815600   -6.512840    8.049810
  H     -9.273230   -9.305830    5.822720
  H     -9.563660   -8.637080    7.447820
  H     -6.946990   -9.597810    6.484240
  H     -8.059840   -9.321160    9.183050
  H     -5.247710   -9.617900    7.987070
  H     -6.144280   -9.554090   10.933140
  H     -4.015570   -9.036730   12.502950
  H     -1.655550   -8.026890   12.248370
  H      0.164360   -6.546860   11.274880
  H      1.428540   -5.002240    9.641050
  H      1.693230   -4.518670    7.216810
  H      1.333280   -4.698420    4.952130
  H     -0.399750   -7.361160    0.846200
  H     -5.106870   -9.584290    2.770410
  H     -3.627550  -10.249510   -1.175680
  H     -1.640590   -8.845500   -0.685230
  H     -3.858870   -8.180620    4.344750

 Total Charge           Charge          ....    0
 Multiplicity           Mult            ....    1
 Number of Electrons    NEL             ....  534
 Basis Dimension        Dim             .... 1179

ORBITAL ENERGIES
----------------

  NO   OCC          E(Eh)            E(eV)
   0   2.0000    -482.881705    -13139.8792
   1   2.0000     -88.970011     -2420.9971
   2   2.0000     -88.958638     -2420.6876
   3   2.0000     -88.956314     -2420.6244
   4   2.0000     -88.954423     -2420.5729
   5   2.0000     -62.559426     -1702.3285
   6   2.0000     -56.393368     -1534.5415
   7   2.0000     -56.390667     -1534.4681
   8   2.0000     -56.390632     -1534.4671
   9   2.0000     -24.775175      -674.1668
  10   2.0000     -19.204093      -522.5699
  11   2.0000     -19.188342      -522.1413
  12   2.0000     -14.462164      -393.5355
  13   2.0000     -14.412231      -392.1767
  14   2.0000     -14.407955      -392.0604
  15   2.0000     -14.401161      -391.8755
  16   2.0000     -14.386432      -391.4747
  17   2.0000     -10.356627      -281.8181
  18   2.0000     -10.353776      -281.7406
  19   2.0000     -10.353090      -281.7219
  20   2.0000     -10.348324      -281.5922
  21   2.0000     -10.338221      -281.3173
  22   2.0000     -10.335167      -281.2342
  23   2.0000     -10.333848      -281.1983
  24   2.0000     -10.332483      -281.1612
  25   2.0000     -10.326122      -280.9881
  26   2.0000     -10.318193      -280.7723
  27   2.0000     -10.316587      -280.7286
  28   2.0000     -10.316291      -280.7205
  29   2.0000     -10.315230      -280.6917
  30   2.0000     -10.311822      -280.5989
  31   2.0000     -10.311702      -280.5957
  32   2.0000     -10.310717      -280.5689
  33   2.0000     -10.310664      -280.5674
  34   2.0000     -10.309371      -280.5322
  35   2.0000     -10.308977      -280.5215
  36   2.0000     -10.306609      -280.4571
  37   2.0000     -10.303827      -280.3814
  38   2.0000     -10.300816      -280.2995
  39   2.0000     -10.300779      -280.2985
  40   2.0000     -10.299459      -280.2625
  41   2.0000     -10.298187      -280.2279
  42   2.0000     -10.295667      -280.1593
  43   2.0000     -10.292613      -280.0762
  44   2.0000     -10.292306      -280.0679
  45   2.0000     -10.291592      -280.0485
  46   2.0000     -10.291487      -280.0456
  47   2.0000     -10.290058      -280.0067
  48   2.0000     -10.289421      -279.9894
  49   2.0000     -10.288713      -279.9701
  50   2.0000     -10.286571      -279.9118
  51   2.0000     -10.283688      -279.8334
  52   2.0000     -10.283668      -279.8328
  53   2.0000     -10.283000      -279.8146
  54   2.0000     -10.282056      -279.7890
  55   2.0000     -10.281112      -279.7633
  56   2.0000     -10.279921      -279.7309
  57   2.0000     -10.279330      -279.7148
  58   2.0000     -10.279284      -279.7135
  59   2.0000     -10.277854      -279.6746
  60   2.0000     -10.277491      -279.6647
  61   2.0000     -10.277311      -279.6598
  62   2.0000     -10.276116      -279.6273
  63   2.0000     -10.273946      -279.5683
  64   2.0000     -10.272141      -279.5192
  65   2.0000     -10.271441      -279.5001
  66   2.0000     -10.271074      -279.4901
  67   2.0000     -10.269853      -279.4569
  68   2.0000     -10.269707      -279.4529
  69   2.0000     -10.269104      -279.4365
  70   2.0000     -10.266252      -279.3589
  71   2.0000     -10.266176      -279.3568
  72   2.0000     -10.264039      -279.2987
  73   2.0000     -10.259546      -279.1764
  74   2.0000      -8.788851      -239.1568
  75   2.0000      -8.065894      -219.4841
  76   2.0000      -8.054799      -219.1822
  77   2.0000      -8.051035      -219.0798
  78   2.0000      -8.050301      -219.0598
  79   2.0000      -6.625110      -180.2784
  80   2.0000      -6.610613      -179.8839
  81   2.0000      -6.610401      -179.8781
  82   2.0000      -6.035554      -164.2358
  83   2.0000      -6.031348      -164.1213
  84   2.0000      -6.027145      -164.0070
  85   2.0000      -6.024398      -163.9322
  86   2.0000      -6.020418      -163.8239
  87   2.0000      -6.020277      -163.8201
  88   2.0000      -6.019458      -163.7978
  89   2.0000      -6.016187      -163.7088
  90   2.0000      -6.015987      -163.7033
  91   2.0000      -6.015339      -163.6857
  92   2.0000      -6.013010      -163.6223
  93   2.0000      -6.012579      -163.6106
  94   2.0000      -2.741007       -74.5866
  95   2.0000      -2.736880       -74.4743
  96   2.0000      -2.736797       -74.4720
  97   2.0000      -2.725235       -74.1574
  98   2.0000      -2.725234       -74.1574
  99   2.0000      -1.288156       -35.0525
 100   2.0000      -1.118352       -30.4319
 101   2.0000      -1.102224       -29.9931
 102   2.0000      -1.063865       -28.9492
 103   2.0000      -1.016334       -27.6558
 104   2.0000      -1.008399       -27.4399
 105   2.0000      -1.006629       -27.3918
 106   2.0000      -0.997199       -27.1352
 107   2.0000      -0.989380       -26.9224
 108   2.0000      -0.988756       -26.9054
 109   2.0000      -0.981641       -26.7118
 110   2.0000      -0.980907       -26.6918
 111   2.0000      -0.979997       -26.6671
 112   2.0000      -0.970312       -26.4035
 113   2.0000      -0.954845       -25.9827
 114   2.0000      -0.935832       -25.4653
 115   2.0000      -0.928731       -25.2721
 116   2.0000      -0.915423       -24.9099
 117   2.0000      -0.907375       -24.6909
 118   2.0000      -0.902146       -24.5486
 119   2.0000      -0.899325       -24.4719
 120   2.0000      -0.896266       -24.3886
 121   2.0000      -0.888018       -24.1642
 122   2.0000      -0.879025       -23.9195
 123   2.0000      -0.874814       -23.8049
 124   2.0000      -0.868509       -23.6333
 125   2.0000      -0.866787       -23.5865
 126   2.0000      -0.862791       -23.4777
 127   2.0000      -0.858679       -23.3658
 128   2.0000      -0.846774       -23.0419
 129   2.0000      -0.833650       -22.6848
 130   2.0000      -0.829604       -22.5747
 131   2.0000      -0.823802       -22.4168
 132   2.0000      -0.822420       -22.3792
 133   2.0000      -0.816234       -22.2109
 134   2.0000      -0.808438       -21.9987
 135   2.0000      -0.801297       -21.8044
 136   2.0000      -0.782552       -21.2943
 137   2.0000      -0.781390       -21.2627
 138   2.0000      -0.761868       -20.7315
 139   2.0000      -0.754669       -20.5356
 140   2.0000      -0.753209       -20.4959
 141   2.0000      -0.740915       -20.1613
 142   2.0000      -0.738640       -20.0994
 143   2.0000      -0.730482       -19.8774
 144   2.0000      -0.713784       -19.4230
 145   2.0000      -0.703278       -19.1372
 146   2.0000      -0.699535       -19.0353
 147   2.0000      -0.693664       -18.8756
 148   2.0000      -0.690645       -18.7934
 149   2.0000      -0.684634       -18.6298
 150   2.0000      -0.683338       -18.5946
 151   2.0000      -0.670559       -18.2468
 152   2.0000      -0.667625       -18.1670
 153   2.0000      -0.657443       -17.8899
 154   2.0000      -0.654646       -17.8138
 155   2.0000      -0.651701       -17.7337
 156   2.0000      -0.646007       -17.5787
 157   2.0000      -0.636808       -17.3284
 158   2.0000      -0.633670       -17.2430
 159   2.0000      -0.629854       -17.1392
 160   2.0000      -0.625388       -17.0177
 161   2.0000      -0.617521       -16.8036
 162   2.0000      -0.615817       -16.7572
 163   2.0000      -0.614520       -16.7219
 164   2.0000      -0.609278       -16.5793
 165   2.0000      -0.606732       -16.5100
 166   2.0000      -0.596826       -16.2405
 167   2.0000      -0.591955       -16.1079
 168   2.0000      -0.590857       -16.0780
 169   2.0000      -0.588420       -16.0117
 170   2.0000      -0.585335       -15.9278
 171   2.0000      -0.574247       -15.6261
 172   2.0000      -0.572245       -15.5716
 173   2.0000      -0.565622       -15.3914
 174   2.0000      -0.561384       -15.2760
 175   2.0000      -0.549238       -14.9455
 176   2.0000      -0.548436       -14.9237
 177   2.0000      -0.547224       -14.8907
 178   2.0000      -0.543896       -14.8002
 179   2.0000      -0.541859       -14.7447
 180   2.0000      -0.534982       -14.5576
 181   2.0000      -0.534699       -14.5499
 182   2.0000      -0.532168       -14.4810
 183   2.0000      -0.530838       -14.4448
 184   2.0000      -0.529725       -14.4145
 185   2.0000      -0.526430       -14.3249
 186   2.0000      -0.524634       -14.2760
 187   2.0000      -0.518153       -14.0997
 188   2.0000      -0.516765       -14.0619
 189   2.0000      -0.512295       -13.9402
 190   2.0000      -0.509769       -13.8715
 191   2.0000      -0.508481       -13.8365
 192   2.0000      -0.507938       -13.8217
 193   2.0000      -0.504353       -13.7241
 194   2.0000      -0.502628       -13.6772
 195   2.0000      -0.502309       -13.6685
 196   2.0000      -0.499571       -13.5940
 197   2.0000      -0.497157       -13.5283
 198   2.0000      -0.494445       -13.4545
 199   2.0000      -0.491857       -13.3841
 200   2.0000      -0.490697       -13.3525
 201   2.0000      -0.489087       -13.3087
 202   2.0000      -0.486254       -13.2316
 203   2.0000      -0.485435       -13.2093
 204   2.0000      -0.484911       -13.1951
 205   2.0000      -0.481712       -13.1081
 206   2.0000      -0.478047       -13.0083
 207   2.0000      -0.475137       -12.9291
 208   2.0000      -0.472985       -12.8706
 209   2.0000      -0.469838       -12.7849
 210   2.0000      -0.466000       -12.6805
 211   2.0000      -0.464883       -12.6501
 212   2.0000      -0.463543       -12.6137
 213   2.0000      -0.460433       -12.5290
 214   2.0000      -0.457100       -12.4383
 215   2.0000      -0.454863       -12.3775
 216   2.0000      -0.453297       -12.3348
 217   2.0000      -0.450592       -12.2612
 218   2.0000      -0.446274       -12.1437
 219   2.0000      -0.444765       -12.1027
 220   2.0000      -0.444098       -12.0845
 221   2.0000      -0.442279       -12.0350
 222   2.0000      -0.441401       -12.0111
 223   2.0000      -0.439744       -11.9660
 224   2.0000      -0.437938       -11.9169
 225   2.0000      -0.437647       -11.9090
 226   2.0000      -0.433545       -11.7973
 227   2.0000      -0.431940       -11.7537
 228   2.0000      -0.429919       -11.6987
 229   2.0000      -0.427136       -11.6230
 230   2.0000      -0.425093       -11.5674
 231   2.0000      -0.422053       -11.4846
 232   2.0000      -0.420031       -11.4296
 233   2.0000      -0.419541       -11.4163
 234   2.0000      -0.418017       -11.3748
 235   2.0000      -0.416361       -11.3298
 236   2.0000      -0.413655       -11.2561
 237   2.0000      -0.412179       -11.2160
 238   2.0000      -0.409189       -11.1346
 239   2.0000      -0.406415       -11.0591
 240   2.0000      -0.401902       -10.9363
 241   2.0000      -0.401605       -10.9282
 242   2.0000      -0.399938       -10.8829
 243   2.0000      -0.396527       -10.7900
 244   2.0000      -0.386278       -10.5112
 245   2.0000      -0.382869       -10.4184
 246   2.0000      -0.376043       -10.2327
 247   2.0000      -0.372942       -10.1483
 248   2.0000      -0.371179       -10.1003
 249   2.0000      -0.366236        -9.9658
 250   2.0000      -0.358765        -9.7625
 251   2.0000      -0.351291        -9.5591
 252   2.0000      -0.342975        -9.3328
 253   2.0000      -0.339497        -9.2382
 254   2.0000      -0.329461        -8.9651
 255   2.0000      -0.323301        -8.7975
 256   2.0000      -0.317986        -8.6529
 257   2.0000      -0.316178        -8.6036
 258   2.0000      -0.308973        -8.4076
 259   2.0000      -0.306969        -8.3530
 260   2.0000      -0.291673        -7.9368
 261   2.0000      -0.289336        -7.8732
 262   2.0000      -0.281544        -7.6612
 263   2.0000      -0.275067        -7.4850
 264   2.0000      -0.270743        -7.3673
 265   2.0000      -0.247610        -6.7378
 266   2.0000      -0.219931        -5.9846
 267   0.0000      -0.094043        -2.5590
 268   0.0000      -0.086457        -2.3526
 269   0.0000      -0.054954        -1.4954
 270   0.0000      -0.045344        -1.2339
 271   0.0000      -0.033229        -0.9042

MULLIKEN ATOMIC CHARGES
-----------------------
   0 C :    0.335415
   1 C :   -0.391072
   2 C :   -0.185423
   3 N :    0.147192
   4 C :   -0.181490
   5 N :    0.143995
   6 C :    0.012090
   7 C :   -0.008000
   8 C :   -0.079885
   9 C :    0.121545
  10 C :   -0.095311
  11 C :   -0.024458
  12 S :    0.183111
  13 C :   -0.123769
  14 C :    0.037217
  15 Br:    0.017405
  16 C :    0.113153
  17 O :   -0.142413
  18 C :   -0.100187
  19 C :    0.032484
  20 C :   -0.192619
  21 S :    0.148047
  22 C :   -0.069030
  23 C :   -0.136369
  24 C :    0.124191
  25 C :    0.198580
  26 C :   -0.009706
  27 C :    0.019932
  28 C :   -0.008064
  29 C :    0.049677
  30 C :    0.009918
  31 C :   -0.200824
  32 C :    0.092738
  33 C :    0.173830
  34 N :   -0.114067
  35 C :    0.070072
  36 C :   -0.024718
  37 C :    0.043030
  38 C :   -0.071252
  39 C :    0.062178
  40 C :    0.011182
  41 C :   -0.009288
  42 S :    0.106095
  43 C :   -0.075260
  44 C :    0.047659
  45 C :    0.036307
  46 C :   -0.036872
  47 S :    0.121042
  48 C :   -0.003138
  49 C :    0.018494
  50 C :   -0.161678
  51 C :    0.129730
  52 O :   -0.171628
  53 C :    0.034062
  54 C :   -0.095163
  55 C :    0.097979
  56 C :    0.104710
  57 C :   -0.118615
  58 C :    0.302340
  59 C :   -0.045044
  60 C :   -0.021690
  61 F :   -0.199826
  62 C :   -0.119521
  63 C :    0.072451
  64 C :    0.282688
  65 C :   -0.399117
  66 C :   -0.231040
  67 N :    0.155086
  68 C :   -0.154369
  69 N :    0.110520
  70 H :   -0.012972
  71 H :   -0.007677
  72 H :   -0.005604
  73 H :    0.012952
  74 H :    0.032096
  75 H :    0.015676
  76 H :    0.041850
  77 H :    0.039836
  78 H :    0.015259
  79 H :   -0.011637
  80 H :   -0.022160
  81 H :   -0.011808
  82 H :   -0.030523
  83 H :    0.034262
  84 H :    0.053843
  85 H :   -0.006292
  86 H :    0.025656
  87 H :    0.017350
  88 H :    0.133494
  89 H :    0.013691
  90 H :    0.013193
  91 H :   -0.001700
  92 H :   -0.003416
  93 H :   -0.008335
  94 H :   -0.011347
  95 H :   -0.012731
  96 H :   -0.011594
  97 H :    0.014232
  98 H :   -0.015674
  99 H :   -0.026791
 100 H :    0.006273
 101 H :   -0.002089
 102 H :   -0.032553
Sum of atomic charges:   -0.0000000

LOEWDIN ATOMIC CHARGES
----------------------
   0 C :    0.082701
   1 C :   -0.154684
   2 C :   -0.020101
   3 N :   -0.060499
   4 C :   -0.016636
   5 N :   -0.063392
   6 C :   -0.022272
   7 C :   -0.045861
   8 C :    0.016100
   9 C :   -0.033312
  10 C :   -0.146478
  11 C :   -0.010054
  12 S :    0.429822
  13 C :   -0.273450
  14 C :   -0.071492
  15 Br:    0.131714
  16 C :    0.070900
  17 O :   -0.133288
  18 C :   -0.112777
  19 C :    0.048748
  20 C :   -0.180250
  21 S :    0.466195
  22 C :   -0.148327
  23 C :   -0.055619
  24 C :   -0.044876
  25 C :   -0.005986
  26 C :   -0.000917
  27 C :   -0.006216
  28 C :   -0.021886
  29 C :   -0.010590
  30 C :   -0.041684
  31 C :   -0.039843
  32 C :   -0.054231
  33 C :    0.049149
  34 N :    0.034109
  35 C :    0.081570
  36 C :   -0.118431
  37 C :    0.021905
  38 C :   -0.189849
  39 C :    0.004704
  40 C :   -0.063503
  41 C :   -0.121556
  42 S :    0.418861
  43 C :   -0.221762
  44 C :   -0.012435
  45 C :   -0.054449
  46 C :   -0.110722
  47 S :    0.481755
  48 C :   -0.082350
  49 C :    0.028944
  50 C :   -0.128077
  51 C :    0.080372
  52 O :   -0.167117
  53 C :   -0.054983
  54 C :    0.026127
  55 C :   -0.026381
  56 C :   -0.001308
  57 C :   -0.058761
  58 C :    0.087107
  59 C :   -0.048708
  60 C :    0.005796
  61 F :   -0.075763
  62 C :   -0.006579
  63 C :   -0.008618
  64 C :    0.036819
  65 C :   -0.201009
  66 C :   -0.039966
  67 N :   -0.081078
  68 C :   -0.003919
  69 N :   -0.109063
  70 H :    0.039629
  71 H :    0.040470
  72 H :    0.037703
  73 H :    0.040578
  74 H :    0.029865
  75 H :    0.036536
  76 H :    0.034723
  77 H :    0.037868
  78 H :    0.030641
  79 H :    0.028822
  80 H :    0.023600
  81 H :    0.026970
  82 H :    0.020952
  83 H :    0.037502
  84 H :    0.044373
  85 H :    0.022806
  86 H :    0.030228
  87 H :    0.027554
  88 H :    0.087154
  89 H :    0.031750
  90 H :    0.022546
  91 H :    0.037928
  92 H :    0.036957
  93 H :    0.033210
  94 H :    0.033075
  95 H :    0.033225
  96 H :    0.037470
  97 H :    0.041903
  98 H :    0.034642
  99 H :    0.031833
 100 H :    0.040321
 101 H :    0.035205
 102 H :    0.029671

  Mayer bond orders larger than 0.100000
B(  0-C ,  1-C ) :   1.5995 B(  0-C ,  6-C ) :   0.9994 B(  0-C , 18-C ) :   1.1030
B(  1-C ,  2-C ) :   1.1423 B(  1-C ,  4-C ) :   1.1624 B(  2-C ,  3-N ) :   2.9666
B(  4-C ,  5-N ) :   2.8994 B(  6-C ,  7-C ) :   1.2754 B(  6-C , 11-C ) :   1.4084
B(  7-C ,  8-C ) :   1.4326 B(  7-C , 16-C ) :   0.9219 B(  8-C ,  9-C ) :   1.2361
B(  8-C , 70-H ) :   1.0168 B(  9-C , 10-C ) :   1.3129 B(  9-C , 14-C ) :   1.1634
B( 10-C , 11-C ) :   1.3294 B( 10-C , 12-S ) :   1.0824 B( 11-C , 71-H ) :   0.9791
B( 12-S , 13-C ) :   1.0875 B( 13-C , 14-C ) :   1.6176 B( 13-C , 15-Br) :   1.0150
B( 14-C , 72-H ) :   1.0000 B( 16-C , 17-O ) :   2.2094 B( 16-C , 18-C ) :   0.9702
B( 18-C , 19-C ) :   1.5179 B( 19-C , 20-C ) :   1.2724 B( 19-C , 73-H ) :   0.9168
B( 20-C , 21-S ) :   1.1108 B( 20-C , 25-C ) :   1.3330 B( 21-S , 22-C ) :   1.1770
B( 22-C , 23-C ) :   1.5528 B( 22-C , 74-H ) :   0.9632 B( 23-C , 24-C ) :   1.0962
B( 23-C , 25-C ) :   1.2579 B( 24-C , 75-H ) :   0.9383 B( 24-C , 76-H ) :   0.9336
B( 24-C , 77-H ) :   0.9385 B( 25-C , 26-C ) :   1.1406 B( 26-C , 27-C ) :   1.6468
B( 26-C , 78-H ) :   0.9387 B( 27-C , 28-C ) :   1.1114 B( 27-C , 79-H ) :   0.9813
B( 28-C , 29-C ) :   1.6647 B( 28-C , 80-H ) :   0.9923 B( 29-C , 30-C ) :   1.1061
B( 29-C , 81-H ) :   0.9682 B( 30-C , 31-C ) :   1.7536 B( 30-C , 82-H ) :   0.9727
B( 31-C , 32-C ) :   1.0845 B( 31-C , 33-C ) :   1.0444 B( 32-C , 83-H ) :   0.9450
B( 32-C , 84-H ) :   0.9348 B( 32-C , 85-H ) :   0.9493 B( 33-C , 34-N ) :   0.9981
B( 33-C , 86-H ) :   0.9450 B( 33-C , 87-H ) :   0.9362 B( 34-N , 35-C ) :   1.3129
B( 34-N , 88-H ) :   0.9294 B( 35-C , 36-C ) :   1.5061 B( 35-C , 89-H ) :   0.9726
B( 36-C , 37-C ) :   1.2593 B( 36-C , 90-H ) :   0.9497 B( 37-C , 38-C ) :   1.4967
B( 37-C , 91-H ) :   0.9822 B( 38-C , 39-C ) :   1.2014 B( 38-C , 42-S ) :   1.0272
B( 39-C , 40-C ) :   1.5238 B( 39-C , 92-H ) :   0.9967 B( 40-C , 41-C ) :   1.2437
B( 40-C , 93-H ) :   0.9959 B( 41-C , 42-S ) :   1.1386 B( 41-C , 43-C ) :   1.3712
B( 43-C , 44-C ) :   1.2649 B( 43-C , 47-S ) :   1.0473 B( 44-C , 45-C ) :   1.4993
B( 44-C , 94-H ) :   0.9902 B( 45-C , 46-C ) :   1.2345 B( 45-C , 95-H ) :   0.9973
B( 46-C , 47-S ) :   1.1408 B( 46-C , 48-C ) :   1.3453 B( 48-C , 49-C ) :   1.4530
B( 48-C , 96-H ) :   0.9539 B( 49-C , 50-C ) :   1.3445 B( 49-C , 97-H ) :   0.9257
B( 50-C , 51-C ) :   0.9844 B( 50-C , 64-C ) :   1.1960 B( 51-C , 52-O ) :   2.2114
B( 51-C , 53-C ) :   0.9123 B( 53-C , 54-C ) :   1.4793 B( 53-C , 63-C ) :   1.2220
B( 54-C , 55-C ) :   1.1560 B( 54-C , 98-H ) :   1.0207 B( 55-C , 56-C ) :   1.2788
B( 55-C , 60-C ) :   1.2370 B( 56-C , 57-C ) :   1.2027 B( 56-C , 62-C ) :   1.1678
B( 57-C , 58-C ) :   1.4205 B( 57-C , 99-H ) :   1.0024 B( 58-C , 59-C ) :   1.2603
B( 58-C , 61-F ) :   1.0832 B( 59-C , 60-C ) :   1.4385 B( 59-C ,100-H ) :   0.9891
B( 60-C ,101-H ) :   0.9913 B( 62-C , 63-C ) :   1.4739 B( 62-C ,102-H ) :   0.9946
B( 63-C , 64-C ) :   0.9867 B( 64-C , 65-C ) :   1.4693 B( 65-C , 66-C ) :   1.1618
B( 65-C , 68-C ) :   1.2013 B( 66-C , 67-N ) :   3.0172 B( 68-C , 69-N ) :   2.8663

-----------------------------------------------------------------------------
         ABSORPTION SPECTRUM VIA TRANSITION ELECTRIC DIPOLE MOMENTS
-----------------------------------------------------------------------------
State   Energy  Wavelength   fosc         T2         TX        TY        TZ
        (cm-1)    (nm)                  (au**2)     (au)      (au)      (au)
-----------------------------------------------------------------------------
   0   11328.5    882.7   0.277451606   8.06289   1.82618   1.42975  -1.63823
   1   16418.3    609.1   0.178696847   3.58314   0.17615   0.16789  -1.87721
   2   18776.8    532.6   0.387689825   6.79732   0.00777  -0.18319  -2.60071
   3   19774.6    505.7   0.027033149   0.45005   0.17457   0.64560   0.05276
   4   20932.8    477.7   0.021899062   0.34441   0.56765   0.04105   0.14318
   5   22880.7    437.1   0.188403033   2.71078   1.59686   0.03265   0.39970
   6   23355.7    428.2   0.208423150   2.93785   1.39987   0.97774  -0.14915
   7   23605.1    423.6   0.230482322   3.21446   0.59944   0.21916   1.67544
   8   24454.5    408.9   0.159686656   2.14974  -0.55010  -0.89727  -1.02080
   9   24646.5    405.7   0.022567907   0.30145  -0.48051  -0.22958   0.13361
  10   25457.8    392.8   0.609886808   7.88685  -2.19802  -0.39417  -1.70300
  11   25948.3    385.4   0.200405317   2.54259   0.88501   0.12665   1.32034
  12   26926.4    371.4   0.010312756   0.12609   0.28828   0.19945  -0.05661
  13   27087.6    369.2   0.024708944   0.30030  -0.49234  -0.20178  -0.13109
  14   27768.9    360.1   0.186718676   2.21363  -1.42669  -0.15158  -0.39398
  15   27931.5    358.0   0.035794526   0.42189   0.44135  -0.23616  -0.41391
  16   28104.7    355.8   0.016231824   0.19014  -0.09149  -0.40274  -0.13988
  17   28463.5    351.3   0.053171332   0.61499  -0.75281   0.13779  -0.17110
  18   28554.9    350.2   0.036521922   0.42106  -0.06840   0.06784   0.64170
  19   29468.5    339.3   0.075333045   0.84160  -0.81652  -0.06190  -0.41360
  20   29678.7    336.9   0.041437508   0.45965  -0.58197   0.24623  -0.24562
  21   29856.2    334.9   0.070405578   0.77633   0.69952   0.35490   0.40132
  22   30249.7    330.6   0.120343371   1.30972   1.12279  -0.14029   0.17140
  23   30615.4    326.6   0.098046512   1.05431  -0.79575  -0.59230   0.26509
  24   30993.6    322.6   0.017327903   0.18406   0.10992   0.18751   0.36988
  25   31217.8    320.3   0.140653720   1.48328   1.07537   0.57070   0.03421
  26   31512.9    317.3   0.238420115   2.49075  -0.45406  -0.28098  -1.48513
  27   31941.9    313.1   0.051555477   0.53136  -0.45288  -0.45696  -0.34271
  28   32247.0    310.1   0.095690558   0.97691   0.42887   0.29702   0.83950
  29   32385.2    308.8   0.325654627   3.31045  -0.60456  -0.64254  -1.59125
  30   32855.3    304.4   0.121958427   1.22203   1.03197   0.23659  -0.31796
  31   32991.8    303.1   0.217468570   2.17003  -1.38594   0.49901  -0.01429
  32   33216.6    301.1   0.057801939   0.57288   0.56390   0.33086  -0.38134
  33   33237.2    300.9   0.031968686   0.31665   0.15169  -0.52492  -0.13454
  34   33703.2    296.7   0.004404774   0.04303   0.16817  -0.08133  -0.09017
  35   33754.3    296.3   0.171130328   1.66907   0.88227   0.79875  -0.50265
  36   34066.4    293.5   0.026422576   0.25534  -0.32290  -0.00412   0.38867
  37   34314.6    291.4   0.084408812   0.80981  -0.86999   0.08077   0.21543
  38   34728.3    287.9   0.274459431   2.60178   1.50963   0.35747  -0.44160
  39   34938.9    286.2   0.190941538   1.79915  -1.27574  -0.15239   0.38523
  40   35024.3    285.5   0.179551538   1.68770  -0.45396  -0.72824  -0.97534
  41   35714.4    280.0   0.023032600   0.21231   0.42579  -0.07570  -0.15900
  42   35829.2    279.1   0.049000438   0.45023   0.63135   0.04687  -0.22235
  43   35904.6    278.5   0.299848143   2.74933   1.13211  -0.50846  -1.09961
  44   36395.1    274.8   0.296060707   2.67802   0.77744   0.19398  -1.42688
  45   36504.4    273.9   0.140115964   1.26363   0.29632   0.00907  -1.08431
  46   36584.5    273.3   0.024139842   0.21723   0.39087  -0.12184   0.22271
  47   36978.2    270.4   0.004618610   0.04112  -0.03609  -0.08631   0.17991
  48   37351.1    267.7   0.169717360   1.49589   0.75049   0.56696  -0.78180
  49   37665.0    265.5   0.198004534   1.73066  -0.80095  -0.18283   1.02748
  50   37735.1    265.0   0.103165666   0.90005  -0.06661   0.68570   0.65225
  51   38194.0    261.8   0.054583921   0.47048   0.03016   0.42000  -0.54146
  52   38367.7    260.6   0.121016547   1.03838   0.44134   0.79621   0.45787
  53   38769.2    257.9   0.011405670   0.09685  -0.19011  -0.05382  -0.24044
  54   39086.4    255.8   0.037303339   0.31419   0.41896   0.34706  -0.13495
  55   39302.6    254.4   0.034078963   0.28546   0.14078   0.12445   0.50015
  56   39468.6    253.4   0.019586136   0.16337  -0.03851   0.37218   0.15287
  57   39771.1    251.4   0.069516768   0.57544  -0.08517  -0.24953  -0.71128
  58   40089.9    249.4   0.019936579   0.16372   0.08651  -0.39521   0.00606
  59   40156.1    249.0   0.028930078   0.23718  -0.13539   0.09828   0.45737

FINAL SINGLE POINT ENERGY     -6878.600370568173

DIPOLE MOMENT
-------------
                                X             Y             Z
Electronic contribution:    -81.72238     -21.02646    -117.52152
Nuclear contribution   :     78.75749      20.51703     122.22415
                        -----------------------------------------
Total Dipole Moment    :     -2.96489      -0.50943       4.70263
                        -----------------------------------------
Magnitude (a.u.)       :      5.58255
Magnitude (Debye)      :     14.18971

Rotational constants in cm-1:     0.001419     0.000534     0.000436
Rotational constants in MHz :    42.539483    15.998851    13.068552

                             ****ORCA TERMINATED NORMALLY****
TOTAL RUN TIME: 0 days 0 hours 19 minutes 14 seconds 818 msec
