                         Program Version 4.2.0 -  RELEASE  -
|  1> # ORCA input file
|  2> # SCF done       -168.498633286247          0.000660631279
|  3> ! CAM-B3LYP def2-SVP def2/J RIJCOSX Grid4 TightSCF
|  4> %maxcore 5000
|  5> %tddft
|  6>     Mode sTDDFT
|  7>     Ethresh 5.0
|  8>     maxcore 5000
|  9> end
| 10>
| 11> %pal
| 12>   nprocs 6
| 13>   end
| 14> * xyz 0 1
| 15>    C       -5.36178        -2.75348        -0.51541
| 16>    C       -4.57828        -2.44916         0.57137
| 17>    C       -4.08076        -3.40351         1.48152
| 18>    N       -3.63635        -4.13126         2.25092
| 19>    C       -4.16039        -1.15262         0.93214
| 20>    N       -3.78451        -0.12910         1.29396
| 21>    C       -5.83537        -4.08486        -0.87343
| 22>    C       -6.63177        -3.98988        -2.04103
| 23>    C       -7.22813        -5.08051        -2.62411
| 24>    C       -7.03917        -6.32785        -2.01975
| 25>    C       -6.24159        -6.41480        -0.85389
| 26>    C       -5.63207        -5.31207        -0.26854
| 27>    S       -6.13507        -8.04937        -0.27380
| 28>    C       -7.15130        -8.58540        -1.58580
| 29>    C       -7.55022        -7.59377        -2.41689
| 30>   Br       -7.58676       -10.40301        -1.73508
| 31>    C       -6.68485        -2.58653        -2.48890
| 32>    O       -7.13371        -2.18146        -3.53631
| 33>    C       -5.91780        -1.81550        -1.46773
| 34>    C       -5.68164        -0.47428        -1.54005
| 35>    C       -6.45288         0.41716        -2.32621
| 36>    O       -5.90817         1.60059        -2.72993
| 37>    C       -7.77492         0.39011        -2.73109
| 38>    C       -9.03888        -0.35382        -2.62693
| 39>    O       -9.32376        -1.36079        -2.03435
| 40>    N       -9.93499         0.42997        -3.34839
| 41>    C       -9.41602         1.61910        -3.85915
| 42>    O      -10.04047         2.43501        -4.48557
| 43>    C       -8.01568         1.59278        -3.43045
| 44>    C       -6.83299         2.31391        -3.41969
| 45>    C       -6.52405         3.57241        -3.99879
| 46>    C       -5.32347         4.18401        -3.87838
| 47>    C       -5.03086         5.43180        -4.50537
| 48>    C       -3.87927         6.12564        -4.42359
| 49>    C       -2.69306         5.75078        -3.60810
| 50>    C       -3.74143         7.41733        -5.19824
| 51>    N       -3.92921         8.57810        -4.35187
| 52>    C       -2.95308         9.28178        -3.74555
| 53>    C       -1.61278         9.06857        -3.86837
| 54>    C       -0.62549         9.85387        -3.25296
| 55>    C        0.70785         9.52593        -3.31260
| 56>    C        1.82175        10.20306        -2.76711
| 57>    C        3.01739         9.57815        -2.97930
| 58>    C        2.90656         8.36816        -3.69565
| 59>    S        1.24618         8.05686        -4.12003
| 60>    C        3.87820         7.44722        -4.05241
| 61>    C        5.26915         7.45576        -3.83805
| 62>    C        5.90173         6.34423        -4.31452
| 63>    C        5.04034         5.39630        -4.92414
| 64>    S        3.39451         5.98478        -4.88262
| 65>    C        5.42632         4.19363        -5.46488
| 66>    C        4.60837         3.20889        -6.05017
| 67>    S        5.35961         1.75684        -6.70650
| 68>    C        3.87541         1.04563        -7.20695
| 69>    C        2.82608         1.87454        -6.89180
| 70>    C        3.24115         3.08383        -6.24523
| 71>    O        2.16809         3.85185        -5.95401
| 72>    C        1.08762         3.16175        -6.40097
| 73>    N       -0.18212         3.73584        -6.22435
| 74>    O       -1.13817         3.09704        -6.63288
| 75>    O       -0.26311         4.82461        -5.68205
| 76>    C        1.41138         1.95927        -6.97855
| 77>    H       -7.82890        -4.97194        -3.51304
| 78>    H       -5.03110        -5.43215         0.61722
| 79>    H       -8.17880        -7.74594        -3.27517
| 80>    H       -4.87563        -0.02228        -0.97802
| 81>    H      -10.90231         0.16670        -3.47135
| 82>    H       -7.32968         4.02172        -4.56169
| 83>    H       -4.55331         3.69569        -3.30036
| 84>    H       -5.82612         5.82642        -5.12729
| 85>    H       -2.87779         4.88449        -2.98270
| 86>    H       -2.39485         6.58375        -2.97196
| 87>    H       -1.85082         5.53340        -4.26772
| 88>    H       -4.49349         7.46050        -5.99139
| 89>    H       -2.75260         7.47158        -5.65508
| 90>    H       -4.87795         8.74454        -4.05526
| 91>    H       -3.30588        10.09570        -3.12478
| 92>    H       -1.25223         8.23544        -4.45325
| 93>    H       -0.91506        10.73822        -2.70139
| 94>    H        1.70902        11.13043        -2.23282
| 95>    H        3.96618         9.94796        -2.63327
| 96>    H        5.76659         8.27088        -3.34293
| 97>    H        6.96068         6.16917        -4.24235
| 98>    H        6.48306         3.96428        -5.43956
| 99>    H        3.86932         0.08930        -7.68513
|100>    H        0.72224         1.25464        -7.39529
|101> *
|102>
|103>                          ****END OF INPUT****

CARTESIAN COORDINATES (ANGSTROEM)
---------------------------------
  C     -5.361780   -2.753480   -0.515410
  C     -4.578280   -2.449160    0.571370
  C     -4.080760   -3.403510    1.481520
  N     -3.636350   -4.131260    2.250920
  C     -4.160390   -1.152620    0.932140
  N     -3.784510   -0.129100    1.293960
  C     -5.835370   -4.084860   -0.873430
  C     -6.631770   -3.989880   -2.041030
  C     -7.228130   -5.080510   -2.624110
  C     -7.039170   -6.327850   -2.019750
  C     -6.241590   -6.414800   -0.853890
  C     -5.632070   -5.312070   -0.268540
  S     -6.135070   -8.049370   -0.273800
  C     -7.151300   -8.585400   -1.585800
  C     -7.550220   -7.593770   -2.416890
  Br    -7.586760  -10.403010   -1.735080
  C     -6.684850   -2.586530   -2.488900
  O     -7.133710   -2.181460   -3.536310
  C     -5.917800   -1.815500   -1.467730
  C     -5.681640   -0.474280   -1.540050
  C     -6.452880    0.417160   -2.326210
  O     -5.908170    1.600590   -2.729930
  C     -7.774920    0.390110   -2.731090
  C     -9.038880   -0.353820   -2.626930
  O     -9.323760   -1.360790   -2.034350
  N     -9.934990    0.429970   -3.348390
  C     -9.416020    1.619100   -3.859150
  O    -10.040470    2.435010   -4.485570
  C     -8.015680    1.592780   -3.430450
  C     -6.832990    2.313910   -3.419690
  C     -6.524050    3.572410   -3.998790
  C     -5.323470    4.184010   -3.878380
  C     -5.030860    5.431800   -4.505370
  C     -3.879270    6.125640   -4.423590
  C     -2.693060    5.750780   -3.608100
  C     -3.741430    7.417330   -5.198240
  N     -3.929210    8.578100   -4.351870
  C     -2.953080    9.281780   -3.745550
  C     -1.612780    9.068570   -3.868370
  C     -0.625490    9.853870   -3.252960
  C      0.707850    9.525930   -3.312600
  C      1.821750   10.203060   -2.767110
  C      3.017390    9.578150   -2.979300
  C      2.906560    8.368160   -3.695650
  S      1.246180    8.056860   -4.120030
  C      3.878200    7.447220   -4.052410
  C      5.269150    7.455760   -3.838050
  C      5.901730    6.344230   -4.314520
  C      5.040340    5.396300   -4.924140
  S      3.394510    5.984780   -4.882620
  C      5.426320    4.193630   -5.464880
  C      4.608370    3.208890   -6.050170
  S      5.359610    1.756840   -6.706500
  C      3.875410    1.045630   -7.206950
  C      2.826080    1.874540   -6.891800
  C      3.241150    3.083830   -6.245230
  O      2.168090    3.851850   -5.954010
  C      1.087620    3.161750   -6.400970
  N     -0.182120    3.735840   -6.224350
  O     -1.138170    3.097040   -6.632880
  O     -0.263110    4.824610   -5.682050
  C      1.411380    1.959270   -6.978550
  H     -7.828900   -4.971940   -3.513040
  H     -5.031100   -5.432150    0.617220
  H     -8.178800   -7.745940   -3.275170
  H     -4.875630   -0.022280   -0.978020
  H    -10.902310    0.166700   -3.471350
  H     -7.329680    4.021720   -4.561690
  H     -4.553310    3.695690   -3.300360
  H     -5.826120    5.826420   -5.127290
  H     -2.877790    4.884490   -2.982700
  H     -2.394850    6.583750   -2.971960
  H     -1.850820    5.533400   -4.267720
  H     -4.493490    7.460500   -5.991390
  H     -2.752600    7.471580   -5.655080
  H     -4.877950    8.744540   -4.055260
  H     -3.305880   10.095700   -3.124780
  H     -1.252230    8.235440   -4.453250
  H     -0.915060   10.738220   -2.701390
  H      1.709020   11.130430   -2.232820
  H      3.966180    9.947960   -2.633270
  H      5.766590    8.270880   -3.342930
  H      6.960680    6.169170   -4.242350
  H      6.483060    3.964280   -5.439560
  H      3.869320    0.089300   -7.685130
  H      0.722240    1.254640   -7.395290

 Total Charge           Charge          ....    0
 Multiplicity           Mult            ....    1
 Number of Electrons    NEL             ....  484
 Basis Dimension        Dim             .... 1022

ORBITAL ENERGIES
----------------

  NO   OCC          E(Eh)            E(eV)
   0   2.0000    -482.884816    -13139.9639
   1   2.0000     -88.974205     -2421.1112
   2   2.0000     -88.962884     -2420.8032
   3   2.0000     -88.927164     -2419.8312
   4   2.0000     -88.922466     -2419.7033
   5   2.0000     -62.562522     -1702.4128
   6   2.0000     -56.396474     -1534.6261
   7   2.0000     -56.393754     -1534.5521
   8   2.0000     -56.393727     -1534.5513
   9   2.0000     -19.313611      -525.5501
  10   2.0000     -19.299013      -525.1528
  11   2.0000     -19.246845      -523.7333
  12   2.0000     -19.244181      -523.6608
  13   2.0000     -19.214192      -522.8448
  14   2.0000     -19.212245      -522.7918
  15   2.0000     -19.209878      -522.7273
  16   2.0000     -14.656882      -398.8340
  17   2.0000     -14.453776      -393.3072
  18   2.0000     -14.447446      -393.1350
  19   2.0000     -14.416139      -392.2831
  20   2.0000     -14.414997      -392.2520
  21   2.0000     -10.400314      -283.0069
  22   2.0000     -10.399296      -282.9792
  23   2.0000     -10.382730      -282.5284
  24   2.0000     -10.367965      -282.1267
  25   2.0000     -10.366808      -282.0952
  26   2.0000     -10.360230      -281.9162
  27   2.0000     -10.358077      -281.8576
  28   2.0000     -10.342785      -281.4415
  29   2.0000     -10.341914      -281.4178
  30   2.0000     -10.335407      -281.2407
  31   2.0000     -10.324530      -280.9447
  32   2.0000     -10.323945      -280.9288
  33   2.0000     -10.322689      -280.8946
  34   2.0000     -10.318587      -280.7830
  35   2.0000     -10.317750      -280.7603
  36   2.0000     -10.315346      -280.6948
  37   2.0000     -10.308796      -280.5166
  38   2.0000     -10.307800      -280.4895
  39   2.0000     -10.307473      -280.4806
  40   2.0000     -10.306532      -280.4550
  41   2.0000     -10.304508      -280.3999
  42   2.0000     -10.304317      -280.3947
  43   2.0000     -10.300675      -280.2956
  44   2.0000     -10.299080      -280.2522
  45   2.0000     -10.298429      -280.2345
  46   2.0000     -10.297933      -280.2210
  47   2.0000     -10.295546      -280.1560
  48   2.0000     -10.295506      -280.1550
  49   2.0000     -10.294532      -280.1285
  50   2.0000     -10.292550      -280.0745
  51   2.0000     -10.290615      -280.0219
  52   2.0000     -10.290116      -280.0083
  53   2.0000     -10.289643      -279.9954
  54   2.0000     -10.288400      -279.9616
  55   2.0000     -10.284299      -279.8500
  56   2.0000     -10.283424      -279.8262
  57   2.0000     -10.278363      -279.6885
  58   2.0000     -10.275302      -279.6052
  59   2.0000     -10.274652      -279.5875
  60   2.0000     -10.273122      -279.5459
  61   2.0000     -10.270156      -279.4652
  62   2.0000     -10.268558      -279.4217
  63   2.0000     -10.264717      -279.3172
  64   2.0000     -10.256938      -279.1055
  65   2.0000     -10.256380      -279.0903
  66   2.0000      -8.791942      -239.2409
  67   2.0000      -8.070267      -219.6031
  68   2.0000      -8.057815      -219.2643
  69   2.0000      -8.023450      -218.3292
  70   2.0000      -8.018952      -218.2068
  71   2.0000      -6.628250      -180.3638
  72   2.0000      -6.613689      -179.9676
  73   2.0000      -6.613452      -179.9612
  74   2.0000      -6.039965      -164.3558
  75   2.0000      -6.035686      -164.2394
  76   2.0000      -6.031451      -164.1241
  77   2.0000      -6.027169      -164.0076
  78   2.0000      -6.022893      -163.8912
  79   2.0000      -6.020093      -163.8150
  80   2.0000      -5.993151      -163.0819
  81   2.0000      -5.989129      -162.9725
  82   2.0000      -5.988697      -162.9607
  83   2.0000      -5.984559      -162.8481
  84   2.0000      -5.984409      -162.8441
  85   2.0000      -5.979694      -162.7157
  86   2.0000      -2.744112       -74.6711
  87   2.0000      -2.740023       -74.5598
  88   2.0000      -2.739897       -74.5564
  89   2.0000      -2.728297       -74.2407
  90   2.0000      -2.728282       -74.2403
  91   2.0000      -1.326259       -36.0894
  92   2.0000      -1.229572       -33.4584
  93   2.0000      -1.221408       -33.2362
  94   2.0000      -1.155692       -31.4480
  95   2.0000      -1.140827       -31.0435
  96   2.0000      -1.136225       -30.9183
  97   2.0000      -1.129017       -30.7221
  98   2.0000      -1.043829       -28.4040
  99   2.0000      -1.042632       -28.3715
 100   2.0000      -1.022235       -27.8164
 101   2.0000      -1.012923       -27.5630
 102   2.0000      -0.993839       -27.0437
 103   2.0000      -0.989429       -26.9237
 104   2.0000      -0.984741       -26.7962
 105   2.0000      -0.978245       -26.6194
 106   2.0000      -0.956597       -26.0303
 107   2.0000      -0.946069       -25.7438
 108   2.0000      -0.934329       -25.4244
 109   2.0000      -0.932108       -25.3639
 110   2.0000      -0.926181       -25.2027
 111   2.0000      -0.916522       -24.9398
 112   2.0000      -0.907755       -24.7013
 113   2.0000      -0.896091       -24.3839
 114   2.0000      -0.891021       -24.2459
 115   2.0000      -0.885794       -24.1037
 116   2.0000      -0.884682       -24.0734
 117   2.0000      -0.868464       -23.6321
 118   2.0000      -0.863659       -23.5013
 119   2.0000      -0.840116       -22.8607
 120   2.0000      -0.834248       -22.7011
 121   2.0000      -0.828040       -22.5321
 122   2.0000      -0.822447       -22.3799
 123   2.0000      -0.809572       -22.0296
 124   2.0000      -0.802078       -21.8257
 125   2.0000      -0.792484       -21.5646
 126   2.0000      -0.787489       -21.4287
 127   2.0000      -0.778752       -21.1909
 128   2.0000      -0.774953       -21.0875
 129   2.0000      -0.765015       -20.8171
 130   2.0000      -0.760538       -20.6953
 131   2.0000      -0.752564       -20.4783
 132   2.0000      -0.750518       -20.4226
 133   2.0000      -0.719538       -19.5796
 134   2.0000      -0.715877       -19.4800
 135   2.0000      -0.701882       -19.0992
 136   2.0000      -0.700265       -19.0552
 137   2.0000      -0.693453       -18.8698
 138   2.0000      -0.687680       -18.7127
 139   2.0000      -0.682297       -18.5662
 140   2.0000      -0.672040       -18.2871
 141   2.0000      -0.659975       -17.9588
 142   2.0000      -0.656043       -17.8518
 143   2.0000      -0.650282       -17.6951
 144   2.0000      -0.645639       -17.5687
 145   2.0000      -0.640313       -17.4238
 146   2.0000      -0.638091       -17.3633
 147   2.0000      -0.629746       -17.1363
 148   2.0000      -0.622355       -16.9351
 149   2.0000      -0.620090       -16.8735
 150   2.0000      -0.618408       -16.8277
 151   2.0000      -0.615287       -16.7428
 152   2.0000      -0.607444       -16.5294
 153   2.0000      -0.604139       -16.4395
 154   2.0000      -0.601963       -16.3803
 155   2.0000      -0.596076       -16.2201
 156   2.0000      -0.594655       -16.1814
 157   2.0000      -0.592740       -16.1293
 158   2.0000      -0.589516       -16.0416
 159   2.0000      -0.586304       -15.9541
 160   2.0000      -0.583016       -15.8647
 161   2.0000      -0.573572       -15.6077
 162   2.0000      -0.564901       -15.3717
 163   2.0000      -0.563482       -15.3331
 164   2.0000      -0.559991       -15.2381
 165   2.0000      -0.558156       -15.1882
 166   2.0000      -0.550030       -14.9671
 167   2.0000      -0.546858       -14.8808
 168   2.0000      -0.545110       -14.8332
 169   2.0000      -0.541691       -14.7402
 170   2.0000      -0.540880       -14.7181
 171   2.0000      -0.535364       -14.5680
 172   2.0000      -0.529962       -14.4210
 173   2.0000      -0.523090       -14.2340
 174   2.0000      -0.519863       -14.1462
 175   2.0000      -0.519386       -14.1332
 176   2.0000      -0.516032       -14.0419
 177   2.0000      -0.515451       -14.0261
 178   2.0000      -0.510195       -13.8831
 179   2.0000      -0.507842       -13.8191
 180   2.0000      -0.506943       -13.7946
 181   2.0000      -0.505145       -13.7457
 182   2.0000      -0.504495       -13.7280
 183   2.0000      -0.494869       -13.4661
 184   2.0000      -0.493082       -13.4174
 185   2.0000      -0.492247       -13.3947
 186   2.0000      -0.484436       -13.1822
 187   2.0000      -0.482822       -13.1383
 188   2.0000      -0.481618       -13.1055
 189   2.0000      -0.478829       -13.0296
 190   2.0000      -0.475131       -12.9290
 191   2.0000      -0.472238       -12.8502
 192   2.0000      -0.468610       -12.7515
 193   2.0000      -0.464805       -12.6480
 194   2.0000      -0.462038       -12.5727
 195   2.0000      -0.461698       -12.5634
 196   2.0000      -0.457107       -12.4385
 197   2.0000      -0.456547       -12.4233
 198   2.0000      -0.453700       -12.3458
 199   2.0000      -0.449503       -12.2316
 200   2.0000      -0.448675       -12.2091
 201   2.0000      -0.445719       -12.1286
 202   2.0000      -0.444931       -12.1072
 203   2.0000      -0.443647       -12.0723
 204   2.0000      -0.440854       -11.9963
 205   2.0000      -0.438227       -11.9248
 206   2.0000      -0.435968       -11.8633
 207   2.0000      -0.428433       -11.6583
 208   2.0000      -0.425924       -11.5900
 209   2.0000      -0.424004       -11.5377
 210   2.0000      -0.423469       -11.5232
 211   2.0000      -0.416150       -11.3240
 212   2.0000      -0.415411       -11.3039
 213   2.0000      -0.413758       -11.2589
 214   2.0000      -0.408226       -11.1084
 215   2.0000      -0.404292       -11.0014
 216   2.0000      -0.398777       -10.8513
 217   2.0000      -0.393763       -10.7148
 218   2.0000      -0.389345       -10.5946
 219   2.0000      -0.383465       -10.4346
 220   2.0000      -0.382896       -10.4191
 221   2.0000      -0.376977       -10.2581
 222   2.0000      -0.374139       -10.1808
 223   2.0000      -0.373379       -10.1601
 224   2.0000      -0.372567       -10.1381
 225   2.0000      -0.371985       -10.1222
 226   2.0000      -0.370516       -10.0823
 227   2.0000      -0.359872        -9.7926
 228   2.0000      -0.355919        -9.6850
 229   2.0000      -0.345171        -9.3926
 230   2.0000      -0.342258        -9.3133
 231   2.0000      -0.337681        -9.1888
 232   2.0000      -0.323212        -8.7950
 233   2.0000      -0.318753        -8.6737
 234   2.0000      -0.313560        -8.5324
 235   2.0000      -0.312450        -8.5022
 236   2.0000      -0.305586        -8.3154
 237   2.0000      -0.296012        -8.0549
 238   2.0000      -0.292583        -7.9616
 239   2.0000      -0.265690        -7.2298
 240   2.0000      -0.251672        -6.8483
 241   2.0000      -0.188763        -5.1365
 242   0.0000      -0.099539        -2.7086
 243   0.0000      -0.069389        -1.8882
 244   0.0000      -0.061333        -1.6690
 245   0.0000      -0.054536        -1.4840
 246   0.0000      -0.046838        -1.2745

MULLIKEN ATOMIC CHARGES
-----------------------
   0 C :    0.305182
   1 C :   -0.347158
   2 C :   -0.184994
   3 N :    0.150153
   4 C :   -0.192162
   5 N :    0.158426
   6 C :    0.021851
   7 C :   -0.012297
   8 C :   -0.061518
   9 C :    0.116417
  10 C :   -0.088768
  11 C :   -0.022766
  12 S :    0.186037
  13 C :   -0.122753
  14 C :    0.039085
  15 Br:    0.023771
  16 C :    0.154277
  17 O :   -0.146299
  18 C :   -0.076526
  19 C :   -0.031564
  20 C :    0.115426
  21 O :   -0.199586
  22 C :   -0.011510
  23 C :    0.179912
  24 O :   -0.143233
  25 N :   -0.162018
  26 C :    0.166144
  27 O :   -0.141964
  28 C :   -0.051890
  29 C :    0.110548
  30 C :   -0.056259
  31 C :    0.054089
  32 C :   -0.010765
  33 C :   -0.153526
  34 C :    0.095773
  35 C :    0.192675
  36 N :   -0.141985
  37 C :    0.059726
  38 C :   -0.072271
  39 C :    0.012209
  40 C :   -0.048030
  41 C :    0.047315
  42 C :    0.010861
  43 C :   -0.030953
  44 S :    0.051264
  45 C :   -0.049136
  46 C :    0.038923
  47 C :    0.014529
  48 C :   -0.018980
  49 S :    0.071235
  50 C :    0.025619
  51 C :   -0.218355
  52 S :    0.136900
  53 C :   -0.146705
  54 C :    0.127250
  55 C :    0.186743
  56 O :   -0.194588
  57 C :    0.241632
  58 N :    0.287509
  59 O :   -0.253568
  60 O :   -0.233480
  61 C :   -0.081026
  62 H :   -0.009250
  63 H :   -0.007300
  64 H :   -0.002717
  65 H :    0.033543
  66 H :    0.138957
  67 H :    0.009517
  68 H :    0.012601
  69 H :   -0.026750
  70 H :    0.006070
  71 H :    0.034415
  72 H :    0.041186
  73 H :    0.015469
  74 H :    0.038567
  75 H :    0.125635
  76 H :    0.005510
  77 H :    0.014083
  78 H :   -0.022445
  79 H :   -0.019993
  80 H :   -0.021964
  81 H :   -0.019940
  82 H :   -0.022207
  83 H :   -0.031987
  84 H :    0.024086
  85 H :    0.010068
Sum of atomic charges:   -0.0000000

LOEWDIN ATOMIC CHARGES
----------------------
   0 C :    0.074679
   1 C :   -0.137069
   2 C :   -0.017847
   3 N :   -0.051790
   4 C :   -0.021482
   5 N :   -0.049589
   6 C :   -0.019443
   7 C :   -0.044562
   8 C :    0.026103
   9 C :   -0.031026
  10 C :   -0.142797
  11 C :   -0.009920
  12 S :    0.432082
  13 C :   -0.270798
  14 C :   -0.069790
  15 Br:    0.137285
  16 C :    0.088708
  17 O :   -0.132692
  18 C :   -0.072832
  19 C :    0.048369
  20 C :    0.043536
  21 O :    0.020949
  22 C :   -0.048898
  23 C :    0.089724
  24 O :   -0.149558
  25 N :   -0.001548
  26 C :    0.086308
  27 O :   -0.159374
  28 C :   -0.105068
  29 C :    0.090238
  30 C :   -0.058361
  31 C :    0.029742
  32 C :   -0.065267
  33 C :    0.004194
  34 C :   -0.055293
  35 C :    0.049786
  36 N :    0.010510
  37 C :    0.049308
  38 C :   -0.135047
  39 C :   -0.023739
  40 C :   -0.179134
  41 C :   -0.023525
  42 C :   -0.055234
  43 C :   -0.162313
  44 S :    0.374127
  45 C :   -0.208120
  46 C :   -0.026034
  47 C :   -0.056379
  48 C :   -0.135054
  49 S :    0.389911
  50 C :   -0.117764
  51 C :   -0.188338
  52 S :    0.464870
  53 C :   -0.205677
  54 C :   -0.081719
  55 C :    0.001101
  56 O :   -0.002841
  57 C :    0.019591
  58 N :    0.279972
  59 O :   -0.213853
  60 O :   -0.198572
  61 C :   -0.005181
  62 H :    0.041998
  63 H :    0.040821
  64 H :    0.039167
  65 H :    0.051744
  66 H :    0.095239
  67 H :    0.043892
  68 H :    0.033956
  69 H :    0.024319
  70 H :    0.027422
  71 H :    0.040963
  72 H :    0.039822
  73 H :    0.030083
  74 H :    0.039300
  75 H :    0.081455
  76 H :    0.030036
  77 H :    0.016252
  78 H :    0.029442
  79 H :    0.030582
  80 H :    0.028357
  81 H :    0.029616
  82 H :    0.028278
  83 H :    0.029052
  84 H :    0.025226
  85 H :    0.045416

  Mayer bond orders larger than 0.100000
B(  0-C ,  1-C ) :   1.6312 B(  0-C ,  6-C ) :   1.0100 B(  0-C , 18-C ) :   1.0822
B(  1-C ,  2-C ) :   1.1447 B(  1-C ,  4-C ) :   1.1440 B(  2-C ,  3-N ) :   2.9666
B(  4-C ,  5-N ) :   2.9773 B(  6-C ,  7-C ) :   1.2734 B(  6-C , 11-C ) :   1.4036
B(  7-C ,  8-C ) :   1.4263 B(  7-C , 16-C ) :   0.9402 B(  8-C ,  9-C ) :   1.2481
B(  8-C , 62-H ) :   1.0158 B(  9-C , 10-C ) :   1.3039 B(  9-C , 14-C ) :   1.1614
B( 10-C , 11-C ) :   1.3351 B( 10-C , 12-S ) :   1.0851 B( 11-C , 63-H ) :   0.9795
B( 12-S , 13-C ) :   1.0856 B( 13-C , 14-C ) :   1.6190 B( 13-C , 15-Br) :   1.0188
B( 14-C , 64-H ) :   1.0004 B( 16-C , 17-O ) :   2.2242 B( 16-C , 18-C ) :   0.9281
B( 18-C , 19-C ) :   1.5984 B( 19-C , 20-C ) :   1.1662 B( 19-C , 65-H ) :   0.9349
B( 20-C , 21-O ) :   1.1182 B( 20-C , 22-C ) :   1.4337 B( 21-O , 29-C ) :   1.1782
B( 22-C , 23-C ) :   0.8650 B( 22-C , 28-C ) :   1.3172 B( 23-C , 24-O ) :   2.2382
B( 23-C , 25-N ) :   1.0915 B( 25-N , 26-C ) :   1.0743 B( 25-N , 66-H ) :   0.9148
B( 26-C , 27-O ) :   2.2687 B( 26-C , 28-C ) :   0.8818 B( 28-C , 29-C ) :   1.3552
B( 29-C , 30-C ) :   1.1576 B( 30-C , 31-C ) :   1.6425 B( 30-C , 67-H ) :   0.9694
B( 31-C , 32-C ) :   1.1020 B( 31-C , 68-H ) :   0.9807 B( 32-C , 33-C ) :   1.7294
B( 32-C , 69-H ) :   0.9757 B( 33-C , 34-C ) :   1.0933 B( 33-C , 35-C ) :   1.0401
B( 34-C , 70-H ) :   0.9443 B( 34-C , 71-H ) :   0.9329 B( 34-C , 72-H ) :   0.9166
B( 35-C , 36-N ) :   0.9919 B( 35-C , 73-H ) :   0.9418 B( 35-C , 74-H ) :   0.9236
B( 36-N , 37-C ) :   1.2425 B( 36-N , 75-H ) :   0.9382 B( 37-C , 38-C ) :   1.5836
B( 37-C , 76-H ) :   0.9652 B( 38-C , 39-C ) :   1.1753 B( 38-C , 77-H ) :   0.9552
B( 39-C , 40-C ) :   1.5656 B( 39-C , 78-H ) :   0.9854 B( 40-C , 41-C ) :   1.1570
B( 40-C , 44-S ) :   1.0117 B( 41-C , 42-C ) :   1.5733 B( 41-C , 79-H ) :   0.9971
B( 42-C , 43-C ) :   1.1988 B( 42-C , 80-H ) :   0.9952 B( 43-C , 44-S ) :   1.0704
B( 43-C , 45-C ) :   1.4764 B( 45-C , 46-C ) :   1.2083 B( 45-C , 49-S ) :   1.0219
B( 46-C , 47-C ) :   1.5700 B( 46-C , 81-H ) :   0.9930 B( 47-C , 48-C ) :   1.1546
B( 47-C , 82-H ) :   0.9999 B( 48-C , 49-S ) :   1.0612 B( 48-C , 50-C ) :   1.5742
B( 50-C , 51-C ) :   1.1607 B( 50-C , 83-H ) :   0.9437 B( 51-C , 52-S ) :   1.1371
B( 51-C , 53-C ) :   0.1073 B( 51-C , 55-C ) :   1.4199 B( 52-S , 53-C ) :   1.1652
B( 53-C , 54-C ) :   1.4322 B( 53-C , 84-H ) :   0.9764 B( 54-C , 55-C ) :   1.2301
B( 54-C , 61-C ) :   1.0723 B( 55-C , 56-O ) :   1.0751 B( 56-O , 57-C ) :   1.1281
B( 57-C , 58-N ) :   0.9295 B( 57-C , 61-C ) :   1.5523 B( 58-N , 59-O ) :   1.5301
B( 58-N , 60-O ) :   1.4674 B( 59-O , 60-O ) :   0.2667 B( 61-C , 85-H ) :   1.0246

-----------------------------------------------------------------------------
         ABSORPTION SPECTRUM VIA TRANSITION ELECTRIC DIPOLE MOMENTS
-----------------------------------------------------------------------------
State   Energy  Wavelength   fosc         T2         TX        TY        TZ
        (cm-1)    (nm)                  (au**2)     (au)      (au)      (au)
-----------------------------------------------------------------------------
   0    9720.4   1028.8   0.079119634   2.67964   0.91324  -1.11285  -0.77923
   1   10465.4    955.5   0.038052601   1.19703   0.51463   0.96130  -0.08997
   2   15134.0    660.8   0.770516028  16.76118   3.13191  -2.30464  -1.28099
   3   18972.7    527.1   0.487139307   8.45276  -0.26077   2.84002  -0.56486
   4   19304.0    518.0   0.377308903   6.43465  -0.52952   2.12920  -1.27309
   5   20502.2    487.8   0.025649018   0.41186  -0.17976  -0.59994  -0.14007
   6   23317.4    428.9   0.040435050   0.57089  -0.26524  -0.59895  -0.37655
   7   24175.9    413.6   0.011845915   0.16131   0.35287   0.09740   0.16525
   8   25153.3    397.6   0.002038741   0.02668  -0.16263   0.00879  -0.01250
   9   25467.1    392.7   0.152830297   1.97563  -0.45581  -1.32330  -0.12940
  10   26081.8    383.4   0.038459111   0.48544  -0.23950  -0.03982  -0.65307
  11   27600.8    362.3   0.225784860   2.69307   0.66030   1.44397   0.41478
  12   28349.1    352.7   0.013521307   0.15702  -0.09228  -0.13770  -0.35992
  13   28604.4    349.6   1.255744368  14.45253   3.25026   1.83917   0.71118
  14   29496.2    339.0   0.096458594   1.07659   0.72759   0.52054   0.52560
  15   30442.3    328.5   0.020245608   0.21894   0.26548   0.36977  -0.10833
  16   30880.5    323.8   0.389287683   4.15013   0.72017   1.80554  -0.60952
  17   31350.3    319.0   0.036616274   0.38451  -0.31301  -0.52928   0.07996
  18   31861.0    313.9   0.047866809   0.49460   0.12680  -0.69175   0.00028
  19   31868.0    313.8   0.007690737   0.07945  -0.08689   0.26430  -0.04525
  20   32320.4    309.4   0.467619705   4.76313  -0.72772  -1.93889  -0.68866
  21   32468.2    308.0   0.032586435   0.33041  -0.35687   0.01271   0.45043
  22   32787.3    305.0   0.156398140   1.57037   0.92792   0.55652   0.63215
  23   33008.7    303.0   0.073465546   0.73271   0.16591   0.69308   0.47415
  24   33239.4    300.8   0.047668342   0.47212   0.65398  -0.21072  -0.00499
  25   33957.0    294.5   0.167463179   1.62355   1.24195  -0.25648   0.12384
  26   34091.5    293.3   0.022095707   0.21337   0.45561   0.07403  -0.01770
  27   34259.3    291.9   0.038236082   0.36743  -0.60128   0.05341   0.05508
  28   34442.0    290.3   0.017006146   0.16255   0.37325  -0.14652  -0.04205
  29   34906.9    286.5   0.321576855   3.03284  -1.42254   0.96487   0.27971
  30   35204.9    284.1   0.001807228   0.01690  -0.11644   0.05355  -0.02179
  31   35417.8    282.3   0.046951299   0.43642  -0.64311  -0.09287  -0.11919
  32   35597.1    280.9   0.000383707   0.00355   0.05470  -0.02129   0.01016
  33   36017.1    277.6   0.111582606   1.01991  -0.74740   0.64365   0.21683
  34   36364.7    275.0   0.000894422   0.00810   0.05241   0.07278  -0.00735
  35   36762.1    272.0   0.285836195   2.55972  -0.96974   0.72817  -1.04359
  36   37235.3    268.6   0.001168176   0.01033  -0.08772  -0.02633   0.04405
  37   38001.5    263.1   0.011154567   0.09663   0.08760   0.28148   0.09864
  38   38484.0    259.8   0.009729565   0.08323  -0.09735   0.14742  -0.22808
  39   38643.2    258.8   0.044003555   0.37488   0.38036  -0.47809  -0.04035
  40   38768.9    257.9   0.082856456   0.70359  -0.19811   0.04100  -0.81404
  41   39339.8    254.2   0.016705526   0.13980  -0.29535   0.20151   0.10938
  42   39499.1    253.2   0.030136461   0.25118   0.18869  -0.45698   0.08212
  43   39716.2    251.8   0.001459474   0.01210  -0.03154  -0.08547   0.06163
  44   39991.4    250.1   0.007378075   0.06074   0.13391   0.20554  -0.02359
  45   40031.1    249.8   0.014581259   0.11991   0.34470  -0.03045  -0.01304
  46   40096.5    249.4   0.022764040   0.18690  -0.04833   0.38797   0.18452
  47   40132.9    249.2   0.008177841   0.06708   0.23932   0.03277  -0.09346

FINAL SINGLE POINT ENERGY     -6692.448263197419

DIPOLE MOMENT
-------------
                                X             Y             Z
Electronic contribution:    -61.75705    -182.77732      25.99891
Nuclear contribution   :     61.40624     183.79993     -27.47454
                        -----------------------------------------
Total Dipole Moment    :     -0.35080       1.02260      -1.47563
                        -----------------------------------------
Magnitude (a.u.)       :      1.82928
Magnitude (Debye)      :      4.64965

Rotational constants in cm-1:     0.001333     0.000338     0.000294
Rotational constants in MHz :    39.957072    10.146252     8.821330

                             ****ORCA TERMINATED NORMALLY****
TOTAL RUN TIME: 0 days 0 hours 7 minutes 37 seconds 725 msec
