                         Program Version 4.2.0 -  RELEASE  -
|  1> # ORCA input file
|  2> # SCF done       -154.572370588042          0.000480833688
|  3> ! CAM-B3LYP def2-SVP def2/J RIJCOSX Grid4 TightSCF
|  4> %maxcore 5000
|  5> %tddft
|  6>     Mode sTDDFT
|  7>     Ethresh 5.0
|  8>     maxcore 5000
|  9> end
| 10>
| 11> %pal
| 12>   nprocs 6
| 13>   end
| 14> * xyz 0 1
| 15>    C       -0.41822        -5.08499       -10.27528
| 16>    C        0.58737        -4.75286        -9.45034
| 17>    C        1.09877        -3.44613        -9.16783
| 18>    C        2.13265        -3.42852        -8.29125
| 19>    C        2.51939        -4.70550        -7.81508
| 20>    S        1.50774        -5.94827        -8.52280
| 21>    C        3.54506        -4.99545        -6.93419
| 22>    C        4.43300        -4.09353        -6.31687
| 23>    C        5.36159        -4.69669        -5.51284
| 24>    C        5.25527        -6.09606        -5.45347
| 25>    S        3.91944        -6.63710        -6.45002
| 26>    C        6.08480        -6.95805        -4.74814
| 27>    C        5.97229        -8.33087        -4.71932
| 28>    C        6.86411        -9.17330        -4.06239
| 29>    C        6.83970       -10.57380        -4.01741
| 30>    C        7.89628       -11.13445        -3.34168
| 31>    C        8.79772       -10.19497        -2.82488
| 32>    S        8.26074        -8.57307        -3.19292
| 33>    C       10.00034       -10.41838        -2.15759
| 34>    C       10.62302       -11.64302        -1.87101
| 35>    C       11.85655       -11.51222        -1.28797
| 36>    C       12.25712       -10.18008        -1.07610
| 37>    S       10.99883        -9.08789        -1.62585
| 38>    C       13.46457        -9.72303        -0.57987
| 39>    C       13.76008        -8.37382        -0.40067
| 40>    C       15.00075        -7.88533        -0.07575
| 41>    C       15.26795        -6.51737         0.08560
| 42>    O       16.55241        -6.08511         0.21678
| 43>    C       16.54637        -4.73108         0.33855
| 44>    C       15.22414        -4.28413         0.31014
| 45>    C       14.41008        -5.40929         0.13654
| 46>    O       13.06177        -5.42327         0.04586
| 47>    O       14.74337        -3.01140         0.40913
| 48>    C       17.74212        -3.98350         0.38982
| 49>    C       18.99069        -4.50672         0.23929
| 50>    C       20.15620        -3.71503         0.18293
| 51>    C       21.39154        -4.20606        -0.10430
| 52>    C       22.54459        -3.40835        -0.26520
| 53>    S       22.48840        -1.67724        -0.00249
| 54>    C       24.15831        -1.49745        -0.44095
| 55>    N       24.71577        -0.26164        -0.51257
| 56>    C       23.98607         0.89010        -0.04765
| 57>    C       24.74574        -2.71500        -0.75596
| 58>    C       23.82673        -3.79700        -0.62470
| 59>    C       24.18321        -5.21816        -0.74937
| 60>    O       23.44789        -6.10155        -1.11975
| 61>    O       25.44496        -5.44728        -0.33887
| 62>    C       25.88913        -6.78961        -0.43442
| 63>    C       26.08142        -2.81759        -1.29440
| 64>    S       26.47096        -3.95780        -2.56214
| 65>    C       28.10188        -3.42289        -2.70969
| 66>    C       28.34934        -2.40344        -1.83700
| 67>    C       27.20215        -2.06714        -1.05595
| 68>    O       27.49818        -1.04462        -0.20045
| 69>    C       28.81145        -0.73985        -0.43687
| 70>    C       29.37606        -1.50638        -1.39262
| 71>    H       -0.95055        -4.32725       -10.82247
| 72>    H       -0.72105        -6.10610       -10.41555
| 73>    H        0.67258        -2.57560        -9.63394
| 74>    H        2.63641        -2.53407        -7.96958
| 75>    H        4.37396        -3.03234        -6.47871
| 76>    H        6.12282        -4.16857        -4.96548
| 77>    H        6.89382        -6.49982        -4.19207
| 78>    H        5.15601        -8.79864        -5.25511
| 79>    H        6.05580       -11.13969        -4.48955
| 80>    H        8.03899       -12.19313        -3.21846
| 81>    H       10.16616       -12.58664        -2.11076
| 82>    H       12.48648       -12.34012        -1.01309
| 83>    H       14.21914       -10.46374        -0.34897
| 84>    H       12.95938        -7.66423        -0.55686
| 85>    H       15.84365        -8.55412         0.02665
| 86>    H       12.74931        -4.51248         0.12825
| 87>    H       15.47963        -2.40006         0.51437
| 88>    H       17.63068        -2.91226         0.50824
| 89>    H       19.09279        -5.57417         0.10779
| 90>    H       20.04253        -2.64672         0.33237
| 91>    H       21.52463        -5.26419        -0.27875
| 92>    H       25.71806        -0.22964        -0.38164
| 93>    H       23.03291         0.94756        -0.57554
| 94>    H       24.56501         1.78461        -0.26409
| 95>    H       23.77857         0.84686         1.02804
| 96>    H       25.88676        -7.11386        -1.47727
| 97>    H       25.23523        -7.44872         0.14016
| 98>    H       26.89893        -6.80418        -0.03254
| 99>    H       28.75447        -3.89569        -3.41372
|100>    H       29.21735         0.05466         0.15947
|101>    H       30.38516        -1.45380        -1.74480
|102> *
|103>
|104>                          ****END OF INPUT****

CARTESIAN COORDINATES (ANGSTROEM)
---------------------------------
  C     -0.418220   -5.084990  -10.275280
  C      0.587370   -4.752860   -9.450340
  C      1.098770   -3.446130   -9.167830
  C      2.132650   -3.428520   -8.291250
  C      2.519390   -4.705500   -7.815080
  S      1.507740   -5.948270   -8.522800
  C      3.545060   -4.995450   -6.934190
  C      4.433000   -4.093530   -6.316870
  C      5.361590   -4.696690   -5.512840
  C      5.255270   -6.096060   -5.453470
  S      3.919440   -6.637100   -6.450020
  C      6.084800   -6.958050   -4.748140
  C      5.972290   -8.330870   -4.719320
  C      6.864110   -9.173300   -4.062390
  C      6.839700  -10.573800   -4.017410
  C      7.896280  -11.134450   -3.341680
  C      8.797720  -10.194970   -2.824880
  S      8.260740   -8.573070   -3.192920
  C     10.000340  -10.418380   -2.157590
  C     10.623020  -11.643020   -1.871010
  C     11.856550  -11.512220   -1.287970
  C     12.257120  -10.180080   -1.076100
  S     10.998830   -9.087890   -1.625850
  C     13.464570   -9.723030   -0.579870
  C     13.760080   -8.373820   -0.400670
  C     15.000750   -7.885330   -0.075750
  C     15.267950   -6.517370    0.085600
  O     16.552410   -6.085110    0.216780
  C     16.546370   -4.731080    0.338550
  C     15.224140   -4.284130    0.310140
  C     14.410080   -5.409290    0.136540
  O     13.061770   -5.423270    0.045860
  O     14.743370   -3.011400    0.409130
  C     17.742120   -3.983500    0.389820
  C     18.990690   -4.506720    0.239290
  C     20.156200   -3.715030    0.182930
  C     21.391540   -4.206060   -0.104300
  C     22.544590   -3.408350   -0.265200
  S     22.488400   -1.677240   -0.002490
  C     24.158310   -1.497450   -0.440950
  N     24.715770   -0.261640   -0.512570
  C     23.986070    0.890100   -0.047650
  C     24.745740   -2.715000   -0.755960
  C     23.826730   -3.797000   -0.624700
  C     24.183210   -5.218160   -0.749370
  O     23.447890   -6.101550   -1.119750
  O     25.444960   -5.447280   -0.338870
  C     25.889130   -6.789610   -0.434420
  C     26.081420   -2.817590   -1.294400
  S     26.470960   -3.957800   -2.562140
  C     28.101880   -3.422890   -2.709690
  C     28.349340   -2.403440   -1.837000
  C     27.202150   -2.067140   -1.055950
  O     27.498180   -1.044620   -0.200450
  C     28.811450   -0.739850   -0.436870
  C     29.376060   -1.506380   -1.392620
  H     -0.950550   -4.327250  -10.822470
  H     -0.721050   -6.106100  -10.415550
  H      0.672580   -2.575600   -9.633940
  H      2.636410   -2.534070   -7.969580
  H      4.373960   -3.032340   -6.478710
  H      6.122820   -4.168570   -4.965480
  H      6.893820   -6.499820   -4.192070
  H      5.156010   -8.798640   -5.255110
  H      6.055800  -11.139690   -4.489550
  H      8.038990  -12.193130   -3.218460
  H     10.166160  -12.586640   -2.110760
  H     12.486480  -12.340120   -1.013090
  H     14.219140  -10.463740   -0.348970
  H     12.959380   -7.664230   -0.556860
  H     15.843650   -8.554120    0.026650
  H     12.749310   -4.512480    0.128250
  H     15.479630   -2.400060    0.514370
  H     17.630680   -2.912260    0.508240
  H     19.092790   -5.574170    0.107790
  H     20.042530   -2.646720    0.332370
  H     21.524630   -5.264190   -0.278750
  H     25.718060   -0.229640   -0.381640
  H     23.032910    0.947560   -0.575540
  H     24.565010    1.784610   -0.264090
  H     23.778570    0.846860    1.028040
  H     25.886760   -7.113860   -1.477270
  H     25.235230   -7.448720    0.140160
  H     26.898930   -6.804180   -0.032540
  H     28.754470   -3.895690   -3.413720
  H     29.217350    0.054660    0.159470
  H     30.385160   -1.453800   -1.744800

 Total Charge           Charge          ....    0
 Multiplicity           Mult            ....    1
 Number of Electrons    NEL             ....  440
 Basis Dimension        Dim             ....  963

ORBITAL ENERGIES
----------------

  NO   OCC          E(Eh)            E(eV)
   0   2.0000     -88.952252     -2420.5138
   1   2.0000     -88.948538     -2420.4128
   2   2.0000     -88.931322     -2419.9443
   3   2.0000     -88.930655     -2419.9262
   4   2.0000     -88.930208     -2419.9140
   5   2.0000     -88.925334     -2419.7814
   6   2.0000     -19.287079      -524.8281
   7   2.0000     -19.274793      -524.4938
   8   2.0000     -19.259970      -524.0904
   9   2.0000     -19.252039      -523.8746
  10   2.0000     -19.246434      -523.7221
  11   2.0000     -19.192905      -522.2655
  12   2.0000     -14.428803      -392.6277
  13   2.0000     -10.390407      -282.7373
  14   2.0000     -10.335098      -281.2323
  15   2.0000     -10.333437      -281.1871
  16   2.0000     -10.327869      -281.0356
  17   2.0000     -10.326245      -280.9914
  18   2.0000     -10.321288      -280.8565
  19   2.0000     -10.319568      -280.8097
  20   2.0000     -10.318092      -280.7696
  21   2.0000     -10.311088      -280.5790
  22   2.0000     -10.305377      -280.4236
  23   2.0000     -10.297539      -280.2103
  24   2.0000     -10.297216      -280.2015
  25   2.0000     -10.295714      -280.1606
  26   2.0000     -10.294684      -280.1326
  27   2.0000     -10.294285      -280.1217
  28   2.0000     -10.294006      -280.1141
  29   2.0000     -10.293327      -280.0957
  30   2.0000     -10.291921      -280.0574
  31   2.0000     -10.290209      -280.0108
  32   2.0000     -10.289679      -279.9964
  33   2.0000     -10.285861      -279.8925
  34   2.0000     -10.277673      -279.6697
  35   2.0000     -10.276085      -279.6265
  36   2.0000     -10.275829      -279.6195
  37   2.0000     -10.275554      -279.6120
  38   2.0000     -10.272640      -279.5327
  39   2.0000     -10.272636      -279.5326
  40   2.0000     -10.272458      -279.5278
  41   2.0000     -10.272179      -279.5202
  42   2.0000     -10.271192      -279.4933
  43   2.0000     -10.270884      -279.4850
  44   2.0000     -10.270222      -279.4670
  45   2.0000     -10.269611      -279.4503
  46   2.0000     -10.269439      -279.4456
  47   2.0000     -10.267869      -279.4029
  48   2.0000     -10.266974      -279.3786
  49   2.0000     -10.265979      -279.3515
  50   2.0000     -10.265795      -279.3465
  51   2.0000     -10.265103      -279.3277
  52   2.0000     -10.263887      -279.2946
  53   2.0000     -10.263295      -279.2785
  54   2.0000     -10.259574      -279.1772
  55   2.0000     -10.255871      -279.0764
  56   2.0000      -8.048078      -218.9993
  57   2.0000      -8.043374      -218.8713
  58   2.0000      -8.027619      -218.4426
  59   2.0000      -8.027024      -218.4264
  60   2.0000      -8.026455      -218.4110
  61   2.0000      -8.021976      -218.2891
  62   2.0000      -6.017488      -163.7442
  63   2.0000      -6.013415      -163.6333
  64   2.0000      -6.012876      -163.6187
  65   2.0000      -6.009804      -163.5351
  66   2.0000      -6.008472      -163.4988
  67   2.0000      -6.005469      -163.4171
  68   2.0000      -5.997246      -163.1934
  69   2.0000      -5.996667      -163.1776
  70   2.0000      -5.996133      -163.1631
  71   2.0000      -5.993256      -163.0848
  72   2.0000      -5.992682      -163.0692
  73   2.0000      -5.992178      -163.0555
  74   2.0000      -5.991799      -163.0451
  75   2.0000      -5.988744      -162.9620
  76   2.0000      -5.988052      -162.9432
  77   2.0000      -5.987858      -162.9379
  78   2.0000      -5.987454      -162.9269
  79   2.0000      -5.982568      -162.7940
  80   2.0000      -1.199142       -32.6303
  81   2.0000      -1.194337       -32.4996
  82   2.0000      -1.179707       -32.1015
  83   2.0000      -1.152837       -31.3703
  84   2.0000      -1.136383       -30.9225
  85   2.0000      -1.085024       -29.5250
  86   2.0000      -1.040867       -28.3234
  87   2.0000      -0.981547       -26.7093
  88   2.0000      -0.978120       -26.6160
  89   2.0000      -0.975012       -26.5314
  90   2.0000      -0.960810       -26.1450
  91   2.0000      -0.960121       -26.1262
  92   2.0000      -0.954906       -25.9843
  93   2.0000      -0.910781       -24.7836
  94   2.0000      -0.899180       -24.4679
  95   2.0000      -0.892580       -24.2883
  96   2.0000      -0.888066       -24.1655
  97   2.0000      -0.878258       -23.8986
  98   2.0000      -0.871217       -23.7070
  99   2.0000      -0.859854       -23.3978
 100   2.0000      -0.853193       -23.2166
 101   2.0000      -0.848003       -23.0753
 102   2.0000      -0.836844       -22.7717
 103   2.0000      -0.829740       -22.5784
 104   2.0000      -0.828627       -22.5481
 105   2.0000      -0.822845       -22.3908
 106   2.0000      -0.818074       -22.2609
 107   2.0000      -0.805991       -21.9321
 108   2.0000      -0.804696       -21.8969
 109   2.0000      -0.799245       -21.7485
 110   2.0000      -0.792058       -21.5530
 111   2.0000      -0.785501       -21.3746
 112   2.0000      -0.776457       -21.1285
 113   2.0000      -0.760270       -20.6880
 114   2.0000      -0.743132       -20.2217
 115   2.0000      -0.728052       -19.8113
 116   2.0000      -0.715927       -19.4814
 117   2.0000      -0.706765       -19.2321
 118   2.0000      -0.702014       -19.1028
 119   2.0000      -0.692557       -18.8454
 120   2.0000      -0.686902       -18.6915
 121   2.0000      -0.680948       -18.5295
 122   2.0000      -0.672146       -18.2900
 123   2.0000      -0.667501       -18.1636
 124   2.0000      -0.660391       -17.9701
 125   2.0000      -0.658874       -17.9289
 126   2.0000      -0.646163       -17.5830
 127   2.0000      -0.639394       -17.3988
 128   2.0000      -0.626936       -17.0598
 129   2.0000      -0.626531       -17.0488
 130   2.0000      -0.619066       -16.8457
 131   2.0000      -0.616247       -16.7689
 132   2.0000      -0.610836       -16.6217
 133   2.0000      -0.608185       -16.5496
 134   2.0000      -0.605770       -16.4839
 135   2.0000      -0.603650       -16.4261
 136   2.0000      -0.602098       -16.3839
 137   2.0000      -0.593196       -16.1417
 138   2.0000      -0.588241       -16.0069
 139   2.0000      -0.584173       -15.8962
 140   2.0000      -0.581696       -15.8288
 141   2.0000      -0.579432       -15.7671
 142   2.0000      -0.567583       -15.4447
 143   2.0000      -0.558933       -15.2093
 144   2.0000      -0.555449       -15.1145
 145   2.0000      -0.554756       -15.0957
 146   2.0000      -0.551743       -15.0137
 147   2.0000      -0.545936       -14.8557
 148   2.0000      -0.542397       -14.7594
 149   2.0000      -0.539469       -14.6797
 150   2.0000      -0.536772       -14.6063
 151   2.0000      -0.531769       -14.4702
 152   2.0000      -0.527200       -14.3458
 153   2.0000      -0.517161       -14.0727
 154   2.0000      -0.515875       -14.0377
 155   2.0000      -0.512729       -13.9521
 156   2.0000      -0.505408       -13.7528
 157   2.0000      -0.504983       -13.7413
 158   2.0000      -0.501802       -13.6547
 159   2.0000      -0.499408       -13.5896
 160   2.0000      -0.494191       -13.4476
 161   2.0000      -0.492507       -13.4018
 162   2.0000      -0.486022       -13.2253
 163   2.0000      -0.484964       -13.1965
 164   2.0000      -0.483042       -13.1443
 165   2.0000      -0.481317       -13.0973
 166   2.0000      -0.480529       -13.0758
 167   2.0000      -0.480444       -13.0735
 168   2.0000      -0.479707       -13.0535
 169   2.0000      -0.478893       -13.0313
 170   2.0000      -0.477429       -12.9915
 171   2.0000      -0.472358       -12.8535
 172   2.0000      -0.467957       -12.7338
 173   2.0000      -0.467066       -12.7095
 174   2.0000      -0.462694       -12.5905
 175   2.0000      -0.460434       -12.5290
 176   2.0000      -0.456453       -12.4207
 177   2.0000      -0.455908       -12.4059
 178   2.0000      -0.452007       -12.2997
 179   2.0000      -0.449401       -12.2288
 180   2.0000      -0.448899       -12.2152
 181   2.0000      -0.444962       -12.1080
 182   2.0000      -0.443236       -12.0611
 183   2.0000      -0.441543       -12.0150
 184   2.0000      -0.440361       -11.9828
 185   2.0000      -0.437766       -11.9122
 186   2.0000      -0.432228       -11.7615
 187   2.0000      -0.421443       -11.4680
 188   2.0000      -0.419673       -11.4199
 189   2.0000      -0.417668       -11.3653
 190   2.0000      -0.416142       -11.3238
 191   2.0000      -0.413590       -11.2544
 192   2.0000      -0.408951       -11.1281
 193   2.0000      -0.408199       -11.1077
 194   2.0000      -0.404424       -11.0049
 195   2.0000      -0.403811       -10.9883
 196   2.0000      -0.402029       -10.9398
 197   2.0000      -0.388749       -10.5784
 198   2.0000      -0.386201       -10.5091
 199   2.0000      -0.379907       -10.3378
 200   2.0000      -0.379191       -10.3183
 201   2.0000      -0.374388       -10.1876
 202   2.0000      -0.362681        -9.8691
 203   2.0000      -0.358170        -9.7463
 204   2.0000      -0.343037        -9.3345
 205   2.0000      -0.335806        -9.1377
 206   2.0000      -0.325947        -8.8695
 207   2.0000      -0.324051        -8.8179
 208   2.0000      -0.322684        -8.7807
 209   2.0000      -0.320309        -8.7161
 210   2.0000      -0.311814        -8.4849
 211   2.0000      -0.306497        -8.3402
 212   2.0000      -0.297853        -8.1050
 213   2.0000      -0.296334        -8.0637
 214   2.0000      -0.287353        -7.8193
 215   2.0000      -0.271350        -7.3838
 216   2.0000      -0.252786        -6.8787
 217   2.0000      -0.229963        -6.2576
 218   2.0000      -0.207956        -5.6588
 219   2.0000      -0.170481        -4.6390
 220   0.0000      -0.085479        -2.3260
 221   0.0000      -0.045219        -1.2305
 222   0.0000      -0.023901        -0.6504
 223   0.0000       0.000990         0.0270
 224   0.0000       0.006699         0.1823

MULLIKEN ATOMIC CHARGES
-----------------------
   0 C :   -0.036049
   1 C :   -0.062021
   2 C :    0.044734
   3 C :    0.028857
   4 C :   -0.069592
   5 S :    0.073763
   6 C :   -0.043768
   7 C :    0.013160
   8 C :    0.028197
   9 C :   -0.027182
  10 S :    0.074071
  11 C :   -0.012546
  12 C :   -0.014711
  13 C :   -0.022913
  14 C :    0.021678
  15 C :    0.016072
  16 C :   -0.045593
  17 S :    0.070629
  18 C :   -0.038794
  19 C :    0.013789
  20 C :    0.035705
  21 C :   -0.029099
  22 S :    0.074188
  23 C :    0.003127
  24 C :   -0.021243
  25 C :   -0.024988
  26 C :    0.122121
  27 O :   -0.222136
  28 C :    0.117823
  29 C :    0.083395
  30 C :    0.061722
  31 O :   -0.170906
  32 O :   -0.204662
  33 C :   -0.078165
  34 C :    0.025878
  35 C :   -0.001037
  36 C :    0.007923
  37 C :   -0.100454
  38 S :    0.060629
  39 C :   -0.127957
  40 N :   -0.156808
  41 C :    0.105391
  42 C :    0.169628
  43 C :    0.043671
  44 C :    0.117352
  45 O :   -0.214017
  46 O :   -0.298414
  47 C :    0.198822
  48 C :   -0.247042
  49 S :    0.132225
  50 C :   -0.168280
  51 C :    0.121924
  52 C :    0.184434
  53 O :   -0.269515
  54 C :    0.168886
  55 C :   -0.035877
  56 H :    0.014879
  57 H :    0.016859
  58 H :   -0.017704
  59 H :   -0.016292
  60 H :   -0.019595
  61 H :   -0.017112
  62 H :   -0.009015
  63 H :   -0.010701
  64 H :   -0.016716
  65 H :   -0.017764
  66 H :   -0.018883
  67 H :   -0.018004
  68 H :   -0.019907
  69 H :    0.020358
  70 H :   -0.013801
  71 H :    0.192936
  72 H :    0.190738
  73 H :   -0.038621
  74 H :    0.002247
  75 H :   -0.019192
  76 H :    0.011359
  77 H :    0.135674
  78 H :    0.034978
  79 H :    0.031476
  80 H :    0.024216
  81 H :    0.023656
  82 H :    0.030102
  83 H :    0.030054
  84 H :    0.015901
  85 H :    0.010722
  86 H :   -0.008869
Sum of atomic charges:   -0.0000000

LOEWDIN ATOMIC CHARGES
----------------------
   0 C :   -0.087777
   1 C :   -0.138576
   2 C :   -0.041747
   3 C :   -0.027609
   4 C :   -0.186164
   5 S :    0.348499
   6 C :   -0.176978
   7 C :   -0.044748
   8 C :   -0.036877
   9 C :   -0.154304
  10 S :    0.369931
  11 C :   -0.060729
  12 C :   -0.069473
  13 C :   -0.144940
  14 C :   -0.045542
  15 C :   -0.037465
  16 C :   -0.186454
  17 S :    0.376103
  18 C :   -0.175802
  19 C :   -0.041990
  20 C :   -0.036861
  21 C :   -0.154260
  22 S :    0.379797
  23 C :   -0.048261
  24 C :   -0.037735
  25 C :   -0.030645
  26 C :    0.002762
  27 O :   -0.000898
  28 C :   -0.008722
  29 C :   -0.020802
  30 C :   -0.002446
  31 O :   -0.039952
  32 O :   -0.065677
  33 C :   -0.064485
  34 C :   -0.013859
  35 C :   -0.043934
  36 C :   -0.035195
  37 C :   -0.156798
  38 S :    0.415253
  39 C :   -0.096203
  40 N :   -0.033293
  41 C :    0.013075
  42 C :   -0.128143
  43 C :   -0.087216
  44 C :    0.081774
  45 O :   -0.176761
  46 O :   -0.091667
  47 C :    0.076574
  48 C :   -0.190581
  49 S :    0.463087
  50 C :   -0.207573
  51 C :   -0.080541
  52 C :   -0.003481
  53 O :   -0.039936
  54 C :    0.063309
  55 C :   -0.067090
  56 H :    0.026167
  57 H :    0.023806
  58 H :    0.030633
  59 H :    0.030709
  60 H :    0.028643
  61 H :    0.031800
  62 H :    0.026478
  63 H :    0.027439
  64 H :    0.031678
  65 H :    0.029868
  66 H :    0.029635
  67 H :    0.031330
  68 H :    0.030909
  69 H :    0.023778
  70 H :    0.035094
  71 H :    0.104129
  72 H :    0.097275
  73 H :    0.022227
  74 H :    0.034357
  75 H :    0.013684
  76 H :    0.038834
  77 H :    0.068706
  78 H :    0.022270
  79 H :    0.031418
  80 H :    0.014362
  81 H :    0.018681
  82 H :    0.021963
  83 H :    0.024595
  84 H :    0.021868
  85 H :    0.024372
  86 H :    0.033316

  Mayer bond orders larger than 0.100000
B(  0-C ,  1-C ) :   1.8477 B(  0-C , 56-H ) :   0.9506 B(  0-C , 57-H ) :   0.9420
B(  1-C ,  2-C ) :   1.0911 B(  1-C ,  5-S ) :   1.0112 B(  2-C ,  3-C ) :   1.6344
B(  2-C , 58-H ) :   0.9934 B(  3-C ,  4-C ) :   1.1782 B(  3-C , 59-H ) :   0.9919
B(  4-C ,  5-S ) :   1.0428 B(  4-C ,  6-C ) :   1.5029 B(  6-C ,  7-C ) :   1.2114
B(  6-C , 10-S ) :   1.0478 B(  7-C ,  8-C ) :   1.5417 B(  7-C , 60-H ) :   0.9934
B(  8-C ,  9-C ) :   1.1964 B(  8-C , 61-H ) :   0.9995 B(  9-C , 10-S ) :   1.0399
B(  9-C , 11-C ) :   1.4907 B( 11-C , 12-C ) :   1.2497 B( 11-C , 62-H ) :   0.9695
B( 12-C , 13-C ) :   1.4704 B( 12-C , 63-H ) :   0.9741 B( 13-C , 14-C ) :   1.2144
B( 13-C , 17-S ) :   1.0526 B( 14-C , 15-C ) :   1.5082 B( 14-C , 64-H ) :   1.0002
B( 15-C , 16-C ) :   1.2519 B( 15-C , 65-H ) :   0.9955 B( 16-C , 17-S ) :   1.0527
B( 16-C , 18-C ) :   1.4199 B( 18-C , 19-C ) :   1.2402 B( 18-C , 22-S ) :   1.0617
B( 19-C , 20-C ) :   1.5312 B( 19-C , 66-H ) :   0.9950 B( 20-C , 21-C ) :   1.1868
B( 20-C , 67-H ) :   0.9991 B( 21-C , 22-S ) :   1.0384 B( 21-C , 23-C ) :   1.4949
B( 23-C , 24-C ) :   1.2064 B( 23-C , 68-H ) :   0.9844 B( 24-C , 25-C ) :   1.5408
B( 24-C , 69-H ) :   0.9631 B( 25-C , 26-C ) :   1.1946 B( 25-C , 70-H ) :   0.9711
B( 26-C , 27-O ) :   1.0976 B( 26-C , 28-C ) :   0.1028 B( 26-C , 30-C ) :   1.3643
B( 27-O , 28-C ) :   1.1227 B( 28-C , 29-C ) :   1.2901 B( 28-C , 33-C ) :   1.1513
B( 29-C , 30-C ) :   1.2791 B( 29-C , 32-O ) :   1.2213 B( 30-C , 31-O ) :   1.2343
B( 31-O , 71-H ) :   0.9494 B( 32-O , 72-H ) :   0.9594 B( 33-C , 34-C ) :   1.6014
B( 33-C , 73-H ) :   0.9626 B( 34-C , 35-C ) :   1.1521 B( 34-C , 74-H ) :   1.0002
B( 35-C , 36-C ) :   1.5807 B( 35-C , 75-H ) :   0.9775 B( 36-C , 37-C ) :   1.1894
B( 36-C , 76-H ) :   0.9677 B( 37-C , 38-S ) :   1.0536 B( 37-C , 43-C ) :   1.5032
B( 38-S , 39-C ) :   1.1057 B( 39-C , 40-N ) :   1.2724 B( 39-C , 42-C ) :   1.4269
B( 40-N , 41-C ) :   1.0141 B( 40-N , 77-H ) :   0.9002 B( 41-C , 78-H ) :   0.9653
B( 41-C , 79-H ) :   0.9765 B( 41-C , 80-H ) :   0.9657 B( 42-C , 43-C ) :   1.2184
B( 42-C , 48-C ) :   1.0059 B( 43-C , 44-C ) :   0.9320 B( 44-C , 45-O ) :   2.0533
B( 44-C , 46-O ) :   1.2080 B( 46-O , 47-C ) :   0.9261 B( 47-C , 81-H ) :   0.9736
B( 47-C , 82-H ) :   0.9748 B( 47-C , 83-H ) :   0.9802 B( 48-C , 49-S ) :   1.1470
B( 48-C , 50-C ) :   0.1238 B( 48-C , 52-C ) :   1.5563 B( 49-S , 50-C ) :   1.1636
B( 50-C , 51-C ) :   1.4812 B( 50-C , 84-H ) :   0.9773 B( 51-C , 52-C ) :   1.2085
B( 51-C , 55-C ) :   1.0869 B( 52-C , 53-O ) :   1.0452 B( 53-O , 54-C ) :   1.0525
B( 54-C , 55-C ) :   1.6631 B( 54-C , 85-H ) :   1.0017 B( 55-C , 86-H ) :   1.0082

-----------------------------------------------------------------------------
         ABSORPTION SPECTRUM VIA TRANSITION ELECTRIC DIPOLE MOMENTS
-----------------------------------------------------------------------------
State   Energy  Wavelength   fosc         T2         TX        TY        TZ
        (cm-1)    (nm)                  (au**2)     (au)      (au)      (au)
-----------------------------------------------------------------------------
   0    7653.6   1306.6   1.578828380  67.91174   7.32229  -0.57809   3.73653
   1   14391.0    694.9   0.006338072   0.14499   0.04115  -0.36815   0.08810
   2   17075.5    585.6   1.210439307  23.33701  -2.38136  -3.95892   1.41175
   3   19397.6    515.5   0.012073195   0.20490   0.44377   0.07651  -0.04600
   4   22150.5    451.5   0.385218618   5.72532   2.30325  -0.63035   0.15169
   5   24209.2    413.1   0.043911517   0.59714  -0.67606  -0.34172   0.15267
   6   24384.4    410.1   0.135687465   1.83191  -1.29959  -0.12174   0.35799
   7   27212.8    367.5   0.147182393   1.78056   0.63035   1.00745   0.60684
   8   28213.5    354.4   0.083962440   0.97972   0.51181  -0.72134  -0.44435
   9   29128.8    343.3   0.034520244   0.39015   0.43185  -0.36253  -0.26874
  10   29808.4    335.5   0.148308565   1.63796   0.18687   1.18951   0.43371
  11   29972.4    333.6   0.026884166   0.29529   0.22607  -0.48015  -0.11680
  12   30670.1    326.1   0.057992796   0.62249  -0.65502   0.35007   0.26626
  13   30719.4    325.5   0.007772215   0.08329   0.15589  -0.21685  -0.10940
  14   31280.5    319.7   0.062055376   0.65310   0.12555  -0.77674  -0.18442
  15   31818.9    314.3   0.027971489   0.28940   0.34664  -0.39774   0.10512
  16   32543.4    307.3   0.036292761   0.36714  -0.03889  -0.53532  -0.28117
  17   32638.6    306.4   0.000243598   0.00246   0.02006   0.02978   0.03417
  18   33366.1    299.7   0.075432429   0.74427   0.71101  -0.35124  -0.33964
  19   33740.7    296.4   0.009824158   0.09586   0.11977  -0.24888  -0.13989
  20   34293.7    291.6   0.013309024   0.12776  -0.13615  -0.30227  -0.13364
  21   34308.5    291.5   0.043488914   0.41730  -0.23620   0.57914  -0.16160
  22   34986.4    285.8   0.088058928   0.82861   0.84843   0.30789   0.11823
  23   35779.3    279.5   0.007842955   0.07216   0.23860   0.05187   0.11199
  24   36021.9    277.6   0.001571612   0.01436  -0.06910  -0.09785  -0.00366
  25   36370.2    275.0   0.067171785   0.60802  -0.75271   0.12155   0.16333
  26   36594.3    273.3   0.039032565   0.35115   0.48247  -0.01421   0.34376
  27   37217.0    268.7   0.045549865   0.40292  -0.33994   0.52711  -0.09755
  28   37569.4    266.2   0.124107570   1.08753  -0.89589  -0.27201  -0.45926
  29   37728.9    265.0   0.065643766   0.57279   0.69717  -0.22759   0.18695
  30   38801.8    257.7   0.010652404   0.09038  -0.18492   0.16787   0.16734
  31   39455.7    253.4   0.020139132   0.16804  -0.27478   0.06578  -0.29699
  32   40024.3    249.8   0.014938602   0.12287  -0.28011   0.15503  -0.14276

FINAL SINGLE POINT ENERGY     -4548.892579954330

DIPOLE MOMENT
-------------
                                X             Y             Z
Electronic contribution:     -8.24574      -6.72206      -1.00201
Nuclear contribution   :     11.29856       9.01550       1.97893
                        -----------------------------------------
Total Dipole Moment    :      3.05281       2.29344       0.97692
                        -----------------------------------------
Magnitude (a.u.)       :      3.94131
Magnitude (Debye)      :     10.01801

Rotational constants in cm-1:     0.001981     0.000214     0.000202
Rotational constants in MHz :    59.390797     6.417379     6.051420

                             ****ORCA TERMINATED NORMALLY****
TOTAL RUN TIME: 0 days 0 hours 6 minutes 47 seconds 306 msec
