                         Program Version 4.2.0 -  RELEASE  -
|  1> # ORCA input file
|  2> # SCF done       -152.239816622616          0.000794654653
|  3> ! CAM-B3LYP def2-SVP def2/J RIJCOSX Grid4 TightSCF
|  4> %maxcore 5000
|  5> %tddft
|  6>     Mode sTDDFT
|  7>     Ethresh 5.0
|  8>     maxcore 5000
|  9> end
| 10>
| 11> %pal
| 12>   nprocs 6
| 13>   end
| 14> * xyz 0 1
| 15>    C        3.05866        -0.49777         1.44646
| 16>    N        3.98409        -0.84061         2.32783
| 17>    C        3.84869        -2.02944         2.89468
| 18>    C        2.79626        -2.87712         2.58825
| 19>    C        1.86946        -2.41653         1.64505
| 20>    N        2.01898        -1.21203         1.07804
| 21>    C        0.72500        -3.21362         1.26341
| 22>    C       -0.19999        -2.78479         0.37912
| 23>    C       -1.34477        -3.56135         0.03858
| 24>    N       -1.56200        -4.75895         0.56105
| 25>    C       -2.74129        -5.17562         0.06065
| 26>    C       -3.33150        -4.16648        -0.83097
| 27>    C       -4.61747        -4.63950        -1.36560
| 28>    O       -5.38520        -4.06100        -2.10601
| 29>    C       -4.74009        -5.98259        -0.77111
| 30>    C       -3.57747        -6.26625         0.09777
| 31>    N       -3.67664        -7.50371         0.64005
| 32>    C       -4.79690        -7.99545         0.16879
| 33>    C       -5.50896        -7.10022        -0.72211
| 34>    C       -2.43137        -3.12883        -0.87587
| 35>    C       -2.45997        -1.91497        -1.61156
| 36>    C       -3.53789        -1.50493        -2.32538
| 37>    C       -3.58016        -0.31826        -3.09534
| 38>    C       -4.69822         0.21632        -3.72116
| 39>    C       -4.40443         1.38919        -4.40928
| 40>    C       -3.04273         1.74541        -4.32704
| 41>    S       -2.14006         0.65428        -3.37642
| 42>    C       -2.82856         2.92176        -5.08076
| 43>    C       -4.07031         3.32661        -5.62902
| 44>    C       -5.09681         2.38594        -5.21316
| 45>    C       -6.43015         2.43523        -5.49695
| 46>    C       -7.33928         1.45879        -5.03619
| 47>    N       -8.09100         0.67812        -4.66281
| 48>    C       -7.00250         3.47343        -6.26195
| 49>    N       -7.48111         4.31363        -6.87845
| 50>    C       -3.96782         4.47205        -6.40659
| 51>    C       -2.66080         4.93863        -6.46786
| 52>    S       -1.54746         3.95012        -5.52174
| 53>    C       -2.05538         6.03999        -7.10760
| 54>    N       -0.76418         6.24979        -6.85006
| 55>    C       -0.42268         7.35594        -7.52463
| 56>    C       -1.57619         7.90579        -8.25762
| 57>    C       -1.17980         9.11794        -9.00199
| 58>    O       -1.86690         9.84374        -9.68564
| 59>    C        0.25644         9.22652        -8.69565
| 60>    C        0.67568         8.14137        -7.78585
| 61>    N        1.99846         8.22777        -7.51347
| 62>    C        2.41888         9.27164        -8.19023
| 63>    C        1.38620         9.93697        -8.95361
| 64>    C       -2.62543         7.05387        -8.02599
| 65>    C       -3.95262         7.06936        -8.55374
| 66>    C       -4.50370         8.11234        -9.20010
| 67>    C       -5.86534         8.05035        -9.69434
| 68>    N       -6.40546         9.18527       -10.13924
| 69>    C       -7.65695         9.14208       -10.55338
| 70>    C       -8.40261         7.97500       -10.54122
| 71>    C       -7.75285         6.82019       -10.08427
| 72>    N       -6.49425         6.87956        -9.66560
| 73>    C       -8.43134         5.53076       -10.05832
| 74>    C       -7.80479         4.38885        -9.80322
| 75>    H        3.16953         0.47378         0.98129
| 76>    H        4.61001        -2.30132         3.61454
| 77>    H        2.68883        -3.84418         3.05197
| 78>    H        0.61158        -4.18550         1.72187
| 79>    H       -0.07719        -1.81043        -0.07082
| 80>    H       -5.11766        -8.98302         0.45163
| 81>    H       -6.43792        -7.31609        -1.21169
| 82>    H       -1.57015        -1.29834        -1.59267
| 83>    H       -4.44123        -2.10240        -2.32570
| 84>    H       -5.66708        -0.24545        -3.66012
| 85>    H       -4.80096         4.95219        -6.88542
| 86>    H        3.45314         9.56582        -8.14443
| 87>    H        1.52535        10.80044        -9.57343
| 88>    H       -4.55359         6.18016        -8.43761
| 89>    H       -3.97889         9.04281        -9.35745
| 90>    H       -8.07096        10.07931       -10.90406
| 91>    H       -9.42727         7.95007       -10.87480
| 92>    H       -9.49100         5.55570       -10.27270
| 93>    H       -6.74717         4.37972        -9.60479
| 94>    H       -8.32140         3.44520        -9.78808
| 95> *
| 96>
| 97>                          ****END OF INPUT****

CARTESIAN COORDINATES (ANGSTROEM)
---------------------------------
  C      3.058660   -0.497770    1.446460
  N      3.984090   -0.840610    2.327830
  C      3.848690   -2.029440    2.894680
  C      2.796260   -2.877120    2.588250
  C      1.869460   -2.416530    1.645050
  N      2.018980   -1.212030    1.078040
  C      0.725000   -3.213620    1.263410
  C     -0.199990   -2.784790    0.379120
  C     -1.344770   -3.561350    0.038580
  N     -1.562000   -4.758950    0.561050
  C     -2.741290   -5.175620    0.060650
  C     -3.331500   -4.166480   -0.830970
  C     -4.617470   -4.639500   -1.365600
  O     -5.385200   -4.061000   -2.106010
  C     -4.740090   -5.982590   -0.771110
  C     -3.577470   -6.266250    0.097770
  N     -3.676640   -7.503710    0.640050
  C     -4.796900   -7.995450    0.168790
  C     -5.508960   -7.100220   -0.722110
  C     -2.431370   -3.128830   -0.875870
  C     -2.459970   -1.914970   -1.611560
  C     -3.537890   -1.504930   -2.325380
  C     -3.580160   -0.318260   -3.095340
  C     -4.698220    0.216320   -3.721160
  C     -4.404430    1.389190   -4.409280
  C     -3.042730    1.745410   -4.327040
  S     -2.140060    0.654280   -3.376420
  C     -2.828560    2.921760   -5.080760
  C     -4.070310    3.326610   -5.629020
  C     -5.096810    2.385940   -5.213160
  C     -6.430150    2.435230   -5.496950
  C     -7.339280    1.458790   -5.036190
  N     -8.091000    0.678120   -4.662810
  C     -7.002500    3.473430   -6.261950
  N     -7.481110    4.313630   -6.878450
  C     -3.967820    4.472050   -6.406590
  C     -2.660800    4.938630   -6.467860
  S     -1.547460    3.950120   -5.521740
  C     -2.055380    6.039990   -7.107600
  N     -0.764180    6.249790   -6.850060
  C     -0.422680    7.355940   -7.524630
  C     -1.576190    7.905790   -8.257620
  C     -1.179800    9.117940   -9.001990
  O     -1.866900    9.843740   -9.685640
  C      0.256440    9.226520   -8.695650
  C      0.675680    8.141370   -7.785850
  N      1.998460    8.227770   -7.513470
  C      2.418880    9.271640   -8.190230
  C      1.386200    9.936970   -8.953610
  C     -2.625430    7.053870   -8.025990
  C     -3.952620    7.069360   -8.553740
  C     -4.503700    8.112340   -9.200100
  C     -5.865340    8.050350   -9.694340
  N     -6.405460    9.185270  -10.139240
  C     -7.656950    9.142080  -10.553380
  C     -8.402610    7.975000  -10.541220
  C     -7.752850    6.820190  -10.084270
  N     -6.494250    6.879560   -9.665600
  C     -8.431340    5.530760  -10.058320
  C     -7.804790    4.388850   -9.803220
  H      3.169530    0.473780    0.981290
  H      4.610010   -2.301320    3.614540
  H      2.688830   -3.844180    3.051970
  H      0.611580   -4.185500    1.721870
  H     -0.077190   -1.810430   -0.070820
  H     -5.117660   -8.983020    0.451630
  H     -6.437920   -7.316090   -1.211690
  H     -1.570150   -1.298340   -1.592670
  H     -4.441230   -2.102400   -2.325700
  H     -5.667080   -0.245450   -3.660120
  H     -4.800960    4.952190   -6.885420
  H      3.453140    9.565820   -8.144430
  H      1.525350   10.800440   -9.573430
  H     -4.553590    6.180160   -8.437610
  H     -3.978890    9.042810   -9.357450
  H     -8.070960   10.079310  -10.904060
  H     -9.427270    7.950070  -10.874800
  H     -9.491000    5.555700  -10.272700
  H     -6.747170    4.379720   -9.604790
  H     -8.321400    3.445200   -9.788080

 Total Charge           Charge          ....    0
 Multiplicity           Mult            ....    1
 Number of Electrons    NEL             ....  414
 Basis Dimension        Dim             ....  948

ORBITAL ENERGIES
----------------

  NO   OCC          E(Eh)            E(eV)
   0   2.0000     -88.995989     -2421.7040
   1   2.0000     -88.994421     -2421.6613
   2   2.0000     -19.217238      -522.9276
   3   2.0000     -19.205198      -522.6000
   4   2.0000     -14.436088      -392.8259
   5   2.0000     -14.434445      -392.7812
   6   2.0000     -14.424327      -392.5059
   7   2.0000     -14.420347      -392.3976
   8   2.0000     -14.415813      -392.2742
   9   2.0000     -14.409268      -392.0961
  10   2.0000     -14.408254      -392.0685
  11   2.0000     -14.398257      -391.7965
  12   2.0000     -14.397914      -391.7872
  13   2.0000     -14.395477      -391.7208
  14   2.0000     -10.376817      -282.3675
  15   2.0000     -10.370995      -282.2091
  16   2.0000     -10.365495      -282.0595
  17   2.0000     -10.358609      -281.8721
  18   2.0000     -10.349534      -281.6251
  19   2.0000     -10.348596      -281.5996
  20   2.0000     -10.345886      -281.5259
  21   2.0000     -10.344463      -281.4871
  22   2.0000     -10.342946      -281.4459
  23   2.0000     -10.340167      -281.3703
  24   2.0000     -10.337268      -281.2914
  25   2.0000     -10.335779      -281.2508
  26   2.0000     -10.334368      -281.2124
  27   2.0000     -10.333323      -281.1840
  28   2.0000     -10.331346      -281.1302
  29   2.0000     -10.330890      -281.1178
  30   2.0000     -10.328843      -281.0621
  31   2.0000     -10.328377      -281.0494
  32   2.0000     -10.328131      -281.0427
  33   2.0000     -10.327424      -281.0235
  34   2.0000     -10.318381      -280.7774
  35   2.0000     -10.317667      -280.7580
  36   2.0000     -10.316473      -280.7255
  37   2.0000     -10.315419      -280.6968
  38   2.0000     -10.314378      -280.6685
  39   2.0000     -10.311812      -280.5987
  40   2.0000     -10.311498      -280.5901
  41   2.0000     -10.309972      -280.5486
  42   2.0000     -10.308656      -280.5128
  43   2.0000     -10.307968      -280.4941
  44   2.0000     -10.304681      -280.4046
  45   2.0000     -10.302134      -280.3353
  46   2.0000     -10.301647      -280.3221
  47   2.0000     -10.299982      -280.2768
  48   2.0000     -10.299534      -280.2646
  49   2.0000     -10.293792      -280.1083
  50   2.0000     -10.293706      -280.1060
  51   2.0000     -10.292206      -280.0652
  52   2.0000     -10.287723      -279.9432
  53   2.0000     -10.281794      -279.7819
  54   2.0000     -10.280786      -279.7544
  55   2.0000     -10.278163      -279.6830
  56   2.0000     -10.274838      -279.5926
  57   2.0000     -10.268411      -279.4177
  58   2.0000     -10.264701      -279.3167
  59   2.0000     -10.263356      -279.2801
  60   2.0000      -8.090518      -220.1542
  61   2.0000      -8.088179      -220.0905
  62   2.0000      -6.059633      -164.8910
  63   2.0000      -6.057452      -164.8316
  64   2.0000      -6.055588      -164.7809
  65   2.0000      -6.053037      -164.7115
  66   2.0000      -6.052932      -164.7087
  67   2.0000      -6.050803      -164.6507
  68   2.0000      -1.131251       -30.7829
  69   2.0000      -1.120102       -30.4795
  70   2.0000      -1.093919       -29.7670
  71   2.0000      -1.083007       -29.4701
  72   2.0000      -1.077973       -29.3331
  73   2.0000      -1.071926       -29.1686
  74   2.0000      -1.063386       -28.9362
  75   2.0000      -1.054872       -28.7045
  76   2.0000      -1.050366       -28.5819
  77   2.0000      -1.027397       -27.9569
  78   2.0000      -1.012817       -27.5602
  79   2.0000      -1.003115       -27.2962
  80   2.0000      -0.994406       -27.0592
  81   2.0000      -0.969355       -26.3775
  82   2.0000      -0.966210       -26.2919
  83   2.0000      -0.943608       -25.6769
  84   2.0000      -0.934805       -25.4373
  85   2.0000      -0.929404       -25.2904
  86   2.0000      -0.917915       -24.9777
  87   2.0000      -0.915664       -24.9165
  88   2.0000      -0.908503       -24.7216
  89   2.0000      -0.888397       -24.1745
  90   2.0000      -0.885177       -24.0869
  91   2.0000      -0.877324       -23.8732
  92   2.0000      -0.865763       -23.5586
  93   2.0000      -0.860530       -23.4162
  94   2.0000      -0.858943       -23.3730
  95   2.0000      -0.851233       -23.1632
  96   2.0000      -0.845130       -22.9972
  97   2.0000      -0.825936       -22.4749
  98   2.0000      -0.819364       -22.2960
  99   2.0000      -0.800886       -21.7932
 100   2.0000      -0.786366       -21.3981
 101   2.0000      -0.779004       -21.1978
 102   2.0000      -0.763101       -20.7650
 103   2.0000      -0.757572       -20.6146
 104   2.0000      -0.755836       -20.5673
 105   2.0000      -0.744094       -20.2478
 106   2.0000      -0.742035       -20.1918
 107   2.0000      -0.730359       -19.8741
 108   2.0000      -0.726105       -19.7583
 109   2.0000      -0.711585       -19.3632
 110   2.0000      -0.710910       -19.3448
 111   2.0000      -0.696518       -18.9532
 112   2.0000      -0.690951       -18.8017
 113   2.0000      -0.678250       -18.4561
 114   2.0000      -0.667023       -18.1506
 115   2.0000      -0.662107       -18.0169
 116   2.0000      -0.658942       -17.9307
 117   2.0000      -0.647085       -17.6081
 118   2.0000      -0.644978       -17.5507
 119   2.0000      -0.639580       -17.4038
 120   2.0000      -0.631157       -17.1747
 121   2.0000      -0.626982       -17.0611
 122   2.0000      -0.624292       -16.9878
 123   2.0000      -0.622027       -16.9262
 124   2.0000      -0.618414       -16.8279
 125   2.0000      -0.610476       -16.6119
 126   2.0000      -0.604050       -16.4370
 127   2.0000      -0.602504       -16.3950
 128   2.0000      -0.590361       -16.0645
 129   2.0000      -0.582472       -15.8499
 130   2.0000      -0.573392       -15.6028
 131   2.0000      -0.569831       -15.5059
 132   2.0000      -0.567481       -15.4420
 133   2.0000      -0.563064       -15.3218
 134   2.0000      -0.558261       -15.1911
 135   2.0000      -0.555742       -15.1225
 136   2.0000      -0.551229       -14.9997
 137   2.0000      -0.550732       -14.9862
 138   2.0000      -0.543395       -14.7865
 139   2.0000      -0.542252       -14.7554
 140   2.0000      -0.539698       -14.6859
 141   2.0000      -0.531930       -14.4746
 142   2.0000      -0.531030       -14.4501
 143   2.0000      -0.529917       -14.4198
 144   2.0000      -0.528464       -14.3802
 145   2.0000      -0.522835       -14.2271
 146   2.0000      -0.517384       -14.0787
 147   2.0000      -0.514479       -13.9997
 148   2.0000      -0.512652       -13.9500
 149   2.0000      -0.511360       -13.9148
 150   2.0000      -0.509665       -13.8687
 151   2.0000      -0.503586       -13.7033
 152   2.0000      -0.503491       -13.7007
 153   2.0000      -0.502035       -13.6611
 154   2.0000      -0.498937       -13.5768
 155   2.0000      -0.497295       -13.5321
 156   2.0000      -0.495991       -13.4966
 157   2.0000      -0.490405       -13.3446
 158   2.0000      -0.487425       -13.2635
 159   2.0000      -0.480365       -13.0714
 160   2.0000      -0.479442       -13.0463
 161   2.0000      -0.478731       -13.0269
 162   2.0000      -0.477964       -13.0060
 163   2.0000      -0.475057       -12.9270
 164   2.0000      -0.469587       -12.7781
 165   2.0000      -0.467695       -12.7266
 166   2.0000      -0.466717       -12.7000
 167   2.0000      -0.465064       -12.6550
 168   2.0000      -0.462338       -12.5809
 169   2.0000      -0.460775       -12.5383
 170   2.0000      -0.457623       -12.4526
 171   2.0000      -0.448801       -12.2125
 172   2.0000      -0.445685       -12.1277
 173   2.0000      -0.444633       -12.0991
 174   2.0000      -0.441298       -12.0083
 175   2.0000      -0.440038       -11.9741
 176   2.0000      -0.433668       -11.8007
 177   2.0000      -0.431029       -11.7289
 178   2.0000      -0.429061       -11.6754
 179   2.0000      -0.426089       -11.5945
 180   2.0000      -0.410458       -11.1691
 181   2.0000      -0.408931       -11.1276
 182   2.0000      -0.395263       -10.7557
 183   2.0000      -0.386013       -10.5040
 184   2.0000      -0.384266       -10.4564
 185   2.0000      -0.382501       -10.4084
 186   2.0000      -0.370272       -10.0756
 187   2.0000      -0.366646        -9.9770
 188   2.0000      -0.365078        -9.9343
 189   2.0000      -0.360599        -9.8124
 190   2.0000      -0.357827        -9.7370
 191   2.0000      -0.357703        -9.7336
 192   2.0000      -0.354186        -9.6379
 193   2.0000      -0.347425        -9.4539
 194   2.0000      -0.345737        -9.4080
 195   2.0000      -0.339057        -9.2262
 196   2.0000      -0.337629        -9.1874
 197   2.0000      -0.335058        -9.1174
 198   2.0000      -0.329882        -8.9765
 199   2.0000      -0.326610        -8.8875
 200   2.0000      -0.323560        -8.8045
 201   2.0000      -0.312178        -8.4948
 202   2.0000      -0.311500        -8.4764
 203   2.0000      -0.309170        -8.4129
 204   2.0000      -0.300275        -8.1709
 205   2.0000      -0.281306        -7.6547
 206   2.0000      -0.258929        -7.0458
 207   0.0000      -0.127480        -3.4689
 208   0.0000      -0.116888        -3.1807
 209   0.0000      -0.102816        -2.7978
 210   0.0000      -0.065052        -1.7702
 211   0.0000      -0.049566        -1.3488

MULLIKEN ATOMIC CHARGES
-----------------------
   0 C :    0.077433
   1 N :   -0.100003
   2 C :    0.070419
   3 C :   -0.017242
   4 C :    0.020415
   5 N :   -0.087686
   6 C :    0.050208
   7 C :   -0.017271
   8 C :    0.051863
   9 N :   -0.035894
  10 C :    0.071749
  11 C :   -0.165156
  12 C :    0.219192
  13 O :   -0.144822
  14 C :   -0.012310
  15 C :   -0.033879
  16 N :   -0.054589
  17 C :    0.090391
  18 C :   -0.093254
  19 C :    0.055954
  20 C :   -0.057141
  21 C :    0.032398
  22 C :   -0.044504
  23 C :   -0.038136
  24 C :    0.026358
  25 C :   -0.103702
  26 S :    0.186880
  27 C :   -0.075482
  28 C :   -0.008536
  29 C :    0.312129
  30 C :   -0.297831
  31 C :   -0.193331
  32 N :    0.182118
  33 C :   -0.188565
  34 N :    0.184913
  35 C :   -0.019988
  36 C :   -0.140006
  37 S :    0.269064
  38 C :    0.088618
  39 N :   -0.084963
  40 C :    0.072447
  41 C :   -0.167431
  42 C :    0.212330
  43 O :   -0.129111
  44 C :   -0.020452
  45 C :   -0.036645
  46 N :   -0.059623
  47 C :    0.086991
  48 C :   -0.095907
  49 C :    0.078877
  50 C :   -0.050363
  51 C :    0.064403
  52 C :   -0.079927
  53 N :   -0.061691
  54 C :    0.079704
  55 C :   -0.039573
  56 C :    0.034575
  57 N :   -0.064417
  58 C :   -0.025116
  59 C :    0.072886
  60 H :    0.020441
  61 H :    0.018810
  62 H :    0.004874
  63 H :    0.016449
  64 H :    0.008054
  65 H :    0.010313
  66 H :   -0.003771
  67 H :   -0.013241
  68 H :    0.020612
  69 H :    0.021167
  70 H :    0.021128
  71 H :    0.005420
  72 H :   -0.007787
  73 H :   -0.002455
  74 H :    0.010139
  75 H :    0.004620
  76 H :   -0.008311
  77 H :   -0.018760
  78 H :    0.025200
  79 H :    0.019334
Sum of atomic charges:   -0.0000000

LOEWDIN ATOMIC CHARGES
----------------------
   0 C :    0.049635
   1 N :   -0.083569
   2 C :    0.054009
   3 C :   -0.046795
   4 C :    0.023568
   5 N :   -0.083744
   6 C :    0.042235
   7 C :   -0.017464
   8 C :    0.069781
   9 N :   -0.099309
  10 C :    0.046739
  11 C :   -0.051190
  12 C :    0.069570
  13 O :   -0.143100
  14 C :   -0.039938
  15 C :    0.023279
  16 N :   -0.095799
  17 C :    0.075118
  18 C :   -0.032895
  19 C :   -0.024358
  20 C :   -0.043666
  21 C :    0.001081
  22 C :   -0.152982
  23 C :   -0.016683
  24 C :   -0.057876
  25 C :   -0.183437
  26 S :    0.483153
  27 C :   -0.160366
  28 C :   -0.076094
  29 C :    0.077794
  30 C :   -0.098977
  31 C :   -0.019479
  32 N :   -0.025460
  33 C :   -0.017104
  34 N :   -0.014041
  35 C :    0.001915
  36 C :   -0.180657
  37 S :    0.541308
  38 C :    0.052030
  39 N :   -0.134074
  40 C :    0.043976
  41 C :   -0.035926
  42 C :    0.066935
  43 O :   -0.133381
  44 C :   -0.042017
  45 C :    0.014955
  46 N :   -0.100241
  47 C :    0.068205
  48 C :   -0.039692
  49 C :   -0.022988
  50 C :   -0.021391
  51 C :    0.011855
  52 C :    0.024256
  53 N :   -0.088506
  54 C :    0.048526
  55 C :   -0.064864
  56 C :    0.040157
  57 N :   -0.083149
  58 C :   -0.049737
  59 C :    0.015846
  60 H :    0.021203
  61 H :    0.029848
  62 H :    0.038261
  63 H :    0.041714
  64 H :    0.034518
  65 H :    0.024060
  66 H :    0.035110
  67 H :    0.020987
  68 H :    0.043489
  69 H :    0.047664
  70 H :    0.045076
  71 H :    0.021958
  72 H :    0.033300
  73 H :    0.027004
  74 H :    0.037600
  75 H :    0.025447
  76 H :    0.031989
  77 H :    0.026805
  78 H :    0.023325
  79 H :    0.025664

  Mayer bond orders larger than 0.100000
B(  0-C ,  1-N ) :   1.4937 B(  0-C ,  5-N ) :   1.5313 B(  0-C , 60-H ) :   0.9750
B(  1-N ,  2-C ) :   1.5516 B(  2-C ,  3-C ) :   1.3682 B(  2-C , 61-H ) :   0.9816
B(  3-C ,  4-C ) :   1.3531 B(  3-C , 62-H ) :   0.9776 B(  4-C ,  5-N ) :   1.5157
B(  4-C ,  6-C ) :   1.0393 B(  6-C ,  7-C ) :   1.7103 B(  6-C , 63-H ) :   0.9833
B(  7-C ,  8-C ) :   1.0884 B(  7-C , 64-H ) :   0.9585 B(  8-C ,  9-N ) :   1.6135
B(  8-C , 10-C ) :   0.1081 B(  8-C , 19-C ) :   0.9977 B(  9-N , 10-C ) :   1.3472
B( 10-C , 11-C ) :   1.0574 B( 10-C , 15-C ) :   1.4158 B( 11-C , 12-C ) :   0.9014
B( 11-C , 19-C ) :   1.5428 B( 12-C , 13-O ) :   2.1812 B( 12-C , 14-C ) :   0.9316
B( 13-O , 68-H ) :   0.1036 B( 14-C , 15-C ) :   1.0685 B( 14-C , 18-C ) :   1.6044
B( 15-C , 16-N ) :   1.3129 B( 16-N , 17-C ) :   1.6566 B( 17-C , 18-C ) :   1.0683
B( 17-C , 65-H ) :   0.9894 B( 18-C , 66-H ) :   1.0109 B( 19-C , 20-C ) :   1.1515
B( 20-C , 21-C ) :   1.6270 B( 20-C , 67-H ) :   0.9559 B( 21-C , 22-C ) :   1.1535
B( 21-C , 68-H ) :   0.9547 B( 22-C , 23-C ) :   1.4187 B( 22-C , 26-S ) :   1.0959
B( 23-C , 24-C ) :   1.2845 B( 23-C , 69-H ) :   1.0075 B( 24-C , 25-C ) :   1.4229
B( 24-C , 29-C ) :   0.9912 B( 25-C , 26-S ) :   1.1269 B( 25-C , 27-C ) :   1.2065
B( 27-C , 28-C ) :   1.3817 B( 27-C , 37-S ) :   1.1502 B( 28-C , 29-C ) :   0.9964
B( 28-C , 35-C ) :   1.3385 B( 29-C , 30-C ) :   1.7107 B( 30-C , 31-C ) :   1.1324
B( 30-C , 33-C ) :   1.1404 B( 31-C , 32-N ) :   2.9973 B( 33-C , 34-N ) :   2.9597
B( 35-C , 36-C ) :   1.4142 B( 35-C , 70-H ) :   0.9828 B( 36-C , 37-S ) :   1.0924
B( 36-C , 38-C ) :   1.1491 B( 38-C , 39-N ) :   1.5751 B( 38-C , 40-C ) :   0.1192
B( 38-C , 49-C ) :   1.0415 B( 39-N , 40-C ) :   1.3895 B( 40-C , 41-C ) :   1.0560
B( 40-C , 45-C ) :   1.3909 B( 41-C , 42-C ) :   0.8845 B( 41-C , 49-C ) :   1.5754
B( 42-C , 43-O ) :   2.2241 B( 42-C , 44-C ) :   0.9223 B( 44-C , 45-C ) :   1.0715
B( 44-C , 48-C ) :   1.5923 B( 45-C , 46-N ) :   1.3244 B( 46-N , 47-C ) :   1.6420
B( 47-C , 48-C ) :   1.0836 B( 47-C , 71-H ) :   0.9896 B( 48-C , 72-H ) :   1.0110
B( 49-C , 50-C ) :   1.0589 B( 50-C , 51-C ) :   1.7090 B( 50-C , 73-H ) :   0.9614
B( 51-C , 52-C ) :   1.0123 B( 51-C , 74-H ) :   0.9639 B( 52-C , 53-N ) :   1.5415
B( 52-C , 57-N ) :   1.5318 B( 53-N , 54-C ) :   1.5407 B( 54-C , 55-C ) :   1.3838
B( 54-C , 75-H ) :   0.9800 B( 55-C , 56-C ) :   1.3273 B( 55-C , 76-H ) :   0.9738
B( 56-C , 57-N ) :   1.5266 B( 56-C , 58-C ) :   1.0654 B( 58-C , 59-C ) :   1.9605
B( 58-C , 77-H ) :   0.9653 B( 59-C , 78-H ) :   0.9356 B( 59-C , 79-H ) :   0.9444

-----------------------------------------------------------------------------
         ABSORPTION SPECTRUM VIA TRANSITION ELECTRIC DIPOLE MOMENTS
-----------------------------------------------------------------------------
State   Energy  Wavelength   fosc         T2         TX        TY        TZ
        (cm-1)    (nm)                  (au**2)     (au)      (au)      (au)
-----------------------------------------------------------------------------
   0   13043.2    766.7   0.486543844  12.28045   0.69600   2.96330  -1.73635
   1   14945.9    669.1   0.067968273   1.49713   0.24300   1.11176  -0.44954
   2   17959.5    556.8   0.047956162   0.87908  -0.23080   0.68802  -0.59366
   3   19182.2    521.3   1.062191697  18.22976  -1.91514  -3.33213   1.85981
   4   21596.9    463.0   0.000544573   0.00830   0.00588  -0.06345  -0.06512
   5   21768.0    459.4   0.000221240   0.00335   0.01216  -0.05313  -0.01937
   6   22721.2    440.1   0.017370395   0.25168  -0.06730  -0.45938   0.19007
   7   23351.9    428.2   0.409079822   5.76714   1.80549   1.54933   0.32700
   8   24227.7    412.8   0.098293280   1.33564   0.85869   0.63369   0.44354
   9   24879.0    401.9   0.098199070   1.29942   0.78852  -0.44817   0.69050
  10   25215.9    396.6   0.195019694   2.54612   1.20416   1.01848   0.24254
  11   25308.2    395.1   0.000409459   0.00533  -0.06254   0.03028  -0.02231
  12   25536.2    391.6   0.295668366   3.81175  -1.51150   0.71360  -1.00891
  13   26078.5    383.5   0.001841767   0.02325   0.09157   0.00942   0.12156
  14   26819.7    372.9   0.246030485   3.02002   0.22793  -1.50288   0.84227
  15   26918.1    371.5   0.023068205   0.28213  -0.03376   0.46563  -0.25333
  16   27178.2    367.9   0.022788148   0.27604   0.03423  -0.51931   0.07201
  17   27246.6    367.0   0.051915198   0.62728  -0.12505   0.71041  -0.32704
  18   27969.7    357.5   0.004217820   0.04965   0.10271  -0.16553  -0.10814
  19   28056.5    356.4   0.072672013   0.85273  -0.04121   0.85026  -0.35789
  20   28158.0    355.1   0.018616288   0.21765  -0.34187  -0.31599  -0.03048
  21   28698.0    348.5   0.069484400   0.79710   0.49062   0.66388  -0.34008
  22   29497.9    339.0   0.150342636   1.67790  -0.52826  -1.17810   0.10455
  23   29885.7    334.6   0.175986592   1.93861   1.20517   0.18886   0.67121
  24   30099.2    332.2   0.004128374   0.04515   0.00021  -0.02802   0.21064
  25   30282.9    330.2   0.464694460   5.05180  -2.20273  -0.13845  -0.42499
  26   30548.5    327.3   0.002348888   0.02531   0.15876   0.00935  -0.00464
  27   30582.2    327.0   0.034376156   0.37005  -0.50677  -0.32034   0.10306
  28   30929.1    323.3   0.015493815   0.16492  -0.30199  -0.23751   0.13158
  29   31630.4    316.2   0.190641629   1.98421  -0.84280  -1.03632   0.44714
  30   31929.9    313.2   0.025017543   0.25794  -0.06915  -0.49719   0.07724
  31   32584.9    306.9   0.053674328   0.54228   0.41168   0.57232  -0.21272
  32   32719.5    305.6   0.730253422   7.34756  -2.62686  -0.22752  -0.62880
  33   33444.1    299.0   0.002639779   0.02599  -0.04558   0.10982  -0.10884
  34   33693.6    296.8   0.072726235   0.71059   0.29132  -0.53030   0.58695
  35   33912.4    294.9   0.002661977   0.02584  -0.07153  -0.05652   0.13240
  36   34116.6    293.1   0.240212825   2.31796   1.26884   0.73645  -0.40699
  37   34366.7    291.0   0.019460432   0.18642  -0.37262  -0.19936   0.08848
  38   34953.8    286.1   0.012048056   0.11347  -0.19529  -0.26012   0.08759
  39   34983.6    285.8   0.029413156   0.27679   0.39831   0.34010   0.04972
  40   35243.3    283.7   0.009328450   0.08714  -0.01070  -0.16448   0.24489
  41   35318.9    283.1   0.019144244   0.17845  -0.24850   0.16261  -0.30042
  42   35367.4    282.7   0.075638291   0.70407  -0.56948   0.23047  -0.57153
  43   35518.9    281.5   0.325120051   3.01342  -1.58438  -0.45559  -0.54368
  44   35825.4    279.1   0.022651149   0.20815  -0.44758   0.01051  -0.08781
  45   36072.5    277.2   0.034544119   0.31526   0.49099  -0.02254   0.27145
  46   36351.4    275.1   0.007352270   0.06658  -0.10427   0.10059   0.21353
  47   36641.1    272.9   0.283949597   2.55122  -1.39968  -0.63854  -0.42939
  48   36928.1    270.8   0.000503819   0.00449   0.03540  -0.04202  -0.03837
  49   36976.5    270.4   0.021773388   0.19385   0.35541  -0.16370   0.20184
  50   37131.2    269.3   0.043185712   0.38289  -0.11795   0.49196  -0.35631
  51   37302.9    268.1   0.002922523   0.02579   0.10165  -0.12275  -0.01981
  52   37599.1    266.0   0.026823476   0.23486  -0.27401  -0.39972   0.00131
  53   37882.1    264.0   0.113439261   0.98584  -0.41395   0.74328  -0.51188
  54   37958.7    263.4   0.007412534   0.06429   0.21870  -0.05474   0.11602
  55   38186.8    261.9   0.009695398   0.08358   0.13802   0.25030  -0.04342
  56   38416.2    260.3   0.089582537   0.76769   0.79135  -0.19240   0.32316
  57   38668.9    258.6   0.011122684   0.09469   0.17150  -0.04978   0.25061
  58   39062.2    256.0   0.067118612   0.56567  -0.60247   0.01453  -0.44998
  59   39109.2    255.7   0.010976554   0.09240  -0.11712   0.27414  -0.05939
  60   39481.2    253.3   0.003784044   0.03155   0.10904   0.07198  -0.12034
  61   39581.9    252.6   0.000970072   0.00807  -0.05635   0.01116   0.06905
  62   39634.9    252.3   0.000926519   0.00770   0.02932   0.07768  -0.02831
  63   39662.7    252.1   0.000215290   0.00179   0.02320  -0.03456  -0.00736
  64   39800.5    251.3   0.002759229   0.02282  -0.08518  -0.12427   0.01116
  65   40101.4    249.4   0.000972551   0.00798  -0.08779  -0.01101   0.01246
  66   40151.2    249.1   0.008606351   0.07057  -0.25476  -0.04990  -0.05633

FINAL SINGLE POINT ENERGY     -3255.693721980793

DIPOLE MOMENT
-------------
                                X             Y             Z
Electronic contribution:      4.99296       0.06262       2.92972
Nuclear contribution   :     -4.44172      -1.83387      -1.82285
                        -----------------------------------------
Total Dipole Moment    :      0.55124      -1.77125       1.10687
                        -----------------------------------------
Magnitude (a.u.)       :      2.16017
Magnitude (Debye)      :      5.49072

Rotational constants in cm-1:     0.001748     0.000492     0.000389
Rotational constants in MHz :    52.416080    14.738893    11.653253

                             ****ORCA TERMINATED NORMALLY****
TOTAL RUN TIME: 0 days 0 hours 9 minutes 13 seconds 611 msec
