                         Program Version 4.2.0 -  RELEASE  -
|  1> # ORCA input file
|  2> # SCF done       -208.436115336107          0.000635205205
|  3> ! CAM-B3LYP def2-SVP def2/J RIJCOSX Grid4 TightSCF
|  4> %maxcore 5000
|  5> %tddft
|  6>     Mode sTDDFT
|  7>     Ethresh 5.0
|  8>     maxcore 5000
|  9> end
| 10>
| 11> %pal
| 12>   nprocs 6
| 13>   end
| 14> * xyz 0 1
| 15>    C       20.79635        -4.29693         0.11214
| 16>    C       21.66832        -4.94329         0.94348
| 17>    F       22.95474        -4.54957         0.98982
| 18>    C       21.27571        -6.01170         1.76049
| 19>    C       19.97282        -6.42536         1.72699
| 20>    C       19.03137        -5.79503         0.88825
| 21>    C       19.45143        -4.71130         0.06336
| 22>    C       18.52748        -4.06995        -0.79515
| 23>    C       17.22895        -4.49839        -0.82091
| 24>    C       16.81010        -5.57211         0.01747
| 25>    C       17.68166        -6.21329         0.84877
| 26>    C       15.36652        -5.80978        -0.18122
| 27>    O       14.67683        -6.67125         0.31768
| 28>    C       14.91508        -4.72168        -1.08783
| 29>    C       16.08509        -4.06614        -1.61845
| 30>    C       16.15955        -3.39628        -2.81548
| 31>    C       15.06900        -3.29026        -3.70136
| 32>    N       14.21090        -3.24108        -4.46359
| 33>    C       17.34594        -2.84188        -3.33135
| 34>    N       18.28247        -2.35691        -3.78549
| 35>    C       13.57932        -4.47487        -1.23138
| 36>    C       12.92175        -3.29743        -1.66555
| 37>    C       11.61566        -3.33827        -2.11061
| 38>    C       10.89956        -2.24626        -2.57838
| 39>    C       11.48357        -0.90243        -2.58359
| 40>    C       12.72373        -0.61074        -2.13498
| 41>    S       13.80830        -1.77982        -1.51409
| 42>    C       10.48070        -0.06152        -3.13413
| 43>    C        9.34481        -0.81338        -3.46006
| 44>    C        8.32671         0.00451        -4.00611
| 45>    C        8.70773         1.30568        -4.07816
| 46>    S       10.30894         1.60582        -3.49266
| 47>    C        9.59267        -2.18929        -3.11986
| 48>    C        8.74909        -3.31182        -3.28662
| 49>    C        7.52940        -3.30827        -3.88280
| 50>    C        6.71460        -4.45601        -4.07432
| 51>    C        6.91238        -5.75800        -3.68628
| 52>    C        5.88391        -6.63430        -4.09477
| 53>    C        4.86289        -5.95955        -4.82241
| 54>    S        5.21055        -4.26340        -4.96365
| 55>    C        3.76898        -6.60943        -5.34385
| 56>    C        3.67868        -7.98846        -5.14609
| 57>    C        4.69613        -8.66493        -4.41919
| 58>    C        5.78527        -8.01379        -3.89020
| 59>    S        4.37117       -10.37550        -4.33544
| 60>    C        2.90355       -10.18147        -5.28662
| 61>    C        2.67931        -8.87145        -5.61340
| 62>    C        2.13580       -11.33142        -5.66091
| 63>    C        1.13263       -11.27800        -6.60277
| 64>    C        0.40028       -12.37513        -7.05019
| 65>    C        0.56503       -13.68827        -6.41992
| 66>    C        1.49467       -13.96653        -5.47600
| 67>    S        2.61169       -12.81948        -4.87471
| 68>    C       -0.41117       -14.53161        -7.01784
| 69>    C       -1.12679       -13.81298        -7.97176
| 70>    C       -2.10181       -14.60586        -8.61415
| 71>    C       -2.10212       -15.87868        -8.13657
| 72>    S       -0.92421       -16.16835        -6.90254
| 73>    C       -0.61474       -12.46295        -8.03636
| 74>    C       -1.08563       -11.53691        -8.98016
| 75>    C       -0.54592       -10.33085        -9.35249
| 76>    C       -1.12921        -9.55481       -10.35947
| 77>    C       -0.71983        -8.33135       -10.84186
| 78>    C       -1.16207        -7.89839       -12.18748
| 79>    O       -2.03304        -8.40030       -12.86583
| 80>    C       -0.28471        -6.76204       -12.54341
| 81>    C       -0.20522        -6.06347       -13.71169
| 82>    C        0.74812        -5.02535       -13.83125
| 83>    C        1.60395        -4.73308       -12.73032
| 84>    C        2.55550        -3.70315       -12.85828
| 85>    C        2.63643        -3.00631       -14.03169
| 86>    C        1.80402        -3.27723       -15.12519
| 87>    C        0.87472        -4.27490       -15.01734
| 88>    F        3.54569        -2.02013       -14.15502
| 89>    C        1.49188        -5.46911       -11.52675
| 90>    C        0.55977        -6.46547       -11.43598
| 91>    C        0.20385        -7.35830       -10.33442
| 92>    C        0.54631        -7.14475        -9.01786
| 93>    C       -0.02752        -7.82185        -7.92986
| 94>    N       -0.45534        -8.31033        -6.98005
| 95>    C        1.44728        -6.16276        -8.56916
| 96>    N        2.19543        -5.41890        -8.11206
| 97>    H       21.13456        -3.48013        -0.50617
| 98>    H       22.00796        -6.48350         2.39635
| 99>    H       19.64645        -7.24644         2.34751
|100>    H       18.86844        -3.24844        -1.40540
|101>    H       17.34788        -7.03185         1.46880
|102>    H       12.93114        -5.27724        -0.89122
|103>    H       11.15454        -4.31647        -2.13724
|104>    H       13.12432         0.39081        -2.13892
|105>    H        7.35767        -0.32622        -4.33050
|106>    H        8.13697         2.13439        -4.44926
|107>    H        9.13697        -4.25202        -2.92047
|108>    H        7.12914        -2.38791        -4.27745
|109>    H        7.76884        -6.08946        -3.12765
|110>    H        3.01680        -6.08304        -5.90978
|111>    H        6.54948        -8.54452        -3.34498
|112>    H        1.81587        -8.52646        -6.15041
|113>    H        0.88629       -10.30451        -6.99361
|114>    H        1.60427       -14.94971        -5.04613
|115>    H       -2.77051       -14.26414        -9.38310
|116>    H       -2.73401       -16.69173        -8.43637
|117>    H       -1.98202       -11.84594        -9.50657
|118>    H        0.38361        -9.99882        -8.91950
|119>    H       -1.95467        -9.99681       -10.90915
|120>    H       -0.85972        -6.29778       -14.53789
|121>    H        3.21146        -3.46548       -12.03525
|122>    H        1.91373        -2.69492       -16.02629
|123>    H        0.22239        -4.50264       -15.84705
|124>    H        2.15593        -5.23065       -10.71047
|125> *
|126>
|127>                          ****END OF INPUT****

CARTESIAN COORDINATES (ANGSTROEM)
---------------------------------
  C     20.796350   -4.296930    0.112140
  C     21.668320   -4.943290    0.943480
  F     22.954740   -4.549570    0.989820
  C     21.275710   -6.011700    1.760490
  C     19.972820   -6.425360    1.726990
  C     19.031370   -5.795030    0.888250
  C     19.451430   -4.711300    0.063360
  C     18.527480   -4.069950   -0.795150
  C     17.228950   -4.498390   -0.820910
  C     16.810100   -5.572110    0.017470
  C     17.681660   -6.213290    0.848770
  C     15.366520   -5.809780   -0.181220
  O     14.676830   -6.671250    0.317680
  C     14.915080   -4.721680   -1.087830
  C     16.085090   -4.066140   -1.618450
  C     16.159550   -3.396280   -2.815480
  C     15.069000   -3.290260   -3.701360
  N     14.210900   -3.241080   -4.463590
  C     17.345940   -2.841880   -3.331350
  N     18.282470   -2.356910   -3.785490
  C     13.579320   -4.474870   -1.231380
  C     12.921750   -3.297430   -1.665550
  C     11.615660   -3.338270   -2.110610
  C     10.899560   -2.246260   -2.578380
  C     11.483570   -0.902430   -2.583590
  C     12.723730   -0.610740   -2.134980
  S     13.808300   -1.779820   -1.514090
  C     10.480700   -0.061520   -3.134130
  C      9.344810   -0.813380   -3.460060
  C      8.326710    0.004510   -4.006110
  C      8.707730    1.305680   -4.078160
  S     10.308940    1.605820   -3.492660
  C      9.592670   -2.189290   -3.119860
  C      8.749090   -3.311820   -3.286620
  C      7.529400   -3.308270   -3.882800
  C      6.714600   -4.456010   -4.074320
  C      6.912380   -5.758000   -3.686280
  C      5.883910   -6.634300   -4.094770
  C      4.862890   -5.959550   -4.822410
  S      5.210550   -4.263400   -4.963650
  C      3.768980   -6.609430   -5.343850
  C      3.678680   -7.988460   -5.146090
  C      4.696130   -8.664930   -4.419190
  C      5.785270   -8.013790   -3.890200
  S      4.371170  -10.375500   -4.335440
  C      2.903550  -10.181470   -5.286620
  C      2.679310   -8.871450   -5.613400
  C      2.135800  -11.331420   -5.660910
  C      1.132630  -11.278000   -6.602770
  C      0.400280  -12.375130   -7.050190
  C      0.565030  -13.688270   -6.419920
  C      1.494670  -13.966530   -5.476000
  S      2.611690  -12.819480   -4.874710
  C     -0.411170  -14.531610   -7.017840
  C     -1.126790  -13.812980   -7.971760
  C     -2.101810  -14.605860   -8.614150
  C     -2.102120  -15.878680   -8.136570
  S     -0.924210  -16.168350   -6.902540
  C     -0.614740  -12.462950   -8.036360
  C     -1.085630  -11.536910   -8.980160
  C     -0.545920  -10.330850   -9.352490
  C     -1.129210   -9.554810  -10.359470
  C     -0.719830   -8.331350  -10.841860
  C     -1.162070   -7.898390  -12.187480
  O     -2.033040   -8.400300  -12.865830
  C     -0.284710   -6.762040  -12.543410
  C     -0.205220   -6.063470  -13.711690
  C      0.748120   -5.025350  -13.831250
  C      1.603950   -4.733080  -12.730320
  C      2.555500   -3.703150  -12.858280
  C      2.636430   -3.006310  -14.031690
  C      1.804020   -3.277230  -15.125190
  C      0.874720   -4.274900  -15.017340
  F      3.545690   -2.020130  -14.155020
  C      1.491880   -5.469110  -11.526750
  C      0.559770   -6.465470  -11.435980
  C      0.203850   -7.358300  -10.334420
  C      0.546310   -7.144750   -9.017860
  C     -0.027520   -7.821850   -7.929860
  N     -0.455340   -8.310330   -6.980050
  C      1.447280   -6.162760   -8.569160
  N      2.195430   -5.418900   -8.112060
  H     21.134560   -3.480130   -0.506170
  H     22.007960   -6.483500    2.396350
  H     19.646450   -7.246440    2.347510
  H     18.868440   -3.248440   -1.405400
  H     17.347880   -7.031850    1.468800
  H     12.931140   -5.277240   -0.891220
  H     11.154540   -4.316470   -2.137240
  H     13.124320    0.390810   -2.138920
  H      7.357670   -0.326220   -4.330500
  H      8.136970    2.134390   -4.449260
  H      9.136970   -4.252020   -2.920470
  H      7.129140   -2.387910   -4.277450
  H      7.768840   -6.089460   -3.127650
  H      3.016800   -6.083040   -5.909780
  H      6.549480   -8.544520   -3.344980
  H      1.815870   -8.526460   -6.150410
  H      0.886290  -10.304510   -6.993610
  H      1.604270  -14.949710   -5.046130
  H     -2.770510  -14.264140   -9.383100
  H     -2.734010  -16.691730   -8.436370
  H     -1.982020  -11.845940   -9.506570
  H      0.383610   -9.998820   -8.919500
  H     -1.954670   -9.996810  -10.909150
  H     -0.859720   -6.297780  -14.537890
  H      3.211460   -3.465480  -12.035250
  H      1.913730   -2.694920  -16.026290
  H      0.222390   -4.502640  -15.847050
  H      2.155930   -5.230650  -10.710470

 Total Charge           Charge          ....    0
 Multiplicity           Mult            ....    1
 Number of Electrons    NEL             ....  594
 Basis Dimension        Dim             .... 1312

ORBITAL ENERGIES
----------------

  NO   OCC          E(Eh)            E(eV)
   0   2.0000     -88.991568     -2421.5837
   1   2.0000     -88.975291     -2421.1408
   2   2.0000     -88.963630     -2420.8234
   3   2.0000     -88.961490     -2420.7652
   4   2.0000     -88.952008     -2420.5072
   5   2.0000     -88.943789     -2420.2836
   6   2.0000     -24.783067      -674.3815
   7   2.0000     -24.778412      -674.2549
   8   2.0000     -19.209844      -522.7264
   9   2.0000     -19.198012      -522.4045
  10   2.0000     -14.411277      -392.1508
  11   2.0000     -14.411245      -392.1499
  12   2.0000     -14.411152      -392.1474
  13   2.0000     -14.407834      -392.0571
  14   2.0000     -10.366502      -282.0868
  15   2.0000     -10.361712      -281.9565
  16   2.0000     -10.361436      -281.9490
  17   2.0000     -10.349706      -281.6298
  18   2.0000     -10.341274      -281.4004
  19   2.0000     -10.337386      -281.2946
  20   2.0000     -10.337031      -281.2849
  21   2.0000     -10.335456      -281.2420
  22   2.0000     -10.332139      -281.1518
  23   2.0000     -10.330702      -281.1127
  24   2.0000     -10.328254      -281.0461
  25   2.0000     -10.325090      -280.9600
  26   2.0000     -10.318243      -280.7737
  27   2.0000     -10.316837      -280.7354
  28   2.0000     -10.316737      -280.7327
  29   2.0000     -10.315276      -280.6929
  30   2.0000     -10.313920      -280.6560
  31   2.0000     -10.312546      -280.6186
  32   2.0000     -10.310693      -280.5682
  33   2.0000     -10.309929      -280.5474
  34   2.0000     -10.305594      -280.4295
  35   2.0000     -10.304963      -280.4123
  36   2.0000     -10.302741      -280.3518
  37   2.0000     -10.302632      -280.3489
  38   2.0000     -10.302010      -280.3320
  39   2.0000     -10.301995      -280.3315
  40   2.0000     -10.301968      -280.3308
  41   2.0000     -10.301768      -280.3253
  42   2.0000     -10.301529      -280.3189
  43   2.0000     -10.300793      -280.2988
  44   2.0000     -10.299606      -280.2665
  45   2.0000     -10.298381      -280.2332
  46   2.0000     -10.297642      -280.2131
  47   2.0000     -10.297038      -280.1967
  48   2.0000     -10.296759      -280.1891
  49   2.0000     -10.296450      -280.1806
  50   2.0000     -10.295046      -280.1424
  51   2.0000     -10.294838      -280.1368
  52   2.0000     -10.293916      -280.1117
  53   2.0000     -10.293193      -280.0920
  54   2.0000     -10.292927      -280.0848
  55   2.0000     -10.291936      -280.0578
  56   2.0000     -10.291462      -280.0449
  57   2.0000     -10.291242      -280.0389
  58   2.0000     -10.290530      -280.0196
  59   2.0000     -10.289558      -279.9931
  60   2.0000     -10.289107      -279.9808
  61   2.0000     -10.288899      -279.9752
  62   2.0000     -10.287605      -279.9400
  63   2.0000     -10.286546      -279.9111
  64   2.0000     -10.286187      -279.9014
  65   2.0000     -10.286155      -279.9005
  66   2.0000     -10.285905      -279.8937
  67   2.0000     -10.283340      -279.8239
  68   2.0000     -10.282679      -279.8059
  69   2.0000     -10.281817      -279.7825
  70   2.0000     -10.281594      -279.7764
  71   2.0000     -10.281454      -279.7726
  72   2.0000     -10.281409      -279.7714
  73   2.0000     -10.281018      -279.7607
  74   2.0000     -10.279873      -279.7296
  75   2.0000     -10.279762      -279.7265
  76   2.0000     -10.279523      -279.7200
  77   2.0000     -10.278447      -279.6908
  78   2.0000     -10.276279      -279.6318
  79   2.0000     -10.275814      -279.6191
  80   2.0000     -10.275784      -279.6183
  81   2.0000     -10.273368      -279.5526
  82   2.0000      -8.086898      -220.0557
  83   2.0000      -8.070288      -219.6037
  84   2.0000      -8.059159      -219.3009
  85   2.0000      -8.056876      -219.2387
  86   2.0000      -8.048115      -219.0003
  87   2.0000      -8.039940      -218.7779
  88   2.0000      -6.056260      -164.7992
  89   2.0000      -6.051622      -164.6730
  90   2.0000      -6.049253      -164.6085
  91   2.0000      -6.039933      -164.3549
  92   2.0000      -6.035349      -164.2302
  93   2.0000      -6.032010      -164.1393
  94   2.0000      -6.028540      -164.0449
  95   2.0000      -6.026359      -163.9856
  96   2.0000      -6.024301      -163.9296
  97   2.0000      -6.022076      -163.8690
  98   2.0000      -6.021256      -163.8467
  99   2.0000      -6.018861      -163.7815
 100   2.0000      -6.017844      -163.7539
 101   2.0000      -6.013767      -163.6429
 102   2.0000      -6.009471      -163.5260
 103   2.0000      -6.009134      -163.5169
 104   2.0000      -6.005536      -163.4189
 105   2.0000      -6.001209      -163.3012
 106   2.0000      -1.297714       -35.3126
 107   2.0000      -1.292814       -35.1793
 108   2.0000      -1.124591       -30.6017
 109   2.0000      -1.112388       -30.2696
 110   2.0000      -1.016349       -27.6563
 111   2.0000      -1.016153       -27.6509
 112   2.0000      -1.012978       -27.5645
 113   2.0000      -1.011562       -27.5260
 114   2.0000      -1.000968       -27.2377
 115   2.0000      -0.996054       -27.1040
 116   2.0000      -0.993022       -27.0215
 117   2.0000      -0.990898       -26.9637
 118   2.0000      -0.989430       -26.9237
 119   2.0000      -0.985974       -26.8297
 120   2.0000      -0.978520       -26.6269
 121   2.0000      -0.970334       -26.4041
 122   2.0000      -0.969496       -26.3813
 123   2.0000      -0.966781       -26.3074
 124   2.0000      -0.938919       -25.5493
 125   2.0000      -0.937020       -25.4976
 126   2.0000      -0.924089       -25.1457
 127   2.0000      -0.921195       -25.0670
 128   2.0000      -0.916704       -24.9448
 129   2.0000      -0.909585       -24.7511
 130   2.0000      -0.904388       -24.6096
 131   2.0000      -0.894205       -24.3326
 132   2.0000      -0.889479       -24.2040
 133   2.0000      -0.883749       -24.0480
 134   2.0000      -0.881452       -23.9855
 135   2.0000      -0.876462       -23.8497
 136   2.0000      -0.874093       -23.7853
 137   2.0000      -0.872322       -23.7371
 138   2.0000      -0.858888       -23.3715
 139   2.0000      -0.857807       -23.3421
 140   2.0000      -0.845915       -23.0185
 141   2.0000      -0.835741       -22.7417
 142   2.0000      -0.831205       -22.6182
 143   2.0000      -0.830623       -22.6024
 144   2.0000      -0.825102       -22.4522
 145   2.0000      -0.823747       -22.4153
 146   2.0000      -0.815073       -22.1793
 147   2.0000      -0.807574       -21.9752
 148   2.0000      -0.799598       -21.7582
 149   2.0000      -0.789651       -21.4875
 150   2.0000      -0.781905       -21.2767
 151   2.0000      -0.776897       -21.1404
 152   2.0000      -0.763330       -20.7713
 153   2.0000      -0.756631       -20.5890
 154   2.0000      -0.752277       -20.4705
 155   2.0000      -0.743823       -20.2405
 156   2.0000      -0.735123       -20.0037
 157   2.0000      -0.727562       -19.7980
 158   2.0000      -0.723425       -19.6854
 159   2.0000      -0.712795       -19.3961
 160   2.0000      -0.710442       -19.3321
 161   2.0000      -0.705636       -19.2013
 162   2.0000      -0.700473       -19.0608
 163   2.0000      -0.695157       -18.9162
 164   2.0000      -0.684422       -18.6241
 165   2.0000      -0.680947       -18.5295
 166   2.0000      -0.676199       -18.4003
 167   2.0000      -0.673233       -18.3196
 168   2.0000      -0.671805       -18.2807
 169   2.0000      -0.668521       -18.1914
 170   2.0000      -0.659286       -17.9401
 171   2.0000      -0.657085       -17.8802
 172   2.0000      -0.651451       -17.7269
 173   2.0000      -0.643382       -17.5073
 174   2.0000      -0.640656       -17.4331
 175   2.0000      -0.632278       -17.2052
 176   2.0000      -0.627129       -17.0650
 177   2.0000      -0.626615       -17.0511
 178   2.0000      -0.625885       -17.0312
 179   2.0000      -0.621911       -16.9230
 180   2.0000      -0.620698       -16.8901
 181   2.0000      -0.619567       -16.8593
 182   2.0000      -0.614945       -16.7335
 183   2.0000      -0.606664       -16.5082
 184   2.0000      -0.600201       -16.3323
 185   2.0000      -0.593749       -16.1567
 186   2.0000      -0.586756       -15.9664
 187   2.0000      -0.583092       -15.8667
 188   2.0000      -0.582394       -15.8477
 189   2.0000      -0.575144       -15.6505
 190   2.0000      -0.573098       -15.5948
 191   2.0000      -0.568512       -15.4700
 192   2.0000      -0.566816       -15.4238
 193   2.0000      -0.565944       -15.4001
 194   2.0000      -0.559860       -15.2346
 195   2.0000      -0.556835       -15.1523
 196   2.0000      -0.555438       -15.1142
 197   2.0000      -0.555209       -15.1080
 198   2.0000      -0.550686       -14.9849
 199   2.0000      -0.549423       -14.9506
 200   2.0000      -0.546508       -14.8712
 201   2.0000      -0.542937       -14.7741
 202   2.0000      -0.540332       -14.7032
 203   2.0000      -0.538815       -14.6619
 204   2.0000      -0.536467       -14.5980
 205   2.0000      -0.534597       -14.5471
 206   2.0000      -0.530105       -14.4249
 207   2.0000      -0.525054       -14.2874
 208   2.0000      -0.523213       -14.2373
 209   2.0000      -0.522987       -14.2312
 210   2.0000      -0.521690       -14.1959
 211   2.0000      -0.520903       -14.1745
 212   2.0000      -0.520322       -14.1587
 213   2.0000      -0.519585       -14.1386
 214   2.0000      -0.516536       -14.0557
 215   2.0000      -0.515351       -14.0234
 216   2.0000      -0.514242       -13.9932
 217   2.0000      -0.509388       -13.8611
 218   2.0000      -0.507197       -13.8015
 219   2.0000      -0.504417       -13.7259
 220   2.0000      -0.503813       -13.7094
 221   2.0000      -0.501507       -13.6467
 222   2.0000      -0.497913       -13.5489
 223   2.0000      -0.496465       -13.5095
 224   2.0000      -0.490864       -13.3571
 225   2.0000      -0.490102       -13.3364
 226   2.0000      -0.485996       -13.2246
 227   2.0000      -0.483228       -13.1493
 228   2.0000      -0.482290       -13.1238
 229   2.0000      -0.481256       -13.0956
 230   2.0000      -0.480157       -13.0657
 231   2.0000      -0.473763       -12.8917
 232   2.0000      -0.472736       -12.8638
 233   2.0000      -0.469621       -12.7790
 234   2.0000      -0.467374       -12.7179
 235   2.0000      -0.463082       -12.6011
 236   2.0000      -0.462676       -12.5901
 237   2.0000      -0.461461       -12.5570
 238   2.0000      -0.459566       -12.5054
 239   2.0000      -0.456634       -12.4257
 240   2.0000      -0.454344       -12.3633
 241   2.0000      -0.453329       -12.3357
 242   2.0000      -0.452677       -12.3180
 243   2.0000      -0.451266       -12.2796
 244   2.0000      -0.448951       -12.2166
 245   2.0000      -0.447381       -12.1739
 246   2.0000      -0.444758       -12.1025
 247   2.0000      -0.441893       -12.0245
 248   2.0000      -0.440365       -11.9829
 249   2.0000      -0.438046       -11.9198
 250   2.0000      -0.437911       -11.9162
 251   2.0000      -0.436741       -11.8843
 252   2.0000      -0.434844       -11.8327
 253   2.0000      -0.433283       -11.7902
 254   2.0000      -0.432042       -11.7565
 255   2.0000      -0.430446       -11.7130
 256   2.0000      -0.427689       -11.6380
 257   2.0000      -0.426722       -11.6117
 258   2.0000      -0.423969       -11.5368
 259   2.0000      -0.422880       -11.5071
 260   2.0000      -0.422083       -11.4855
 261   2.0000      -0.420727       -11.4486
 262   2.0000      -0.419707       -11.4208
 263   2.0000      -0.418299       -11.3825
 264   2.0000      -0.418192       -11.3796
 265   2.0000      -0.414760       -11.2862
 266   2.0000      -0.412596       -11.2273
 267   2.0000      -0.411145       -11.1878
 268   2.0000      -0.409198       -11.1348
 269   2.0000      -0.406724       -11.0675
 270   2.0000      -0.399581       -10.8732
 271   2.0000      -0.399233       -10.8637
 272   2.0000      -0.395720       -10.7681
 273   2.0000      -0.384435       -10.4610
 274   2.0000      -0.380793       -10.3619
 275   2.0000      -0.374864       -10.2006
 276   2.0000      -0.373540       -10.1645
 277   2.0000      -0.372424       -10.1342
 278   2.0000      -0.367675       -10.0050
 279   2.0000      -0.353971        -9.6320
 280   2.0000      -0.343758        -9.3541
 281   2.0000      -0.337962        -9.1964
 282   2.0000      -0.334898        -9.1130
 283   2.0000      -0.326598        -8.8872
 284   2.0000      -0.323401        -8.8002
 285   2.0000      -0.320617        -8.7244
 286   2.0000      -0.311770        -8.4837
 287   2.0000      -0.308809        -8.4031
 288   2.0000      -0.302546        -8.2327
 289   2.0000      -0.299080        -8.1384
 290   2.0000      -0.295204        -8.0329
 291   2.0000      -0.289857        -7.8874
 292   2.0000      -0.281379        -7.6567
 293   2.0000      -0.277068        -7.5394
 294   2.0000      -0.264375        -7.1940
 295   2.0000      -0.241077        -6.5600
 296   2.0000      -0.226104        -6.1526
 297   0.0000      -0.103728        -2.8226
 298   0.0000      -0.094367        -2.5679
 299   0.0000      -0.059450        -1.6177
 300   0.0000      -0.054565        -1.4848
 301   0.0000      -0.047425        -1.2905

MULLIKEN ATOMIC CHARGES
-----------------------
   0 C :   -0.098799
   1 C :    0.304060
   2 F :   -0.192235
   3 C :   -0.031113
   4 C :   -0.009963
   5 C :    0.099127
   6 C :    0.101976
   7 C :   -0.087049
   8 C :    0.043154
   9 C :    0.009075
  10 C :   -0.082063
  11 C :    0.140421
  12 O :   -0.148304
  13 C :   -0.127421
  14 C :    0.257641
  15 C :   -0.324011
  16 C :   -0.216367
  17 N :    0.169181
  18 C :   -0.174329
  19 N :    0.150872
  20 C :    0.023819
  21 C :   -0.093001
  22 C :    0.002446
  23 C :    0.057911
  24 C :    0.073452
  25 C :   -0.112438
  26 S :    0.140764
  27 C :   -0.101081
  28 C :    0.045911
  29 C :   -0.003646
  30 C :   -0.064764
  31 S :    0.141035
  32 C :    0.115254
  33 C :   -0.013324
  34 C :    0.069022
  35 C :   -0.058040
  36 C :   -0.037976
  37 C :    0.115771
  38 C :   -0.053845
  39 S :    0.125291
  40 C :   -0.030106
  41 C :    0.109115
  42 C :   -0.034644
  43 C :   -0.062818
  44 S :    0.095087
  45 C :   -0.051580
  46 C :    0.003200
  47 C :   -0.019000
  48 C :   -0.036980
  49 C :    0.080494
  50 C :    0.054149
  51 C :   -0.125216
  52 S :    0.170119
  53 C :   -0.112214
  54 C :    0.058556
  55 C :    0.007338
  56 C :   -0.065480
  57 S :    0.131769
  58 C :    0.079111
  59 C :   -0.008386
  60 C :   -0.000230
  61 C :    0.018535
  62 C :   -0.133602
  63 C :    0.144410
  64 O :   -0.156654
  65 C :    0.007518
  66 C :   -0.084440
  67 C :    0.099524
  68 C :    0.101814
  69 C :   -0.099513
  70 C :    0.301831
  71 C :   -0.031258
  72 C :   -0.010505
  73 F :   -0.194642
  74 C :   -0.089345
  75 C :    0.033697
  76 C :    0.309129
  77 C :   -0.368037
  78 C :   -0.166177
  79 N :    0.116725
  80 C :   -0.143535
  81 N :    0.107763
  82 H :   -0.003132
  83 H :    0.002791
  84 H :   -0.010236
  85 H :   -0.005750
  86 H :   -0.013029
  87 H :    0.028043
  88 H :   -0.010886
  89 H :    0.039034
  90 H :   -0.003698
  91 H :    0.029810
  92 H :   -0.034100
  93 H :   -0.042904
  94 H :   -0.027695
  95 H :   -0.027367
  96 H :   -0.032587
  97 H :   -0.037980
  98 H :   -0.029852
  99 H :    0.041344
 100 H :   -0.013007
 101 H :    0.029523
 102 H :   -0.011217
 103 H :   -0.000953
 104 H :    0.011128
 105 H :   -0.015836
 106 H :   -0.005784
 107 H :    0.000569
 108 H :   -0.010846
 109 H :   -0.007322
Sum of atomic charges:   -0.0000000

LOEWDIN ATOMIC CHARGES
----------------------
   0 C :   -0.042822
   1 C :    0.092935
   2 F :   -0.066318
   3 C :   -0.038655
   4 C :    0.004199
   5 C :   -0.019928
   6 C :    0.003451
   7 C :    0.007919
   8 C :   -0.014953
   9 C :   -0.059385
  10 C :    0.033174
  11 C :    0.082682
  12 O :   -0.150018
  13 C :   -0.105906
  14 C :    0.056347
  15 C :   -0.146143
  16 C :   -0.037470
  17 N :   -0.055301
  18 C :   -0.019435
  19 N :   -0.055553
  20 C :    0.044543
  21 C :   -0.184541
  22 C :    0.030636
  23 C :   -0.030231
  24 C :   -0.053758
  25 C :   -0.125961
  26 S :    0.477697
  27 C :   -0.181514
  28 C :   -0.042696
  29 C :   -0.061446
  30 C :   -0.161303
  31 S :    0.434917
  32 C :   -0.012595
  33 C :   -0.009472
  34 C :   -0.034527
  35 C :   -0.147335
  36 C :   -0.055910
  37 C :   -0.036119
  38 C :   -0.153579
  39 S :    0.405885
  40 C :   -0.017770
  41 C :   -0.048082
  42 C :   -0.146674
  43 C :   -0.042738
  44 S :    0.373385
  45 C :   -0.184194
  46 C :   -0.022518
  47 C :   -0.154294
  48 C :   -0.012905
  49 C :    0.020402
  50 C :   -0.041764
  51 C :   -0.144516
  52 S :    0.488594
  53 C :   -0.210945
  54 C :   -0.032557
  55 C :   -0.064053
  56 C :   -0.160141
  57 S :    0.423675
  58 C :   -0.073073
  59 C :    0.052795
  60 C :   -0.056722
  61 C :    0.070984
  62 C :   -0.122458
  63 C :    0.079259
  64 O :   -0.158638
  65 C :   -0.055173
  66 C :    0.028966
  67 C :   -0.019518
  68 C :    0.001473
  69 C :   -0.043649
  70 C :    0.091179
  71 C :   -0.040160
  72 C :    0.002992
  73 F :   -0.068596
  74 C :    0.005898
  75 C :   -0.016553
  76 C :    0.078063
  77 C :   -0.170876
  78 C :   -0.009818
  79 N :   -0.075760
  80 C :   -0.010276
  81 N :   -0.076851
  82 H :    0.042821
  83 H :    0.041481
  84 H :    0.035271
  85 H :    0.038684
  86 H :    0.039128
  87 H :    0.049193
  88 H :    0.040953
  89 H :    0.038569
  90 H :    0.031027
  91 H :    0.025767
  92 H :    0.026836
  93 H :    0.026100
  94 H :    0.026695
  95 H :    0.034016
  96 H :    0.030140
  97 H :    0.033650
  98 H :    0.039441
  99 H :    0.038915
 100 H :    0.031374
 101 H :    0.024960
 102 H :    0.036224
 103 H :    0.025868
 104 H :    0.041790
 105 H :    0.038141
 106 H :    0.041797
 107 H :    0.040604
 108 H :    0.034840
 109 H :    0.037809

  Mayer bond orders larger than 0.100000
B(  0-C ,  1-C ) :   1.4389 B(  0-C ,  6-C ) :   1.2027 B(  0-C , 82-H ) :   1.0078
B(  1-C ,  2-F ) :   1.0867 B(  1-C ,  3-C ) :   1.2548 B(  3-C ,  4-C ) :   1.4591
B(  3-C , 83-H ) :   0.9935 B(  4-C ,  5-C ) :   1.2349 B(  4-C , 84-H ) :   0.9976
B(  5-C ,  6-C ) :   1.2577 B(  5-C , 10-C ) :   1.1886 B(  6-C ,  7-C ) :   1.1985
B(  7-C ,  8-C ) :   1.4641 B(  7-C , 85-H ) :   0.9961 B(  8-C ,  9-C ) :   1.2154
B(  8-C , 14-C ) :   1.0001 B(  9-C , 10-C ) :   1.4721 B(  9-C , 11-C ) :   0.9219
B( 10-C , 86-H ) :   1.0163 B( 11-C , 12-O ) :   2.2655 B( 11-C , 13-C ) :   0.9462
B( 13-C , 14-C ) :   1.0549 B( 13-C , 20-C ) :   1.5847 B( 14-C , 15-C ) :   1.6351
B( 15-C , 16-C ) :   1.1565 B( 15-C , 18-C ) :   1.1417 B( 16-C , 17-N ) :   3.0211
B( 18-C , 19-N ) :   2.9849 B( 20-C , 21-C ) :   1.1621 B( 20-C , 87-H ) :   0.9468
B( 21-C , 22-C ) :   1.4564 B( 21-C , 26-S ) :   1.0416 B( 22-C , 23-C ) :   1.2556
B( 22-C , 88-H ) :   0.9750 B( 23-C , 24-C ) :   1.0454 B( 23-C , 32-C ) :   1.3316
B( 24-C , 25-C ) :   1.5978 B( 24-C , 27-C ) :   1.1889 B( 25-C , 26-S ) :   1.1526
B( 25-C , 89-H ) :   0.9418 B( 27-C , 28-C ) :   1.4302 B( 27-C , 31-S ) :   1.0948
B( 28-C , 29-C ) :   1.2022 B( 28-C , 32-C ) :   1.0965 B( 29-C , 30-C ) :   1.6056
B( 29-C , 90-H ) :   0.9986 B( 30-C , 31-S ) :   1.1458 B( 30-C , 91-H ) :   0.9631
B( 32-C , 33-C ) :   1.1927 B( 33-C , 34-C ) :   1.6424 B( 33-C , 92-H ) :   0.9586
B( 34-C , 35-C ) :   1.1170 B( 34-C , 93-H ) :   0.9642 B( 35-C , 36-C ) :   1.5420
B( 35-C , 39-S ) :   1.0766 B( 36-C , 37-C ) :   1.1778 B( 36-C , 94-H ) :   0.9948
B( 37-C , 38-C ) :   1.2647 B( 37-C , 43-C ) :   1.3016 B( 38-C , 39-S ) :   1.0533
B( 38-C , 40-C ) :   1.3967 B( 40-C , 41-C ) :   1.3068 B( 40-C , 95-H ) :   0.9938
B( 41-C , 42-C ) :   1.2666 B( 41-C , 46-C ) :   1.1705 B( 42-C , 43-C ) :   1.3981
B( 42-C , 44-S ) :   1.0399 B( 43-C , 96-H ) :   1.0018 B( 44-S , 45-C ) :   1.0571
B( 45-C , 46-C ) :   1.5771 B( 45-C , 47-C ) :   1.1031 B( 46-C , 97-H ) :   0.9861
B( 47-C , 48-C ) :   1.5147 B( 47-C , 52-S ) :   1.0926 B( 48-C , 49-C ) :   1.2862
B( 48-C , 98-H ) :   0.9570 B( 49-C , 50-C ) :   1.0816 B( 49-C , 58-C ) :   1.2888
B( 50-C , 51-C ) :   1.5756 B( 50-C , 53-C ) :   1.1737 B( 51-C , 52-S ) :   1.1618
B( 51-C , 99-H ) :   0.9414 B( 53-C , 54-C ) :   1.4558 B( 53-C , 57-S ) :   1.0712
B( 54-C , 55-C ) :   1.2277 B( 54-C , 58-C ) :   1.0842 B( 55-C , 56-C ) :   1.5817
B( 55-C ,100-H ) :   0.9975 B( 56-C , 57-S ) :   1.1609 B( 56-C ,101-H ) :   0.9663
B( 58-C , 59-C ) :   1.2272 B( 59-C , 60-C ) :   1.4854 B( 59-C ,102-H ) :   0.9713
B( 60-C , 61-C ) :   1.2603 B( 60-C ,103-H ) :   0.9624 B( 61-C , 62-C ) :   1.4471
B( 61-C ,104-H ) :   0.9564 B( 62-C , 63-C ) :   0.9631 B( 62-C , 76-C ) :   1.1141
B( 63-C , 64-O ) :   2.2529 B( 63-C , 65-C ) :   0.9152 B( 65-C , 66-C ) :   1.4851
B( 65-C , 75-C ) :   1.2171 B( 66-C , 67-C ) :   1.1799 B( 66-C ,105-H ) :   1.0148
B( 67-C , 68-C ) :   1.2620 B( 67-C , 72-C ) :   1.2411 B( 68-C , 69-C ) :   1.2035
B( 68-C , 74-C ) :   1.1982 B( 69-C , 70-C ) :   1.4393 B( 69-C ,106-H ) :   1.0060
B( 70-C , 71-C ) :   1.2605 B( 70-C , 73-F ) :   1.0842 B( 71-C , 72-C ) :   1.4540
B( 71-C ,107-H ) :   0.9925 B( 72-C ,108-H ) :   0.9963 B( 74-C , 75-C ) :   1.4681
B( 74-C ,109-H ) :   0.9919 B( 75-C , 76-C ) :   0.9918 B( 76-C , 77-C ) :   1.5526
B( 77-C , 78-C ) :   1.2054 B( 77-C , 80-C ) :   1.1497 B( 78-C , 79-N ) :   2.8404
B( 80-C , 81-N ) :   2.8776

-----------------------------------------------------------------------------
         ABSORPTION SPECTRUM VIA TRANSITION ELECTRIC DIPOLE MOMENTS
-----------------------------------------------------------------------------
State   Energy  Wavelength   fosc         T2         TX        TY        TZ
        (cm-1)    (nm)                  (au**2)     (au)      (au)      (au)
-----------------------------------------------------------------------------
   0   12450.4    803.2   1.005383611  26.58431  -4.29564   0.08095  -2.85048
   1   14113.2    708.6   0.411204906   9.59195  -2.88214  -1.03389   0.46504
   2   19449.4    514.2   0.235187344   3.98092   0.82750   1.78619  -0.32508
   3   20401.5    490.2   0.714318782  11.52670  -0.16571   3.38549  -0.19408
   4   21757.1    459.6   0.160750877   2.43236  -1.32799  -0.72053  -0.38683
   5   22126.4    451.9   0.177058680   2.63440  -0.81614  -1.22748  -0.67942
   6   22411.7    446.2   0.046867327   0.68845  -0.56795   0.10473  -0.59575
   7   22749.1    439.6   0.007660987   0.11087   0.18236   0.24328   0.13574
   8   23783.7    420.5   0.085940549   1.18958  -0.73360  -0.14406  -0.79415
   9   24328.3    411.0   0.048559007   0.65710  -0.32753   0.43731  -0.59882
  10   24579.0    406.9   0.223324113   2.99121   0.81083   1.51547   0.19264
  11   24893.0    401.7   0.017142022   0.22670  -0.13139  -0.34176  -0.30438
  12   26341.2    379.6   0.147634362   1.84513  -0.84996  -0.97644  -0.41141
  13   26656.4    375.1   0.204932174   2.53096   0.19521   1.56807  -0.18440
  14   27122.0    368.7   0.346685281   4.20814   0.00108   1.52271  -1.37459
  15   27523.0    363.3   0.433574073   5.18614  -1.02348  -2.02774   0.16401
  16   27592.3    362.4   0.078976403   0.94229  -0.59399  -0.05029  -0.76612
  17   27755.0    360.3   0.044828659   0.53173  -0.22331  -0.57892   0.38303
  18   28400.7    352.1   0.058289348   0.67567   0.40920   0.07352   0.70910
  19   29043.5    344.3   0.147268163   1.66930  -0.77855  -0.74979  -0.70779
  20   29315.6    341.1   0.095799386   1.07582  -0.82140  -0.06711  -0.62978
  21   29614.2    337.7   0.011249039   0.12505  -0.26544  -0.22488   0.06340
  22   29815.0    335.4   0.034437873   0.38026   0.16098   0.10117   0.58661
  23   30912.7    323.5   0.070236149   0.74800  -0.20568   0.35406  -0.76180
  24   31294.4    319.5   0.179981061   1.89337  -0.77968  -1.09974   0.27577
  25   31333.7    319.1   0.009526292   0.10009   0.21966  -0.05935   0.21981
  26   31799.8    314.5   0.013190132   0.13655   0.25627   0.03322  -0.26415
  27   32104.7    311.5   0.041971911   0.43039  -0.04475   0.19467  -0.62490
  28   32193.8    310.6   0.026195318   0.26787  -0.18325  -0.46608  -0.13062
  29   32237.0    310.2   0.101043214   1.03188  -0.12697  -0.58792   0.81860
  30   32498.8    307.7   0.068614064   0.69506  -0.37869   0.58895  -0.45254
  31   32960.9    303.4   0.202232344   2.01989  -1.14492   0.13591  -0.83101
  32   33304.3    300.3   0.504776002   4.98969  -0.11293   1.59964  -1.55502
  33   33434.1    299.1   0.056537072   0.55670   0.47081   0.35715  -0.45550
  34   33518.2    298.3   0.021756094   0.21369  -0.16339  -0.41817  -0.11011
  35   33770.8    296.1   0.298281910   2.90777  -1.65442  -0.36234  -0.19842
  36   33968.3    294.4   0.293093831   2.84059  -0.50353  -1.27022   0.98670
  37   34116.3    293.1   0.101019490   0.97481  -0.67690   0.62908  -0.34766
  38   34283.5    291.7   0.748599288   7.18852   1.98632  -1.14789   1.38758
  39   34544.2    289.5   0.194129900   1.85009  -1.30615   0.08781  -0.36927
  40   34810.8    287.3   0.053718101   0.50802   0.11823  -0.26074   0.65273
  41   35113.9    284.8   0.070236574   0.65851   0.63126  -0.38231   0.33743
  42   35272.5    283.5   0.026763061   0.24979  -0.16044   0.32161   0.34730
  43   35577.6    281.1   0.066888916   0.61895   0.04454  -0.74575   0.24660
  44   36074.6    277.2   0.021144958   0.19297  -0.23288   0.22987  -0.29307
  45   36261.9    275.8   0.062623116   0.56854  -0.13769   0.04390  -0.74003
  46   36362.7    275.0   0.056791632   0.51417  -0.44610  -0.21692   0.51779
  47   36786.7    271.8   0.105647893   0.94546   0.38587   0.71277   0.53715
  48   36952.3    270.6   0.018679524   0.16642  -0.12481   0.10871  -0.37286
  49   37398.6    267.4   0.017454410   0.15365  -0.19145  -0.06878  -0.33506
  50   37522.1    266.5   0.021424185   0.18797   0.20207  -0.04271  -0.38121
  51   37697.3    265.3   0.165245947   1.44310  -0.70125  -0.95394  -0.20335
  52   37828.4    264.4   0.064711313   0.56317  -0.06618  -0.54275   0.51402
  53   37980.9    263.3   0.086467385   0.74948  -0.59033   0.35765  -0.52257
  54   38177.1    261.9   0.006921086   0.05968  -0.02301   0.18837  -0.15385
  55   38505.6    259.7   0.064838407   0.55435  -0.13057  -0.37587   0.62930
  56   38622.7    258.9   0.170845306   1.45625   0.25530  -0.81903   0.84869
  57   38823.3    257.6   0.035233495   0.29877  -0.44944  -0.11865  -0.28757
  58   38942.3    256.8   0.106124055   0.89716  -0.94559  -0.02988   0.04611
  59   39159.3    255.4   0.129006958   1.08456  -0.74438  -0.36729  -0.62893
  60   39525.5    253.0   0.025976526   0.21636  -0.04979  -0.05571   0.45911
  61   39570.6    252.7   0.206447016   1.71756  -1.01528  -0.35297  -0.74978
  62   39643.3    252.2   0.113625905   0.94359   0.32316   0.40511  -0.82161
  63   39845.0    251.0   0.030538376   0.25232   0.35041   0.23219  -0.27499
  64   40001.6    250.0   0.322956949   2.65792   1.03707   1.03668   0.71253
  65   40187.9    248.8   0.045187712   0.37017   0.41945   0.03194   0.43956

FINAL SINGLE POINT ENERGY     -5561.542521689239

DIPOLE MOMENT
-------------
                                X             Y             Z
Electronic contribution:     21.88413       6.68367       8.97268
Nuclear contribution   :    -22.32582      -8.03725      -7.74844
                        -----------------------------------------
Total Dipole Moment    :     -0.44169      -1.35358       1.22424
                        -----------------------------------------
Magnitude (a.u.)       :      1.87777
Magnitude (Debye)      :      4.77291

Rotational constants in cm-1:     0.000828     0.000193     0.000167
Rotational constants in MHz :    24.811244     5.798961     5.013161

                             ****ORCA TERMINATED NORMALLY****
TOTAL RUN TIME: 0 days 0 hours 12 minutes 2 seconds 200 msec
