                         Program Version 4.2.0 -  RELEASE  -
|  1> # ORCA input file
|  2> # SCF done       -214.264953249329          0.000501773785
|  3> ! CAM-B3LYP def2-SVP def2/J RIJCOSX Grid4 TightSCF
|  4> %maxcore 5000
|  5> %tddft
|  6>     Mode sTDDFT
|  7>     Ethresh 5.0
|  8>     maxcore 5000
|  9> end
| 10>
| 11> %pal
| 12>   nprocs 6
| 13>   end
| 14> * xyz 0 1
| 15>    C       -1.12390         2.12293         1.78355
| 16>    C       -0.72292         3.15135         2.59662
| 17>    C       -1.09833         3.27268         3.94935
| 18>    N       -1.39337         3.43052         5.04733
| 19>    C        0.17998         4.15488         2.19072
| 20>    N        0.94024         4.96686         1.90577
| 21>    C       -1.80571         0.91460         2.23141
| 22>    C       -1.56624        -0.11808         1.27744
| 23>    C       -2.04211        -1.38443         1.46004
| 24>    C       -2.80013        -1.67606         2.61682
| 25>    C       -3.05948        -0.64232         3.56300
| 26>    C       -2.54795         0.65869         3.35225
| 27>    C       -3.82326        -0.94541         4.70833
| 28>    C       -4.30449        -2.20959         4.91439
| 29>    C       -4.04655        -3.22743         3.98404
| 30>    C       -3.31068        -2.96640         2.86004
| 31>    C       -0.78043         0.42610         0.15487
| 32>    O       -0.34506        -0.15942        -0.80897
| 33>    C       -0.68842         1.89172         0.42149
| 34>    C       -0.33918         2.73837        -0.58294
| 35>    C       -0.57025         4.13122        -0.69108
| 36>    C        0.11399         5.01389        -1.51138
| 37>    C       -0.35942         6.31771        -1.39644
| 38>    C       -1.44897         6.42175        -0.50946
| 39>    S       -1.87474         4.92921         0.18588
| 40>    C       -1.85087         7.77511        -0.44178
| 41>    C       -1.01147         8.53604        -1.27310
| 42>    C       -0.03929         7.64649        -1.89315
| 43>    C        0.97927         7.99768        -2.72706
| 44>    C        1.25860         9.34281        -3.05576
| 45>    N        1.52264        10.43238        -3.29306
| 46>    C        1.85224         7.04003        -3.28742
| 47>    N        2.55844         6.26455        -3.74972
| 48>    C       -1.32198         9.89382        -1.26631
| 49>    C       -2.39224        10.17221        -0.43348
| 50>    S       -3.01188         8.73144         0.36319
| 51>    C       -2.94758        11.44446        -0.11928
| 52>    S       -3.50411        11.75095         1.48852
| 53>    C       -3.74506        13.44008         1.18812
| 54>    C       -3.39251        13.76131        -0.13305
| 55>    C       -3.00957        12.60768        -0.89711
| 56>    C       -2.75216        12.73114        -2.29050
| 57>    C       -2.68683        11.57819        -3.23119
| 58>    O       -1.92754        11.50521        -4.15393
| 59>    O       -3.62482        10.62251        -3.03596
| 60>    C       -2.67183        13.99068        -2.83365
| 61>    C       -2.90195        15.13232        -2.06098
| 62>    C       -3.28771        15.04332        -0.74294
| 63>    O       -3.54183        16.14234        -0.00555
| 64>    C       -4.26500        14.20939         2.26235
| 65>    C       -4.98678        15.39081         2.25600
| 66>    C       -5.38189        15.77189         3.53538
| 67>    C       -4.98131        14.86417         4.53185
| 68>    S       -4.09268        13.55579         3.89207
| 69>    C       -5.46517        15.31760         5.77913
| 70>    C       -6.17428        16.52554         5.57701
| 71>    C       -6.12946        16.85414         4.16120
| 72>    C       -6.64303        17.95049         3.53389
| 73>    C       -7.36189        18.96745         4.19993
| 74>    N       -7.95459        19.81161         4.69907
| 75>    C       -6.47145        18.15423         2.14778
| 76>    N       -6.32033        18.32889         1.02423
| 77>    C       -6.70448        17.04728         6.74941
| 78>    C       -6.41397        16.25576         7.85457
| 79>    S       -5.45415        14.83442         7.40542
| 80>    C       -6.74507        16.33737         9.22177
| 81>    C       -7.43720        17.27104         9.94233
| 82>    C       -7.70595        17.14730        11.36811
| 83>    C       -7.47661        16.05539        12.16622
| 84>    C       -7.77325        16.00942        13.54545
| 85>    N       -7.98307        15.89618        14.66850
| 86>    C       -6.94703        14.81253        11.75995
| 87>    N       -6.53885        13.76496        11.52182
| 88>    C       -8.32621        18.38857        11.81556
| 89>    C       -8.49807        19.23966        10.68846
| 90>    C       -7.97545        18.57653         9.48350
| 91>    O       -7.98467        19.03483         8.35999
| 92>    C       -9.06931        20.47507        10.79247
| 93>    C       -9.50167        20.92771        12.05879
| 94>    C       -9.32734        20.08567        13.19496
| 95>    C       -8.73365        18.81047        13.05393
| 96>    C       -9.75909        20.54759        14.45501
| 97>    C      -10.33679        21.78084        14.58795
| 98>    C      -10.50870        22.60864        13.46838
| 99>    C      -10.10004        22.19126        12.23066
|100>    H       -1.84157        -2.15651         0.73221
|101>    H       -2.76450         1.42654         4.07876
|102>    H       -4.01557        -0.15916         5.42353
|103>    H       -4.88590        -2.43257         5.79641
|104>    H       -4.43382        -4.21939         4.16240
|105>    H       -3.10911        -3.74639         2.14048
|106>    H        0.11968         2.27096        -1.44931
|107>    H        0.94052         4.70677        -2.12644
|108>    H       -0.78224        10.65017        -1.80600
|109>    H       -4.21802        10.83096        -2.30236
|110>    H       -2.44581        14.08951        -3.88368
|111>    H       -2.80583        16.10715        -2.51732
|112>    H       -3.43223        16.94107        -0.53947
|113>    H       -5.22619        15.92616         1.35907
|114>    H       -7.27689        17.95486         6.82995
|115>    H       -6.36883        15.49240         9.78676
|116>    H       -9.18917        21.09732         9.91806
|117>    H       -8.61454        18.20102        13.93525
|118>    H       -9.62548        19.90608        15.31373
|119>    H      -10.66490        22.12531        15.55720
|120>    H      -10.96648        23.57873        13.59169
|121>    H      -10.22960        22.82401        11.36488
|122> *
|123>
|124>                          ****END OF INPUT****

CARTESIAN COORDINATES (ANGSTROEM)
---------------------------------
  C     -1.123900    2.122930    1.783550
  C     -0.722920    3.151350    2.596620
  C     -1.098330    3.272680    3.949350
  N     -1.393370    3.430520    5.047330
  C      0.179980    4.154880    2.190720
  N      0.940240    4.966860    1.905770
  C     -1.805710    0.914600    2.231410
  C     -1.566240   -0.118080    1.277440
  C     -2.042110   -1.384430    1.460040
  C     -2.800130   -1.676060    2.616820
  C     -3.059480   -0.642320    3.563000
  C     -2.547950    0.658690    3.352250
  C     -3.823260   -0.945410    4.708330
  C     -4.304490   -2.209590    4.914390
  C     -4.046550   -3.227430    3.984040
  C     -3.310680   -2.966400    2.860040
  C     -0.780430    0.426100    0.154870
  O     -0.345060   -0.159420   -0.808970
  C     -0.688420    1.891720    0.421490
  C     -0.339180    2.738370   -0.582940
  C     -0.570250    4.131220   -0.691080
  C      0.113990    5.013890   -1.511380
  C     -0.359420    6.317710   -1.396440
  C     -1.448970    6.421750   -0.509460
  S     -1.874740    4.929210    0.185880
  C     -1.850870    7.775110   -0.441780
  C     -1.011470    8.536040   -1.273100
  C     -0.039290    7.646490   -1.893150
  C      0.979270    7.997680   -2.727060
  C      1.258600    9.342810   -3.055760
  N      1.522640   10.432380   -3.293060
  C      1.852240    7.040030   -3.287420
  N      2.558440    6.264550   -3.749720
  C     -1.321980    9.893820   -1.266310
  C     -2.392240   10.172210   -0.433480
  S     -3.011880    8.731440    0.363190
  C     -2.947580   11.444460   -0.119280
  S     -3.504110   11.750950    1.488520
  C     -3.745060   13.440080    1.188120
  C     -3.392510   13.761310   -0.133050
  C     -3.009570   12.607680   -0.897110
  C     -2.752160   12.731140   -2.290500
  C     -2.686830   11.578190   -3.231190
  O     -1.927540   11.505210   -4.153930
  O     -3.624820   10.622510   -3.035960
  C     -2.671830   13.990680   -2.833650
  C     -2.901950   15.132320   -2.060980
  C     -3.287710   15.043320   -0.742940
  O     -3.541830   16.142340   -0.005550
  C     -4.265000   14.209390    2.262350
  C     -4.986780   15.390810    2.256000
  C     -5.381890   15.771890    3.535380
  C     -4.981310   14.864170    4.531850
  S     -4.092680   13.555790    3.892070
  C     -5.465170   15.317600    5.779130
  C     -6.174280   16.525540    5.577010
  C     -6.129460   16.854140    4.161200
  C     -6.643030   17.950490    3.533890
  C     -7.361890   18.967450    4.199930
  N     -7.954590   19.811610    4.699070
  C     -6.471450   18.154230    2.147780
  N     -6.320330   18.328890    1.024230
  C     -6.704480   17.047280    6.749410
  C     -6.413970   16.255760    7.854570
  S     -5.454150   14.834420    7.405420
  C     -6.745070   16.337370    9.221770
  C     -7.437200   17.271040    9.942330
  C     -7.705950   17.147300   11.368110
  C     -7.476610   16.055390   12.166220
  C     -7.773250   16.009420   13.545450
  N     -7.983070   15.896180   14.668500
  C     -6.947030   14.812530   11.759950
  N     -6.538850   13.764960   11.521820
  C     -8.326210   18.388570   11.815560
  C     -8.498070   19.239660   10.688460
  C     -7.975450   18.576530    9.483500
  O     -7.984670   19.034830    8.359990
  C     -9.069310   20.475070   10.792470
  C     -9.501670   20.927710   12.058790
  C     -9.327340   20.085670   13.194960
  C     -8.733650   18.810470   13.053930
  C     -9.759090   20.547590   14.455010
  C    -10.336790   21.780840   14.587950
  C    -10.508700   22.608640   13.468380
  C    -10.100040   22.191260   12.230660
  H     -1.841570   -2.156510    0.732210
  H     -2.764500    1.426540    4.078760
  H     -4.015570   -0.159160    5.423530
  H     -4.885900   -2.432570    5.796410
  H     -4.433820   -4.219390    4.162400
  H     -3.109110   -3.746390    2.140480
  H      0.119680    2.270960   -1.449310
  H      0.940520    4.706770   -2.126440
  H     -0.782240   10.650170   -1.806000
  H     -4.218020   10.830960   -2.302360
  H     -2.445810   14.089510   -3.883680
  H     -2.805830   16.107150   -2.517320
  H     -3.432230   16.941070   -0.539470
  H     -5.226190   15.926160    1.359070
  H     -7.276890   17.954860    6.829950
  H     -6.368830   15.492400    9.786760
  H     -9.189170   21.097320    9.918060
  H     -8.614540   18.201020   13.935250
  H     -9.625480   19.906080   15.313730
  H    -10.664900   22.125310   15.557200
  H    -10.966480   23.578730   13.591690
  H    -10.229600   22.824010   11.364880

 Total Charge           Charge          ....    0
 Multiplicity           Mult            ....    1
 Number of Electrons    NEL             ....  600
 Basis Dimension        Dim             .... 1320

ORBITAL ENERGIES
----------------

  NO   OCC          E(Eh)            E(eV)
   0   2.0000     -89.001744     -2421.8606
   1   2.0000     -89.000257     -2421.8201
   2   2.0000     -88.998715     -2421.7782
   3   2.0000     -88.997370     -2421.7416
   4   2.0000     -88.995322     -2421.6858
   5   2.0000     -19.281873      -524.6864
   6   2.0000     -19.260547      -524.1061
   7   2.0000     -19.220569      -523.0183
   8   2.0000     -19.214886      -522.8636
   9   2.0000     -19.201380      -522.4961
  10   2.0000     -14.440879      -392.9563
  11   2.0000     -14.434324      -392.7779
  12   2.0000     -14.430722      -392.6799
  13   2.0000     -14.427721      -392.5983
  14   2.0000     -14.419834      -392.3836
  15   2.0000     -14.417635      -392.3238
  16   2.0000     -14.416469      -392.2921
  17   2.0000     -14.414861      -392.2483
  18   2.0000     -10.405407      -283.1455
  19   2.0000     -10.374340      -282.3001
  20   2.0000     -10.373278      -282.2712
  21   2.0000     -10.371411      -282.2204
  22   2.0000     -10.367405      -282.1114
  23   2.0000     -10.366876      -282.0970
  24   2.0000     -10.361384      -281.9476
  25   2.0000     -10.353295      -281.7275
  26   2.0000     -10.351348      -281.6745
  27   2.0000     -10.346784      -281.5503
  28   2.0000     -10.345152      -281.5059
  29   2.0000     -10.344533      -281.4891
  30   2.0000     -10.344078      -281.4767
  31   2.0000     -10.343963      -281.4735
  32   2.0000     -10.343381      -281.4577
  33   2.0000     -10.342827      -281.4426
  34   2.0000     -10.342728      -281.4399
  35   2.0000     -10.341471      -281.4057
  36   2.0000     -10.339989      -281.3654
  37   2.0000     -10.338358      -281.3210
  38   2.0000     -10.337261      -281.2912
  39   2.0000     -10.333411      -281.1864
  40   2.0000     -10.333234      -281.1816
  41   2.0000     -10.330372      -281.1037
  42   2.0000     -10.330347      -281.1030
  43   2.0000     -10.328372      -281.0493
  44   2.0000     -10.326816      -281.0069
  45   2.0000     -10.325593      -280.9737
  46   2.0000     -10.322869      -280.8996
  47   2.0000     -10.320481      -280.8346
  48   2.0000     -10.320206      -280.8271
  49   2.0000     -10.318809      -280.7891
  50   2.0000     -10.318632      -280.7843
  51   2.0000     -10.318179      -280.7719
  52   2.0000     -10.317625      -280.7568
  53   2.0000     -10.314132      -280.6618
  54   2.0000     -10.313326      -280.6399
  55   2.0000     -10.312170      -280.6084
  56   2.0000     -10.310373      -280.5595
  57   2.0000     -10.309722      -280.5418
  58   2.0000     -10.307955      -280.4937
  59   2.0000     -10.307696      -280.4867
  60   2.0000     -10.305198      -280.4187
  61   2.0000     -10.304807      -280.4080
  62   2.0000     -10.303601      -280.3752
  63   2.0000     -10.303448      -280.3711
  64   2.0000     -10.300264      -280.2844
  65   2.0000     -10.299317      -280.2587
  66   2.0000     -10.298900      -280.2473
  67   2.0000     -10.298522      -280.2370
  68   2.0000     -10.298291      -280.2307
  69   2.0000     -10.298257      -280.2298
  70   2.0000     -10.298230      -280.2291
  71   2.0000     -10.298048      -280.2241
  72   2.0000     -10.297393      -280.2063
  73   2.0000     -10.296970      -280.1948
  74   2.0000     -10.292603      -280.0760
  75   2.0000     -10.290875      -280.0289
  76   2.0000     -10.289054      -279.9794
  77   2.0000     -10.287684      -279.9421
  78   2.0000     -10.287274      -279.9310
  79   2.0000     -10.287103      -279.9263
  80   2.0000     -10.287050      -279.9249
  81   2.0000     -10.286628      -279.9134
  82   2.0000     -10.286618      -279.9131
  83   2.0000     -10.286420      -279.9077
  84   2.0000     -10.286028      -279.8970
  85   2.0000      -8.096538      -220.3180
  86   2.0000      -8.095092      -220.2786
  87   2.0000      -8.093460      -220.2342
  88   2.0000      -8.092936      -220.2200
  89   2.0000      -8.089583      -220.1288
  90   2.0000      -6.065885      -165.0611
  91   2.0000      -6.064161      -165.0142
  92   2.0000      -6.062747      -164.9757
  93   2.0000      -6.062016      -164.9559
  94   2.0000      -6.061596      -164.9444
  95   2.0000      -6.060033      -164.9019
  96   2.0000      -6.058877      -164.8704
  97   2.0000      -6.058734      -164.8665
  98   2.0000      -6.058553      -164.8616
  99   2.0000      -6.057774      -164.8404
 100   2.0000      -6.057652      -164.8371
 101   2.0000      -6.055749      -164.7853
 102   2.0000      -6.055508      -164.7788
 103   2.0000      -6.054628      -164.7548
 104   2.0000      -6.051938      -164.6816
 105   2.0000      -1.183150       -32.1952
 106   2.0000      -1.180105       -32.1123
 107   2.0000      -1.135727       -30.9047
 108   2.0000      -1.130374       -30.7590
 109   2.0000      -1.099203       -29.9108
 110   2.0000      -1.056873       -28.7590
 111   2.0000      -1.051429       -28.6108
 112   2.0000      -1.033498       -28.1229
 113   2.0000      -1.029670       -28.0187
 114   2.0000      -1.022623       -27.8270
 115   2.0000      -1.020844       -27.7786
 116   2.0000      -1.020193       -27.7609
 117   2.0000      -1.013978       -27.5917
 118   2.0000      -1.008869       -27.4527
 119   2.0000      -1.006210       -27.3804
 120   2.0000      -1.001796       -27.2602
 121   2.0000      -1.000514       -27.2254
 122   2.0000      -0.999846       -27.2072
 123   2.0000      -0.995156       -27.0796
 124   2.0000      -0.994670       -27.0664
 125   2.0000      -0.974525       -26.5182
 126   2.0000      -0.973720       -26.4963
 127   2.0000      -0.969254       -26.3747
 128   2.0000      -0.963734       -26.2245
 129   2.0000      -0.954092       -25.9622
 130   2.0000      -0.932645       -25.3786
 131   2.0000      -0.928786       -25.2736
 132   2.0000      -0.923918       -25.1411
 133   2.0000      -0.919236       -25.0137
 134   2.0000      -0.905973       -24.6528
 135   2.0000      -0.899841       -24.4859
 136   2.0000      -0.892686       -24.2912
 137   2.0000      -0.883181       -24.0326
 138   2.0000      -0.883119       -24.0309
 139   2.0000      -0.880926       -23.9712
 140   2.0000      -0.878548       -23.9065
 141   2.0000      -0.871952       -23.7270
 142   2.0000      -0.869516       -23.6607
 143   2.0000      -0.866825       -23.5875
 144   2.0000      -0.863292       -23.4914
 145   2.0000      -0.857206       -23.3258
 146   2.0000      -0.846433       -23.0326
 147   2.0000      -0.829731       -22.5781
 148   2.0000      -0.829119       -22.5615
 149   2.0000      -0.824268       -22.4295
 150   2.0000      -0.812995       -22.1227
 151   2.0000      -0.795801       -21.6548
 152   2.0000      -0.786549       -21.4031
 153   2.0000      -0.781197       -21.2574
 154   2.0000      -0.771949       -21.0058
 155   2.0000      -0.764175       -20.7943
 156   2.0000      -0.762214       -20.7409
 157   2.0000      -0.756587       -20.5878
 158   2.0000      -0.746388       -20.3103
 159   2.0000      -0.735341       -20.0096
 160   2.0000      -0.723479       -19.6869
 161   2.0000      -0.714895       -19.4533
 162   2.0000      -0.709538       -19.3075
 163   2.0000      -0.707590       -19.2545
 164   2.0000      -0.706055       -19.2127
 165   2.0000      -0.702781       -19.1236
 166   2.0000      -0.701849       -19.0983
 167   2.0000      -0.697193       -18.9716
 168   2.0000      -0.697003       -18.9664
 169   2.0000      -0.689368       -18.7587
 170   2.0000      -0.688856       -18.7447
 171   2.0000      -0.681760       -18.5516
 172   2.0000      -0.678127       -18.4528
 173   2.0000      -0.677172       -18.4268
 174   2.0000      -0.669974       -18.2309
 175   2.0000      -0.659240       -17.9388
 176   2.0000      -0.656295       -17.8587
 177   2.0000      -0.642611       -17.4863
 178   2.0000      -0.639405       -17.3991
 179   2.0000      -0.634668       -17.2702
 180   2.0000      -0.633600       -17.2411
 181   2.0000      -0.630574       -17.1588
 182   2.0000      -0.625048       -17.0084
 183   2.0000      -0.622088       -16.9279
 184   2.0000      -0.617946       -16.8152
 185   2.0000      -0.609971       -16.5982
 186   2.0000      -0.608967       -16.5708
 187   2.0000      -0.606531       -16.5045
 188   2.0000      -0.603902       -16.4330
 189   2.0000      -0.598355       -16.2821
 190   2.0000      -0.596293       -16.2260
 191   2.0000      -0.591506       -16.0957
 192   2.0000      -0.580124       -15.7860
 193   2.0000      -0.569570       -15.4988
 194   2.0000      -0.564995       -15.3743
 195   2.0000      -0.560553       -15.2534
 196   2.0000      -0.559452       -15.2235
 197   2.0000      -0.555506       -15.1161
 198   2.0000      -0.553779       -15.0691
 199   2.0000      -0.549259       -14.9461
 200   2.0000      -0.548090       -14.9143
 201   2.0000      -0.547750       -14.9050
 202   2.0000      -0.545381       -14.8406
 203   2.0000      -0.543774       -14.7969
 204   2.0000      -0.541123       -14.7247
 205   2.0000      -0.539680       -14.6854
 206   2.0000      -0.537544       -14.6273
 207   2.0000      -0.536831       -14.6079
 208   2.0000      -0.534601       -14.5472
 209   2.0000      -0.531071       -14.4512
 210   2.0000      -0.527384       -14.3509
 211   2.0000      -0.525469       -14.2987
 212   2.0000      -0.523296       -14.2396
 213   2.0000      -0.520293       -14.1579
 214   2.0000      -0.519028       -14.1235
 215   2.0000      -0.515790       -14.0354
 216   2.0000      -0.514730       -14.0065
 217   2.0000      -0.513244       -13.9661
 218   2.0000      -0.512337       -13.9414
 219   2.0000      -0.511706       -13.9242
 220   2.0000      -0.509799       -13.8723
 221   2.0000      -0.509004       -13.8507
 222   2.0000      -0.505399       -13.7526
 223   2.0000      -0.503845       -13.7103
 224   2.0000      -0.502364       -13.6700
 225   2.0000      -0.500613       -13.6224
 226   2.0000      -0.498408       -13.5624
 227   2.0000      -0.497077       -13.5262
 228   2.0000      -0.496130       -13.5004
 229   2.0000      -0.493848       -13.4383
 230   2.0000      -0.491432       -13.3725
 231   2.0000      -0.489607       -13.3229
 232   2.0000      -0.487474       -13.2648
 233   2.0000      -0.485262       -13.2047
 234   2.0000      -0.476911       -12.9774
 235   2.0000      -0.475201       -12.9309
 236   2.0000      -0.472113       -12.8468
 237   2.0000      -0.470581       -12.8052
 238   2.0000      -0.470032       -12.7902
 239   2.0000      -0.466644       -12.6980
 240   2.0000      -0.465976       -12.6799
 241   2.0000      -0.462026       -12.5724
 242   2.0000      -0.459768       -12.5109
 243   2.0000      -0.458137       -12.4665
 244   2.0000      -0.456093       -12.4109
 245   2.0000      -0.455944       -12.4069
 246   2.0000      -0.455074       -12.3832
 247   2.0000      -0.453674       -12.3451
 248   2.0000      -0.451698       -12.2913
 249   2.0000      -0.451397       -12.2831
 250   2.0000      -0.447695       -12.1824
 251   2.0000      -0.447276       -12.1710
 252   2.0000      -0.446060       -12.1379
 253   2.0000      -0.445888       -12.1332
 254   2.0000      -0.444955       -12.1078
 255   2.0000      -0.442514       -12.0414
 256   2.0000      -0.440701       -11.9921
 257   2.0000      -0.440582       -11.9888
 258   2.0000      -0.439131       -11.9494
 259   2.0000      -0.438821       -11.9409
 260   2.0000      -0.437736       -11.9114
 261   2.0000      -0.435687       -11.8557
 262   2.0000      -0.434991       -11.8367
 263   2.0000      -0.434819       -11.8320
 264   2.0000      -0.433020       -11.7831
 265   2.0000      -0.431837       -11.7509
 266   2.0000      -0.429515       -11.6877
 267   2.0000      -0.428598       -11.6628
 268   2.0000      -0.427833       -11.6419
 269   2.0000      -0.425226       -11.5710
 270   2.0000      -0.423422       -11.5219
 271   2.0000      -0.420665       -11.4469
 272   2.0000      -0.418087       -11.3767
 273   2.0000      -0.410646       -11.1743
 274   2.0000      -0.408816       -11.1245
 275   2.0000      -0.406748       -11.0682
 276   2.0000      -0.400568       -10.9000
 277   2.0000      -0.398292       -10.8381
 278   2.0000      -0.392839       -10.6897
 279   2.0000      -0.384299       -10.4573
 280   2.0000      -0.379343       -10.3224
 281   2.0000      -0.373681       -10.1684
 282   2.0000      -0.366962        -9.9855
 283   2.0000      -0.359845        -9.7919
 284   2.0000      -0.356155        -9.6915
 285   2.0000      -0.353349        -9.6151
 286   2.0000      -0.347850        -9.4655
 287   2.0000      -0.343833        -9.3562
 288   2.0000      -0.341537        -9.2937
 289   2.0000      -0.336531        -9.1575
 290   2.0000      -0.332073        -9.0362
 291   2.0000      -0.330431        -8.9915
 292   2.0000      -0.324346        -8.8259
 293   2.0000      -0.318308        -8.6616
 294   2.0000      -0.317310        -8.6344
 295   2.0000      -0.300334        -8.1725
 296   2.0000      -0.296785        -8.0759
 297   2.0000      -0.291893        -7.9428
 298   2.0000      -0.277979        -7.5642
 299   2.0000      -0.246915        -6.7189
 300   0.0000      -0.123703        -3.3661
 301   0.0000      -0.112296        -3.0557
 302   0.0000      -0.094434        -2.5697
 303   0.0000      -0.089390        -2.4324
 304   0.0000      -0.073562        -2.0017

MULLIKEN ATOMIC CHARGES
-----------------------
   0 C :    0.246371
   1 C :   -0.328893
   2 C :   -0.173408
   3 N :    0.154437
   4 C :   -0.205775
   5 N :    0.171083
   6 C :    0.037217
   7 C :    0.016590
   8 C :   -0.082326
   9 C :    0.095187
  10 C :    0.094868
  11 C :   -0.081930
  12 C :   -0.018389
  13 C :    0.036556
  14 C :    0.038046
  15 C :   -0.017709
  16 C :    0.139051
  17 O :   -0.140249
  18 C :   -0.138736
  19 C :    0.050527
  20 C :   -0.101467
  21 C :    0.010920
  22 C :    0.027749
  23 C :   -0.079684
  24 S :    0.200981
  25 C :   -0.091267
  26 C :   -0.007029
  27 C :    0.299782
  28 C :   -0.283081
  29 C :   -0.183309
  30 N :    0.186780
  31 C :   -0.192805
  32 N :    0.179447
  33 C :    0.046332
  34 C :   -0.157799
  35 S :    0.190047
  36 C :   -0.184886
  37 S :    0.177417
  38 C :   -0.128385
  39 C :    0.103752
  40 C :    0.120311
  41 C :   -0.082128
  42 C :    0.106738
  43 O :   -0.166195
  44 O :   -0.164285
  45 C :    0.022584
  46 C :   -0.069372
  47 C :    0.124164
  48 O :   -0.167774
  49 C :   -0.075582
  50 C :   -0.001512
  51 C :    0.001869
  52 C :   -0.097799
  53 S :    0.188250
  54 C :   -0.081712
  55 C :   -0.000772
  56 C :    0.308523
  57 C :   -0.300135
  58 C :   -0.194484
  59 N :    0.202200
  60 C :   -0.183473
  61 N :    0.160000
  62 C :   -0.015060
  63 C :   -0.114137
  64 S :    0.208869
  65 C :    0.037211
  66 C :   -0.087751
  67 C :    0.324925
  68 C :   -0.365023
  69 C :   -0.182647
  70 N :    0.146114
  71 C :   -0.184764
  72 N :    0.147373
  73 C :    0.046968
  74 C :    0.000528
  75 C :    0.160228
  76 O :   -0.150556
  77 C :   -0.083388
  78 C :    0.100591
  79 C :    0.098094
  80 C :   -0.085173
  81 C :   -0.021482
  82 C :    0.037167
  83 C :    0.038569
  84 C :   -0.018068
  85 H :   -0.010387
  86 H :   -0.005773
  87 H :   -0.010377
  88 H :   -0.004331
  89 H :   -0.005162
  90 H :   -0.016198
  91 H :    0.034966
  92 H :    0.018174
  93 H :    0.032703
  94 H :    0.186954
  95 H :    0.012600
  96 H :   -0.024984
  97 H :    0.199450
  98 H :    0.007364
  99 H :    0.039805
 100 H :    0.003077
 101 H :   -0.009167
 102 H :   -0.008655
 103 H :   -0.008335
 104 H :   -0.005101
 105 H :   -0.004869
 106 H :   -0.015764
Sum of atomic charges:   -0.0000000

LOEWDIN ATOMIC CHARGES
----------------------
   0 C :    0.060677
   1 C :   -0.145924
   2 C :   -0.019883
   3 N :   -0.052074
   4 C :   -0.036138
   5 N :   -0.049990
   6 C :   -0.023302
   7 C :   -0.056808
   8 C :    0.033023
   9 C :   -0.008795
  10 C :   -0.005436
  11 C :    0.015269
  12 C :   -0.006729
  13 C :   -0.012530
  14 C :   -0.012397
  15 C :   -0.008984
  16 C :    0.083119
  17 O :   -0.141411
  18 C :   -0.099503
  19 C :    0.051750
  20 C :   -0.178778
  21 C :    0.015318
  22 C :   -0.069365
  23 C :   -0.152806
  24 S :    0.505774
  25 C :   -0.186023
  26 C :   -0.047454
  27 C :    0.077764
  28 C :   -0.087017
  29 C :   -0.017937
  30 N :   -0.016947
  31 C :   -0.015725
  32 N :   -0.025864
  33 C :   -0.015070
  34 C :   -0.190993
  35 S :    0.467783
  36 C :   -0.221913
  37 S :    0.479074
  38 C :   -0.178144
  39 C :   -0.060771
  40 C :   -0.036548
  41 C :   -0.105818
  42 C :    0.073835
  43 O :   -0.147098
  44 O :   -0.034581
  45 C :    0.035349
  46 C :   -0.089856
  47 C :    0.076639
  48 O :   -0.020011
  49 C :   -0.174146
  50 C :   -0.016248
  51 C :   -0.056646
  52 C :   -0.189637
  53 S :    0.470381
  54 C :   -0.159615
  55 C :   -0.075173
  56 C :    0.077474
  57 C :   -0.094937
  58 C :   -0.024818
  59 N :   -0.011844
  60 C :   -0.010159
  61 N :   -0.040451
  62 C :    0.016429
  63 C :   -0.174333
  64 S :    0.500731
  65 C :    0.039646
  66 C :   -0.094249
  67 C :    0.077821
  68 C :   -0.143921
  69 C :   -0.016884
  70 N :   -0.054860
  71 C :   -0.023651
  72 N :   -0.055322
  73 C :   -0.027042
  74 C :   -0.055544
  75 C :    0.087635
  76 O :   -0.138247
  77 C :    0.033502
  78 C :   -0.007986
  79 C :   -0.006210
  80 C :    0.019903
  81 C :   -0.005375
  82 C :   -0.013017
  83 C :   -0.011650
  84 C :   -0.009163
  85 H :    0.039892
  86 H :    0.038450
  87 H :    0.034283
  88 H :    0.033354
  89 H :    0.032908
  90 H :    0.032247
  91 H :    0.055220
  92 H :    0.047518
  93 H :    0.047071
  94 H :    0.089923
  95 H :    0.045256
  96 H :    0.032123
  97 H :    0.108289
  98 H :    0.036077
  99 H :    0.043390
 100 H :    0.041824
 101 H :    0.040413
 102 H :    0.039016
 103 H :    0.034941
 104 H :    0.033165
 105 H :    0.033010
 106 H :    0.032484

  Mayer bond orders larger than 0.100000
B(  0-C ,  1-C ) :   1.6508 B(  0-C ,  6-C ) :   1.0042 B(  0-C , 18-C ) :   1.0336
B(  1-C ,  2-C ) :   1.1374 B(  1-C ,  4-C ) :   1.1539 B(  2-C ,  3-N ) :   2.9896
B(  4-C ,  5-N ) :   3.0186 B(  6-C ,  7-C ) :   1.2145 B(  6-C , 11-C ) :   1.4574
B(  7-C ,  8-C ) :   1.4750 B(  7-C , 16-C ) :   0.9205 B(  8-C ,  9-C ) :   1.1854
B(  8-C , 85-H ) :   1.0155 B(  9-C , 10-C ) :   1.2563 B(  9-C , 15-C ) :   1.2445
B( 10-C , 11-C ) :   1.2045 B( 10-C , 12-C ) :   1.2416 B( 11-C , 86-H ) :   0.9935
B( 12-C , 13-C ) :   1.4894 B( 12-C , 87-H ) :   0.9970 B( 13-C , 14-C ) :   1.2611
B( 13-C , 88-H ) :   0.9883 B( 14-C , 15-C ) :   1.4907 B( 14-C , 89-H ) :   0.9881
B( 15-C , 90-H ) :   0.9972 B( 16-C , 17-O ) :   2.2766 B( 16-C , 18-C ) :   0.9352
B( 18-C , 19-C ) :   1.6465 B( 19-C , 20-C ) :   1.1323 B( 19-C , 91-H ) :   0.9475
B( 20-C , 21-C ) :   1.4022 B( 20-C , 24-S ) :   1.0866 B( 21-C , 22-C ) :   1.3030
B( 21-C , 92-H ) :   1.0016 B( 22-C , 23-C ) :   1.4047 B( 22-C , 27-C ) :   0.9919
B( 23-C , 24-S ) :   1.1508 B( 23-C , 25-C ) :   1.2115 B( 25-C , 26-C ) :   1.4390
B( 25-C , 35-S ) :   1.1025 B( 26-C , 27-C ) :   0.9910 B( 26-C , 33-C ) :   1.3382
B( 27-C , 28-C ) :   1.7260 B( 28-C , 29-C ) :   1.1319 B( 28-C , 31-C ) :   1.1356
B( 29-C , 30-N ) :   2.9877 B( 31-C , 32-N ) :   2.9938 B( 33-C , 34-C ) :   1.4715
B( 33-C , 93-H ) :   0.9638 B( 34-C , 35-S ) :   1.1100 B( 34-C , 36-C ) :   1.0931
B( 36-C , 37-S ) :   1.1453 B( 36-C , 38-C ) :   0.1314 B( 36-C , 40-C ) :   1.4068
B( 37-S , 38-C ) :   1.1687 B( 38-C , 39-C ) :   1.3727 B( 38-C , 49-C ) :   1.1313
B( 39-C , 40-C ) :   1.2137 B( 39-C , 47-C ) :   1.1702 B( 40-C , 41-C ) :   1.1669
B( 41-C , 42-C ) :   0.9089 B( 41-C , 45-C ) :   1.5571 B( 42-C , 43-O ) :   2.1927
B( 42-C , 44-O ) :   1.1955 B( 44-O , 94-H ) :   0.9498 B( 45-C , 46-C ) :   1.1999
B( 45-C , 95-H ) :   0.9890 B( 46-C , 47-C ) :   1.4502 B( 46-C , 96-H ) :   0.9864
B( 47-C , 48-O ) :   1.2499 B( 48-O , 97-H ) :   0.9422 B( 49-C , 50-C ) :   1.4699
B( 49-C , 53-S ) :   1.1002 B( 50-C , 51-C ) :   1.3041 B( 50-C , 98-H ) :   0.9778
B( 51-C , 52-C ) :   1.4209 B( 51-C , 56-C ) :   0.9903 B( 52-C , 53-S ) :   1.1147
B( 52-C , 54-C ) :   1.2081 B( 54-C , 55-C ) :   1.3741 B( 54-C , 64-S ) :   1.1688
B( 55-C , 56-C ) :   0.9984 B( 55-C , 62-C ) :   1.3020 B( 56-C , 57-C ) :   1.7138
B( 57-C , 58-C ) :   1.1360 B( 57-C , 60-C ) :   1.1400 B( 58-C , 59-N ) :   3.0025
B( 60-C , 61-N ) :   2.9821 B( 62-C , 63-C ) :   1.4013 B( 62-C , 99-H ) :   0.9696
B( 63-C , 64-S ) :   1.0765 B( 63-C , 65-C ) :   1.2197 B( 65-C , 66-C ) :   1.5980
B( 65-C ,100-H ) :   0.9031 B( 66-C , 67-C ) :   1.0828 B( 66-C , 75-C ) :   0.9338
B( 67-C , 68-C ) :   1.6123 B( 67-C , 73-C ) :   0.9840 B( 68-C , 69-C ) :   1.1523
B( 68-C , 71-C ) :   1.1418 B( 69-C , 70-N ) :   2.9612 B( 71-C , 72-N ) :   2.9612
B( 73-C , 74-C ) :   1.2163 B( 73-C , 80-C ) :   1.4457 B( 74-C , 75-C ) :   0.9543
B( 74-C , 77-C ) :   1.4702 B( 75-C , 76-O ) :   2.1616 B( 76-O , 99-H ) :   0.1019
B( 77-C , 78-C ) :   1.1740 B( 77-C ,101-H ) :   1.0174 B( 78-C , 79-C ) :   1.2574
B( 78-C , 84-C ) :   1.2446 B( 79-C , 80-C ) :   1.2072 B( 79-C , 81-C ) :   1.2382
B( 80-C ,102-H ) :   0.9900 B( 81-C , 82-C ) :   1.4898 B( 81-C ,103-H ) :   0.9975
B( 82-C , 83-C ) :   1.2610 B( 82-C ,104-H ) :   0.9881 B( 83-C , 84-C ) :   1.4871
B( 83-C ,105-H ) :   0.9883 B( 84-C ,106-H ) :   0.9981

-----------------------------------------------------------------------------
         ABSORPTION SPECTRUM VIA TRANSITION ELECTRIC DIPOLE MOMENTS
-----------------------------------------------------------------------------
State   Energy  Wavelength   fosc         T2         TX        TY        TZ
        (cm-1)    (nm)                  (au**2)     (au)      (au)      (au)
-----------------------------------------------------------------------------
   0   11425.6    875.2   0.648365230  18.68178  -1.57503   3.25988   2.36099
   1   13159.7    759.9   0.140409525   3.51259   0.03062  -1.42891   1.21239
   2   18351.8    544.9   0.781682702  14.02260  -1.27969   2.98635   1.86191
   3   19586.7    510.6   0.084626608   1.42240   0.29527  -1.10144  -0.34936
   4   20256.3    493.7   0.890647731  14.47513   0.84931   0.97601  -3.57788
   5   21011.5    475.9   0.243059124   3.80829   0.71439  -0.42182  -1.76635
   6   23221.4    430.6   0.120883205   1.71377  -0.37947   1.17978  -0.42178
   7   24817.1    402.9   0.036920912   0.48977   0.17311  -0.64060  -0.22236
   8   25093.6    398.5   0.063143957   0.82841   0.55436   0.66943  -0.27009
   9   25416.4    393.4   0.014000328   0.18134   0.01792  -0.34808   0.24466
  10   26485.9    377.6   0.191724596   2.38308  -0.44367   0.03059   1.47828
  11   27364.7    365.4   0.006392918   0.07691  -0.17011   0.18892  -0.11083
  12   27517.1    363.4   0.027359522   0.32733  -0.13853   0.19472   0.51983
  13   27648.4    361.7   0.003168043   0.03772  -0.07748   0.15572   0.08643
  14   28046.3    356.6   0.011902452   0.13971  -0.08849  -0.28798   0.22125
  15   28349.1    352.7   0.061368044   0.71265   0.08867  -0.45661  -0.70449
  16   28623.9    349.4   0.046162159   0.53092  -0.15148   0.70283  -0.11837
  17   28886.3    346.2   0.108351690   1.23487  -0.08305   1.08622  -0.21929
  18   29169.2    342.8   0.006654247   0.07510  -0.15998  -0.16962   0.14401
  19   29690.8    336.8   0.419897894   4.65584  -1.15971  -0.26869   1.79964
  20   29757.6    336.0   0.317528985   3.51287  -1.27887  -1.25398   0.55217
  21   30035.6    332.9   0.088258370   0.96737  -0.57233   0.79421   0.09511
  22   30346.3    329.5   0.411181028   4.46069  -0.37691   2.06125  -0.26433
  23   30526.9    327.6   0.213531096   2.30279  -0.71789   1.25739  -0.45430
  24   31031.2    322.3   0.099679181   1.05750   0.64916  -0.50184  -0.61988
  25   31253.6    320.0   0.089558615   0.94337   0.64050   0.69436  -0.22582
  26   31661.0    315.8   0.025972142   0.27006  -0.04781  -0.38570  -0.34497
  27   32248.5    310.1   0.046126183   0.47088   0.27169  -0.35325  -0.52181
  28   32364.9    309.0   0.155354488   1.58025   0.40292  -0.93086  -0.74256
  29   32544.6    307.3   0.096796127   0.97916  -0.66273   0.14515   0.72034
  30   32716.8    305.7   0.043399831   0.43671   0.39878  -0.16532  -0.50036
  31   32762.3    305.2   0.042465194   0.42671   0.36854   0.26722  -0.46849
  32   32890.4    304.0   0.404700946   4.05080  -0.22046  -1.97134   0.34062
  33   33161.3    301.6   0.087327216   0.86695  -0.62401   0.67064  -0.16675
  34   33545.6    298.1   0.076879776   0.75449   0.65160  -0.39865  -0.41351
  35   33713.8    296.6   0.071931737   0.70241  -0.76559   0.04768   0.33765
  36   33931.7    294.7   0.062274837   0.60420   0.77640  -0.03711  -0.00566
  37   33994.6    294.2   0.093034086   0.90097   0.25784  -0.91015   0.07818
  38   34123.2    293.1   0.183532269   1.77067  -0.33200   1.21175   0.43831
  39   34159.5    292.7   0.249761648   2.40707   0.32508  -1.51289   0.11213
  40   34260.4    291.9   0.114654460   1.10173  -0.56008   0.87208  -0.16587
  41   34426.6    290.5   0.057972948   0.55438  -0.69877  -0.14433   0.21277
  42   34614.2    288.9   0.091848667   0.87356  -0.13051   0.91241   0.15504
  43   34720.8    288.0   0.022110501   0.20964  -0.25454  -0.31032   0.22036
  44   35049.5    285.3   0.394379375   3.70432  -0.43963  -1.21325   1.42796
  45   35282.7    283.4   0.344583449   3.21520   0.87941   1.55502   0.15410
  46   35627.8    280.7   0.067853955   0.62699  -0.47748   0.61090  -0.16065
  47   35727.6    279.9   0.039943448   0.36806  -0.11413   0.17907  -0.56830
  48   36082.1    277.1   0.044947210   0.41010   0.05763   0.42851  -0.47240
  49   36215.7    276.1   0.069178437   0.62885  -0.15661   0.76747  -0.12377
  50   36449.3    274.4   0.047747477   0.43126  -0.19006   0.61835  -0.11302
  51   36508.1    273.9   0.035874506   0.32350  -0.02851  -0.55051   0.14008
  52   36965.4    270.5   0.137427765   1.22392  -0.37457  -0.84742   0.60457
  53   37137.5    269.3   0.038819096   0.34412   0.17691   0.54699   0.11669
  54   37386.6    267.5   0.019389639   0.17074  -0.30750   0.04025  -0.27305
  55   37577.6    266.1   0.008848205   0.07752  -0.21898  -0.10699   0.13461
  56   37785.7    264.7   0.023198607   0.20212   0.21292  -0.39364  -0.04286
  57   37934.5    263.6   0.013658882   0.11854   0.01653  -0.22814   0.25733
  58   38052.4    262.8   0.057794893   0.50001  -0.26183   0.52617  -0.39320
  59   38115.3    262.4   0.020026090   0.17297   0.11147  -0.39786  -0.04744
  60   38786.5    257.8   0.075399489   0.63998   0.18450   0.26959  -0.73024
  61   38962.7    256.7   0.017730192   0.14981  -0.33754   0.14604  -0.12063
  62   39053.0    256.1   0.065146926   0.54918   0.15356  -0.48330   0.54039
  63   39576.0    252.7   0.046963014   0.39066   0.10117   0.00838  -0.61673
  64   39685.2    252.0   0.035399500   0.29366  -0.11902   0.39306  -0.35355
  65   39823.5    251.1   0.007434907   0.06146  -0.19464  -0.05377   0.14383
  66   40050.6    249.7   0.000976922   0.00803  -0.02324  -0.05904  -0.06328
  67   40265.7    248.4   0.032166153   0.26299  -0.07845   0.33768  -0.37790

FINAL SINGLE POINT ENERGY     -5366.434567085008

DIPOLE MOMENT
-------------
                                X             Y             Z
Electronic contribution:     19.29685       1.98869     -24.29020
Nuclear contribution   :    -22.27058      -1.10071      25.09724
                        -----------------------------------------
Total Dipole Moment    :     -2.97372       0.88797       0.80704
                        -----------------------------------------
Magnitude (a.u.)       :      3.20669
Magnitude (Debye)      :      8.15075

Rotational constants in cm-1:     0.000812     0.000208     0.000170
Rotational constants in MHz :    24.353286     6.243830     5.103787

                             ****ORCA TERMINATED NORMALLY****
TOTAL RUN TIME: 0 days 0 hours 12 minutes 24 seconds 323 msec
