                         Program Version 4.2.0 -  RELEASE  -
|  1> # ORCA input file
|  2> # SCF done       -197.292513297742          0.000670245417
|  3> ! CAM-B3LYP def2-SVP def2/J RIJCOSX Grid4 TightSCF
|  4> %maxcore 5000
|  5> %tddft
|  6>     Mode sTDDFT
|  7>     Ethresh 5.0
|  8>     maxcore 5000
|  9> end
| 10>
| 11> %pal
| 12>   nprocs 6
| 13>   end
| 14> * xyz 0 1
| 15>    C       -4.97462         5.33164        -0.04804
| 16>    C       -5.51519         4.47125         0.86506
| 17>    C       -6.88189         4.12185         0.91050
| 18>    N       -7.98034         3.80009         0.99617
| 19>    C       -4.79293         3.83389         1.89755
| 20>    N       -4.28457         3.31099         2.78381
| 21>    C       -5.69775         6.05775        -1.08492
| 22>    C       -4.77362         6.84356        -1.83491
| 23>    C       -5.17674         7.64993        -2.86074
| 24>    C       -6.54881         7.71375        -3.18892
| 25>    C       -7.47924         6.92804        -2.44862
| 26>    C       -7.03253         6.09916        -1.39466
| 27>    C       -8.84683         7.00119        -2.78437
| 28>    C       -9.27628         7.81229        -3.79910
| 29>    C       -8.35933         8.58687        -4.52578
| 30>    C       -7.02467         8.53802        -4.22776
| 31>    C       -3.41726         6.63361        -1.31142
| 32>    O       -2.37431         7.08573        -1.73503
| 33>    C       -3.57302         5.70768        -0.15656
| 34>    C       -2.51424         5.27282         0.55967
| 35>    C       -1.19445         5.85739         0.37501
| 36>    S       -0.92410         7.40435         1.06445
| 37>    C        0.72402         7.43963         0.56247
| 38>    C        1.04631         6.28845        -0.15389
| 39>    C       -0.06004         5.37901        -0.26192
| 40>    C        0.06773         4.19370        -1.04681
| 41>    C       -1.09949         3.31368        -1.25911
| 42>    O       -2.02898         3.22928        -0.49291
| 43>    O       -1.10828         2.59006        -2.39007
| 44>    C        1.28970         3.92117        -1.61755
| 45>    C        2.37876         4.79018        -1.48911
| 46>    C        2.27157         5.98118        -0.80953
| 47>    O        3.26871         6.87772        -0.76426
| 48>    C        1.53269         8.56856         0.91237
| 49>    C        1.19850         9.90652         1.02218
| 50>    C       -0.03313        10.64571         0.62475
| 51>    O        0.00726        11.47302        -0.24512
| 52>    O       -1.16397        10.34296         1.26137
| 53>    C        2.44393        10.52552         1.35915
| 54>    N        3.38963         9.62884         1.46544
| 55>    O        2.84123         8.42800         1.19661
| 56>    C        2.54612        11.95067         1.56096
| 57>    S        3.54409        12.97288         0.63403
| 58>    C        2.75667        14.40887         1.21483
| 59>    C        1.68307        14.07547         2.05589
| 60>    C        1.62060        12.67574         2.31145
| 61>    C        0.65961        12.13842         3.20657
| 62>    C        0.77016        10.74917         3.70593
| 63>    O       -0.12148         9.92327         3.70171
| 64>    O        1.96984        10.49245         4.21361
| 65>    C       -0.32530        12.97024         3.67835
| 66>    C       -0.36037        14.31936         3.30825
| 67>    C        0.61362        14.88959         2.51646
| 68>    O        0.53338        16.17386         2.11414
| 69>    C        3.24605        15.66024         0.78257
| 70>    C        3.16635        16.83190         1.47995
| 71>    C        3.44197        18.15877         0.96986
| 72>    C        3.77616        18.49394        -0.31770
| 73>    C        3.99992        19.81447        -0.75902
| 74>    N        4.20055        20.86250        -1.18356
| 75>    C        3.95207        17.58744        -1.38353
| 76>    N        4.11369        16.92211        -2.30576
| 77>    C        3.23888        19.10569         2.06184
| 78>    C        2.89921        18.37872         3.23763
| 79>    C        2.88606        16.93517         2.93632
| 80>    O        2.78500        16.03309         3.74228
| 81>    C        2.64684        19.00325         4.42427
| 82>    C        2.70697        20.41385         4.48851
| 83>    C        3.04415        21.14900         3.31613
| 84>    C        3.31381        20.47265         2.10400
| 85>    C        3.10148        22.55561         3.38970
| 86>    C        2.83764        23.20684         4.56382
| 87>    C        2.50651        22.48178         5.71811
| 88>    C        2.44197        21.11518         5.68094
| 89>    H       -4.45657         8.23908        -3.40890
| 90>    H       -7.76180         5.51867        -0.85210
| 91>    H       -9.54923         6.40407        -2.22158
| 92>    H      -10.32588         7.86271        -4.04724
| 93>    H       -8.71610         9.22223        -5.32259
| 94>    H       -6.31371         9.13212        -4.78305
| 95>    H       -2.63097         4.57028         1.37308
| 96>    H       -0.35575         2.78608        -2.96432
| 97>    H        1.44853         3.00542        -2.17138
| 98>    H        3.31392         4.53449        -1.96741
| 99>    H        4.04834         6.55218        -1.23284
|100>    H       -1.01707         9.93884         2.14489
|101>    H        2.02444         9.58707         4.56203
|102>    H       -1.07810        12.58356         4.34781
|103>    H       -1.17680        14.93390         3.66204
|104>    H       -0.25737        16.58507         2.48879
|105>    H        3.75492        15.65355        -0.17300
|106>    H        2.39854        18.42827         5.30437
|107>    H        3.57340        21.05871         1.23695
|108>    H        3.35808        23.10905         2.49828
|109>    H        2.88397        24.28459         4.60993
|110>    H        2.30223        23.01136         6.63673
|111>    H        2.18719        20.55177         6.56690
|112> *
|113>
|114>                          ****END OF INPUT****

CARTESIAN COORDINATES (ANGSTROEM)
---------------------------------
  C     -4.974620    5.331640   -0.048040
  C     -5.515190    4.471250    0.865060
  C     -6.881890    4.121850    0.910500
  N     -7.980340    3.800090    0.996170
  C     -4.792930    3.833890    1.897550
  N     -4.284570    3.310990    2.783810
  C     -5.697750    6.057750   -1.084920
  C     -4.773620    6.843560   -1.834910
  C     -5.176740    7.649930   -2.860740
  C     -6.548810    7.713750   -3.188920
  C     -7.479240    6.928040   -2.448620
  C     -7.032530    6.099160   -1.394660
  C     -8.846830    7.001190   -2.784370
  C     -9.276280    7.812290   -3.799100
  C     -8.359330    8.586870   -4.525780
  C     -7.024670    8.538020   -4.227760
  C     -3.417260    6.633610   -1.311420
  O     -2.374310    7.085730   -1.735030
  C     -3.573020    5.707680   -0.156560
  C     -2.514240    5.272820    0.559670
  C     -1.194450    5.857390    0.375010
  S     -0.924100    7.404350    1.064450
  C      0.724020    7.439630    0.562470
  C      1.046310    6.288450   -0.153890
  C     -0.060040    5.379010   -0.261920
  C      0.067730    4.193700   -1.046810
  C     -1.099490    3.313680   -1.259110
  O     -2.028980    3.229280   -0.492910
  O     -1.108280    2.590060   -2.390070
  C      1.289700    3.921170   -1.617550
  C      2.378760    4.790180   -1.489110
  C      2.271570    5.981180   -0.809530
  O      3.268710    6.877720   -0.764260
  C      1.532690    8.568560    0.912370
  C      1.198500    9.906520    1.022180
  C     -0.033130   10.645710    0.624750
  O      0.007260   11.473020   -0.245120
  O     -1.163970   10.342960    1.261370
  C      2.443930   10.525520    1.359150
  N      3.389630    9.628840    1.465440
  O      2.841230    8.428000    1.196610
  C      2.546120   11.950670    1.560960
  S      3.544090   12.972880    0.634030
  C      2.756670   14.408870    1.214830
  C      1.683070   14.075470    2.055890
  C      1.620600   12.675740    2.311450
  C      0.659610   12.138420    3.206570
  C      0.770160   10.749170    3.705930
  O     -0.121480    9.923270    3.701710
  O      1.969840   10.492450    4.213610
  C     -0.325300   12.970240    3.678350
  C     -0.360370   14.319360    3.308250
  C      0.613620   14.889590    2.516460
  O      0.533380   16.173860    2.114140
  C      3.246050   15.660240    0.782570
  C      3.166350   16.831900    1.479950
  C      3.441970   18.158770    0.969860
  C      3.776160   18.493940   -0.317700
  C      3.999920   19.814470   -0.759020
  N      4.200550   20.862500   -1.183560
  C      3.952070   17.587440   -1.383530
  N      4.113690   16.922110   -2.305760
  C      3.238880   19.105690    2.061840
  C      2.899210   18.378720    3.237630
  C      2.886060   16.935170    2.936320
  O      2.785000   16.033090    3.742280
  C      2.646840   19.003250    4.424270
  C      2.706970   20.413850    4.488510
  C      3.044150   21.149000    3.316130
  C      3.313810   20.472650    2.104000
  C      3.101480   22.555610    3.389700
  C      2.837640   23.206840    4.563820
  C      2.506510   22.481780    5.718110
  C      2.441970   21.115180    5.680940
  H     -4.456570    8.239080   -3.408900
  H     -7.761800    5.518670   -0.852100
  H     -9.549230    6.404070   -2.221580
  H    -10.325880    7.862710   -4.047240
  H     -8.716100    9.222230   -5.322590
  H     -6.313710    9.132120   -4.783050
  H     -2.630970    4.570280    1.373080
  H     -0.355750    2.786080   -2.964320
  H      1.448530    3.005420   -2.171380
  H      3.313920    4.534490   -1.967410
  H      4.048340    6.552180   -1.232840
  H     -1.017070    9.938840    2.144890
  H      2.024440    9.587070    4.562030
  H     -1.078100   12.583560    4.347810
  H     -1.176800   14.933900    3.662040
  H     -0.257370   16.585070    2.488790
  H      3.754920   15.653550   -0.173000
  H      2.398540   18.428270    5.304370
  H      3.573400   21.058710    1.236950
  H      3.358080   23.109050    2.498280
  H      2.883970   24.284590    4.609930
  H      2.302230   23.011360    6.636730
  H      2.187190   20.551770    6.566900

 Total Charge           Charge          ....    0
 Multiplicity           Mult            ....    1
 Number of Electrons    NEL             ....  514
 Basis Dimension        Dim             .... 1159

ORBITAL ENERGIES
----------------

  NO   OCC          E(Eh)            E(eV)
   0   2.0000     -88.989229     -2421.5200
   1   2.0000     -88.986359     -2421.4419
   2   2.0000     -19.320970      -525.7503
   3   2.0000     -19.284693      -524.7632
   4   2.0000     -19.272660      -524.4357
   5   2.0000     -19.271279      -524.3982
   6   2.0000     -19.267501      -524.2954
   7   2.0000     -19.245208      -523.6887
   8   2.0000     -19.233449      -523.3687
   9   2.0000     -19.211231      -522.7642
  10   2.0000     -19.210828      -522.7532
  11   2.0000     -19.206188      -522.6270
  12   2.0000     -19.195590      -522.3386
  13   2.0000     -14.466871      -393.6636
  14   2.0000     -14.411334      -392.1523
  15   2.0000     -14.410738      -392.1361
  16   2.0000     -14.409912      -392.1136
  17   2.0000     -14.409731      -392.1087
  18   2.0000     -10.432880      -283.8931
  19   2.0000     -10.412438      -283.3369
  20   2.0000     -10.404425      -283.1188
  21   2.0000     -10.367461      -282.1130
  22   2.0000     -10.367263      -282.1076
  23   2.0000     -10.363779      -282.0128
  24   2.0000     -10.361177      -281.9420
  25   2.0000     -10.360576      -281.9256
  26   2.0000     -10.337796      -281.3057
  27   2.0000     -10.336240      -281.2634
  28   2.0000     -10.335343      -281.2390
  29   2.0000     -10.335102      -281.2324
  30   2.0000     -10.332640      -281.1654
  31   2.0000     -10.329554      -281.0814
  32   2.0000     -10.326073      -280.9867
  33   2.0000     -10.324125      -280.9337
  34   2.0000     -10.323870      -280.9268
  35   2.0000     -10.321224      -280.8548
  36   2.0000     -10.316176      -280.7174
  37   2.0000     -10.314121      -280.6615
  38   2.0000     -10.313302      -280.6392
  39   2.0000     -10.313193      -280.6363
  40   2.0000     -10.312042      -280.6049
  41   2.0000     -10.308310      -280.5034
  42   2.0000     -10.306978      -280.4671
  43   2.0000     -10.305857      -280.4366
  44   2.0000     -10.304630      -280.4032
  45   2.0000     -10.303941      -280.3845
  46   2.0000     -10.303167      -280.3634
  47   2.0000     -10.299518      -280.2641
  48   2.0000     -10.299394      -280.2608
  49   2.0000     -10.299083      -280.2523
  50   2.0000     -10.298602      -280.2392
  51   2.0000     -10.296993      -280.1954
  52   2.0000     -10.295818      -280.1635
  53   2.0000     -10.295231      -280.1475
  54   2.0000     -10.294343      -280.1233
  55   2.0000     -10.294083      -280.1162
  56   2.0000     -10.293828      -280.1093
  57   2.0000     -10.293536      -280.1013
  58   2.0000     -10.293476      -280.0997
  59   2.0000     -10.293022      -280.0874
  60   2.0000     -10.292880      -280.0835
  61   2.0000     -10.290747      -280.0255
  62   2.0000     -10.289386      -279.9884
  63   2.0000     -10.289193      -279.9832
  64   2.0000     -10.285500      -279.8827
  65   2.0000     -10.285160      -279.8734
  66   2.0000     -10.284893      -279.8662
  67   2.0000     -10.284469      -279.8546
  68   2.0000     -10.284356      -279.8515
  69   2.0000     -10.283841      -279.8375
  70   2.0000     -10.283522      -279.8289
  71   2.0000     -10.282988      -279.8143
  72   2.0000     -10.282811      -279.8095
  73   2.0000     -10.282364      -279.7973
  74   2.0000      -8.084100      -219.9795
  75   2.0000      -8.081036      -219.8962
  76   2.0000      -6.052888      -164.7075
  77   2.0000      -6.050123      -164.6322
  78   2.0000      -6.048710      -164.5938
  79   2.0000      -6.047335      -164.5564
  80   2.0000      -6.045580      -164.5086
  81   2.0000      -6.043945      -164.4641
  82   2.0000      -1.261608       -34.3301
  83   2.0000      -1.216098       -33.0917
  84   2.0000      -1.192036       -32.4369
  85   2.0000      -1.174968       -31.9725
  86   2.0000      -1.171895       -31.8889
  87   2.0000      -1.171492       -31.8779
  88   2.0000      -1.125892       -30.6371
  89   2.0000      -1.121650       -30.5217
  90   2.0000      -1.119204       -30.4551
  91   2.0000      -1.106662       -30.1138
  92   2.0000      -1.089290       -29.6411
  93   2.0000      -1.022127       -27.8135
  94   2.0000      -1.017844       -27.6969
  95   2.0000      -1.013268       -27.5724
  96   2.0000      -1.012282       -27.5456
  97   2.0000      -0.994750       -27.0685
  98   2.0000      -0.993596       -27.0371
  99   2.0000      -0.989087       -26.9144
 100   2.0000      -0.988634       -26.9021
 101   2.0000      -0.975797       -26.5528
 102   2.0000      -0.968367       -26.3506
 103   2.0000      -0.967274       -26.3209
 104   2.0000      -0.953988       -25.9593
 105   2.0000      -0.951991       -25.9050
 106   2.0000      -0.930843       -25.3295
 107   2.0000      -0.921429       -25.0734
 108   2.0000      -0.918097       -24.9827
 109   2.0000      -0.902849       -24.5678
 110   2.0000      -0.898050       -24.4372
 111   2.0000      -0.885339       -24.0913
 112   2.0000      -0.881302       -23.9814
 113   2.0000      -0.878333       -23.9006
 114   2.0000      -0.876872       -23.8609
 115   2.0000      -0.866505       -23.5788
 116   2.0000      -0.862274       -23.4637
 117   2.0000      -0.854678       -23.2570
 118   2.0000      -0.853314       -23.2198
 119   2.0000      -0.825883       -22.4734
 120   2.0000      -0.825034       -22.4503
 121   2.0000      -0.824691       -22.4410
 122   2.0000      -0.821320       -22.3493
 123   2.0000      -0.788400       -21.4535
 124   2.0000      -0.787958       -21.4414
 125   2.0000      -0.771885       -21.0041
 126   2.0000      -0.757912       -20.6238
 127   2.0000      -0.757322       -20.6078
 128   2.0000      -0.756703       -20.5909
 129   2.0000      -0.751181       -20.4407
 130   2.0000      -0.735293       -20.0083
 131   2.0000      -0.730066       -19.8661
 132   2.0000      -0.721947       -19.6452
 133   2.0000      -0.717261       -19.5177
 134   2.0000      -0.713898       -19.4262
 135   2.0000      -0.710005       -19.3202
 136   2.0000      -0.701115       -19.0783
 137   2.0000      -0.700127       -19.0514
 138   2.0000      -0.696629       -18.9562
 139   2.0000      -0.695204       -18.9175
 140   2.0000      -0.691318       -18.8117
 141   2.0000      -0.682829       -18.5807
 142   2.0000      -0.675467       -18.3804
 143   2.0000      -0.672816       -18.3082
 144   2.0000      -0.669729       -18.2242
 145   2.0000      -0.665139       -18.0994
 146   2.0000      -0.661720       -18.0063
 147   2.0000      -0.644123       -17.5275
 148   2.0000      -0.641288       -17.4503
 149   2.0000      -0.632544       -17.2124
 150   2.0000      -0.630718       -17.1627
 151   2.0000      -0.625918       -17.0321
 152   2.0000      -0.614307       -16.7162
 153   2.0000      -0.611774       -16.6472
 154   2.0000      -0.605954       -16.4889
 155   2.0000      -0.604092       -16.4382
 156   2.0000      -0.603209       -16.4142
 157   2.0000      -0.600984       -16.3536
 158   2.0000      -0.596069       -16.2199
 159   2.0000      -0.587758       -15.9937
 160   2.0000      -0.585533       -15.9332
 161   2.0000      -0.582063       -15.8387
 162   2.0000      -0.574482       -15.6325
 163   2.0000      -0.566884       -15.4257
 164   2.0000      -0.562093       -15.2953
 165   2.0000      -0.556821       -15.1519
 166   2.0000      -0.554981       -15.1018
 167   2.0000      -0.554344       -15.0845
 168   2.0000      -0.547536       -14.8992
 169   2.0000      -0.545651       -14.8479
 170   2.0000      -0.543998       -14.8029
 171   2.0000      -0.542742       -14.7688
 172   2.0000      -0.541835       -14.7441
 173   2.0000      -0.540742       -14.7143
 174   2.0000      -0.538880       -14.6637
 175   2.0000      -0.535897       -14.5825
 176   2.0000      -0.533729       -14.5235
 177   2.0000      -0.531285       -14.4570
 178   2.0000      -0.530080       -14.4242
 179   2.0000      -0.527757       -14.3610
 180   2.0000      -0.525112       -14.2890
 181   2.0000      -0.524122       -14.2621
 182   2.0000      -0.522395       -14.2151
 183   2.0000      -0.519541       -14.1374
 184   2.0000      -0.518587       -14.1115
 185   2.0000      -0.513750       -13.9798
 186   2.0000      -0.513088       -13.9618
 187   2.0000      -0.509103       -13.8534
 188   2.0000      -0.508516       -13.8374
 189   2.0000      -0.504482       -13.7277
 190   2.0000      -0.503084       -13.6896
 191   2.0000      -0.499606       -13.5950
 192   2.0000      -0.497144       -13.5280
 193   2.0000      -0.493174       -13.4199
 194   2.0000      -0.491987       -13.3876
 195   2.0000      -0.491704       -13.3800
 196   2.0000      -0.489145       -13.3103
 197   2.0000      -0.486672       -13.2430
 198   2.0000      -0.485514       -13.2115
 199   2.0000      -0.482064       -13.1176
 200   2.0000      -0.479765       -13.0551
 201   2.0000      -0.476423       -12.9641
 202   2.0000      -0.472579       -12.8595
 203   2.0000      -0.465673       -12.6716
 204   2.0000      -0.462633       -12.5889
 205   2.0000      -0.461877       -12.5683
 206   2.0000      -0.459094       -12.4926
 207   2.0000      -0.456043       -12.4096
 208   2.0000      -0.452156       -12.3038
 209   2.0000      -0.449876       -12.2417
 210   2.0000      -0.445380       -12.1194
 211   2.0000      -0.444474       -12.0947
 212   2.0000      -0.444098       -12.0845
 213   2.0000      -0.442997       -12.0546
 214   2.0000      -0.440717       -11.9925
 215   2.0000      -0.439505       -11.9595
 216   2.0000      -0.437967       -11.9177
 217   2.0000      -0.436148       -11.8682
 218   2.0000      -0.431470       -11.7409
 219   2.0000      -0.430636       -11.7182
 220   2.0000      -0.429933       -11.6991
 221   2.0000      -0.429819       -11.6960
 222   2.0000      -0.426435       -11.6039
 223   2.0000      -0.425029       -11.5656
 224   2.0000      -0.421552       -11.4710
 225   2.0000      -0.421146       -11.4600
 226   2.0000      -0.419536       -11.4162
 227   2.0000      -0.415656       -11.3106
 228   2.0000      -0.414637       -11.2828
 229   2.0000      -0.410534       -11.1712
 230   2.0000      -0.404002       -10.9934
 231   2.0000      -0.403347       -10.9756
 232   2.0000      -0.402355       -10.9486
 233   2.0000      -0.393773       -10.7151
 234   2.0000      -0.390656       -10.6303
 235   2.0000      -0.390029       -10.6132
 236   2.0000      -0.385633       -10.4936
 237   2.0000      -0.379085       -10.3154
 238   2.0000      -0.374334       -10.1861
 239   2.0000      -0.373912       -10.1747
 240   2.0000      -0.372180       -10.1275
 241   2.0000      -0.366481        -9.9725
 242   2.0000      -0.356325        -9.6961
 243   2.0000      -0.347938        -9.4679
 244   2.0000      -0.340612        -9.2685
 245   2.0000      -0.337458        -9.1827
 246   2.0000      -0.330694        -8.9986
 247   2.0000      -0.329167        -8.9571
 248   2.0000      -0.326516        -8.8850
 249   2.0000      -0.322331        -8.7711
 250   2.0000      -0.319705        -8.6996
 251   2.0000      -0.309729        -8.4282
 252   2.0000      -0.308082        -8.3834
 253   2.0000      -0.292822        -7.9681
 254   2.0000      -0.289088        -7.8665
 255   2.0000      -0.265292        -7.2190
 256   2.0000      -0.263648        -7.1742
 257   0.0000      -0.099555        -2.7090
 258   0.0000      -0.080794        -2.1985
 259   0.0000      -0.062075        -1.6891
 260   0.0000      -0.058861        -1.6017
 261   0.0000      -0.048631        -1.3233

MULLIKEN ATOMIC CHARGES
-----------------------
   0 C :    0.347952
   1 C :   -0.340805
   2 C :   -0.189263
   3 N :    0.149879
   4 C :   -0.191005
   5 N :    0.158417
   6 C :    0.042866
   7 C :   -0.006205
   8 C :   -0.074449
   9 C :    0.097981
  10 C :    0.097195
  11 C :   -0.084207
  12 C :   -0.019122
  13 C :    0.034760
  14 C :    0.035458
  15 C :   -0.015626
  16 C :    0.146066
  17 O :   -0.145075
  18 C :   -0.102129
  19 C :    0.029956
  20 C :   -0.205684
  21 S :    0.241117
  22 C :   -0.231829
  23 C :    0.145967
  24 C :    0.161782
  25 C :   -0.046062
  26 C :    0.186466
  27 O :   -0.191965
  28 O :   -0.148552
  29 C :   -0.045137
  30 C :   -0.077462
  31 C :    0.111497
  32 O :   -0.142833
  33 C :    0.193671
  34 C :   -0.188781
  35 C :    0.202434
  36 O :   -0.171987
  37 O :   -0.182130
  38 C :   -0.076109
  39 N :    0.038682
  40 O :   -0.159928
  41 C :   -0.153578
  42 S :    0.265161
  43 C :   -0.172005
  44 C :    0.152696
  45 C :    0.131137
  46 C :   -0.039025
  47 C :    0.136950
  48 O :   -0.251021
  49 O :   -0.138049
  50 C :    0.032766
  51 C :   -0.060240
  52 C :    0.135620
  53 O :   -0.165811
  54 C :    0.016189
  55 C :   -0.068382
  56 C :    0.319752
  57 C :   -0.355734
  58 C :   -0.182930
  59 N :    0.142872
  60 C :   -0.195230
  61 N :    0.155590
  62 C :    0.053624
  63 C :   -0.011701
  64 C :    0.139996
  65 O :   -0.154321
  66 C :   -0.093179
  67 C :    0.099130
  68 C :    0.095202
  69 C :   -0.088001
  70 C :   -0.017913
  71 C :    0.031899
  72 C :    0.037473
  73 C :   -0.018507
  74 H :   -0.011207
  75 H :   -0.009645
  76 H :   -0.009466
  77 H :   -0.005301
  78 H :   -0.005528
  79 H :   -0.015981
  80 H :    0.057824
  81 H :    0.181620
  82 H :   -0.015587
  83 H :   -0.033457
  84 H :    0.190904
  85 H :    0.201736
  86 H :    0.202793
  87 H :   -0.004304
  88 H :   -0.029954
  89 H :    0.191338
  90 H :    0.018140
  91 H :   -0.019137
  92 H :   -0.009646
  93 H :   -0.009821
  94 H :   -0.004341
  95 H :   -0.007007
  96 H :   -0.020201
Sum of atomic charges:   -0.0000000

LOEWDIN ATOMIC CHARGES
----------------------
   0 C :    0.079495
   1 C :   -0.128821
   2 C :   -0.015707
   3 N :   -0.053044
   4 C :   -0.015814
   5 N :   -0.047448
   6 C :   -0.024270
   7 C :   -0.056301
   8 C :    0.034141
   9 C :   -0.008149
  10 C :   -0.005969
  11 C :    0.019982
  12 C :   -0.005501
  13 C :   -0.014010
  14 C :   -0.012902
  15 C :   -0.008968
  16 C :    0.080075
  17 O :   -0.145677
  18 C :   -0.095426
  19 C :    0.074598
  20 C :   -0.160151
  21 S :    0.565047
  22 C :   -0.202858
  23 C :   -0.045719
  24 C :   -0.023623
  25 C :   -0.096794
  26 C :    0.099593
  27 O :   -0.141836
  28 O :   -0.021797
  29 C :   -0.005220
  30 C :   -0.099254
  31 C :    0.082781
  32 O :   -0.016306
  33 C :    0.032631
  34 C :   -0.140964
  35 C :    0.067163
  36 O :   -0.149032
  37 O :   -0.033390
  38 C :   -0.058327
  39 N :   -0.031637
  40 O :    0.044825
  41 C :   -0.169462
  42 S :    0.562791
  43 C :   -0.172305
  44 C :   -0.030601
  45 C :   -0.019697
  46 C :   -0.087386
  47 C :    0.099141
  48 O :   -0.192283
  49 O :    0.000226
  50 C :    0.027974
  51 C :   -0.074300
  52 C :    0.086345
  53 O :   -0.016025
  54 C :    0.038836
  55 C :   -0.084498
  56 C :    0.075924
  57 C :   -0.141602
  58 C :   -0.016967
  59 N :   -0.058245
  60 C :   -0.021955
  61 N :   -0.052466
  62 C :   -0.024774
  63 C :   -0.053277
  64 C :    0.075667
  65 O :   -0.150810
  66 C :    0.023711
  67 C :   -0.009388
  68 C :   -0.007673
  69 C :    0.017647
  70 C :   -0.005379
  71 C :   -0.015581
  72 C :   -0.013555
  73 C :   -0.012198
  74 H :    0.039932
  75 H :    0.038729
  76 H :    0.034532
  77 H :    0.032889
  78 H :    0.032575
  79 H :    0.032299
  80 H :    0.051263
  81 H :    0.092187
  82 H :    0.028944
  83 H :    0.028743
  84 H :    0.104047
  85 H :    0.057742
  86 H :    0.110272
  87 H :    0.039788
  88 H :    0.030500
  89 H :    0.103956
  90 H :    0.043076
  91 H :    0.036291
  92 H :    0.038657
  93 H :    0.034598
  94 H :    0.033001
  95 H :    0.032086
  96 H :    0.030643

  Mayer bond orders larger than 0.100000
B(  0-C ,  1-C ) :   1.6700 B(  0-C ,  6-C ) :   0.9979 B(  0-C , 18-C ) :   1.0207
B(  1-C ,  2-C ) :   1.1395 B(  1-C ,  4-C ) :   1.1485 B(  2-C ,  3-N ) :   2.9669
B(  4-C ,  5-N ) :   2.9719 B(  6-C ,  7-C ) :   1.2147 B(  6-C , 11-C ) :   1.4470
B(  7-C ,  8-C ) :   1.4727 B(  7-C , 16-C ) :   0.9407 B(  8-C ,  9-C ) :   1.1824
B(  8-C , 74-H ) :   1.0162 B(  9-C , 10-C ) :   1.2549 B(  9-C , 15-C ) :   1.2408
B( 10-C , 11-C ) :   1.2094 B( 10-C , 12-C ) :   1.2388 B( 11-C , 75-H ) :   0.9898
B( 12-C , 13-C ) :   1.4922 B( 12-C , 76-H ) :   0.9972 B( 13-C , 14-C ) :   1.2569
B( 13-C , 77-H ) :   0.9885 B( 14-C , 15-C ) :   1.4913 B( 14-C , 78-H ) :   0.9889
B( 15-C , 79-H ) :   0.9979 B( 16-C , 17-O ) :   2.2337 B( 16-C , 18-C ) :   0.9320
B( 18-C , 19-C ) :   1.7386 B( 19-C , 20-C ) :   0.9777 B( 19-C , 27-O ) :   0.1412
B( 19-C , 80-H ) :   0.9135 B( 20-C , 21-S ) :   1.2023 B( 20-C , 22-C ) :   0.1381
B( 20-C , 24-C ) :   1.4534 B( 21-S , 22-C ) :   1.2084 B( 22-C , 23-C ) :   1.3804
B( 22-C , 33-C ) :   1.0631 B( 23-C , 24-C ) :   1.2108 B( 23-C , 31-C ) :   1.1427
B( 24-C , 25-C ) :   1.1910 B( 25-C , 26-C ) :   0.9253 B( 25-C , 29-C ) :   1.4622
B( 26-C , 27-O ) :   2.0420 B( 26-C , 28-O ) :   1.2644 B( 28-O , 81-H ) :   0.9501
B( 29-C , 30-C ) :   1.2363 B( 29-C , 82-H ) :   0.9799 B( 30-C , 31-C ) :   1.4484
B( 30-C , 83-H ) :   0.9820 B( 31-C , 32-O ) :   1.2982 B( 32-O , 84-H ) :   0.9477
B( 33-C , 34-C ) :   1.5044 B( 33-C , 40-O ) :   1.1837 B( 34-C , 35-C ) :   0.8831
B( 34-C , 38-C ) :   1.2298 B( 35-C , 36-O ) :   2.1843 B( 35-C , 37-O ) :   1.2467
B( 37-O , 85-H ) :   0.8904 B( 38-C , 39-N ) :   1.7321 B( 38-C , 41-C ) :   0.9861
B( 39-N , 40-O ) :   1.0117 B( 41-C , 42-S ) :   1.2519 B( 41-C , 43-C ) :   0.1172
B( 41-C , 45-C ) :   1.3883 B( 42-S , 43-C ) :   1.1548 B( 43-C , 44-C ) :   1.3128
B( 43-C , 54-C ) :   1.1794 B( 44-C , 45-C ) :   1.2719 B( 44-C , 52-C ) :   1.1833
B( 45-C , 46-C ) :   1.1780 B( 46-C , 47-C ) :   0.9375 B( 46-C , 50-C ) :   1.5332
B( 47-C , 48-O ) :   1.9763 B( 47-C , 49-O ) :   1.3121 B( 48-O , 85-H ) :   0.1217
B( 49-O , 86-H ) :   0.9359 B( 50-C , 51-C ) :   1.2209 B( 50-C , 87-H ) :   0.9917
B( 51-C , 52-C ) :   1.4420 B( 51-C , 88-H ) :   0.9809 B( 52-C , 53-O ) :   1.2412
B( 53-O , 89-H ) :   0.9491 B( 54-C , 55-C ) :   1.6046 B( 54-C , 90-H ) :   0.9240
B( 55-C , 56-C ) :   1.0995 B( 55-C , 64-C ) :   0.9273 B( 56-C , 57-C ) :   1.6191
B( 56-C , 62-C ) :   0.9844 B( 57-C , 58-C ) :   1.1480 B( 57-C , 60-C ) :   1.1457
B( 58-C , 59-N ) :   2.9596 B( 60-C , 61-N ) :   2.9697 B( 62-C , 63-C ) :   1.2156
B( 62-C , 69-C ) :   1.4491 B( 63-C , 64-C ) :   0.9332 B( 63-C , 66-C ) :   1.4722
B( 64-C , 65-O ) :   2.2282 B( 66-C , 67-C ) :   1.1759 B( 66-C , 91-H ) :   1.0173
B( 67-C , 68-C ) :   1.2581 B( 67-C , 73-C ) :   1.2435 B( 68-C , 69-C ) :   1.2040
B( 68-C , 70-C ) :   1.2414 B( 69-C , 92-H ) :   0.9885 B( 70-C , 71-C ) :   1.4880
B( 70-C , 93-H ) :   0.9970 B( 71-C , 72-C ) :   1.2601 B( 71-C , 94-H ) :   0.9892
B( 72-C , 73-C ) :   1.4893 B( 72-C , 95-H ) :   0.9884 B( 73-C , 96-H ) :   0.9973

-----------------------------------------------------------------------------
         ABSORPTION SPECTRUM VIA TRANSITION ELECTRIC DIPOLE MOMENTS
-----------------------------------------------------------------------------
State   Energy  Wavelength   fosc         T2         TX        TY        TZ
        (cm-1)    (nm)                  (au**2)     (au)      (au)      (au)
-----------------------------------------------------------------------------
   0   18975.4    527.0   0.851094705  14.76603   1.18606   3.63903  -0.34170
   1   21992.5    454.7   0.113442432   1.69815  -1.20003  -0.44522  -0.24466
   2   23255.0    430.0   0.004936608   0.06989   0.07660   0.24182   0.07442
   3   24427.1    409.4   0.024042401   0.32403   0.08582   0.55653   0.08330
   4   25666.1    389.6   0.010368092   0.13299  -0.04423   0.30011   0.20240
   5   26906.1    371.7   0.346714930   4.24226  -0.76906  -1.59411  -1.05338
   6   27220.6    367.4   0.131826440   1.59434  -1.06510  -0.67285   0.08466
   7   28110.9    355.7   0.123317527   1.44420   0.83438   0.86353   0.04816
   8   28349.1    352.7   0.025991884   0.30184   0.40617  -0.25640   0.26669
   9   28363.5    352.6   0.106489924   1.23602   0.29336  -0.26815   1.03829
  10   28808.9    347.1   0.006320460   0.07223   0.16998  -0.08353   0.19067
  11   30112.8    332.1   0.021391747   0.23387  -0.08195  -0.11668   0.46210
  12   30800.1    324.7   0.154341827   1.64971   0.17480  -1.18814  -0.45551
  13   31087.2    321.7   0.023909553   0.25320   0.43192  -0.19836   0.16523
  14   31415.1    318.3   0.009699576   0.10165  -0.01261   0.06952   0.31089
  15   32115.5    311.4   0.012371546   0.12682   0.14859   0.30925  -0.09542
  16   32474.7    307.9   0.047636035   0.48291  -0.13451   0.57462   0.36692
  17   32847.4    304.4   0.154201737   1.54548  -1.00646  -0.22479   0.69426
  18   33211.0    301.1   0.636844938   6.31287   0.66740  -1.55977  -1.85325
  19   33304.7    300.3   0.009749317   0.09637  -0.05734  -0.02753   0.30385
  20   33564.8    297.9   0.016478584   0.16163   0.10554  -0.05243  -0.38437
  21   33846.1    295.5   0.110554312   1.07533  -0.34307  -0.80753  -0.55275
  22   34118.1    293.1   0.047637414   0.45966  -0.51213  -0.19083  -0.40121
  23   34316.1    291.4   0.252274611   2.42020   0.30526  -0.99610   1.15533
  24   34814.7    287.2   0.105312646   0.99585   0.19761  -0.62471   0.75268
  25   35426.2    282.3   0.132484639   1.23116   0.45837  -0.86282   0.52593
  26   35498.3    281.7   0.695336120   6.44856   1.53570  -1.28238   1.56387
  27   36662.4    272.8   0.129520987   1.16304  -0.09987  -0.53029   0.93373
  28   36684.4    272.6   0.105793620   0.94941  -0.03539  -0.41289   0.88186
  29   36956.0    270.6   0.000438526   0.00391  -0.02078   0.01041   0.05802
  30   37207.6    268.8   0.007767276   0.06872  -0.06589  -0.13927   0.21210
  31   37407.5    267.3   0.006488915   0.05711  -0.23895  -0.00071   0.00327
  32   37530.7    266.4   0.056494323   0.49556  -0.10061  -0.68784  -0.11097
  33   37760.8    264.8   0.088592242   0.77238  -0.03913   0.53805  -0.69380
  34   37947.3    263.5   0.082931320   0.71947   0.04087   0.84500  -0.06144
  35   38161.2    262.0   0.046937639   0.40493   0.00695  -0.60473  -0.19794
  36   38522.0    259.6   0.105763413   0.90386  -0.53769   0.30166   0.72371
  37   38822.6    257.6   0.007065426   0.05991   0.01753  -0.11089  -0.21751
  38   39155.8    255.4   0.122693936   1.03158   0.69582  -0.61276   0.41466
  39   39279.5    254.6   0.021895039   0.18351  -0.08861  -0.15870   0.38790
  40   39457.6    253.4   0.024527985   0.20465   0.32082  -0.02587  -0.31789
  41   39512.3    253.1   0.016436856   0.13695   0.11138  -0.10170  -0.33794
  42   40014.4    249.9   0.010408272   0.08563  -0.25496  -0.06166   0.12971
  43   40107.6    249.3   0.188267946   1.54534  -1.20314  -0.08550   0.30082
  44   40202.4    248.7   0.009485104   0.07767  -0.17727  -0.18782  -0.10474
  45   40278.0    248.3   0.076398100   0.62444   0.78633  -0.01846   0.07601

FINAL SINGLE POINT ENERGY     -4041.100485266623

DIPOLE MOMENT
-------------
                                X             Y             Z
Electronic contribution:     16.85755     -21.29301       1.04703
Nuclear contribution   :    -16.42666      22.37074      -0.44285
                        -----------------------------------------
Total Dipole Moment    :      0.43089       1.07773       0.60418
                        -----------------------------------------
Magnitude (a.u.)       :      1.30851
Magnitude (Debye)      :      3.32597

Rotational constants in cm-1:     0.001618     0.000366     0.000340
Rotational constants in MHz :    48.507951    10.969200    10.195754

                             ****ORCA TERMINATED NORMALLY****
TOTAL RUN TIME: 0 days 0 hours 10 minutes 46 seconds 863 msec
