                         Program Version 4.2.0 -  RELEASE  -
|  1> # ORCA input file
|  2> # SCF done       -194.306086596430          0.000480865943
|  3> ! CAM-B3LYP def2-SVP def2/J RIJCOSX Grid4 TightSCF
|  4> %maxcore 5000
|  5> %tddft
|  6>     Mode sTDDFT
|  7>     Ethresh 5.0
|  8>     maxcore 5000
|  9> end
| 10>
| 11> %pal
| 12>   nprocs 6
| 13>   end
| 14> * xyz 0 1
| 15>    C       10.90289        -1.74838        -1.47426
| 16>    N       10.69683        -2.95905        -1.88871
| 17>    C       11.61011        -3.73208        -1.22101
| 18>    C       12.47940        -2.89162        -0.38261
| 19>    C       13.42748        -3.72194         0.38198
| 20>    O       14.30853        -3.37011         1.12849
| 21>    C       13.01437        -5.09193         0.00360
| 22>    C       11.91853        -5.04077        -1.00093
| 23>    N       11.49267        -6.29588        -1.30474
| 24>    C       12.19989        -7.08884        -0.54871
| 25>    C       13.15667        -6.40099         0.30996
| 26>    C       11.98368        -1.62008        -0.48275
| 27>    C       12.39251        -0.40569         0.15627
| 28>    C       11.56748         0.60423         0.50655
| 29>    C       10.13103         0.58383         0.49715
| 30>    C        9.34825        -0.56644         0.74271
| 31>    C        7.90903        -0.53175         0.68590
| 32>    N        7.21061        -1.66133         0.85301
| 33>    C        7.82896        -2.78734         1.10327
| 34>    C        9.25616        -2.80014         1.26219
| 35>    N        9.95794        -1.71340         1.08149
| 36>    C        9.92613        -3.99943         1.61280
| 37>    N       10.44914        -4.98401         1.87479
| 38>    C        7.07659        -3.97811         1.24968
| 39>    N        6.48950        -4.95188         1.38504
| 40>    C        7.18136         0.65483         0.43466
| 41>    C        7.96140         1.82212         0.27148
| 42>    C        9.40526         1.77773         0.31414
| 43>    N        9.93975         2.98836         0.12609
| 44>    S        8.76691         4.05857        -0.06970
| 45>    N        7.51861         3.06293         0.05922
| 46>    C        5.76655         0.64143         0.33858
| 47>    C        4.94839         1.71524         0.00563
| 48>    C        3.60878         1.35779        -0.01260
| 49>    C        3.39954         0.00252         0.32427
| 50>    S        4.85827        -0.83223         0.63558
| 51>    C        2.00779        -0.25402         0.27013
| 52>    C        1.34181         0.92685        -0.11405
| 53>    C        2.32637         1.98021        -0.29706
| 54>    C        2.09467         3.27484        -0.65796
| 55>    C        3.13783         4.21493        -0.79943
| 56>    N        3.97979         4.98428        -0.91528
| 57>    C        0.79245         3.75605        -0.91036
| 58>    N       -0.26791         4.14281        -1.11208
| 59>    C       -0.03748         0.76266        -0.21314
| 60>    C       -0.42610        -0.52558         0.10688
| 61>    S        0.93217        -1.55333         0.52940
| 62>    C       -1.74832        -1.04387         0.10198
| 63>    S       -3.06260        -0.09291        -0.54308
| 64>    C       -4.21039        -1.35802        -0.24140
| 65>    C       -3.57520        -2.43474         0.36276
| 66>    C       -2.19248        -2.26682         0.53790
| 67>    N       -4.24573        -3.63962         0.72706
| 68>    O       -5.40609        -3.76430         0.39480
| 69>    O       -3.60897        -4.45251         1.35991
| 70>    C       -5.59779        -1.19373        -0.53107
| 71>    C       -6.14151        -0.55242        -1.59081
| 72>    C       -7.57109        -0.10548        -1.54024
| 73>    O       -8.39668        -0.43550        -0.72592
| 74>    C       -7.70435         0.86566        -2.64018
| 75>    C       -8.77295         1.65342        -2.96240
| 76>    C       -8.67227         2.53708        -4.05940
| 77>    C       -7.45450         2.59739        -4.79968
| 78>    C       -7.35853         3.48585        -5.88833
| 79>    C       -8.43320         4.26585        -6.21427
| 80>    C       -9.63937         4.21973        -5.50056
| 81>    C       -9.74909         3.36494        -4.43949
| 82>    F       -8.34512         5.11224        -7.25366
| 83>    C       -6.36492         1.76911        -4.44608
| 84>    C       -6.49162         0.90845        -3.38862
| 85>    C       -5.56862        -0.07737        -2.83866
| 86>    C       -4.50422        -0.62226        -3.50320
| 87>    C       -3.77311        -1.73955        -3.04798
| 88>    N       -3.16329        -2.65961        -2.73371
| 89>    C       -4.05460        -0.17726        -4.76506
| 90>    N       -3.63634         0.15344        -5.78076
| 91>    H       10.33795        -0.92440        -1.87805
| 92>    H       12.05703        -8.15463        -0.59422
| 93>    H       13.81166        -6.87434         1.01392
| 94>    H       13.45320        -0.30804         0.34498
| 95>    H       11.99579         1.54267         0.83265
| 96>    H        5.34619         2.69031        -0.20791
| 97>    H       -0.73679         1.52882        -0.49701
| 98>    H       -1.56203        -3.02701         0.96283
| 99>    H       -6.29925        -1.58813         0.19919
|100>    H       -9.68539         1.60043        -2.38776
|101>    H       -6.44680         3.54463        -6.46195
|102>    H      -10.45293         4.85911        -5.80437
|103>    H      -10.66787         3.31216        -3.87532
|104>    H       -5.45177         1.84221        -5.01522
|105> *
|106>
|107>                          ****END OF INPUT****

CARTESIAN COORDINATES (ANGSTROEM)
---------------------------------
  C     10.902890   -1.748380   -1.474260
  N     10.696830   -2.959050   -1.888710
  C     11.610110   -3.732080   -1.221010
  C     12.479400   -2.891620   -0.382610
  C     13.427480   -3.721940    0.381980
  O     14.308530   -3.370110    1.128490
  C     13.014370   -5.091930    0.003600
  C     11.918530   -5.040770   -1.000930
  N     11.492670   -6.295880   -1.304740
  C     12.199890   -7.088840   -0.548710
  C     13.156670   -6.400990    0.309960
  C     11.983680   -1.620080   -0.482750
  C     12.392510   -0.405690    0.156270
  C     11.567480    0.604230    0.506550
  C     10.131030    0.583830    0.497150
  C      9.348250   -0.566440    0.742710
  C      7.909030   -0.531750    0.685900
  N      7.210610   -1.661330    0.853010
  C      7.828960   -2.787340    1.103270
  C      9.256160   -2.800140    1.262190
  N      9.957940   -1.713400    1.081490
  C      9.926130   -3.999430    1.612800
  N     10.449140   -4.984010    1.874790
  C      7.076590   -3.978110    1.249680
  N      6.489500   -4.951880    1.385040
  C      7.181360    0.654830    0.434660
  C      7.961400    1.822120    0.271480
  C      9.405260    1.777730    0.314140
  N      9.939750    2.988360    0.126090
  S      8.766910    4.058570   -0.069700
  N      7.518610    3.062930    0.059220
  C      5.766550    0.641430    0.338580
  C      4.948390    1.715240    0.005630
  C      3.608780    1.357790   -0.012600
  C      3.399540    0.002520    0.324270
  S      4.858270   -0.832230    0.635580
  C      2.007790   -0.254020    0.270130
  C      1.341810    0.926850   -0.114050
  C      2.326370    1.980210   -0.297060
  C      2.094670    3.274840   -0.657960
  C      3.137830    4.214930   -0.799430
  N      3.979790    4.984280   -0.915280
  C      0.792450    3.756050   -0.910360
  N     -0.267910    4.142810   -1.112080
  C     -0.037480    0.762660   -0.213140
  C     -0.426100   -0.525580    0.106880
  S      0.932170   -1.553330    0.529400
  C     -1.748320   -1.043870    0.101980
  S     -3.062600   -0.092910   -0.543080
  C     -4.210390   -1.358020   -0.241400
  C     -3.575200   -2.434740    0.362760
  C     -2.192480   -2.266820    0.537900
  N     -4.245730   -3.639620    0.727060
  O     -5.406090   -3.764300    0.394800
  O     -3.608970   -4.452510    1.359910
  C     -5.597790   -1.193730   -0.531070
  C     -6.141510   -0.552420   -1.590810
  C     -7.571090   -0.105480   -1.540240
  O     -8.396680   -0.435500   -0.725920
  C     -7.704350    0.865660   -2.640180
  C     -8.772950    1.653420   -2.962400
  C     -8.672270    2.537080   -4.059400
  C     -7.454500    2.597390   -4.799680
  C     -7.358530    3.485850   -5.888330
  C     -8.433200    4.265850   -6.214270
  C     -9.639370    4.219730   -5.500560
  C     -9.749090    3.364940   -4.439490
  F     -8.345120    5.112240   -7.253660
  C     -6.364920    1.769110   -4.446080
  C     -6.491620    0.908450   -3.388620
  C     -5.568620   -0.077370   -2.838660
  C     -4.504220   -0.622260   -3.503200
  C     -3.773110   -1.739550   -3.047980
  N     -3.163290   -2.659610   -2.733710
  C     -4.054600   -0.177260   -4.765060
  N     -3.636340    0.153440   -5.780760
  H     10.337950   -0.924400   -1.878050
  H     12.057030   -8.154630   -0.594220
  H     13.811660   -6.874340    1.013920
  H     13.453200   -0.308040    0.344980
  H     11.995790    1.542670    0.832650
  H      5.346190    2.690310   -0.207910
  H     -0.736790    1.528820   -0.497010
  H     -1.562030   -3.027010    0.962830
  H     -6.299250   -1.588130    0.199190
  H     -9.685390    1.600430   -2.387760
  H     -6.446800    3.544630   -6.461950
  H    -10.452930    4.859110   -5.804370
  H    -10.667870    3.312160   -3.875320
  H     -5.451770    1.842210   -5.015220

 Total Charge           Charge          ....    0
 Multiplicity           Mult            ....    1
 Number of Electrons    NEL             ....  534
 Basis Dimension        Dim             .... 1150

ORBITAL ENERGIES
----------------

  NO   OCC          E(Eh)            E(eV)
   0   2.0000     -89.061410     -2423.4842
   1   2.0000     -89.004651     -2421.9397
   2   2.0000     -88.999500     -2421.7995
   3   2.0000     -88.996536     -2421.7189
   4   2.0000     -24.792048      -674.6259
   5   2.0000     -19.252811      -523.8956
   6   2.0000     -19.252273      -523.8810
   7   2.0000     -19.225423      -523.1504
   8   2.0000     -19.209506      -522.7172
   9   2.0000     -14.661024      -398.9467
  10   2.0000     -14.481478      -394.0610
  11   2.0000     -14.473867      -393.8539
  12   2.0000     -14.469315      -393.7301
  13   2.0000     -14.467419      -393.6785
  14   2.0000     -14.442404      -392.9978
  15   2.0000     -14.441636      -392.9769
  16   2.0000     -14.439723      -392.9248
  17   2.0000     -14.438504      -392.8917
  18   2.0000     -14.426751      -392.5719
  19   2.0000     -14.426670      -392.5696
  20   2.0000     -14.419577      -392.3766
  21   2.0000     -14.407494      -392.0478
  22   2.0000     -10.397817      -282.9390
  23   2.0000     -10.395745      -282.8826
  24   2.0000     -10.376794      -282.3669
  25   2.0000     -10.376676      -282.3637
  26   2.0000     -10.374146      -282.2949
  27   2.0000     -10.369895      -282.1792
  28   2.0000     -10.362800      -281.9861
  29   2.0000     -10.362544      -281.9792
  30   2.0000     -10.361465      -281.9498
  31   2.0000     -10.360216      -281.9158
  32   2.0000     -10.357649      -281.8460
  33   2.0000     -10.357144      -281.8322
  34   2.0000     -10.354022      -281.7472
  35   2.0000     -10.351467      -281.6777
  36   2.0000     -10.350031      -281.6387
  37   2.0000     -10.347580      -281.5720
  38   2.0000     -10.345619      -281.5186
  39   2.0000     -10.344699      -281.4936
  40   2.0000     -10.342344      -281.4295
  41   2.0000     -10.340015      -281.3661
  42   2.0000     -10.338626      -281.3283
  43   2.0000     -10.338503      -281.3250
  44   2.0000     -10.338169      -281.3159
  45   2.0000     -10.335865      -281.2532
  46   2.0000     -10.335235      -281.2360
  47   2.0000     -10.334630      -281.2196
  48   2.0000     -10.334110      -281.2054
  49   2.0000     -10.331893      -281.1451
  50   2.0000     -10.328484      -281.0523
  51   2.0000     -10.328420      -281.0506
  52   2.0000     -10.328385      -281.0497
  53   2.0000     -10.328098      -281.0418
  54   2.0000     -10.327476      -281.0249
  55   2.0000     -10.318583      -280.7829
  56   2.0000     -10.317535      -280.7544
  57   2.0000     -10.315805      -280.7073
  58   2.0000     -10.315572      -280.7010
  59   2.0000     -10.314289      -280.6661
  60   2.0000     -10.312940      -280.6294
  61   2.0000     -10.310753      -280.5699
  62   2.0000     -10.310200      -280.5548
  63   2.0000     -10.309392      -280.5328
  64   2.0000     -10.308832      -280.5176
  65   2.0000     -10.307338      -280.4769
  66   2.0000     -10.307267      -280.4750
  67   2.0000     -10.304595      -280.4023
  68   2.0000     -10.303018      -280.3594
  69   2.0000     -10.301528      -280.3188
  70   2.0000     -10.301338      -280.3136
  71   2.0000     -10.299562      -280.2653
  72   2.0000     -10.295806      -280.1631
  73   2.0000     -10.291165      -280.0368
  74   2.0000     -10.288746      -279.9710
  75   2.0000     -10.288376      -279.9609
  76   2.0000      -8.152464      -221.8398
  77   2.0000      -8.099129      -220.3885
  78   2.0000      -8.094160      -220.2533
  79   2.0000      -8.088999      -220.1129
  80   2.0000      -6.123434      -166.6271
  81   2.0000      -6.115598      -166.4139
  82   2.0000      -6.115544      -166.4124
  83   2.0000      -6.068387      -165.1292
  84   2.0000      -6.064172      -165.0145
  85   2.0000      -6.063581      -164.9984
  86   2.0000      -6.061478      -164.9412
  87   2.0000      -6.059317      -164.8824
  88   2.0000      -6.058558      -164.8617
  89   2.0000      -6.056151      -164.7963
  90   2.0000      -6.053705      -164.7297
  91   2.0000      -6.051483      -164.6692
  92   2.0000      -1.334873       -36.3237
  93   2.0000      -1.307650       -35.5830
  94   2.0000      -1.158129       -31.5143
  95   2.0000      -1.153973       -31.4012
  96   2.0000      -1.141818       -31.0704
  97   2.0000      -1.138331       -30.9756
  98   2.0000      -1.125126       -30.6162
  99   2.0000      -1.081724       -29.4352
 100   2.0000      -1.066230       -29.0136
 101   2.0000      -1.060903       -28.8686
 102   2.0000      -1.055510       -28.7219
 103   2.0000      -1.038071       -28.2474
 104   2.0000      -1.031123       -28.0583
 105   2.0000      -1.027701       -27.9652
 106   2.0000      -1.025978       -27.9183
 107   2.0000      -1.018032       -27.7021
 108   2.0000      -1.016587       -27.6627
 109   2.0000      -1.012986       -27.5648
 110   2.0000      -1.010448       -27.4957
 111   2.0000      -1.006577       -27.3903
 112   2.0000      -1.004018       -27.3207
 113   2.0000      -0.992102       -26.9965
 114   2.0000      -0.985599       -26.8195
 115   2.0000      -0.967692       -26.3322
 116   2.0000      -0.940053       -25.5801
 117   2.0000      -0.936833       -25.4925
 118   2.0000      -0.934853       -25.4386
 119   2.0000      -0.929068       -25.2812
 120   2.0000      -0.923258       -25.1231
 121   2.0000      -0.917971       -24.9793
 122   2.0000      -0.913341       -24.8533
 123   2.0000      -0.898114       -24.4389
 124   2.0000      -0.894068       -24.3288
 125   2.0000      -0.890323       -24.2269
 126   2.0000      -0.878474       -23.9045
 127   2.0000      -0.867212       -23.5980
 128   2.0000      -0.861071       -23.4309
 129   2.0000      -0.857023       -23.3208
 130   2.0000      -0.852441       -23.1961
 131   2.0000      -0.842577       -22.9277
 132   2.0000      -0.839210       -22.8361
 133   2.0000      -0.826101       -22.4793
 134   2.0000      -0.811773       -22.0895
 135   2.0000      -0.808888       -22.0110
 136   2.0000      -0.790898       -21.5214
 137   2.0000      -0.783852       -21.3297
 138   2.0000      -0.774787       -21.0830
 139   2.0000      -0.771821       -21.0023
 140   2.0000      -0.762015       -20.7355
 141   2.0000      -0.755497       -20.5581
 142   2.0000      -0.748670       -20.3723
 143   2.0000      -0.734210       -19.9789
 144   2.0000      -0.725075       -19.7303
 145   2.0000      -0.719249       -19.5718
 146   2.0000      -0.717742       -19.5308
 147   2.0000      -0.710655       -19.3379
 148   2.0000      -0.707044       -19.2396
 149   2.0000      -0.702579       -19.1182
 150   2.0000      -0.700435       -19.0598
 151   2.0000      -0.692678       -18.8487
 152   2.0000      -0.690815       -18.7980
 153   2.0000      -0.683826       -18.6079
 154   2.0000      -0.669946       -18.2302
 155   2.0000      -0.663279       -18.0487
 156   2.0000      -0.657070       -17.8798
 157   2.0000      -0.652493       -17.7552
 158   2.0000      -0.648899       -17.6574
 159   2.0000      -0.647841       -17.6286
 160   2.0000      -0.645085       -17.5537
 161   2.0000      -0.640541       -17.4300
 162   2.0000      -0.639735       -17.4081
 163   2.0000      -0.637430       -17.3454
 164   2.0000      -0.634601       -17.2684
 165   2.0000      -0.629647       -17.1336
 166   2.0000      -0.624994       -17.0069
 167   2.0000      -0.619524       -16.8581
 168   2.0000      -0.610174       -16.6037
 169   2.0000      -0.606159       -16.4944
 170   2.0000      -0.598956       -16.2984
 171   2.0000      -0.598049       -16.2738
 172   2.0000      -0.594188       -16.1687
 173   2.0000      -0.582448       -15.8492
 174   2.0000      -0.579238       -15.7619
 175   2.0000      -0.576854       -15.6970
 176   2.0000      -0.574413       -15.6306
 177   2.0000      -0.570918       -15.5355
 178   2.0000      -0.568319       -15.4648
 179   2.0000      -0.564778       -15.3684
 180   2.0000      -0.564569       -15.3627
 181   2.0000      -0.562037       -15.2938
 182   2.0000      -0.557937       -15.1822
 183   2.0000      -0.555022       -15.1029
 184   2.0000      -0.551366       -15.0034
 185   2.0000      -0.548224       -14.9179
 186   2.0000      -0.545739       -14.8503
 187   2.0000      -0.544246       -14.8097
 188   2.0000      -0.538051       -14.6411
 189   2.0000      -0.532771       -14.4974
 190   2.0000      -0.530989       -14.4489
 191   2.0000      -0.530929       -14.4473
 192   2.0000      -0.528404       -14.3786
 193   2.0000      -0.521599       -14.1934
 194   2.0000      -0.517114       -14.0714
 195   2.0000      -0.516405       -14.0521
 196   2.0000      -0.514903       -14.0112
 197   2.0000      -0.510787       -13.8992
 198   2.0000      -0.509421       -13.8621
 199   2.0000      -0.509084       -13.8529
 200   2.0000      -0.506959       -13.7951
 201   2.0000      -0.503460       -13.6998
 202   2.0000      -0.500416       -13.6170
 203   2.0000      -0.499169       -13.5831
 204   2.0000      -0.497669       -13.5423
 205   2.0000      -0.495844       -13.4926
 206   2.0000      -0.494499       -13.4560
 207   2.0000      -0.490265       -13.3408
 208   2.0000      -0.488561       -13.2944
 209   2.0000      -0.483451       -13.1554
 210   2.0000      -0.481511       -13.1026
 211   2.0000      -0.477360       -12.9896
 212   2.0000      -0.475102       -12.9282
 213   2.0000      -0.472047       -12.8451
 214   2.0000      -0.470228       -12.7956
 215   2.0000      -0.469799       -12.7839
 216   2.0000      -0.466913       -12.7054
 217   2.0000      -0.465892       -12.6776
 218   2.0000      -0.465106       -12.6562
 219   2.0000      -0.464868       -12.6497
 220   2.0000      -0.464067       -12.6279
 221   2.0000      -0.460708       -12.5365
 222   2.0000      -0.459849       -12.5131
 223   2.0000      -0.456221       -12.4144
 224   2.0000      -0.455366       -12.3911
 225   2.0000      -0.453315       -12.3353
 226   2.0000      -0.452042       -12.3007
 227   2.0000      -0.449243       -12.2245
 228   2.0000      -0.447693       -12.1823
 229   2.0000      -0.447028       -12.1642
 230   2.0000      -0.442867       -12.0510
 231   2.0000      -0.439442       -11.9578
 232   2.0000      -0.438155       -11.9228
 233   2.0000      -0.436874       -11.8879
 234   2.0000      -0.435839       -11.8598
 235   2.0000      -0.431606       -11.7446
 236   2.0000      -0.429378       -11.6840
 237   2.0000      -0.428397       -11.6573
 238   2.0000      -0.425706       -11.5841
 239   2.0000      -0.419889       -11.4258
 240   2.0000      -0.417554       -11.3622
 241   2.0000      -0.411035       -11.1848
 242   2.0000      -0.396786       -10.7971
 243   2.0000      -0.396377       -10.7860
 244   2.0000      -0.394642       -10.7388
 245   2.0000      -0.390611       -10.6291
 246   2.0000      -0.390248       -10.6192
 247   2.0000      -0.387487       -10.5441
 248   2.0000      -0.380271       -10.3477
 249   2.0000      -0.370114       -10.0713
 250   2.0000      -0.367728       -10.0064
 251   2.0000      -0.364279        -9.9125
 252   2.0000      -0.362806        -9.8724
 253   2.0000      -0.358671        -9.7599
 254   2.0000      -0.357015        -9.7149
 255   2.0000      -0.354888        -9.6570
 256   2.0000      -0.346900        -9.4396
 257   2.0000      -0.341951        -9.3050
 258   2.0000      -0.338211        -9.2032
 259   2.0000      -0.332957        -9.0602
 260   2.0000      -0.331833        -9.0296
 261   2.0000      -0.328677        -8.9438
 262   2.0000      -0.322673        -8.7804
 263   2.0000      -0.316925        -8.6240
 264   2.0000      -0.305876        -8.3233
 265   2.0000      -0.294313        -8.0087
 266   2.0000      -0.258648        -7.0382
 267   0.0000      -0.140387        -3.8201
 268   0.0000      -0.112888        -3.0718
 269   0.0000      -0.108276        -2.9463
 270   0.0000      -0.105630        -2.8743
 271   0.0000      -0.068829        -1.8729

MULLIKEN ATOMIC CHARGES
-----------------------
   0 C :    0.041794
   1 N :   -0.031509
   2 C :    0.023483
   3 C :   -0.091536
   4 C :    0.213878
   5 O :   -0.119991
   6 C :   -0.045460
   7 C :    0.006553
   8 N :   -0.052865
   9 C :    0.096361
  10 C :   -0.074282
  11 C :   -0.032545
  12 C :    0.039135
  13 C :   -0.048523
  14 C :    0.053537
  15 C :   -0.086612
  16 C :   -0.030244
  17 N :   -0.006898
  18 C :   -0.073562
  19 C :   -0.135992
  20 N :    0.057213
  21 C :   -0.199974
  22 N :    0.244735
  23 C :   -0.245949
  24 N :    0.252822
  25 C :    0.189630
  26 C :   -0.021976
  27 C :    0.005057
  28 N :   -0.266999
  29 S :    0.573960
  30 N :   -0.278084
  31 C :   -0.183131
  32 C :   -0.050282
  33 C :    0.032935
  34 C :   -0.058247
  35 S :    0.219676
  36 C :   -0.104513
  37 C :    0.015940
  38 C :    0.306395
  39 C :   -0.295663
  40 C :   -0.187666
  41 N :    0.177242
  42 C :   -0.188802
  43 N :    0.172043
  44 C :   -0.061974
  45 C :   -0.030265
  46 S :    0.222510
  47 C :   -0.036192
  48 S :    0.197620
  49 C :   -0.235119
  50 C :    0.262762
  51 C :   -0.035521
  52 N :    0.259667
  53 O :   -0.231730
  54 O :   -0.228640
  55 C :    0.065647
  56 C :   -0.138080
  57 C :    0.145051
  58 O :   -0.127065
  59 C :    0.003589
  60 C :   -0.072453
  61 C :    0.098574
  62 C :    0.101353
  63 C :   -0.095683
  64 C :    0.304274
  65 C :   -0.028645
  66 C :   -0.005730
  67 F :   -0.186676
  68 C :   -0.079953
  69 C :    0.040365
  70 C :    0.267689
  71 C :   -0.327889
  72 C :   -0.183467
  73 N :    0.171311
  74 C :   -0.178064
  75 N :    0.167348
  76 H :    0.007836
  77 H :    0.016336
  78 H :    0.000634
  79 H :    0.025842
  80 H :    0.016518
  81 H :    0.022125
  82 H :    0.015431
  83 H :    0.012435
  84 H :    0.053058
  85 H :   -0.006966
  86 H :    0.000531
  87 H :    0.006922
  88 H :   -0.005801
  89 H :   -0.000600
Sum of atomic charges:   -0.0000000

LOEWDIN ATOMIC CHARGES
----------------------
   0 C :    0.072369
   1 N :   -0.086879
   2 C :    0.032451
   3 C :   -0.049772
   4 C :    0.068056
   5 O :   -0.131539
   6 C :   -0.035721
   7 C :    0.037732
   8 N :   -0.091769
   9 C :    0.089811
  10 C :   -0.019057
  11 C :   -0.042172
  12 C :    0.013869
  13 C :   -0.010033
  14 C :   -0.033187
  15 C :   -0.008473
  16 C :   -0.018544
  17 N :   -0.019033
  18 C :   -0.016761
  19 C :   -0.021445
  20 N :    0.021856
  21 C :   -0.031058
  22 N :   -0.002086
  23 C :   -0.039246
  24 N :    0.004162
  25 C :   -0.022549
  26 C :   -0.041455
  27 C :   -0.039590
  28 N :   -0.279834
  29 S :    0.702602
  30 N :   -0.273710
  31 C :   -0.170656
  32 C :   -0.000450
  33 C :   -0.074758
  34 C :   -0.172158
  35 S :    0.520309
  36 C :   -0.176237
  37 C :   -0.059600
  38 C :    0.080312
  39 C :   -0.099701
  40 C :   -0.016605
  41 N :   -0.029417
  42 C :   -0.016034
  43 N :   -0.032425
  44 C :   -0.029997
  45 C :   -0.177889
  46 S :    0.501611
  47 C :   -0.161983
  48 S :    0.500874
  49 C :   -0.158934
  50 C :   -0.038812
  51 C :   -0.037721
  52 N :    0.287344
  53 O :   -0.191071
  54 O :   -0.192420
  55 C :    0.048690
  56 C :   -0.075320
  57 C :    0.084528
  58 O :   -0.127561
  59 C :   -0.061520
  60 C :    0.039052
  61 C :   -0.016900
  62 C :    0.004942
  63 C :   -0.040797
  64 C :    0.095268
  65 C :   -0.033312
  66 C :    0.006336
  67 F :   -0.060963
  68 C :    0.014812
  69 C :   -0.019132
  70 C :    0.061279
  71 C :   -0.129279
  72 C :   -0.027727
  73 N :   -0.043062
  74 C :   -0.019046
  75 N :   -0.040793
  76 H :    0.022848
  77 H :    0.026174
  78 H :    0.036330
  79 H :    0.048006
  80 H :    0.042538
  81 H :    0.039197
  82 H :    0.037484
  83 H :    0.041796
  84 H :    0.056851
  85 H :    0.041613
  86 H :    0.044295
  87 H :    0.043405
  88 H :    0.037055
  89 H :    0.040338

  Mayer bond orders larger than 0.100000
B(  0-C ,  1-N ) :   1.7455 B(  0-C , 11-C ) :   1.0250 B(  0-C , 76-H ) :   0.9811
B(  1-N ,  2-C ) :   1.2524 B(  2-C ,  3-C ) :   1.0496 B(  2-C ,  7-C ) :   1.4988
B(  3-C ,  4-C ) :   0.8982 B(  3-C , 11-C ) :   1.6352 B(  4-C ,  5-O ) :   2.3067
B(  4-C ,  6-C ) :   0.8846 B(  6-C ,  7-C ) :   1.0288 B(  6-C , 10-C ) :   1.6592
B(  7-C ,  8-N ) :   1.2912 B(  8-N ,  9-C ) :   1.6901 B(  9-C , 10-C ) :   1.0463
B(  9-C , 77-H ) :   0.9878 B( 10-C , 78-H ) :   1.0078 B( 11-C , 12-C ) :   1.0413
B( 12-C , 13-C ) :   1.7381 B( 12-C , 79-H ) :   0.9683 B( 13-C , 14-C ) :   1.1135
B( 13-C , 80-H ) :   0.9593 B( 14-C , 15-C ) :   1.2761 B( 14-C , 25-C ) :   0.1233
B( 14-C , 27-C ) :   1.2098 B( 15-C , 16-C ) :   1.1099 B( 15-C , 20-N ) :   1.4155
B( 16-C , 17-N ) :   1.3962 B( 16-C , 25-C ) :   1.2497 B( 17-N , 18-C ) :   1.7009
B( 18-C , 19-C ) :   1.1982 B( 18-C , 23-C ) :   1.1642 B( 19-C , 20-N ) :   1.7377
B( 19-C , 21-C ) :   1.1657 B( 21-C , 22-N ) :   3.0098 B( 23-C , 24-N ) :   3.0371
B( 25-C , 26-C ) :   1.2028 B( 25-C , 31-C ) :   1.2103 B( 26-C , 27-C ) :   1.1034
B( 26-C , 30-N ) :   1.5158 B( 27-C , 28-N ) :   1.5320 B( 28-N , 29-S ) :   1.2975
B( 28-N , 30-N ) :   0.1513 B( 29-S , 30-N ) :   1.2879 B( 31-C , 32-C ) :   1.4069
B( 31-C , 35-S ) :   1.0842 B( 32-C , 33-C ) :   1.2892 B( 32-C , 81-H ) :   0.9814
B( 33-C , 34-C ) :   1.3928 B( 33-C , 38-C ) :   0.9918 B( 34-C , 35-S ) :   1.0987
B( 34-C , 36-C ) :   1.2026 B( 36-C , 37-C ) :   1.4268 B( 36-C , 46-S ) :   1.1287
B( 37-C , 38-C ) :   0.9935 B( 37-C , 44-C ) :   1.3114 B( 38-C , 39-C ) :   1.7126
B( 39-C , 40-C ) :   1.1401 B( 39-C , 42-C ) :   1.1317 B( 40-C , 41-N ) :   2.9873
B( 42-C , 43-N ) :   2.9905 B( 44-C , 45-C ) :   1.4510 B( 44-C , 82-H ) :   0.9863
B( 45-C , 46-S ) :   1.1147 B( 45-C , 47-C ) :   1.1552 B( 47-C , 48-S ) :   1.1220
B( 47-C , 51-C ) :   1.4653 B( 48-S , 49-C ) :   1.1627 B( 49-C , 50-C ) :   1.4633
B( 49-C , 55-C ) :   1.0535 B( 50-C , 51-C ) :   1.2786 B( 50-C , 52-N ) :   0.9146
B( 51-C , 83-H ) :   0.9922 B( 52-N , 53-O ) :   1.5144 B( 52-N , 54-O ) :   1.5548
B( 53-O , 54-O ) :   0.2718 B( 55-C , 56-C ) :   1.7297 B( 55-C , 84-H ) :   0.9269
B( 56-C , 57-C ) :   0.9187 B( 56-C , 70-C ) :   1.0085 B( 57-C , 58-O ) :   2.2884
B( 57-C , 59-C ) :   0.9229 B( 59-C , 60-C ) :   1.4678 B( 59-C , 69-C ) :   1.2142
B( 60-C , 61-C ) :   1.1981 B( 60-C , 85-H ) :   1.0147 B( 61-C , 62-C ) :   1.2498
B( 61-C , 66-C ) :   1.2341 B( 62-C , 63-C ) :   1.2010 B( 62-C , 68-C ) :   1.2117
B( 63-C , 64-C ) :   1.4425 B( 63-C , 86-H ) :   1.0061 B( 64-C , 65-C ) :   1.2521
B( 64-C , 67-F ) :   1.0926 B( 65-C , 66-C ) :   1.4634 B( 65-C , 87-H ) :   0.9926
B( 66-C , 88-H ) :   0.9968 B( 68-C , 69-C ) :   1.4541 B( 68-C , 89-H ) :   0.9934
B( 69-C , 70-C ) :   1.0046 B( 70-C , 71-C ) :   1.6769 B( 71-C , 72-C ) :   1.1609
B( 71-C , 74-C ) :   1.1309 B( 72-C , 73-N ) :   2.9973 B( 74-C , 75-N ) :   2.9906

-----------------------------------------------------------------------------
         ABSORPTION SPECTRUM VIA TRANSITION ELECTRIC DIPOLE MOMENTS
-----------------------------------------------------------------------------
State   Energy  Wavelength   fosc         T2         TX        TY        TZ
        (cm-1)    (nm)                  (au**2)     (au)      (au)      (au)
-----------------------------------------------------------------------------
   0    9898.7   1010.2   0.513953839  17.09307  -4.09206   0.50121  -0.31135
   1   13856.8    721.7   0.006635129   0.15764   0.34304   0.15065   0.13140
   2   17132.1    583.7   0.280947424   5.39872  -2.22756   0.47199  -0.46252
   3   18542.8    539.3   0.213951113   3.79853  -1.57935   1.09940  -0.30905
   4   18894.1    529.3   0.145721036   2.53905   0.96071   0.70347   1.05888
   5   22080.4    452.9   0.014101439   0.21025  -0.25010  -0.32568  -0.20404
   6   22850.8    437.6   0.000337885   0.00487   0.01933   0.05344  -0.04048
   7   24469.7    408.7   0.021554624   0.28999   0.39628  -0.34412   0.12058
   8   24701.9    404.8   0.053669554   0.71528  -0.76293  -0.27615   0.23864
   9   25029.7    399.5   0.029887196   0.39310  -0.53747   0.21886   0.23732
  10   25166.6    397.4   0.003525865   0.04612   0.06653   0.13653   0.15184
  11   25363.1    394.3   0.003243743   0.04210   0.09931  -0.17388  -0.04480
  12   25719.7    388.8   0.012654142   0.16197   0.09982   0.36185  -0.14516
  13   26204.3    381.6   0.092759275   1.16536  -1.05781  -0.12027   0.17870
  14   26362.9    379.3   0.005850614   0.07306  -0.02114  -0.24756   0.10644
  15   26484.0    377.6   0.004530401   0.05632   0.15552  -0.16483  -0.07041
  16   26822.5    372.8   0.043078202   0.52873   0.44458  -0.33227  -0.46976
  17   27051.9    369.7   0.047793765   0.58163   0.74368  -0.16868   0.01092
  18   27350.2    365.6   0.002274806   0.02738  -0.12140  -0.02980   0.10842
  19   27745.7    360.4   0.048592072   0.57656   0.02021   0.26832  -0.71004
  20   28087.9    356.0   0.040629083   0.47620   0.68862   0.04037  -0.01959
  21   28353.0    352.7   0.018464317   0.21439   0.45448  -0.05330   0.07071
  22   28458.7    351.4   0.004435303   0.05131  -0.04309  -0.21325  -0.06304
  23   28568.4    350.0   0.020783437   0.23950   0.43822   0.21653  -0.02410
  24   29208.8    342.4   0.464782179   5.23856   2.17346  -0.64750   0.30885
  25   29572.3    338.2   0.054687188   0.60880  -0.49498   0.41802  -0.43480
  26   29929.3    334.1   0.169461630   1.86402   1.36302  -0.00443  -0.07857
  27   30308.7    329.9   0.020014841   0.21740  -0.34268  -0.10331   0.29883
  28   30806.9    324.6   0.147249194   1.57355  -0.77375   0.94456  -0.28751
  29   31243.6    320.1   0.098674136   1.03972   1.00606  -0.13044   0.10276
  30   31496.4    317.5   0.331349361   3.46339   0.76713   1.68404  -0.19728
  31   31587.6    316.6   0.025488565   0.26565   0.14239   0.47982  -0.12306
  32   31792.4    314.5   0.049925974   0.51699  -0.65277  -0.27962  -0.11267
  33   32066.4    311.9   0.025741271   0.26427   0.50096   0.11529  -0.00491
  34   32158.0    311.0   0.064664289   0.66199   0.62997   0.34826   0.37927
  35   32327.3    309.3   0.006974079   0.07102  -0.11735   0.20715  -0.11975
  36   32602.5    306.7   0.783898821   7.91563  -0.83192   2.60446  -0.66357
  37   32779.0    305.1   0.098844686   0.99274   0.38246  -0.91098   0.12879
  38   32862.9    304.3   0.101109958   1.01289   0.11135   0.99188   0.12911
  39   32989.1    303.1   0.063440452   0.63310  -0.77990   0.07844   0.13675
  40   33327.8    300.1   0.189833073   1.87517   1.16923  -0.70744   0.08720
  41   33534.1    298.2   0.007781845   0.07640   0.15852  -0.09955   0.20337
  42   33841.3    295.5   0.257683548   2.50677   0.20960  -1.53211  -0.33981
  43   34146.4    292.9   0.104914421   1.01150  -0.66849   0.65493  -0.36836
  44   34271.9    291.8   0.551652792   5.29911   0.81547  -2.00015   0.79593
  45   34388.7    290.8   0.185376202   1.77466   0.78431  -0.87048   0.63385
  46   34868.5    286.8   0.126070879   1.19030   0.57614  -0.74975   0.54428
  47   35071.8    285.1   0.246469802   2.31356  -0.71015  -1.27061   0.44135
  48   35185.9    284.2   0.005555758   0.05198   0.16877   0.09934   0.11675
  49   35484.7    281.8   0.025666856   0.23813   0.30904  -0.30000   0.22939
  50   35716.5    280.0   0.135483630   1.24880   0.54731   0.94458  -0.23878
  51   35794.5    279.4   0.039988750   0.36779   0.15518  -0.32849   0.48559
  52   36278.0    275.6   0.112648295   1.02225  -0.08386   0.97074  -0.26997
  53   36656.3    272.8   0.087886708   0.78931   0.07612  -0.86424   0.19132
  54   36812.0    271.7   0.162215081   1.45070  -1.15827  -0.18034   0.27673
  55   36968.8    270.5   0.020021827   0.17830   0.06609  -0.40190   0.11139
  56   36974.5    270.5   0.036157970   0.32194   0.53789   0.10716  -0.14538
  57   37357.7    267.7   0.000700196   0.00617  -0.05293   0.05803   0.00107
  58   37475.1    266.8   0.013234996   0.11627   0.30073   0.15930   0.02125
  59   37634.7    265.7   0.006335686   0.05542   0.05097   0.15716  -0.16770
  60   38001.5    263.1   0.020532521   0.17788  -0.09217   0.40682   0.06230
  61   38037.7    262.9   0.037928681   0.32827   0.13140  -0.55708  -0.02584
  62   38184.2    261.9   0.014407733   0.12422   0.30837   0.03093  -0.16783
  63   38226.5    261.6   0.243648409   2.09834  -0.21292  -1.42964   0.09556
  64   38494.9    259.8   0.126082416   1.07827  -0.36099  -0.69956   0.67718
  65   38783.3    257.8   0.074154450   0.62946  -0.57605   0.42296   0.34457
  66   38868.3    257.3   0.016757663   0.14194  -0.04337  -0.05642   0.36996
  67   39156.5    255.4   0.048234335   0.40554  -0.25499  -0.57003  -0.12482
  68   39433.4    253.6   0.028934586   0.24156   0.02599   0.26876  -0.41068
  69   39529.2    253.0   0.020906787   0.17412  -0.11901  -0.00597   0.39990
  70   39624.9    252.4   0.076310589   0.63401   0.49964   0.50064  -0.36569
  71   40002.0    250.0   0.032410159   0.26673   0.14694  -0.39785  -0.29472
  72   40041.9    249.7   0.159012792   1.30735  -1.01425   0.03964   0.52638
  73   40264.4    248.4   0.005943373   0.04859  -0.06372   0.20755   0.03816

FINAL SINGLE POINT ENERGY     -4766.653462270205

DIPOLE MOMENT
-------------
                                X             Y             Z
Electronic contribution:      6.89320       3.44941       5.10463
Nuclear contribution   :     -7.05040      -0.19711      -4.53616
                        -----------------------------------------
Total Dipole Moment    :     -0.15720       3.25230       0.56846
                        -----------------------------------------
Magnitude (a.u.)       :      3.30535
Magnitude (Debye)      :      8.40153

Rotational constants in cm-1:     0.001660     0.000268     0.000247
Rotational constants in MHz :    49.759694     8.042300     7.403624

                             ****ORCA TERMINATED NORMALLY****
TOTAL RUN TIME: 0 days 0 hours 9 minutes 29 seconds 602 msec
