                         Program Version 4.2.0 -  RELEASE  -
|  1> # ORCA input file
|  2> # SCF done       -222.919758483005          0.000510943936
|  3> ! CAM-B3LYP def2-SVP def2/J RIJCOSX Grid4 TightSCF
|  4> %maxcore 5000
|  5> %tddft
|  6>     Mode sTDDFT
|  7>     Ethresh 5.0
|  8>     maxcore 5000
|  9> end
| 10>
| 11> %pal
| 12>   nprocs 6
| 13>   end
| 14> * xyz 0 1
| 15>    C        5.18743        -5.97450         0.52764
| 16>    C        5.96245        -4.88576         0.89398
| 17>    C        6.16527        -3.59396         0.19325
| 18>    O        5.69942        -3.21155        -0.84128
| 19>    N        7.05708        -2.85996         1.00176
| 20>    C        7.43329        -3.56655         2.14866
| 21>    O        8.17888        -3.18358         3.01060
| 22>    C        6.72351        -4.86983         2.06628
| 23>    C        6.75510        -5.94271         2.94290
| 24>    C        5.98230        -7.03327         2.57661
| 25>    C        5.21997        -7.04875         1.40275
| 26>    C        4.52182        -8.36306         1.31953
| 27>    O        3.77619        -8.78014         0.47826
| 28>    N        4.91944        -9.04550         2.45905
| 29>    C        5.79122        -8.33777         3.27199
| 30>    O        6.26385        -8.73100         4.30153
| 31>    C        7.48432        -1.59953         0.60803
| 32>    C        8.36479        -0.84675         1.28698
| 33>    C        8.84008         0.42756         0.85352
| 34>    S       10.05302         1.20518         1.83732
| 35>    C       10.21725         2.56753         0.75204
| 36>    C        9.33530         2.41598        -0.30236
| 37>    C        8.56654         1.21995        -0.24616
| 38>    C        7.64681         1.15465        -1.38330
| 39>    O        6.84560         0.29234        -1.65409
| 40>    C        7.88057         2.41885        -2.19125
| 41>    C        8.93107         3.23091        -1.45065
| 42>    O        9.30780         4.33433        -1.76058
| 43>    C       11.20133         3.55074         1.05123
| 44>    C       11.68829         4.43055         0.14584
| 45>    C       12.73930         5.37304         0.33134
| 46>    N       13.15245         5.98847         1.49051
| 47>    C       12.54484         5.92686         2.79791
| 48>    C       13.29432         4.97067         3.72393
| 49>    C       14.26284         6.83642         1.27036
| 50>    O       14.77746         7.49606         2.14729
| 51>    C       14.53775         6.69985        -0.14202
| 52>    C       13.57115         5.81352        -0.68852
| 53>    C       13.87960         5.62350        -2.08735
| 54>    O       13.35209         4.97214        -2.96187
| 55>    N       15.04769         6.39935        -2.29102
| 56>    C       15.52784         6.65148        -3.63099
| 57>    C       15.27716         8.09507        -4.05573
| 58>    C       15.43909         7.03479        -1.13965
| 59>    C       16.60906         7.84923        -0.98364
| 60>    C       17.80793         7.58025        -1.52793
| 61>    C       18.98569         8.38265        -1.35427
| 62>    S       20.49544         7.56192        -1.11769
| 63>    C       19.15020         9.75689        -1.35823
| 64>    C       18.09353        10.72885        -1.70379
| 65>    O       16.95722        10.42495        -2.02385
| 66>    C       18.56764        12.10342        -1.65990
| 67>    C       17.86483        13.27071        -1.86188
| 68>    N       18.71550        14.31723        -1.73504
| 69>    C       18.34106        15.70741        -1.80639
| 70>    C       17.95731        16.24352        -0.42892
| 71>    C       19.95620        13.85930        -1.45095
| 72>    C       19.91549        12.48189        -1.39481
| 73>    C       20.98496        11.53690        -1.14692
| 74>    O       22.15420        11.85746        -0.99521
| 75>    C       20.50508        10.13950        -1.12487
| 76>    C       21.33961         9.05516        -0.95797
| 77>    C       22.76018         9.08586        -0.66511
| 78>    C       23.71871         8.39099        -1.40371
| 79>    C       23.55199         7.50267        -2.57672
| 80>    O       22.54523         7.17063        -3.14892
| 81>    N       24.83891         7.09377        -2.93656
| 82>    C       25.82184         7.65095        -2.11758
| 83>    O       27.00729         7.47341        -2.20146
| 84>    C       25.08818         8.49664        -1.13878
| 85>    C       25.59319         9.30261        -0.13519
| 86>    C       24.64336         9.97780         0.61870
| 87>    C       23.27463         9.86129         0.37982
| 88>    C       22.55364        10.66574         1.40796
| 89>    O       21.37824        10.76381         1.63312
| 90>    N       23.55758        11.26926         2.14606
| 91>    C       24.83880        10.91592         1.75872
| 92>    O       25.85542        11.30103         2.26639
| 93>    C       25.02815         6.21696        -4.01334
| 94>    C       26.18992         5.75016        -4.43585
| 95>    H        4.60158        -5.98564        -0.37753
| 96>    H        7.34298        -5.93063         3.84679
| 97>    H        4.60258        -9.97995         2.67642
| 98>    H        7.03645        -1.27781        -0.32531
| 99>    H        8.78434        -1.20268         2.21666
|100>    H        6.95549         2.98502        -2.31765
|101>    H        8.23159         2.17112        -3.19589
|102>    H       11.61647         3.48614         2.04659
|103>    H       11.32346         4.39491        -0.87203
|104>    H       11.49599         5.64405         2.68891
|105>    H       12.59944         6.93540         3.22038
|106>    H       13.35140         3.97019         3.29996
|107>    H       12.79302         4.91795         4.68656
|108>    H       14.30652         5.33583         3.87654
|109>    H       14.96527         5.96585        -4.27221
|110>    H       16.58924         6.40852        -3.71147
|111>    H       14.21341         8.31690        -4.01274
|112>    H       15.62042         8.23891        -5.07658
|113>    H       15.80439         8.79133        -3.40740
|114>    H       16.49441         8.68275        -0.30535
|115>    H       17.96261         6.65624        -2.06955
|116>    H       16.82515        13.40462        -2.08607
|117>    H       17.49731        15.80426        -2.49414
|118>    H       19.18549        16.27456        -2.20655
|119>    H       17.11694        15.68398        -0.02561
|120>    H       17.67703        17.29039        -0.50273
|121>    H       18.79422        16.15321         0.25916
|122>    H       20.78937        14.51880        -1.30930
|123>    H       26.65077         9.40037         0.04896
|124>    H       23.36836        11.89888         2.91293
|125>    H       24.08437         5.95405        -4.47322
|126>    H       27.12305         6.01549        -3.97416
|127>    H       26.22334         5.07725        -5.27333
|128> *
|129>
|130>                          ****END OF INPUT****

CARTESIAN COORDINATES (ANGSTROEM)
---------------------------------
  C      5.187430   -5.974500    0.527640
  C      5.962450   -4.885760    0.893980
  C      6.165270   -3.593960    0.193250
  O      5.699420   -3.211550   -0.841280
  N      7.057080   -2.859960    1.001760
  C      7.433290   -3.566550    2.148660
  O      8.178880   -3.183580    3.010600
  C      6.723510   -4.869830    2.066280
  C      6.755100   -5.942710    2.942900
  C      5.982300   -7.033270    2.576610
  C      5.219970   -7.048750    1.402750
  C      4.521820   -8.363060    1.319530
  O      3.776190   -8.780140    0.478260
  N      4.919440   -9.045500    2.459050
  C      5.791220   -8.337770    3.271990
  O      6.263850   -8.731000    4.301530
  C      7.484320   -1.599530    0.608030
  C      8.364790   -0.846750    1.286980
  C      8.840080    0.427560    0.853520
  S     10.053020    1.205180    1.837320
  C     10.217250    2.567530    0.752040
  C      9.335300    2.415980   -0.302360
  C      8.566540    1.219950   -0.246160
  C      7.646810    1.154650   -1.383300
  O      6.845600    0.292340   -1.654090
  C      7.880570    2.418850   -2.191250
  C      8.931070    3.230910   -1.450650
  O      9.307800    4.334330   -1.760580
  C     11.201330    3.550740    1.051230
  C     11.688290    4.430550    0.145840
  C     12.739300    5.373040    0.331340
  N     13.152450    5.988470    1.490510
  C     12.544840    5.926860    2.797910
  C     13.294320    4.970670    3.723930
  C     14.262840    6.836420    1.270360
  O     14.777460    7.496060    2.147290
  C     14.537750    6.699850   -0.142020
  C     13.571150    5.813520   -0.688520
  C     13.879600    5.623500   -2.087350
  O     13.352090    4.972140   -2.961870
  N     15.047690    6.399350   -2.291020
  C     15.527840    6.651480   -3.630990
  C     15.277160    8.095070   -4.055730
  C     15.439090    7.034790   -1.139650
  C     16.609060    7.849230   -0.983640
  C     17.807930    7.580250   -1.527930
  C     18.985690    8.382650   -1.354270
  S     20.495440    7.561920   -1.117690
  C     19.150200    9.756890   -1.358230
  C     18.093530   10.728850   -1.703790
  O     16.957220   10.424950   -2.023850
  C     18.567640   12.103420   -1.659900
  C     17.864830   13.270710   -1.861880
  N     18.715500   14.317230   -1.735040
  C     18.341060   15.707410   -1.806390
  C     17.957310   16.243520   -0.428920
  C     19.956200   13.859300   -1.450950
  C     19.915490   12.481890   -1.394810
  C     20.984960   11.536900   -1.146920
  O     22.154200   11.857460   -0.995210
  C     20.505080   10.139500   -1.124870
  C     21.339610    9.055160   -0.957970
  C     22.760180    9.085860   -0.665110
  C     23.718710    8.390990   -1.403710
  C     23.551990    7.502670   -2.576720
  O     22.545230    7.170630   -3.148920
  N     24.838910    7.093770   -2.936560
  C     25.821840    7.650950   -2.117580
  O     27.007290    7.473410   -2.201460
  C     25.088180    8.496640   -1.138780
  C     25.593190    9.302610   -0.135190
  C     24.643360    9.977800    0.618700
  C     23.274630    9.861290    0.379820
  C     22.553640   10.665740    1.407960
  O     21.378240   10.763810    1.633120
  N     23.557580   11.269260    2.146060
  C     24.838800   10.915920    1.758720
  O     25.855420   11.301030    2.266390
  C     25.028150    6.216960   -4.013340
  C     26.189920    5.750160   -4.435850
  H      4.601580   -5.985640   -0.377530
  H      7.342980   -5.930630    3.846790
  H      4.602580   -9.979950    2.676420
  H      7.036450   -1.277810   -0.325310
  H      8.784340   -1.202680    2.216660
  H      6.955490    2.985020   -2.317650
  H      8.231590    2.171120   -3.195890
  H     11.616470    3.486140    2.046590
  H     11.323460    4.394910   -0.872030
  H     11.495990    5.644050    2.688910
  H     12.599440    6.935400    3.220380
  H     13.351400    3.970190    3.299960
  H     12.793020    4.917950    4.686560
  H     14.306520    5.335830    3.876540
  H     14.965270    5.965850   -4.272210
  H     16.589240    6.408520   -3.711470
  H     14.213410    8.316900   -4.012740
  H     15.620420    8.238910   -5.076580
  H     15.804390    8.791330   -3.407400
  H     16.494410    8.682750   -0.305350
  H     17.962610    6.656240   -2.069550
  H     16.825150   13.404620   -2.086070
  H     17.497310   15.804260   -2.494140
  H     19.185490   16.274560   -2.206550
  H     17.116940   15.683980   -0.025610
  H     17.677030   17.290390   -0.502730
  H     18.794220   16.153210    0.259160
  H     20.789370   14.518800   -1.309300
  H     26.650770    9.400370    0.048960
  H     23.368360   11.898880    2.912930
  H     24.084370    5.954050   -4.473220
  H     27.123050    6.015490   -3.974160
  H     26.223340    5.077250   -5.273330

 Total Charge           Charge          ....    0
 Multiplicity           Mult            ....    1
 Number of Electrons    NEL             ....  568
 Basis Dimension        Dim             .... 1293

ORBITAL ENERGIES
----------------

  NO   OCC          E(Eh)            E(eV)
   0   2.0000     -88.975023     -2421.1335
   1   2.0000     -88.970910     -2421.0216
   2   2.0000     -19.238883      -523.5166
   3   2.0000     -19.237582      -523.4812
   4   2.0000     -19.228968      -523.2468
   5   2.0000     -19.228705      -523.2397
   6   2.0000     -19.227834      -523.2160
   7   2.0000     -19.225470      -523.1516
   8   2.0000     -19.217442      -522.9332
   9   2.0000     -19.214252      -522.8464
  10   2.0000     -19.212615      -522.8018
  11   2.0000     -19.208771      -522.6972
  12   2.0000     -19.202050      -522.5143
  13   2.0000     -19.197897      -522.4013
  14   2.0000     -19.179260      -521.8942
  15   2.0000     -19.177640      -521.8501
  16   2.0000     -14.489030      -394.2666
  17   2.0000     -14.488630      -394.2557
  18   2.0000     -14.474842      -393.8805
  19   2.0000     -14.470657      -393.7666
  20   2.0000     -14.458750      -393.4426
  21   2.0000     -14.443331      -393.0230
  22   2.0000     -14.441512      -392.9735
  23   2.0000     -10.418557      -283.5034
  24   2.0000     -10.415848      -283.4296
  25   2.0000     -10.412763      -283.3457
  26   2.0000     -10.412589      -283.3409
  27   2.0000     -10.408112      -283.2191
  28   2.0000     -10.405432      -283.1462
  29   2.0000     -10.400746      -283.0187
  30   2.0000     -10.400648      -283.0160
  31   2.0000     -10.365765      -282.0668
  32   2.0000     -10.363191      -281.9968
  33   2.0000     -10.362653      -281.9821
  34   2.0000     -10.362537      -281.9790
  35   2.0000     -10.362530      -281.9788
  36   2.0000     -10.359644      -281.9003
  37   2.0000     -10.334168      -281.2070
  38   2.0000     -10.330453      -281.1059
  39   2.0000     -10.330413      -281.1048
  40   2.0000     -10.329118      -281.0696
  41   2.0000     -10.329011      -281.0667
  42   2.0000     -10.327755      -281.0325
  43   2.0000     -10.327594      -281.0281
  44   2.0000     -10.326122      -280.9881
  45   2.0000     -10.325731      -280.9774
  46   2.0000     -10.324918      -280.9553
  47   2.0000     -10.324618      -280.9471
  48   2.0000     -10.324543      -280.9451
  49   2.0000     -10.324213      -280.9361
  50   2.0000     -10.319465      -280.8069
  51   2.0000     -10.319067      -280.7961
  52   2.0000     -10.315223      -280.6915
  53   2.0000     -10.313895      -280.6553
  54   2.0000     -10.313652      -280.6487
  55   2.0000     -10.313576      -280.6467
  56   2.0000     -10.312566      -280.6192
  57   2.0000     -10.312127      -280.6072
  58   2.0000     -10.310945      -280.5751
  59   2.0000     -10.310506      -280.5631
  60   2.0000     -10.301054      -280.3059
  61   2.0000     -10.296336      -280.1776
  62   2.0000     -10.291361      -280.0422
  63   2.0000     -10.290774      -280.0262
  64   2.0000     -10.289030      -279.9787
  65   2.0000     -10.287357      -279.9332
  66   2.0000     -10.287146      -279.9275
  67   2.0000     -10.286526      -279.9106
  68   2.0000     -10.286417      -279.9076
  69   2.0000     -10.285541      -279.8838
  70   2.0000     -10.285222      -279.8751
  71   2.0000     -10.282205      -279.7930
  72   2.0000     -10.276153      -279.6283
  73   2.0000     -10.269145      -279.4377
  74   2.0000     -10.268649      -279.4241
  75   2.0000     -10.259873      -279.1854
  76   2.0000     -10.256310      -279.0884
  77   2.0000     -10.251819      -278.9662
  78   2.0000     -10.250693      -278.9356
  79   2.0000     -10.241501      -278.6854
  80   2.0000      -8.070695      -219.6148
  81   2.0000      -8.066534      -219.5015
  82   2.0000      -6.039784      -164.3509
  83   2.0000      -6.035658      -164.2386
  84   2.0000      -6.035598      -164.2370
  85   2.0000      -6.033126      -164.1697
  86   2.0000      -6.031362      -164.1217
  87   2.0000      -6.029034      -164.0583
  88   2.0000      -1.184504       -32.2320
  89   2.0000      -1.174567       -31.9616
  90   2.0000      -1.173637       -31.9363
  91   2.0000      -1.162725       -31.6394
  92   2.0000      -1.161836       -31.6152
  93   2.0000      -1.153707       -31.3940
  94   2.0000      -1.149972       -31.2923
  95   2.0000      -1.141603       -31.0646
  96   2.0000      -1.130646       -30.7664
  97   2.0000      -1.124612       -30.6022
  98   2.0000      -1.121619       -30.5208
  99   2.0000      -1.120270       -30.4841
 100   2.0000      -1.115121       -30.3440
 101   2.0000      -1.114861       -30.3369
 102   2.0000      -1.107846       -30.1460
 103   2.0000      -1.077610       -29.3233
 104   2.0000      -1.065649       -28.9978
 105   2.0000      -1.061957       -28.8973
 106   2.0000      -1.052190       -28.6315
 107   2.0000      -1.049878       -28.5686
 108   2.0000      -1.043354       -28.3911
 109   2.0000      -1.006031       -27.3755
 110   2.0000      -1.005786       -27.3688
 111   2.0000      -1.001075       -27.2406
 112   2.0000      -0.985849       -26.8263
 113   2.0000      -0.937724       -25.5168
 114   2.0000      -0.932764       -25.3818
 115   2.0000      -0.921997       -25.0888
 116   2.0000      -0.917950       -24.9787
 117   2.0000      -0.917273       -24.9603
 118   2.0000      -0.911645       -24.8071
 119   2.0000      -0.908936       -24.7334
 120   2.0000      -0.893225       -24.3059
 121   2.0000      -0.893091       -24.3022
 122   2.0000      -0.879401       -23.9297
 123   2.0000      -0.876104       -23.8400
 124   2.0000      -0.861825       -23.4514
 125   2.0000      -0.853894       -23.2356
 126   2.0000      -0.841901       -22.9093
 127   2.0000      -0.839548       -22.8453
 128   2.0000      -0.836863       -22.7722
 129   2.0000      -0.832426       -22.6515
 130   2.0000      -0.819314       -22.2947
 131   2.0000      -0.808139       -21.9906
 132   2.0000      -0.806019       -21.9329
 133   2.0000      -0.792738       -21.5715
 134   2.0000      -0.791689       -21.5429
 135   2.0000      -0.785177       -21.3658
 136   2.0000      -0.781648       -21.2697
 137   2.0000      -0.769364       -20.9355
 138   2.0000      -0.765299       -20.8248
 139   2.0000      -0.759910       -20.6782
 140   2.0000      -0.754728       -20.5372
 141   2.0000      -0.747987       -20.3538
 142   2.0000      -0.742642       -20.2083
 143   2.0000      -0.737068       -20.0566
 144   2.0000      -0.720685       -19.6108
 145   2.0000      -0.715569       -19.4716
 146   2.0000      -0.713447       -19.4139
 147   2.0000      -0.705235       -19.1904
 148   2.0000      -0.702235       -19.1088
 149   2.0000      -0.700011       -19.0483
 150   2.0000      -0.696736       -18.9592
 151   2.0000      -0.696367       -18.9491
 152   2.0000      -0.693821       -18.8798
 153   2.0000      -0.693378       -18.8678
 154   2.0000      -0.674743       -18.3607
 155   2.0000      -0.668888       -18.2014
 156   2.0000      -0.657769       -17.8988
 157   2.0000      -0.651696       -17.7335
 158   2.0000      -0.650744       -17.7076
 159   2.0000      -0.646072       -17.5805
 160   2.0000      -0.641905       -17.4671
 161   2.0000      -0.637931       -17.3590
 162   2.0000      -0.626787       -17.0557
 163   2.0000      -0.620130       -16.8746
 164   2.0000      -0.617258       -16.7964
 165   2.0000      -0.612843       -16.6763
 166   2.0000      -0.608317       -16.5532
 167   2.0000      -0.603200       -16.4139
 168   2.0000      -0.601759       -16.3747
 169   2.0000      -0.593473       -16.1492
 170   2.0000      -0.592744       -16.1294
 171   2.0000      -0.587036       -15.9741
 172   2.0000      -0.581070       -15.8117
 173   2.0000      -0.580739       -15.8027
 174   2.0000      -0.579320       -15.7641
 175   2.0000      -0.576690       -15.6925
 176   2.0000      -0.573933       -15.6175
 177   2.0000      -0.570347       -15.5199
 178   2.0000      -0.569549       -15.4982
 179   2.0000      -0.564441       -15.3592
 180   2.0000      -0.563790       -15.3415
 181   2.0000      -0.563468       -15.3328
 182   2.0000      -0.562602       -15.3092
 183   2.0000      -0.561334       -15.2747
 184   2.0000      -0.559090       -15.2136
 185   2.0000      -0.556242       -15.1361
 186   2.0000      -0.555002       -15.1024
 187   2.0000      -0.553955       -15.0739
 188   2.0000      -0.552747       -15.0410
 189   2.0000      -0.551924       -15.0186
 190   2.0000      -0.549931       -14.9644
 191   2.0000      -0.546021       -14.8580
 192   2.0000      -0.542438       -14.7605
 193   2.0000      -0.540822       -14.7165
 194   2.0000      -0.538543       -14.6545
 195   2.0000      -0.537139       -14.6163
 196   2.0000      -0.533711       -14.5230
 197   2.0000      -0.531335       -14.4584
 198   2.0000      -0.526212       -14.3189
 199   2.0000      -0.525175       -14.2907
 200   2.0000      -0.522364       -14.2142
 201   2.0000      -0.521155       -14.1814
 202   2.0000      -0.519589       -14.1387
 203   2.0000      -0.518847       -14.1185
 204   2.0000      -0.515079       -14.0160
 205   2.0000      -0.513906       -13.9841
 206   2.0000      -0.513360       -13.9692
 207   2.0000      -0.511282       -13.9127
 208   2.0000      -0.508661       -13.8414
 209   2.0000      -0.507424       -13.8077
 210   2.0000      -0.507049       -13.7975
 211   2.0000      -0.505533       -13.7563
 212   2.0000      -0.504849       -13.7376
 213   2.0000      -0.504034       -13.7154
 214   2.0000      -0.499123       -13.5818
 215   2.0000      -0.497705       -13.5432
 216   2.0000      -0.495770       -13.4906
 217   2.0000      -0.494871       -13.4661
 218   2.0000      -0.494105       -13.4453
 219   2.0000      -0.491956       -13.3868
 220   2.0000      -0.490503       -13.3473
 221   2.0000      -0.487790       -13.2735
 222   2.0000      -0.485953       -13.2234
 223   2.0000      -0.484087       -13.1727
 224   2.0000      -0.481298       -13.0968
 225   2.0000      -0.478198       -13.0124
 226   2.0000      -0.477706       -12.9990
 227   2.0000      -0.474587       -12.9142
 228   2.0000      -0.474081       -12.9004
 229   2.0000      -0.469053       -12.7636
 230   2.0000      -0.468127       -12.7384
 231   2.0000      -0.465694       -12.6722
 232   2.0000      -0.463238       -12.6054
 233   2.0000      -0.460551       -12.5322
 234   2.0000      -0.458755       -12.4833
 235   2.0000      -0.456056       -12.4099
 236   2.0000      -0.454121       -12.3573
 237   2.0000      -0.453773       -12.3478
 238   2.0000      -0.451357       -12.2821
 239   2.0000      -0.449498       -12.2315
 240   2.0000      -0.447170       -12.1681
 241   2.0000      -0.438528       -11.9329
 242   2.0000      -0.438297       -11.9267
 243   2.0000      -0.435212       -11.8427
 244   2.0000      -0.434706       -11.8289
 245   2.0000      -0.433397       -11.7933
 246   2.0000      -0.425468       -11.5776
 247   2.0000      -0.423643       -11.5279
 248   2.0000      -0.417320       -11.3559
 249   2.0000      -0.415377       -11.3030
 250   2.0000      -0.410123       -11.1600
 251   2.0000      -0.399668       -10.8755
 252   2.0000      -0.388184       -10.5630
 253   2.0000      -0.387738       -10.5509
 254   2.0000      -0.383588       -10.4380
 255   2.0000      -0.379792       -10.3347
 256   2.0000      -0.379549       -10.3280
 257   2.0000      -0.378261       -10.2930
 258   2.0000      -0.371142       -10.0993
 259   2.0000      -0.370711       -10.0875
 260   2.0000      -0.368965       -10.0401
 261   2.0000      -0.368849       -10.0369
 262   2.0000      -0.367494       -10.0000
 263   2.0000      -0.360813        -9.8182
 264   2.0000      -0.358602        -9.7580
 265   2.0000      -0.358481        -9.7548
 266   2.0000      -0.356190        -9.6924
 267   2.0000      -0.345654        -9.4057
 268   2.0000      -0.343688        -9.3522
 269   2.0000      -0.341378        -9.2894
 270   2.0000      -0.335629        -9.1329
 271   2.0000      -0.334666        -9.1067
 272   2.0000      -0.334016        -9.0890
 273   2.0000      -0.325734        -8.8637
 274   2.0000      -0.323888        -8.8134
 275   2.0000      -0.319753        -8.7009
 276   2.0000      -0.318635        -8.6705
 277   2.0000      -0.317640        -8.6434
 278   2.0000      -0.309624        -8.4253
 279   2.0000      -0.305271        -8.3069
 280   2.0000      -0.303955        -8.2710
 281   2.0000      -0.288488        -7.8502
 282   2.0000      -0.276166        -7.5149
 283   2.0000      -0.231021        -6.2864
 284   0.0000      -0.089145        -2.4258
 285   0.0000      -0.081795        -2.2258
 286   0.0000      -0.076368        -2.0781
 287   0.0000      -0.061862        -1.6834
 288   0.0000      -0.056134        -1.5275

MULLIKEN ATOMIC CHARGES
-----------------------
   0 C :   -0.056898
   1 C :   -0.000198
   2 C :    0.199556
   3 O :   -0.111817
   4 N :   -0.238116
   5 C :    0.217049
   6 O :   -0.142565
   7 C :    0.003642
   8 C :   -0.061187
   9 C :   -0.021239
  10 C :   -0.019923
  11 C :    0.170548
  12 O :   -0.124093
  13 N :   -0.148726
  14 C :    0.169475
  15 O :   -0.123430
  16 C :    0.067942
  17 C :    0.038561
  18 C :   -0.137600
  19 S :    0.164272
  20 C :   -0.149828
  21 C :    0.025654
  22 C :    0.017068
  23 C :    0.028906
  24 O :   -0.154641
  25 C :    0.068311
  26 C :    0.026007
  27 O :   -0.145861
  28 C :    0.049168
  29 C :   -0.010745
  30 C :    0.097848
  31 N :   -0.274662
  32 C :    0.116595
  33 C :   -0.000544
  34 C :    0.142047
  35 O :   -0.194834
  36 C :   -0.014975
  37 C :   -0.047810
  38 C :    0.154889
  39 O :   -0.183150
  40 N :   -0.270737
  41 C :    0.103873
  42 C :   -0.012940
  43 C :    0.058262
  44 C :    0.045957
  45 C :   -0.003043
  46 C :   -0.141524
  47 S :    0.231854
  48 C :   -0.007823
  49 C :    0.132500
  50 O :   -0.160421
  51 C :   -0.014786
  52 C :    0.010819
  53 N :   -0.134332
  54 C :    0.087061
  55 C :    0.002310
  56 C :    0.012197
  57 C :   -0.022411
  58 C :    0.147748
  59 O :   -0.185822
  60 C :    0.099055
  61 C :   -0.248211
  62 C :    0.052622
  63 C :   -0.019021
  64 C :    0.174336
  65 O :   -0.148138
  66 N :   -0.240000
  67 C :    0.209680
  68 O :   -0.137658
  69 C :   -0.014606
  70 C :   -0.077908
  71 C :   -0.030718
  72 C :   -0.007099
  73 C :    0.169095
  74 O :   -0.138722
  75 N :   -0.137914
  76 C :    0.162650
  77 O :   -0.128769
  78 C :    0.068482
  79 C :   -0.031468
  80 H :    0.021942
  81 H :    0.020200
  82 H :    0.145161
  83 H :    0.053664
  84 H :    0.011009
  85 H :    0.063420
  86 H :    0.072672
  87 H :   -0.031255
  88 H :    0.037290
  89 H :    0.023073
  90 H :    0.031462
  91 H :    0.015720
  92 H :    0.017882
  93 H :    0.036815
  94 H :    0.042095
  95 H :    0.012672
  96 H :    0.017807
  97 H :    0.013158
  98 H :    0.045281
  99 H :    0.036817
 100 H :    0.013802
 101 H :    0.008518
 102 H :    0.035731
 103 H :    0.033938
 104 H :    0.032885
 105 H :    0.031509
 106 H :    0.031086
 107 H :    0.005915
 108 H :    0.016086
 109 H :    0.139806
 110 H :    0.035145
 111 H :    0.052412
 112 H :    0.027164
Sum of atomic charges:   -0.0000000

LOEWDIN ATOMIC CHARGES
----------------------
   0 C :    0.045451
   1 C :   -0.037160
   2 C :    0.098812
   3 O :   -0.111775
   4 N :   -0.016688
   5 C :    0.100998
   6 O :   -0.130323
   7 C :   -0.034602
   8 C :    0.043215
   9 C :   -0.037210
  10 C :   -0.037847
  11 C :    0.084058
  12 O :   -0.137752
  13 N :   -0.001916
  14 C :    0.083552
  15 O :   -0.138147
  16 C :    0.059573
  17 C :   -0.080732
  18 C :   -0.124672
  19 S :    0.472028
  20 C :   -0.137807
  21 C :   -0.093004
  22 C :   -0.103703
  23 C :    0.081552
  24 O :   -0.133111
  25 C :   -0.066410
  26 C :    0.078367
  27 O :   -0.127778
  28 C :   -0.043597
  29 C :    0.003536
  30 C :    0.068874
  31 N :   -0.007912
  32 C :    0.037136
  33 C :   -0.063229
  34 C :    0.079222
  35 O :   -0.198739
  36 C :   -0.120699
  37 C :   -0.113034
  38 C :    0.081402
  39 O :   -0.186072
  40 N :   -0.005341
  41 C :    0.035227
  42 C :   -0.066130
  43 C :    0.080383
  44 C :    0.015746
  45 C :   -0.036456
  46 C :   -0.128624
  47 S :    0.517809
  48 C :   -0.089169
  49 C :    0.084430
  50 O :   -0.161330
  51 C :   -0.098803
  52 C :    0.032617
  53 N :    0.090374
  54 C :    0.043953
  55 C :   -0.057104
  56 C :    0.033904
  57 C :   -0.099642
  58 C :    0.090322
  59 O :   -0.174383
  60 C :   -0.065139
  61 C :   -0.150967
  62 C :    0.008049
  63 C :   -0.040480
  64 C :    0.094748
  65 O :   -0.146151
  66 N :   -0.019769
  67 C :    0.099942
  68 O :   -0.130811
  69 C :   -0.036229
  70 C :    0.040641
  71 C :   -0.035568
  72 C :   -0.013767
  73 C :    0.089613
  74 O :   -0.145293
  75 N :    0.005882
  76 C :    0.086219
  77 O :   -0.143699
  78 C :    0.024435
  79 C :   -0.061510
  80 H :    0.053419
  81 H :    0.052460
  82 H :    0.099816
  83 H :    0.034421
  84 H :    0.031813
  85 H :    0.061394
  86 H :    0.065601
  87 H :    0.027105
  88 H :    0.049233
  89 H :    0.024346
  90 H :    0.034429
  91 H :    0.017754
  92 H :    0.028379
  93 H :    0.034529
  94 H :    0.034794
  95 H :    0.017328
  96 H :    0.027276
  97 H :    0.027686
  98 H :    0.026960
  99 H :    0.049724
 100 H :    0.031864
 101 H :    0.030201
 102 H :    0.034419
 103 H :    0.033700
 104 H :    0.031615
 105 H :    0.033474
 106 H :    0.030630
 107 H :    0.029215
 108 H :    0.050932
 109 H :    0.097724
 110 H :    0.034551
 111 H :    0.030168
 112 H :    0.031249

  Mayer bond orders larger than 0.100000
B(  0-C ,  1-C ) :   1.3574 B(  0-C , 10-C ) :   1.3474 B(  0-C , 80-H ) :   1.0251
B(  1-C ,  2-C ) :   0.8801 B(  1-C ,  7-C ) :   1.3901 B(  2-C ,  3-O ) :   2.2562
B(  2-C ,  4-N ) :   1.0039 B(  4-N ,  5-C ) :   1.0309 B(  4-N , 16-C ) :   1.0260
B(  5-C ,  6-O ) :   2.1997 B(  5-C ,  7-C ) :   0.8879 B(  7-C ,  8-C ) :   1.3532
B(  8-C ,  9-C ) :   1.3493 B(  8-C , 81-H ) :   1.0253 B(  9-C , 10-C ) :   1.3895
B(  9-C , 14-C ) :   0.8658 B( 10-C , 11-C ) :   0.8660 B( 11-C , 12-O ) :   2.2950
B( 11-C , 13-N ) :   1.0801 B( 13-N , 14-C ) :   1.0813 B( 13-N , 82-H ) :   0.9142
B( 14-C , 15-O ) :   2.2959 B( 16-C , 17-C ) :   1.7023 B( 16-C , 83-H ) :   0.9391
B( 17-C , 18-C ) :   1.1250 B( 17-C , 84-H ) :   0.9426 B( 18-C , 19-S ) :   1.1571
B( 18-C , 22-C ) :   1.4640 B( 19-S , 20-C ) :   1.1322 B( 20-C , 21-C ) :   1.4710
B( 20-C , 28-C ) :   1.1321 B( 21-C , 22-C ) :   1.2033 B( 21-C , 26-C ) :   0.9476
B( 22-C , 23-C ) :   0.9543 B( 23-C , 24-O ) :   2.1421 B( 23-C , 25-C ) :   1.0023
B( 24-O , 83-H ) :   0.1088 B( 25-C , 26-C ) :   0.9943 B( 25-C , 85-H ) :   0.8958
B( 25-C , 86-H ) :   0.8965 B( 26-C , 27-O ) :   2.1883 B( 28-C , 29-C ) :   1.6387
B( 28-C , 87-H ) :   0.9530 B( 29-C , 30-C ) :   1.1595 B( 29-C , 88-H ) :   0.9329
B( 30-C , 31-N ) :   1.1708 B( 30-C , 37-C ) :   1.3813 B( 31-N , 32-C ) :   0.9450
B( 31-N , 34-C ) :   1.0282 B( 32-C , 33-C ) :   1.1167 B( 32-C , 89-H ) :   0.9500
B( 32-C , 90-H ) :   0.9320 B( 33-C , 91-H ) :   0.9633 B( 33-C , 92-H ) :   0.9680
B( 33-C , 93-H ) :   0.9601 B( 34-C , 35-O ) :   2.1444 B( 34-C , 36-C ) :   0.9732
B( 36-C , 37-C ) :   1.2058 B( 36-C , 43-C ) :   1.3900 B( 37-C , 38-C ) :   0.9799
B( 38-C , 39-O ) :   2.1431 B( 38-C , 40-N ) :   1.0218 B( 40-N , 41-C ) :   0.9435
B( 40-N , 43-C ) :   1.1982 B( 41-C , 42-C ) :   1.1186 B( 41-C , 94-H ) :   0.9287
B( 41-C , 95-H ) :   0.9485 B( 42-C , 96-H ) :   0.9623 B( 42-C , 97-H ) :   0.9641
B( 42-C , 98-H ) :   0.9562 B( 43-C , 44-C ) :   1.1315 B( 44-C , 45-C ) :   1.7404
B( 44-C , 99-H ) :   0.9455 B( 45-C , 46-C ) :   1.0590 B( 45-C ,100-H ) :   0.9503
B( 46-C , 47-S ) :   1.1741 B( 46-C , 48-C ) :   1.5209 B( 47-S , 61-C ) :   1.1792
B( 48-C , 49-C ) :   0.9346 B( 48-C , 60-C ) :   1.1785 B( 49-C , 50-O ) :   2.1846
B( 49-C , 51-C ) :   0.9904 B( 51-C , 52-C ) :   1.4323 B( 51-C , 57-C ) :   1.2905
B( 52-C , 53-N ) :   1.2310 B( 52-C ,101-H ) :   0.9922 B( 53-N , 54-C ) :   0.9505
B( 53-N , 56-C ) :   1.2390 B( 54-C , 55-C ) :   1.1108 B( 54-C ,102-H ) :   0.9514
B( 54-C ,103-H ) :   0.9511 B( 55-C ,104-H ) :   0.9673 B( 55-C ,105-H ) :   0.9680
B( 55-C ,106-H ) :   0.9675 B( 56-C , 57-C ) :   1.4190 B( 56-C ,107-H ) :   0.9936
B( 57-C , 58-C ) :   1.0070 B( 58-C , 59-O ) :   2.1770 B( 58-C , 60-C ) :   0.9265
B( 60-C , 61-C ) :   1.5617 B( 61-C , 62-C ) :   0.9843 B( 62-C , 63-C ) :   1.4319
B( 62-C , 72-C ) :   1.3963 B( 63-C , 64-C ) :   0.8851 B( 63-C , 69-C ) :   1.3573
B( 64-C , 65-O ) :   2.1835 B( 64-C , 66-N ) :   1.0549 B( 66-N , 67-C ) :   1.0277
B( 66-N , 78-C ) :   0.9894 B( 67-C , 68-O ) :   2.2219 B( 67-C , 69-C ) :   0.8825
B( 69-C , 70-C ) :   1.3621 B( 70-C , 71-C ) :   1.3086 B( 70-C ,108-H ) :   1.0269
B( 71-C , 72-C ) :   1.4084 B( 71-C , 76-C ) :   0.8589 B( 72-C , 73-C ) :   0.8623
B( 73-C , 74-O ) :   2.2402 B( 73-C , 75-N ) :   1.1005 B( 75-N , 76-C ) :   1.0814
B( 75-N ,109-H ) :   0.9150 B( 76-C , 77-O ) :   2.2940 B( 78-C , 79-C ) :   1.9647
B( 78-C ,110-H ) :   0.9627 B( 79-C ,111-H ) :   0.9437 B( 79-C ,112-H ) :   0.9464

-----------------------------------------------------------------------------
         ABSORPTION SPECTRUM VIA TRANSITION ELECTRIC DIPOLE MOMENTS
-----------------------------------------------------------------------------
State   Energy  Wavelength   fosc         T2         TX        TY        TZ
        (cm-1)    (nm)                  (au**2)     (au)      (au)      (au)
-----------------------------------------------------------------------------
   0   16583.7    603.0   1.001123149  19.87378  -3.41617  -2.47675   1.43848
   1   20976.7    476.7   0.002919085   0.04581   0.08930  -0.10692   0.16250
   2   22334.0    447.7   0.005326915   0.07852  -0.00896  -0.23992  -0.14449
   3   23644.0    422.9   0.007888075   0.10983  -0.13750   0.28267   0.10499
   4   23964.0    417.3   0.066050851   0.90739   0.78029  -0.54010   0.08266
   5   26347.4    379.5   0.396648390   4.95615  -0.92205  -2.02412   0.09444
   6   26727.9    374.1   0.022205895   0.27351  -0.30798  -0.42099   0.03777
   7   26900.5    371.7   0.098559998   1.20619   0.77983   0.70988   0.30681
   8   27427.2    364.6   0.039257614   0.47121   0.33445   0.59419   0.07933
   9   27700.5    361.0   0.052886845   0.62854   0.73416   0.20133  -0.22142
  10   28434.7    351.7   0.220135121   2.54868   1.30467   0.85694   0.33492
  11   28757.1    347.7   0.022892172   0.26207   0.50280  -0.09409   0.02013
  12   28967.8    345.2   0.002458545   0.02794   0.13593   0.01754   0.09569
  13   29805.5    335.5   0.033196453   0.36667   0.40516   0.21041  -0.39779
  14   29943.8    334.0   0.002669166   0.02935  -0.08913   0.14618   0.00573
  15   30507.8    327.8   0.079934325   0.86258   0.77053  -0.05918  -0.51513
  16   30984.0    322.7   0.190450048   2.02357  -1.20701   0.09463  -0.74683
  17   31712.7    315.3   0.206168343   2.14025  -0.27433  -1.30448  -0.60277
  18   32405.1    308.6   0.002487060   0.02527   0.10430   0.05456  -0.10682
  19   32416.6    308.5   0.041564411   0.42211   0.50158  -0.39188  -0.13024
  20   32564.0    307.1   0.194453008   1.96586  -0.33364  -1.25253   0.53452
  21   32571.2    307.0   0.032890879   0.33244  -0.42011   0.38536  -0.08628
  22   32639.4    306.4   0.000466290   0.00470   0.02859  -0.02656  -0.05639
  23   32735.4    305.5   0.006544647   0.06582   0.01351  -0.09924  -0.23619
  24   33212.5    301.1   0.054057508   0.53583   0.00293   0.50931  -0.52577
  25   33434.1    299.1   0.085317096   0.84008   0.75896  -0.38897   0.33580
  26   33758.3    296.2   0.016818504   0.16401   0.03822  -0.40235   0.02584
  27   34031.8    293.8   0.000360617   0.00349  -0.05008   0.02123   0.02302
  28   34195.5    292.4   0.002299289   0.02214  -0.07690  -0.06024  -0.11222
  29   34795.8    287.4   0.006337246   0.05996  -0.19378  -0.14834  -0.02007
  30   35323.8    283.1   0.020165278   0.18794  -0.11924  -0.41677   0.00431
  31   35421.7    282.3   0.030246876   0.28112  -0.12038   0.51250   0.06295
  32   36036.7    277.5   0.009601373   0.08771  -0.14462  -0.20060  -0.16297
  33   36092.1    277.1   0.030834868   0.28126  -0.15216   0.49770   0.10198
  34   36527.5    273.8   0.031992419   0.28834   0.36924  -0.27201  -0.27930
  35   36641.4    272.9   0.000128219   0.00115   0.02952  -0.00641   0.01548
  36   36688.8    272.6   0.002848030   0.02556  -0.06664  -0.10597   0.09942
  37   36698.6    272.5   0.112485749   1.00908  -0.60781   0.60748   0.52021
  38   37363.0    267.6   0.003459754   0.03048   0.09593  -0.00250   0.14586
  39   37434.4    267.1   0.095561488   0.84040   0.08912  -0.87319   0.26459
  40   37521.8    266.5   0.018486297   0.16220  -0.21188  -0.31866  -0.12553
  41   37619.2    265.8   0.001319233   0.01154  -0.01605   0.09068  -0.05536
  42   37906.1    263.8   0.000528316   0.00459  -0.00590  -0.06745   0.00189
  43   38020.4    263.0   0.026605302   0.23037  -0.09440   0.44316   0.15832
  44   38378.4    260.6   0.013149477   0.11280  -0.27884  -0.16305  -0.09198
  45   38559.0    259.3   0.037912003   0.32369   0.02653   0.54625  -0.15683
  46   38693.0    258.4   0.016287575   0.13858  -0.00820   0.15520  -0.33827
  47   38737.2    258.1   0.020907721   0.17769  -0.21375   0.17142   0.32033
  48   38830.6    257.5   0.022214914   0.18834  -0.05541   0.31198  -0.29654
  49   38879.2    257.2   0.000236488   0.00200  -0.02844  -0.01431  -0.03144
  50   38927.3    256.9   0.006015170   0.05087  -0.21429   0.04678   0.05258
  51   39060.0    256.0   0.034689180   0.29237   0.33651  -0.39875   0.14188
  52   39071.4    255.9   0.004823550   0.04064  -0.15357   0.06662  -0.11234
  53   39360.0    254.1   0.042319043   0.35396   0.51029  -0.04371   0.30274
  54   39673.4    252.1   0.064588460   0.53596   0.60480   0.30947   0.27278
  55   39678.7    252.0   0.017832041   0.14795  -0.30536  -0.16510  -0.16567
  56   39884.8    250.7   0.015214463   0.12558  -0.31690  -0.13992  -0.07467
  57   39945.8    250.3   0.008385863   0.06911   0.18260   0.07531   0.17349
  58   40278.0    248.3   0.149806050   1.22444   0.70944   0.83566  -0.15100

FINAL SINGLE POINT ENERGY     -4420.246343272289

DIPOLE MOMENT
-------------
                                X             Y             Z
Electronic contribution:     -6.21260     -54.67338      13.06869
Nuclear contribution   :      5.83195      56.07988     -12.43903
                        -----------------------------------------
Total Dipole Moment    :     -0.38065       1.40650       0.62966
                        -----------------------------------------
Magnitude (a.u.)       :      1.58733
Magnitude (Debye)      :      4.03468

Rotational constants in cm-1:     0.001436     0.000179     0.000170
Rotational constants in MHz :    43.064176     5.359068     5.084242

                             ****ORCA TERMINATED NORMALLY****
TOTAL RUN TIME: 0 days 0 hours 11 minutes 47 seconds 271 msec
