                         Program Version 4.2.0 -  RELEASE  -
|  1> # ORCA input file
|  2> # SCF done       -144.467947031735          0.000883452163
|  3> ! CAM-B3LYP def2-SVP def2/J RIJCOSX Grid4 TightSCF
|  4> %maxcore 5000
|  5> %tddft
|  6>     Mode sTDDFT
|  7>     Ethresh 5.0
|  8>     maxcore 5000
|  9> end
| 10>
| 11> %pal
| 12>   nprocs 6
| 13>   end
| 14> * xyz 0 1
| 15>    C        0.31154        -1.00124         2.43050
| 16>    O       -0.42814         0.07274         2.12858
| 17>    C        0.18194         1.05340         2.84185
| 18>    N        1.20089         0.58216         3.50896
| 19>    N        1.27738        -0.72611         3.24277
| 20>    C       -0.27434         2.40442         2.82178
| 21>    C       -1.33401         2.91965         2.12715
| 22>    C       -1.43240         4.31894         2.42562
| 23>    C       -0.32006         4.62310         3.34345
| 24>    C        0.36680         3.47255         3.57082
| 25>    C        0.04914         5.88559         3.82795
| 26>    N        0.41162         6.90706         4.20609
| 27>    C       -2.37459         5.20523         1.96118
| 28>    C       -2.55084         6.56182         2.35263
| 29>    C       -3.56565         7.12537         1.60111
| 30>    C       -4.07402         6.09859         0.70095
| 31>    C       -3.39265         4.94540         0.92666
| 32>    C       -3.62368         3.74005         0.25289
| 33>    N       -3.84580         2.76929        -0.31870
| 34>    C       -3.99542         8.46818         1.74616
| 35>    N       -4.73464         9.20288         0.85755
| 36>    C       -5.21146         8.80581        -0.44012
| 37>    C       -4.93837        10.52576         1.30764
| 38>    O       -5.54730        11.35707         0.67146
| 39>    C       -4.27975        10.57016         2.59647
| 40>    C       -3.71257         9.30456         2.83653
| 41>    C       -3.11280         9.32153         4.15973
| 42>    O       -2.55289         8.47387         4.81549
| 43>    N       -3.34038        10.63476         4.61730
| 44>    C       -2.86426        11.07309         5.90131
| 45>    C       -4.02701        11.39358         3.70557
| 46>    C       -4.36806        12.74386         3.92125
| 47>    C       -5.00337        13.49509         2.97589
| 48>    C       -5.37048        14.85596         3.12811
| 49>    C       -5.97007        15.53390         2.02986
| 50>    C       -6.38716        16.90796         2.10071
| 51>    N       -7.05135        17.45983         1.07103
| 52>    C       -7.21842        16.76860        -0.02231
| 53>    C       -6.68456        15.43706        -0.14191
| 54>    N       -6.11731        14.85627         0.88232
| 55>    C       -6.79432        14.73024        -1.36638
| 56>    N       -6.89294        14.19982        -2.37642
| 57>    C       -7.95896        17.32332        -1.09885
| 58>    N       -8.54877        17.71612        -1.99783
| 59>    C       -6.14668        17.68125         3.25346
| 60>    C       -5.55705        17.02903         4.34772
| 61>    C       -5.17975        15.63183         4.29490
| 62>    N       -4.63928        15.23392         5.44887
| 63>    S       -4.60526        16.47023         6.47347
| 64>    N       -5.26442        17.57710         5.53006
| 65>    C       -6.46308        19.07933         3.29461
| 66>    O       -6.50930        19.75853         4.46708
| 67>    C       -6.79927        21.00084         4.06618
| 68>    N       -6.91287        21.09175         2.78203
| 69>    N       -6.69786        19.87205         2.28417
| 70>    H        0.07343        -1.95572         2.00966
| 71>    H       -2.00215         2.37577         1.48863
| 72>    H        1.23851         3.33572         4.18104
| 73>    H       -1.98825         7.05504         3.12030
| 74>    H       -4.88116         6.21161         0.00384
| 75>    H       -4.41546         8.33962        -1.02126
| 76>    H       -5.54486         9.71439        -0.94409
| 77>    H       -6.06182         8.12584        -0.35760
| 78>    H       -2.35384        10.22333         6.35512
| 79>    H       -3.69295        11.38075         6.54131
| 80>    H       -2.16031        11.89991         5.79443
| 81>    H       -4.10403        13.19304         4.86744
| 82>    H       -5.25937        13.05708         2.01941
| 83>    H       -6.90798        21.78759         4.78330
| 84> *
| 85>
| 86>                          ****END OF INPUT****

CARTESIAN COORDINATES (ANGSTROEM)
---------------------------------
  C      0.311540   -1.001240    2.430500
  O     -0.428140    0.072740    2.128580
  C      0.181940    1.053400    2.841850
  N      1.200890    0.582160    3.508960
  N      1.277380   -0.726110    3.242770
  C     -0.274340    2.404420    2.821780
  C     -1.334010    2.919650    2.127150
  C     -1.432400    4.318940    2.425620
  C     -0.320060    4.623100    3.343450
  C      0.366800    3.472550    3.570820
  C      0.049140    5.885590    3.827950
  N      0.411620    6.907060    4.206090
  C     -2.374590    5.205230    1.961180
  C     -2.550840    6.561820    2.352630
  C     -3.565650    7.125370    1.601110
  C     -4.074020    6.098590    0.700950
  C     -3.392650    4.945400    0.926660
  C     -3.623680    3.740050    0.252890
  N     -3.845800    2.769290   -0.318700
  C     -3.995420    8.468180    1.746160
  N     -4.734640    9.202880    0.857550
  C     -5.211460    8.805810   -0.440120
  C     -4.938370   10.525760    1.307640
  O     -5.547300   11.357070    0.671460
  C     -4.279750   10.570160    2.596470
  C     -3.712570    9.304560    2.836530
  C     -3.112800    9.321530    4.159730
  O     -2.552890    8.473870    4.815490
  N     -3.340380   10.634760    4.617300
  C     -2.864260   11.073090    5.901310
  C     -4.027010   11.393580    3.705570
  C     -4.368060   12.743860    3.921250
  C     -5.003370   13.495090    2.975890
  C     -5.370480   14.855960    3.128110
  C     -5.970070   15.533900    2.029860
  C     -6.387160   16.907960    2.100710
  N     -7.051350   17.459830    1.071030
  C     -7.218420   16.768600   -0.022310
  C     -6.684560   15.437060   -0.141910
  N     -6.117310   14.856270    0.882320
  C     -6.794320   14.730240   -1.366380
  N     -6.892940   14.199820   -2.376420
  C     -7.958960   17.323320   -1.098850
  N     -8.548770   17.716120   -1.997830
  C     -6.146680   17.681250    3.253460
  C     -5.557050   17.029030    4.347720
  C     -5.179750   15.631830    4.294900
  N     -4.639280   15.233920    5.448870
  S     -4.605260   16.470230    6.473470
  N     -5.264420   17.577100    5.530060
  C     -6.463080   19.079330    3.294610
  O     -6.509300   19.758530    4.467080
  C     -6.799270   21.000840    4.066180
  N     -6.912870   21.091750    2.782030
  N     -6.697860   19.872050    2.284170
  H      0.073430   -1.955720    2.009660
  H     -2.002150    2.375770    1.488630
  H      1.238510    3.335720    4.181040
  H     -1.988250    7.055040    3.120300
  H     -4.881160    6.211610    0.003840
  H     -4.415460    8.339620   -1.021260
  H     -5.544860    9.714390   -0.944090
  H     -6.061820    8.125840   -0.357600
  H     -2.353840   10.223330    6.355120
  H     -3.692950   11.380750    6.541310
  H     -2.160310   11.899910    5.794430
  H     -4.104030   13.193040    4.867440
  H     -5.259370   13.057080    2.019410
  H     -6.907980   21.787590    4.783300

 Total Charge           Charge          ....    0
 Multiplicity           Mult            ....    1
 Number of Electrons    NEL             ....  376
 Basis Dimension        Dim             ....  844

ORBITAL ENERGIES
----------------

  NO   OCC          E(Eh)            E(eV)
   0   2.0000     -89.061810     -2423.4951
   1   2.0000     -19.330437      -526.0079
   2   2.0000     -19.325241      -525.8666
   3   2.0000     -19.207743      -522.6693
   4   2.0000     -19.205638      -522.6120
   5   2.0000     -14.473440      -393.8423
   6   2.0000     -14.470139      -393.7525
   7   2.0000     -14.468956      -393.7203
   8   2.0000     -14.467145      -393.6710
   9   2.0000     -14.466384      -393.6503
  10   2.0000     -14.461750      -393.5242
  11   2.0000     -14.446616      -393.1124
  12   2.0000     -14.443443      -393.0261
  13   2.0000     -14.439071      -392.9071
  14   2.0000     -14.438288      -392.8858
  15   2.0000     -14.429879      -392.6570
  16   2.0000     -14.429822      -392.6554
  17   2.0000     -14.418582      -392.3496
  18   2.0000     -14.408585      -392.0775
  19   2.0000     -10.389806      -282.7210
  20   2.0000     -10.388863      -282.6953
  21   2.0000     -10.387049      -282.6460
  22   2.0000     -10.386299      -282.6256
  23   2.0000     -10.383545      -282.5506
  24   2.0000     -10.381647      -282.4990
  25   2.0000     -10.376562      -282.3606
  26   2.0000     -10.371891      -282.2335
  27   2.0000     -10.361794      -281.9587
  28   2.0000     -10.360639      -281.9273
  29   2.0000     -10.359275      -281.8902
  30   2.0000     -10.359086      -281.8851
  31   2.0000     -10.358527      -281.8699
  32   2.0000     -10.354255      -281.7536
  33   2.0000     -10.336394      -281.2676
  34   2.0000     -10.336064      -281.2586
  35   2.0000     -10.333473      -281.1881
  36   2.0000     -10.332285      -281.1558
  37   2.0000     -10.327788      -281.0334
  38   2.0000     -10.323471      -280.9159
  39   2.0000     -10.322926      -280.9011
  40   2.0000     -10.322556      -280.8910
  41   2.0000     -10.322358      -280.8856
  42   2.0000     -10.320832      -280.8441
  43   2.0000     -10.320333      -280.8305
  44   2.0000     -10.319346      -280.8037
  45   2.0000     -10.318914      -280.7919
  46   2.0000     -10.316755      -280.7332
  47   2.0000     -10.315440      -280.6974
  48   2.0000     -10.309605      -280.5386
  49   2.0000     -10.305006      -280.4135
  50   2.0000     -10.304140      -280.3899
  51   2.0000     -10.302231      -280.3379
  52   2.0000     -10.296941      -280.1940
  53   2.0000     -10.282761      -279.8081
  54   2.0000     -10.281574      -279.7758
  55   2.0000      -8.153012      -221.8547
  56   2.0000      -6.124000      -166.6425
  57   2.0000      -6.116158      -166.4291
  58   2.0000      -6.116061      -166.4265
  59   2.0000      -1.275393       -34.7052
  60   2.0000      -1.272170       -34.6175
  61   2.0000      -1.158278       -31.5183
  62   2.0000      -1.150490       -31.3064
  63   2.0000      -1.143639       -31.1200
  64   2.0000      -1.127253       -30.6741
  65   2.0000      -1.095352       -29.8061
  66   2.0000      -1.091116       -29.6908
  67   2.0000      -1.080723       -29.4080
  68   2.0000      -1.071618       -29.1602
  69   2.0000      -1.052804       -28.6482
  70   2.0000      -1.026471       -27.9317
  71   2.0000      -1.016070       -27.6487
  72   2.0000      -1.012816       -27.5601
  73   2.0000      -1.009263       -27.4634
  74   2.0000      -1.003619       -27.3099
  75   2.0000      -0.993465       -27.0336
  76   2.0000      -0.992383       -27.0041
  77   2.0000      -0.987484       -26.8708
  78   2.0000      -0.944204       -25.6931
  79   2.0000      -0.941029       -25.6067
  80   2.0000      -0.937326       -25.5059
  81   2.0000      -0.920399       -25.0453
  82   2.0000      -0.914023       -24.8718
  83   2.0000      -0.893675       -24.3181
  84   2.0000      -0.880417       -23.9574
  85   2.0000      -0.871100       -23.7038
  86   2.0000      -0.858341       -23.3567
  87   2.0000      -0.853840       -23.2342
  88   2.0000      -0.845419       -23.0050
  89   2.0000      -0.823747       -22.4153
  90   2.0000      -0.813325       -22.1317
  91   2.0000      -0.806502       -21.9460
  92   2.0000      -0.785387       -21.3715
  93   2.0000      -0.779080       -21.1998
  94   2.0000      -0.769827       -20.9481
  95   2.0000      -0.760435       -20.6925
  96   2.0000      -0.753994       -20.5172
  97   2.0000      -0.744808       -20.2673
  98   2.0000      -0.742482       -20.2040
  99   2.0000      -0.726600       -19.7718
 100   2.0000      -0.723137       -19.6776
 101   2.0000      -0.707848       -19.2615
 102   2.0000      -0.699049       -19.0221
 103   2.0000      -0.697934       -18.9918
 104   2.0000      -0.688016       -18.7219
 105   2.0000      -0.683752       -18.6058
 106   2.0000      -0.679015       -18.4769
 107   2.0000      -0.677163       -18.4265
 108   2.0000      -0.668736       -18.1972
 109   2.0000      -0.657188       -17.8830
 110   2.0000      -0.647903       -17.6303
 111   2.0000      -0.638385       -17.3713
 112   2.0000      -0.628760       -17.1094
 113   2.0000      -0.622752       -16.9459
 114   2.0000      -0.617938       -16.8149
 115   2.0000      -0.608020       -16.5451
 116   2.0000      -0.607560       -16.5326
 117   2.0000      -0.604523       -16.4499
 118   2.0000      -0.594929       -16.1888
 119   2.0000      -0.588919       -16.0253
 120   2.0000      -0.585940       -15.9443
 121   2.0000      -0.582972       -15.8635
 122   2.0000      -0.575523       -15.6608
 123   2.0000      -0.571452       -15.5500
 124   2.0000      -0.569610       -15.4999
 125   2.0000      -0.567634       -15.4461
 126   2.0000      -0.567476       -15.4418
 127   2.0000      -0.548853       -14.9351
 128   2.0000      -0.548085       -14.9142
 129   2.0000      -0.542990       -14.7755
 130   2.0000      -0.540177       -14.6990
 131   2.0000      -0.534975       -14.5574
 132   2.0000      -0.530474       -14.4349
 133   2.0000      -0.529577       -14.4105
 134   2.0000      -0.528790       -14.3891
 135   2.0000      -0.524404       -14.2698
 136   2.0000      -0.520549       -14.1649
 137   2.0000      -0.511549       -13.9200
 138   2.0000      -0.508445       -13.8355
 139   2.0000      -0.502171       -13.6648
 140   2.0000      -0.500970       -13.6321
 141   2.0000      -0.497281       -13.5317
 142   2.0000      -0.494305       -13.4507
 143   2.0000      -0.491643       -13.3783
 144   2.0000      -0.489747       -13.3267
 145   2.0000      -0.488232       -13.2855
 146   2.0000      -0.485428       -13.2092
 147   2.0000      -0.484393       -13.1810
 148   2.0000      -0.480216       -13.0673
 149   2.0000      -0.479016       -13.0347
 150   2.0000      -0.468097       -12.7376
 151   2.0000      -0.461906       -12.5691
 152   2.0000      -0.455540       -12.3959
 153   2.0000      -0.453427       -12.3384
 154   2.0000      -0.451400       -12.2832
 155   2.0000      -0.447333       -12.1725
 156   2.0000      -0.445188       -12.1142
 157   2.0000      -0.443675       -12.0730
 158   2.0000      -0.442730       -12.0473
 159   2.0000      -0.441032       -12.0011
 160   2.0000      -0.438881       -11.9426
 161   2.0000      -0.437771       -11.9124
 162   2.0000      -0.436682       -11.8827
 163   2.0000      -0.427719       -11.6388
 164   2.0000      -0.426414       -11.6033
 165   2.0000      -0.423489       -11.5237
 166   2.0000      -0.423048       -11.5117
 167   2.0000      -0.422298       -11.4913
 168   2.0000      -0.420737       -11.4488
 169   2.0000      -0.420275       -11.4363
 170   2.0000      -0.404632       -11.0106
 171   2.0000      -0.403652       -10.9839
 172   2.0000      -0.393954       -10.7200
 173   2.0000      -0.385044       -10.4776
 174   2.0000      -0.382151       -10.3988
 175   2.0000      -0.366080        -9.9615
 176   2.0000      -0.363642        -9.8952
 177   2.0000      -0.363058        -9.8793
 178   2.0000      -0.356509        -9.7011
 179   2.0000      -0.354222        -9.6389
 180   2.0000      -0.347929        -9.4676
 181   2.0000      -0.339455        -9.2370
 182   2.0000      -0.338559        -9.2126
 183   2.0000      -0.333703        -9.0805
 184   2.0000      -0.323188        -8.7944
 185   2.0000      -0.308501        -8.3947
 186   2.0000      -0.300493        -8.1768
 187   2.0000      -0.247472        -6.7341
 188   0.0000      -0.147383        -4.0105
 189   0.0000      -0.128455        -3.4954
 190   0.0000      -0.072436        -1.9711
 191   0.0000      -0.054634        -1.4867
 192   0.0000      -0.044307        -1.2057

MULLIKEN ATOMIC CHARGES
-----------------------
   0 C :    0.181579
   1 O :   -0.172377
   2 C :    0.054002
   3 N :   -0.075496
   4 N :   -0.080148
   5 C :    0.101175
   6 C :   -0.096165
   7 C :    0.092950
   8 C :   -0.083501
   9 C :    0.007802
  10 C :   -0.178538
  11 N :    0.157131
  12 C :    0.120460
  13 C :   -0.107359
  14 C :    0.045437
  15 C :   -0.029838
  16 C :   -0.087591
  17 C :   -0.183353
  18 N :    0.146358
  19 C :    0.150890
  20 N :   -0.267140
  21 C :    0.110862
  22 C :    0.159531
  23 O :   -0.179635
  24 C :   -0.062218
  25 C :   -0.060210
  26 C :    0.152352
  27 O :   -0.171648
  28 N :   -0.267832
  29 C :    0.117793
  30 C :    0.156189
  31 C :   -0.003994
  32 C :   -0.084640
  33 C :    0.110501
  34 C :   -0.064393
  35 C :   -0.052333
  36 N :    0.112717
  37 C :   -0.146286
  38 C :   -0.146434
  39 N :    0.074019
  40 C :   -0.182436
  41 N :    0.232787
  42 C :   -0.184675
  43 N :    0.236374
  44 C :    0.106480
  45 C :    0.035872
  46 C :    0.005063
  47 N :   -0.291018
  48 S :    0.559573
  49 N :   -0.256817
  50 C :   -0.054704
  51 O :   -0.155964
  52 C :    0.171733
  53 N :   -0.076077
  54 N :   -0.054304
  55 H :    0.037631
  56 H :    0.015598
  57 H :    0.020798
  58 H :    0.031640
  59 H :   -0.008762
  60 H :    0.041223
  61 H :    0.071630
  62 H :    0.045131
  63 H :    0.068592
  64 H :    0.037172
  65 H :    0.039493
  66 H :   -0.010049
  67 H :    0.033365
  68 H :    0.034032
Sum of atomic charges:    0.0000000

LOEWDIN ATOMIC CHARGES
----------------------
   0 C :    0.058263
   1 O :    0.021099
   2 C :    0.023179
   3 N :   -0.078188
   4 N :   -0.073728
   5 C :   -0.034624
   6 C :   -0.005800
   7 C :    0.047361
   8 C :   -0.078682
   9 C :    0.071940
  10 C :   -0.034320
  11 N :   -0.046023
  12 C :    0.034201
  13 C :    0.018757
  14 C :   -0.035502
  15 C :    0.048445
  16 C :   -0.077622
  17 C :   -0.032897
  18 N :   -0.056788
  19 C :    0.073859
  20 N :   -0.004556
  21 C :    0.029247
  22 C :    0.080769
  23 O :   -0.174349
  24 C :   -0.107958
  25 C :   -0.100772
  26 C :    0.081976
  27 O :   -0.168615
  28 N :   -0.004179
  29 C :    0.030081
  30 C :    0.076696
  31 C :   -0.020920
  32 C :    0.028112
  33 C :   -0.013113
  34 C :   -0.001196
  35 C :    0.004918
  36 N :    0.021635
  37 C :   -0.016707
  38 C :   -0.021724
  39 N :    0.014249
  40 C :   -0.032510
  41 N :   -0.000437
  42 C :   -0.031992
  43 N :    0.003767
  44 C :   -0.045711
  45 C :   -0.039944
  46 C :   -0.037322
  47 N :   -0.282946
  48 S :    0.690155
  49 N :   -0.276067
  50 C :    0.022282
  51 O :    0.030389
  52 C :    0.052811
  53 N :   -0.073963
  54 N :   -0.059647
  55 H :    0.032863
  56 H :    0.039708
  57 H :    0.046833
  58 H :    0.040069
  59 H :    0.036627
  60 H :    0.030117
  61 H :    0.046767
  62 H :    0.026907
  63 H :    0.045467
  64 H :    0.028198
  65 H :    0.029418
  66 H :    0.029784
  67 H :    0.040723
  68 H :    0.031125

  Mayer bond orders larger than 0.100000
B(  0-C ,  1-O ) :   1.1447 B(  0-C ,  4-N ) :   1.7418 B(  0-C , 55-H ) :   0.9931
B(  1-O ,  2-C ) :   1.1953 B(  2-C ,  3-N ) :   1.7680 B(  2-C ,  5-C ) :   1.0072
B(  3-N ,  4-N ) :   1.1888 B(  5-C ,  6-C ) :   1.5685 B(  5-C ,  9-C ) :   1.0672
B(  6-C ,  7-C ) :   1.0856 B(  6-C , 56-H ) :   1.0138 B(  7-C ,  8-C ) :   1.1137
B(  7-C , 12-C ) :   1.4122 B(  8-C ,  9-C ) :   1.6487 B(  8-C , 10-C ) :   1.0877
B(  9-C , 57-H ) :   1.0315 B( 10-C , 11-N ) :   2.9907 B( 12-C , 13-C ) :   1.1110
B( 12-C , 16-C ) :   1.0986 B( 13-C , 14-C ) :   1.5406 B( 13-C , 58-H ) :   0.9911
B( 14-C , 15-C ) :   1.0259 B( 14-C , 19-C ) :   1.0530 B( 15-C , 16-C ) :   1.6666
B( 15-C , 59-H ) :   1.0280 B( 16-C , 17-C ) :   1.0823 B( 17-C , 18-N ) :   2.9738
B( 19-C , 20-N ) :   1.2148 B( 19-C , 25-C ) :   1.3469 B( 20-N , 21-C ) :   0.9582
B( 20-N , 22-C ) :   1.0356 B( 21-C , 60-H ) :   0.9708 B( 21-C , 61-H ) :   0.9456
B( 21-C , 62-H ) :   0.9702 B( 22-C , 23-O ) :   2.0653 B( 22-C , 24-C ) :   0.9864
B( 24-C , 25-C ) :   1.2783 B( 24-C , 30-C ) :   1.2909 B( 25-C , 26-C ) :   0.9701
B( 26-C , 27-O ) :   2.1079 B( 26-C , 28-N ) :   1.0405 B( 28-N , 29-C ) :   0.9618
B( 28-N , 30-C ) :   1.1798 B( 29-C , 63-H ) :   0.9503 B( 29-C , 64-H ) :   0.9721
B( 29-C , 65-H ) :   0.9720 B( 30-C , 31-C ) :   1.1659 B( 31-C , 32-C ) :   1.4930
B( 31-C , 66-H ) :   0.9513 B( 32-C , 33-C ) :   1.2262 B( 32-C , 67-H ) :   0.9446
B( 33-C , 34-C ) :   1.2196 B( 33-C , 44-C ) :   0.1422 B( 33-C , 46-C ) :   1.1672
B( 34-C , 35-C ) :   1.1174 B( 34-C , 39-N ) :   1.4568 B( 35-C , 36-N ) :   1.4672
B( 35-C , 44-C ) :   1.3142 B( 36-N , 37-C ) :   1.7739 B( 37-C , 38-C ) :   1.1799
B( 37-C , 42-C ) :   1.1421 B( 38-C , 39-N ) :   1.7643 B( 38-C , 40-C ) :   1.1407
B( 40-C , 41-N ) :   3.0455 B( 42-C , 43-N ) :   3.0482 B( 44-C , 45-C ) :   1.2383
B( 44-C , 50-C ) :   1.0084 B( 45-C , 46-C ) :   1.1135 B( 45-C , 49-N ) :   1.5252
B( 46-C , 47-N ) :   1.5004 B( 47-N , 48-S ) :   1.2787 B( 47-N , 49-N ) :   0.1535
B( 48-S , 49-N ) :   1.2993 B( 50-C , 51-O ) :   1.2111 B( 50-C , 54-N ) :   1.7426
B( 51-O , 52-C ) :   1.1565 B( 52-C , 53-N ) :   1.7271 B( 52-C , 68-H ) :   0.9938
B( 53-N , 54-N ) :   1.1884

-----------------------------------------------------------------------------
         ABSORPTION SPECTRUM VIA TRANSITION ELECTRIC DIPOLE MOMENTS
-----------------------------------------------------------------------------
State   Energy  Wavelength   fosc         T2         TX        TY        TZ
        (cm-1)    (nm)                  (au**2)     (au)      (au)      (au)
-----------------------------------------------------------------------------
   0    7393.0   1352.6   0.551338092  24.55116  -1.66504   4.65224   0.36806
   1   11193.0    893.4   0.011763714   0.34600  -0.25588  -0.51689  -0.11553
   2   17174.0    582.3   0.020528624   0.39352   0.49563  -0.24400   0.29721
   3   18656.2    536.0   0.191606622   3.38114  -0.57048   1.73283  -0.23019
   4   20016.6    499.6   0.031165870   0.51258   0.08824   0.52745   0.47602
   5   21667.4    461.5   0.013644836   0.20732  -0.04676   0.30316   0.33649
   6   21720.0    460.4   0.160173661   2.42776  -0.11561   1.42418   0.62138
   7   22947.8    435.8   0.000706160   0.01013   0.05521  -0.05994   0.05907
   8   24370.1    410.3   0.006978462   0.09427  -0.19237   0.23757  -0.02871
   9   24931.8    401.1   0.054485079   0.71945   0.37373  -0.61374   0.45067
  10   26019.0    384.3   0.075040598   0.94947   0.43627  -0.87024   0.04276
  11   26409.4    378.7   0.009007331   0.11228  -0.05876  -0.32436  -0.06015
  12   26776.2    373.5   0.139652033   1.71702  -0.77685   1.01983  -0.27106
  13   27205.6    367.6   0.419688927   5.07862   1.36728  -1.65424   0.68750
  14   27772.5    360.1   0.029609577   0.35099  -0.12804   0.51762   0.25820
  15   28125.4    355.6   0.079497586   0.93053   0.70441  -0.50416   0.42445
  16   28173.5    354.9   0.001087623   0.01271  -0.01337  -0.03869  -0.10504
  17   28346.0    352.8   0.001950830   0.02266  -0.04066   0.10603  -0.09880
  18   28722.6    348.2   0.018228644   0.20893   0.18892  -0.40849   0.07987
  19   29630.5    337.5   0.376590928   4.18414   0.57614   0.45233   1.90987
  20   30769.0    325.0   0.074699647   0.79925   0.34134   0.09461   0.82084
  21   31082.4    321.7   0.040847829   0.43264  -0.14601  -0.11683  -0.63061
  22   31769.8    314.8   0.005067238   0.05251   0.08388  -0.21005   0.03676
  23   32649.6    306.3   0.366569036   3.69618   0.87620  -1.18056   1.23885
  24   33334.8    300.0   0.005520383   0.05452  -0.13528   0.01684  -0.18957
  25   33647.9    297.2   0.001693817   0.01657   0.05631   0.10491  -0.04894
  26   34078.8    293.4   0.001862259   0.01799  -0.04732   0.12536   0.00596
  27   34614.5    288.9   0.067221049   0.63933  -0.33242   0.63585  -0.35287
  28   34972.9    285.9   0.171504769   1.61443  -0.56473   1.05950  -0.41589
  29   35462.3    282.0   0.050556736   0.46934   0.42822  -0.48870   0.21712
  30   35535.7    281.4   0.014681716   0.13602  -0.17254   0.32526  -0.02121
  31   35831.3    279.1   0.029087608   0.26725   0.00110  -0.46026  -0.23540
  32   36091.4    277.1   0.121015234   1.10385   0.61540  -0.83665   0.15858
  33   36319.3    275.3   0.101891930   0.92359  -0.43886  -0.16187  -0.83951
  34   36541.4    273.7   0.043610864   0.39290  -0.00930   0.26925  -0.56597
  35   37419.1    267.2   0.266301874   2.34291  -0.04376  -1.16065  -0.99695
  36   37465.9    266.9   0.266286502   2.33986  -0.46077  -0.31866  -1.42338
  37   38067.1    262.7   0.124971607   1.08078   0.33071   0.47346   0.86444
  38   38193.0    261.8   0.007869458   0.06783   0.11885  -0.22039   0.07168
  39   38517.5    259.6   0.076260405   0.65180  -0.25220   0.76628   0.03180
  40   38544.2    259.4   0.077950101   0.66578  -0.12297  -0.53528  -0.60343
  41   39258.7    254.7   0.004092545   0.03432   0.11927   0.00333  -0.14172
  42   39302.9    254.4   0.271684050   2.27570   0.57635  -0.20760   1.37856
  43   39628.0    252.3   0.011962417   0.09938   0.30680  -0.04464   0.05707
  44   39729.0    251.7   0.281014407   2.32861   0.55946  -1.35668   0.41836
  45   40282.0    248.2   0.001338426   0.01094  -0.02061  -0.09897  -0.02680

FINAL SINGLE POINT ENERGY     -2842.527566541415

DIPOLE MOMENT
-------------
                                X             Y             Z
Electronic contribution:     -7.82756      25.61706      -0.23099
Nuclear contribution   :      7.83026     -25.65866       3.20071
                        -----------------------------------------
Total Dipole Moment    :      0.00270      -0.04160       2.96971
                        -----------------------------------------
Magnitude (a.u.)       :      2.97001
Magnitude (Debye)      :      7.54916

Rotational constants in cm-1:     0.004081     0.000514     0.000462
Rotational constants in MHz :   122.347162    15.417630    13.853749

                             ****ORCA TERMINATED NORMALLY****
TOTAL RUN TIME: 0 days 0 hours 5 minutes 40 seconds 369 msec
