                         Program Version 4.2.0 -  RELEASE  -
|  1> # ORCA input file
|  2> # SCF done       -138.556863200721          0.000290820199
|  3> ! CAM-B3LYP def2-SVP def2/J RIJCOSX Grid4 TightSCF
|  4> %maxcore 5000
|  5> %tddft
|  6>     Mode sTDDFT
|  7>     Ethresh 5.0
|  8>     maxcore 5000
|  9> end
| 10>
| 11> %pal
| 12>   nprocs 6
| 13>   end
| 14> * xyz 0 1
| 15>    C        2.53977         3.55389        -5.75947
| 16>    S        3.35775         2.95282        -7.14141
| 17>    C        2.83718         1.32824        -6.80241
| 18>    C        3.23126         0.14870        -7.59358
| 19>    O        2.92764        -0.96477        -7.26136
| 20>    O        3.96189         0.37492        -8.69440
| 21>    C        2.07301         1.28340        -5.67262
| 22>    C        1.91818         2.55311        -5.07045
| 23>    O        1.22270         2.61735        -3.89613
| 24>    N        1.30659         3.76707        -3.11967
| 25>    C        2.47002         4.42052        -2.83112
| 26>    S        2.28263         6.10265        -2.42295
| 27>    C        3.99838         6.23551        -2.19260
| 28>    N        4.50850         7.47260        -1.79526
| 29>    O        5.71374         7.56942        -1.64989
| 30>    O        3.69945         8.37187        -1.62963
| 31>    C        4.65357         5.06254        -2.43835
| 32>    C        3.80149         3.99035        -2.79169
| 33>    C        4.37114         2.70408        -3.09865
| 34>    C        3.78943         1.48172        -3.06610
| 35>    C        4.45826         0.32564        -3.52830
| 36>    C        3.88008        -0.90191        -3.68520
| 37>    C        4.47638        -2.04808        -4.27731
| 38>    C        3.64279        -3.10999        -4.40697
| 39>    C        2.33543        -2.88201        -3.90995
| 40>    S        2.21658        -1.26344        -3.24779
| 41>    C        1.26732        -3.74565        -3.92365
| 42>    C        1.22558        -5.05532        -4.47217
| 43>    C        0.02784        -5.67413        -4.35096
| 44>    C       -0.97434        -4.89782        -3.69224
| 45>    S       -0.29625        -3.32382        -3.25651
| 46>    C       -2.27805        -5.19186        -3.46045
| 47>    C       -2.93806        -6.44385        -3.73527
| 48>    C       -2.52150        -7.68691        -3.45866
| 49>    C       -1.28684        -8.03947        -2.69268
| 50>    C       -3.32990        -8.87432        -3.91485
| 51>    N       -2.67960        -9.44917        -5.07517
| 52>    C       -2.82968       -10.72801        -5.49818
| 53>    C       -3.49918       -11.71307        -4.85984
| 54>    C       -3.55184       -13.05639        -5.33025
| 55>    S       -4.44071       -14.23463        -4.41765
| 56>    C       -4.05703       -15.50696        -5.54474
| 57>    C       -4.50415       -16.88594        -5.40506
| 58>    O       -4.21862       -17.74148        -6.20518
| 59>    O       -5.26298       -17.17294        -4.32576
| 60>    C       -3.27901       -15.01604        -6.56787
| 61>    C       -2.99382       -13.65157        -6.45550
| 62>    O       -2.24022       -12.95295        -7.35717
| 63>    H        2.59487         4.60141        -5.53956
| 64>    H        4.13459         1.31279        -8.85484
| 65>    H        1.63924         0.38494        -5.27721
| 66>    H        0.48624         4.35291        -3.22830
| 67>    H        5.72060         4.96947        -2.34410
| 68>    H        5.41570         2.75474        -3.38087
| 69>    H        2.77630         1.35295        -2.71307
| 70>    H        5.48696         0.43147        -3.84824
| 71>    H        5.49964        -2.03214        -4.60808
| 72>    H        3.92284        -4.04727        -4.85199
| 73>    H        2.08380        -5.48814        -4.95400
| 74>    H       -0.19465        -6.64898        -4.74296
| 75>    H       -2.91440        -4.39636        -3.09485
| 76>    H       -3.92564        -6.32978        -4.17173
| 77>    H       -0.77199        -7.15566        -2.33056
| 78>    H       -0.60351        -8.62584        -3.30650
| 79>    H       -1.56195        -8.65857        -1.83842
| 80>    H       -4.36185        -8.57791        -4.15125
| 81>    H       -3.35731        -9.63439        -3.13112
| 82>    H       -2.34137        -8.77949        -5.74778
| 83>    H       -2.31546       -10.95370        -6.41979
| 84>    H       -4.03717       -11.52309        -3.94341
| 85>    H       -5.41526       -16.39877        -3.76760
| 86>    H       -2.93447       -15.64631        -7.36958
| 87>    H       -1.95297       -13.56092        -8.04865
| 88> *
| 89>
| 90>                          ****END OF INPUT****

CARTESIAN COORDINATES (ANGSTROEM)
---------------------------------
  C      2.539770    3.553890   -5.759470
  S      3.357750    2.952820   -7.141410
  C      2.837180    1.328240   -6.802410
  C      3.231260    0.148700   -7.593580
  O      2.927640   -0.964770   -7.261360
  O      3.961890    0.374920   -8.694400
  C      2.073010    1.283400   -5.672620
  C      1.918180    2.553110   -5.070450
  O      1.222700    2.617350   -3.896130
  N      1.306590    3.767070   -3.119670
  C      2.470020    4.420520   -2.831120
  S      2.282630    6.102650   -2.422950
  C      3.998380    6.235510   -2.192600
  N      4.508500    7.472600   -1.795260
  O      5.713740    7.569420   -1.649890
  O      3.699450    8.371870   -1.629630
  C      4.653570    5.062540   -2.438350
  C      3.801490    3.990350   -2.791690
  C      4.371140    2.704080   -3.098650
  C      3.789430    1.481720   -3.066100
  C      4.458260    0.325640   -3.528300
  C      3.880080   -0.901910   -3.685200
  C      4.476380   -2.048080   -4.277310
  C      3.642790   -3.109990   -4.406970
  C      2.335430   -2.882010   -3.909950
  S      2.216580   -1.263440   -3.247790
  C      1.267320   -3.745650   -3.923650
  C      1.225580   -5.055320   -4.472170
  C      0.027840   -5.674130   -4.350960
  C     -0.974340   -4.897820   -3.692240
  S     -0.296250   -3.323820   -3.256510
  C     -2.278050   -5.191860   -3.460450
  C     -2.938060   -6.443850   -3.735270
  C     -2.521500   -7.686910   -3.458660
  C     -1.286840   -8.039470   -2.692680
  C     -3.329900   -8.874320   -3.914850
  N     -2.679600   -9.449170   -5.075170
  C     -2.829680  -10.728010   -5.498180
  C     -3.499180  -11.713070   -4.859840
  C     -3.551840  -13.056390   -5.330250
  S     -4.440710  -14.234630   -4.417650
  C     -4.057030  -15.506960   -5.544740
  C     -4.504150  -16.885940   -5.405060
  O     -4.218620  -17.741480   -6.205180
  O     -5.262980  -17.172940   -4.325760
  C     -3.279010  -15.016040   -6.567870
  C     -2.993820  -13.651570   -6.455500
  O     -2.240220  -12.952950   -7.357170
  H      2.594870    4.601410   -5.539560
  H      4.134590    1.312790   -8.854840
  H      1.639240    0.384940   -5.277210
  H      0.486240    4.352910   -3.228300
  H      5.720600    4.969470   -2.344100
  H      5.415700    2.754740   -3.380870
  H      2.776300    1.352950   -2.713070
  H      5.486960    0.431470   -3.848240
  H      5.499640   -2.032140   -4.608080
  H      3.922840   -4.047270   -4.851990
  H      2.083800   -5.488140   -4.954000
  H     -0.194650   -6.648980   -4.742960
  H     -2.914400   -4.396360   -3.094850
  H     -3.925640   -6.329780   -4.171730
  H     -0.771990   -7.155660   -2.330560
  H     -0.603510   -8.625840   -3.306500
  H     -1.561950   -8.658570   -1.838420
  H     -4.361850   -8.577910   -4.151250
  H     -3.357310   -9.634390   -3.131120
  H     -2.341370   -8.779490   -5.747780
  H     -2.315460  -10.953700   -6.419790
  H     -4.037170  -11.523090   -3.943410
  H     -5.415260  -16.398770   -3.767600
  H     -2.934470  -15.646310   -7.369580
  H     -1.952970  -13.560920   -8.048650

 Total Charge           Charge          ....    0
 Multiplicity           Mult            ....    1
 Number of Electrons    NEL             ....  382
 Basis Dimension        Dim             ....  817

ORBITAL ENERGIES
----------------

  NO   OCC          E(Eh)            E(eV)
   0   2.0000     -88.988395     -2421.4973
   1   2.0000     -88.982861     -2421.3467
   2   2.0000     -88.954264     -2420.5686
   3   2.0000     -88.945134     -2420.3201
   4   2.0000     -88.940000     -2420.1804
   5   2.0000     -19.316425      -525.6267
   6   2.0000     -19.269278      -524.3437
   7   2.0000     -19.247941      -523.7631
   8   2.0000     -19.242642      -523.6189
   9   2.0000     -19.236986      -523.4650
  10   2.0000     -19.236220      -523.4441
  11   2.0000     -19.202790      -522.5345
  12   2.0000     -19.174862      -521.7745
  13   2.0000     -14.648995      -398.6194
  14   2.0000     -14.521953      -395.1624
  15   2.0000     -14.431389      -392.6981
  16   2.0000     -10.413494      -283.3656
  17   2.0000     -10.386296      -282.6255
  18   2.0000     -10.375926      -282.3433
  19   2.0000     -10.358514      -281.8695
  20   2.0000     -10.342930      -281.4454
  21   2.0000     -10.323138      -280.9069
  22   2.0000     -10.318911      -280.7919
  23   2.0000     -10.317394      -280.7506
  24   2.0000     -10.310884      -280.5734
  25   2.0000     -10.309141      -280.5260
  26   2.0000     -10.308721      -280.5146
  27   2.0000     -10.307891      -280.4920
  28   2.0000     -10.307749      -280.4881
  29   2.0000     -10.306823      -280.4629
  30   2.0000     -10.306083      -280.4428
  31   2.0000     -10.302799      -280.3534
  32   2.0000     -10.299711      -280.2694
  33   2.0000     -10.295785      -280.1625
  34   2.0000     -10.290233      -280.0115
  35   2.0000     -10.288426      -279.9623
  36   2.0000     -10.285354      -279.8787
  37   2.0000     -10.285229      -279.8753
  38   2.0000     -10.284224      -279.8480
  39   2.0000     -10.283632      -279.8319
  40   2.0000     -10.281840      -279.7831
  41   2.0000     -10.279840      -279.7287
  42   2.0000     -10.278273      -279.6860
  43   2.0000     -10.278206      -279.6842
  44   2.0000     -10.276201      -279.6296
  45   2.0000     -10.275503      -279.6107
  46   2.0000     -10.264085      -279.3000
  47   2.0000     -10.255771      -279.0737
  48   2.0000      -8.084197      -219.9822
  49   2.0000      -8.078613      -219.8302
  50   2.0000      -8.050027      -219.0524
  51   2.0000      -8.040921      -218.8046
  52   2.0000      -8.036484      -218.6839
  53   2.0000      -6.054094      -164.7403
  54   2.0000      -6.049555      -164.6168
  55   2.0000      -6.048010      -164.5747
  56   2.0000      -6.045275      -164.5003
  57   2.0000      -6.043794      -164.4600
  58   2.0000      -6.040661      -164.3747
  59   2.0000      -6.019328      -163.7942
  60   2.0000      -6.015480      -163.6895
  61   2.0000      -6.011922      -163.5927
  62   2.0000      -6.010642      -163.5579
  63   2.0000      -6.006757      -163.4522
  64   2.0000      -6.006277      -163.4391
  65   2.0000      -6.002391      -163.3334
  66   2.0000      -6.001812      -163.3176
  67   2.0000      -5.997119      -163.1899
  68   2.0000      -1.317362       -35.8472
  69   2.0000      -1.233775       -33.5727
  70   2.0000      -1.191470       -32.4216
  71   2.0000      -1.162367       -31.6296
  72   2.0000      -1.139167       -30.9983
  73   2.0000      -1.136403       -30.9231
  74   2.0000      -1.103478       -30.0272
  75   2.0000      -1.074774       -29.2461
  76   2.0000      -1.044715       -28.4281
  77   2.0000      -1.029660       -28.0185
  78   2.0000      -1.007054       -27.4033
  79   2.0000      -0.992897       -27.0181
  80   2.0000      -0.979005       -26.6401
  81   2.0000      -0.973650       -26.4944
  82   2.0000      -0.971179       -26.4271
  83   2.0000      -0.921192       -25.0669
  84   2.0000      -0.915978       -24.9250
  85   2.0000      -0.892771       -24.2935
  86   2.0000      -0.878470       -23.9044
  87   2.0000      -0.871544       -23.7159
  88   2.0000      -0.861601       -23.4454
  89   2.0000      -0.851610       -23.1735
  90   2.0000      -0.847291       -23.0560
  91   2.0000      -0.841279       -22.8924
  92   2.0000      -0.831039       -22.6137
  93   2.0000      -0.822089       -22.3702
  94   2.0000      -0.818655       -22.2767
  95   2.0000      -0.803983       -21.8775
  96   2.0000      -0.798046       -21.7159
  97   2.0000      -0.779798       -21.2194
  98   2.0000      -0.774793       -21.0832
  99   2.0000      -0.756829       -20.5944
 100   2.0000      -0.737383       -20.0652
 101   2.0000      -0.732276       -19.9263
 102   2.0000      -0.721202       -19.6249
 103   2.0000      -0.715438       -19.4680
 104   2.0000      -0.700249       -19.0547
 105   2.0000      -0.699319       -19.0294
 106   2.0000      -0.686584       -18.6829
 107   2.0000      -0.678890       -18.4735
 108   2.0000      -0.675815       -18.3899
 109   2.0000      -0.661285       -17.9945
 110   2.0000      -0.650962       -17.7136
 111   2.0000      -0.650581       -17.7032
 112   2.0000      -0.636996       -17.3336
 113   2.0000      -0.632695       -17.2165
 114   2.0000      -0.630021       -17.1437
 115   2.0000      -0.628884       -17.1128
 116   2.0000      -0.623446       -16.9648
 117   2.0000      -0.616843       -16.7851
 118   2.0000      -0.607639       -16.5347
 119   2.0000      -0.605601       -16.4792
 120   2.0000      -0.597881       -16.2692
 121   2.0000      -0.595868       -16.2144
 122   2.0000      -0.590340       -16.0640
 123   2.0000      -0.583173       -15.8690
 124   2.0000      -0.579095       -15.7580
 125   2.0000      -0.575359       -15.6563
 126   2.0000      -0.569905       -15.5079
 127   2.0000      -0.561450       -15.2778
 128   2.0000      -0.555570       -15.1178
 129   2.0000      -0.548686       -14.9305
 130   2.0000      -0.548328       -14.9208
 131   2.0000      -0.539397       -14.6777
 132   2.0000      -0.537964       -14.6388
 133   2.0000      -0.529988       -14.4217
 134   2.0000      -0.524741       -14.2789
 135   2.0000      -0.522614       -14.2210
 136   2.0000      -0.521536       -14.1917
 137   2.0000      -0.516649       -14.0587
 138   2.0000      -0.510451       -13.8901
 139   2.0000      -0.505393       -13.7525
 140   2.0000      -0.504334       -13.7236
 141   2.0000      -0.502393       -13.6708
 142   2.0000      -0.498106       -13.5541
 143   2.0000      -0.495546       -13.4845
 144   2.0000      -0.494606       -13.4589
 145   2.0000      -0.493607       -13.4317
 146   2.0000      -0.486307       -13.2331
 147   2.0000      -0.485196       -13.2029
 148   2.0000      -0.482604       -13.1323
 149   2.0000      -0.478521       -13.0212
 150   2.0000      -0.473503       -12.8847
 151   2.0000      -0.467121       -12.7110
 152   2.0000      -0.466414       -12.6918
 153   2.0000      -0.464957       -12.6521
 154   2.0000      -0.463391       -12.6095
 155   2.0000      -0.457664       -12.4537
 156   2.0000      -0.455055       -12.3827
 157   2.0000      -0.448361       -12.2005
 158   2.0000      -0.447386       -12.1740
 159   2.0000      -0.444062       -12.0835
 160   2.0000      -0.443353       -12.0642
 161   2.0000      -0.441316       -12.0088
 162   2.0000      -0.426268       -11.5994
 163   2.0000      -0.424433       -11.5494
 164   2.0000      -0.422940       -11.5088
 165   2.0000      -0.418213       -11.3802
 166   2.0000      -0.417975       -11.3737
 167   2.0000      -0.412152       -11.2152
 168   2.0000      -0.409848       -11.1525
 169   2.0000      -0.402684       -10.9576
 170   2.0000      -0.400630       -10.9017
 171   2.0000      -0.397561       -10.8182
 172   2.0000      -0.385433       -10.4882
 173   2.0000      -0.383861       -10.4454
 174   2.0000      -0.376328       -10.2404
 175   2.0000      -0.374835       -10.1998
 176   2.0000      -0.365329        -9.9411
 177   2.0000      -0.358817        -9.7639
 178   2.0000      -0.357981        -9.7412
 179   2.0000      -0.340134        -9.2555
 180   2.0000      -0.334038        -9.0896
 181   2.0000      -0.333641        -9.0788
 182   2.0000      -0.332867        -9.0578
 183   2.0000      -0.330281        -8.9874
 184   2.0000      -0.324070        -8.8184
 185   2.0000      -0.316801        -8.6206
 186   2.0000      -0.303005        -8.2452
 187   2.0000      -0.302549        -8.2328
 188   2.0000      -0.275893        -7.5074
 189   2.0000      -0.233293        -6.3482
 190   2.0000      -0.215508        -5.8643
 191   0.0000      -0.070628        -1.9219
 192   0.0000      -0.054989        -1.4963
 193   0.0000      -0.030568        -0.8318
 194   0.0000      -0.014437        -0.3929
 195   0.0000      -0.010808        -0.2941

MULLIKEN ATOMIC CHARGES
-----------------------
   0 C :   -0.140599
   1 S :    0.096505
   2 C :   -0.197704
   3 C :    0.182432
   4 O :   -0.167291
   5 O :   -0.155588
   6 C :    0.042242
   7 C :    0.223547
   8 O :   -0.241452
   9 N :    0.097719
  10 C :   -0.171040
  11 S :    0.153324
  12 C :    0.004102
  13 N :    0.280525
  14 O :   -0.252824
  15 O :   -0.269764
  16 C :   -0.020514
  17 C :    0.152988
  18 C :   -0.074186
  19 C :    0.044528
  20 C :   -0.036796
  21 C :   -0.016980
  22 C :    0.054756
  23 C :    0.044811
  24 C :   -0.037080
  25 S :    0.056060
  26 C :   -0.056561
  27 C :    0.030791
  28 C :    0.037191
  29 C :   -0.058424
  30 S :    0.077243
  31 C :    0.004408
  32 C :   -0.007266
  33 C :   -0.239818
  34 C :    0.111660
  35 C :    0.223425
  36 N :   -0.173638
  37 C :    0.064601
  38 C :   -0.045411
  39 C :   -0.122989
  40 S :    0.077895
  41 C :   -0.175526
  42 C :    0.174183
  43 O :   -0.190361
  44 O :   -0.169867
  45 C :   -0.031865
  46 C :    0.160652
  47 O :   -0.204848
  48 H :    0.041019
  49 H :    0.181370
  50 H :    0.018494
  51 H :    0.147721
  52 H :    0.011274
  53 H :   -0.014039
  54 H :    0.018714
  55 H :   -0.020668
  56 H :   -0.015655
  57 H :   -0.014646
  58 H :   -0.012426
  59 H :   -0.020346
  60 H :   -0.002920
  61 H :   -0.007668
  62 H :    0.035177
  63 H :    0.020231
  64 H :    0.018188
  65 H :    0.007854
  66 H :    0.017160
  67 H :    0.121899
  68 H :    0.018335
  69 H :   -0.034793
  70 H :    0.175354
  71 H :   -0.011224
  72 H :    0.184397
Sum of atomic charges:   -0.0000000

LOEWDIN ATOMIC CHARGES
----------------------
   0 C :   -0.219204
   1 S :    0.429316
   2 C :   -0.234580
   3 C :    0.064831
   4 O :   -0.155671
   5 O :   -0.030418
   6 C :   -0.012969
   7 C :   -0.004135
   8 O :   -0.045476
   9 N :    0.073972
  10 C :   -0.119255
  11 S :    0.441657
  12 C :   -0.216408
  13 N :    0.274298
  14 O :   -0.218670
  15 O :   -0.235297
  16 C :    0.008483
  17 C :   -0.106417
  18 C :   -0.036254
  19 C :   -0.027407
  20 C :   -0.060845
  21 C :   -0.139370
  22 C :   -0.027254
  23 C :   -0.020839
  24 C :   -0.172062
  25 S :    0.373190
  26 C :   -0.178185
  27 C :   -0.020191
  28 C :   -0.038755
  29 C :   -0.140953
  30 S :    0.355537
  31 C :   -0.065971
  32 C :   -0.051444
  33 C :   -0.037732
  34 C :   -0.050129
  35 C :    0.050133
  36 N :   -0.012944
  37 C :    0.045765
  38 C :   -0.156067
  39 C :   -0.168334
  40 S :    0.410140
  41 C :   -0.256833
  42 C :    0.060732
  43 O :   -0.178875
  44 O :   -0.043883
  45 C :   -0.047164
  46 C :   -0.011345
  47 O :   -0.063792
  48 H :    0.027651
  49 H :    0.082079
  50 H :    0.032570
  51 H :    0.078868
  52 H :    0.046617
  53 H :    0.029572
  54 H :    0.021997
  55 H :    0.030751
  56 H :    0.033544
  57 H :    0.032638
  58 H :    0.033142
  59 H :    0.031192
  60 H :    0.029815
  61 H :    0.028563
  62 H :    0.033897
  63 H :    0.031526
  64 H :    0.035026
  65 H :    0.017948
  66 H :    0.027878
  67 H :    0.075741
  68 H :    0.028625
  69 H :    0.017873
  70 H :    0.075744
  71 H :    0.036578
  72 H :    0.097233

  Mayer bond orders larger than 0.100000
B(  0-C ,  1-S ) :   1.1368 B(  0-C ,  7-C ) :   1.5247 B(  0-C , 48-H ) :   0.9694
B(  1-S ,  2-C ) :   1.1138 B(  2-C ,  3-C ) :   0.9366 B(  2-C ,  6-C ) :   1.5472
B(  3-C ,  4-O ) :   2.1948 B(  3-C ,  5-O ) :   1.2418 B(  5-O , 49-H ) :   0.9502
B(  6-C ,  7-C ) :   1.2442 B(  6-C , 50-H ) :   0.9966 B(  7-C ,  8-O ) :   1.0345
B(  8-O ,  9-N ) :   0.9315 B(  9-N , 10-C ) :   1.2045 B(  9-N , 51-H ) :   0.9182
B( 10-C , 11-S ) :   1.1218 B( 10-C , 17-C ) :   1.3772 B( 11-S , 12-C ) :   1.0610
B( 12-C , 13-N ) :   0.9766 B( 12-C , 16-C ) :   1.4796 B( 13-N , 14-O ) :   1.5323
B( 13-N , 15-O ) :   1.5050 B( 14-O , 15-O ) :   0.2558 B( 16-C , 17-C ) :   1.2020
B( 16-C , 52-H ) :   1.0133 B( 17-C , 18-C ) :   1.0540 B( 18-C , 19-C ) :   1.6875
B( 18-C , 53-H ) :   0.9738 B( 19-C , 20-C ) :   1.1399 B( 19-C , 54-H ) :   0.9581
B( 20-C , 21-C ) :   1.5905 B( 20-C , 55-H ) :   0.9857 B( 21-C , 22-C ) :   1.1251
B( 21-C , 25-S ) :   1.0254 B( 22-C , 23-C ) :   1.6162 B( 22-C , 56-H ) :   0.9958
B( 23-C , 24-C ) :   1.1751 B( 23-C , 57-H ) :   0.9887 B( 24-C , 25-S ) :   1.0283
B( 24-C , 26-C ) :   1.5507 B( 26-C , 27-C ) :   1.1663 B( 26-C , 30-S ) :   1.0400
B( 27-C , 28-C ) :   1.6395 B( 27-C , 58-H ) :   0.9923 B( 28-C , 29-C ) :   1.1195
B( 28-C , 59-H ) :   0.9845 B( 29-C , 30-S ) :   1.0203 B( 29-C , 31-C ) :   1.7001
B( 31-C , 32-C ) :   1.0675 B( 31-C , 60-H ) :   0.9390 B( 32-C , 33-C ) :   1.8467
B( 32-C , 61-H ) :   0.9422 B( 33-C , 34-C ) :   1.0852 B( 33-C , 35-C ) :   1.0374
B( 34-C , 62-H ) :   0.9478 B( 34-C , 63-H ) :   0.9423 B( 34-C , 64-H ) :   0.9423
B( 35-C , 36-N ) :   0.9818 B( 35-C , 65-H ) :   0.9363 B( 35-C , 66-H ) :   0.9258
B( 36-N , 37-C ) :   1.2199 B( 36-N , 67-H ) :   0.9342 B( 37-C , 38-C ) :   1.6607
B( 37-C , 68-H ) :   0.9470 B( 38-C , 39-C ) :   1.1414 B( 38-C , 69-H ) :   0.9446
B( 39-C , 40-S ) :   1.1435 B( 39-C , 41-C ) :   0.1002 B( 39-C , 46-C ) :   1.4572
B( 40-S , 41-C ) :   1.0754 B( 41-C , 42-C ) :   0.9659 B( 41-C , 45-C ) :   1.5005
B( 42-C , 43-O ) :   2.1884 B( 42-C , 44-O ) :   1.2238 B( 44-O , 70-H ) :   0.9539
B( 45-C , 46-C ) :   1.2362 B( 45-C , 71-H ) :   1.0007 B( 46-C , 47-O ) :   1.1598
B( 47-O , 72-H ) :   0.9595

-----------------------------------------------------------------------------
         ABSORPTION SPECTRUM VIA TRANSITION ELECTRIC DIPOLE MOMENTS
-----------------------------------------------------------------------------
State   Energy  Wavelength   fosc         T2         TX        TY        TZ
        (cm-1)    (nm)                  (au**2)     (au)      (au)      (au)
-----------------------------------------------------------------------------
   0   17922.8    557.9   1.627499426  29.89442   2.96038   4.59016   0.24705
   1   21353.0    468.3   0.031554626   0.48650   0.46521   0.41299   0.31546
   2   23208.0    430.9   0.076225172   1.08127   0.71021   0.75747  -0.05577
   3   24156.9    414.0   0.001208679   0.01647   0.04345  -0.10940  -0.05114
   4   27232.4    367.2   0.006103766   0.07379  -0.10780   0.22267   0.11218
   5   30107.8    332.1   0.233278451   2.55077   1.46861   0.57689  -0.24729
   6   30767.8    325.0   0.928942718   9.93958   0.26613  -3.09279  -0.55082
   7   32231.6    310.3   0.228914236   2.33812  -0.91016  -1.07065  -0.60286
   8   33365.7    299.7   0.003415420   0.03370   0.08229   0.13957   0.08630
   9   33460.4    298.9   0.014473220   0.14240   0.17205   0.28892   0.17125
  10   33611.0    297.5   0.013325781   0.13052  -0.14928  -0.29189  -0.15177
  11   33929.9    294.7   0.018274935   0.17732   0.37969   0.17646   0.04485
  12   34594.8    289.1   0.001932117   0.01839  -0.12849  -0.02882  -0.03233
  13   35351.6    282.9   0.053685647   0.49995   0.24233  -0.66379   0.02459
  14   35732.4    279.9   0.006594870   0.06076  -0.17347  -0.07927   0.15616
  15   36148.1    276.6   0.033320590   0.30346  -0.36456   0.32387   0.25625
  16   36271.5    275.7   0.000523662   0.00475   0.01501   0.06642   0.01077
  17   36326.8    275.3   0.001308263   0.01186   0.10644   0.01203  -0.01952
  18   36422.7    274.6   0.010386813   0.09388  -0.23590  -0.00716   0.19541
  19   37750.2    264.9   0.031395573   0.27379  -0.25335  -0.42056  -0.18093
  20   38013.6    263.1   0.003976692   0.03444   0.03626   0.15676   0.09247
  21   38478.5    259.9   0.057948391   0.49579   0.56282   0.40678  -0.11642
  22   38846.0    257.4   0.020872410   0.17689  -0.28732  -0.30643  -0.02097
  23   39035.9    256.2   0.219042830   1.84731   0.27293   1.23849   0.48884
  24   39124.1    255.6   0.018057084   0.15194   0.02066  -0.37801  -0.09286
  25   39681.5    252.0   0.002519855   0.02091   0.00006   0.12709   0.06894

FINAL SINGLE POINT ENERGY     -3988.157075447663

DIPOLE MOMENT
-------------
                                X             Y             Z
Electronic contribution:     12.24729      45.61460       0.83990
Nuclear contribution   :    -11.91986     -43.40698      -1.75183
                        -----------------------------------------
Total Dipole Moment    :      0.32743       2.20762      -0.91193
                        -----------------------------------------
Magnitude (a.u.)       :      2.41090
Magnitude (Debye)      :      6.12802

Rotational constants in cm-1:     0.005460     0.000344     0.000335
Rotational constants in MHz :   163.676777    10.298993    10.031418

                             ****ORCA TERMINATED NORMALLY****
TOTAL RUN TIME: 0 days 0 hours 4 minutes 49 seconds 53 msec
