                         Program Version 4.2.0 -  RELEASE  -
|  1> # ORCA input file
|  2> # SCF done       -191.154564621123          0.000864752406
|  3> ! CAM-B3LYP def2-SVP def2/J RIJCOSX Grid4 TightSCF
|  4> %maxcore 5000
|  5> %tddft
|  6>     Mode sTDDFT
|  7>     Ethresh 5.0
|  8>     maxcore 5000
|  9> end
| 10>
| 11> %pal
| 12>   nprocs 6
| 13>   end
| 14> * xyz 0 1
| 15>    C      -13.28119         1.39865        -1.36538
| 16>    C      -13.32897         0.35412        -2.25195
| 17>    C      -12.25522        -0.09662        -3.04737
| 18>    N      -11.42654        -0.52516        -3.71784
| 19>    C      -14.47563        -0.43537        -2.48376
| 20>    N      -15.37153        -1.11146        -2.72374
| 21>    C      -14.37333         1.81924        -0.49645
| 22>    C      -13.92015         2.88180         0.32381
| 23>    C      -14.72014         3.49346         1.25728
| 24>    C      -16.03428         3.03253         1.39102
| 25>    C      -16.48073         1.97228         0.56606
| 26>    C      -15.67053         1.35503        -0.37875
| 27>    S      -18.13768         1.56388         0.89127
| 28>    C      -18.20729         2.80383         2.11465
| 29>    C      -17.05011         3.49029         2.27309
| 30>   Br      -19.80047         3.07744         3.06405
| 31>    C      -12.52054         3.19120        -0.01011
| 32>    O      -11.84581         4.09794         0.44427
| 33>    C      -12.13580         2.24236        -1.06661
| 34>    C      -10.96633         2.24561        -1.77896
| 35>    N       -9.80315         2.87473        -1.53123
| 36>    C       -9.24719         3.32087        -0.36826
| 37>    S       -9.73834         2.78957         1.19599
| 38>    C       -8.37604         3.59682         1.89139
| 39>    N       -8.23420         3.53667         3.28424
| 40>    O       -7.29158         4.11660         3.78616
| 41>    O       -9.07574         2.89528         3.88889
| 42>    C       -7.59048         4.24674         0.97527
| 43>    C       -8.07911         4.10389        -0.33311
| 44>    C       -7.50800         4.67287        -1.51849
| 45>    C       -6.22332         5.04397        -1.68410
| 46>    C       -5.73058         5.46613        -2.95144
| 47>    S       -6.82522         5.79349        -4.27761
| 48>    C       -5.50327         6.00815        -5.40097
| 49>    C       -4.30008         5.85323        -4.77003
| 50>    C       -4.42951         5.56792        -3.38575
| 51>    S       -2.94748         5.31803        -2.50223
| 52>    C       -1.85947         5.46928        -3.90113
| 53>    O       -0.68384         5.29851        -3.83749
| 54>    S       -2.68487         5.87925        -5.43278
| 55>    N       -5.74967         6.35234        -6.71704
| 56>    C       -6.95555         6.06394        -7.29646
| 57>    S       -7.84732         7.28492        -8.13838
| 58>    C       -9.11369         6.13495        -8.43009
| 59>    N      -10.22527         6.56686        -9.17607
| 60>    O      -11.11555         5.76586        -9.37166
| 61>    O      -10.20025         7.71860        -9.56679
| 62>    C       -8.86026         4.89689        -7.91443
| 63>    C       -7.60595         4.82215        -7.26843
| 64>    C       -6.95244         3.62273        -6.83264
| 65>    C       -7.41290         2.36534        -7.02783
| 66>    C       -6.57791         1.21548        -6.93665
| 67>    C       -5.42228         1.03709        -6.24388
| 68>    C       -4.86926         1.66048        -5.06765
| 69>    C       -5.57058         2.15333        -3.99393
| 70>    C       -6.95568         2.33940        -3.92210
| 71>    N       -8.07166         2.54042        -3.72575
| 72>    C       -4.96709         2.39620        -2.74201
| 73>    N       -4.52867         2.57099        -1.69563
| 74>    C       -3.43678         1.41052        -5.07117
| 75>    C       -3.13971         0.46447        -6.08558
| 76>    C       -4.39262         0.08196        -6.76692
| 77>    O       -4.56239        -0.76683        -7.60593
| 78>    C       -1.85688         0.04643        -6.34242
| 79>    C       -0.82335         0.59980        -5.57600
| 80>    C       -1.13147         1.55116        -4.56971
| 81>    C       -2.43117         1.95849        -4.29916
| 82>    S        0.29123         2.11819        -3.75780
| 83>    C        1.27208         1.07889        -4.75384
| 84>    C        0.57079         0.34641        -5.65533
| 85>   Br        3.12936         1.05702        -4.51859
| 86>    H      -14.34367         4.29902         1.86776
| 87>    H      -16.05942         0.55338        -0.98379
| 88>    H      -16.91733         4.28671         2.98230
| 89>    H      -10.94260         1.70036        -2.71465
| 90>    H       -9.16278         2.88556        -2.33899
| 91>    H       -6.72350         4.81752         1.25133
| 92>    H       -8.17440         4.77120        -2.36737
| 93>    H       -5.49340         4.94403        -0.89494
| 94>    H       -5.23996         7.14808        -7.08147
| 95>    H       -9.55022         4.08058        -8.02225
| 96>    H       -5.94316         3.75246        -6.46318
| 97>    H       -8.39454         2.20921        -7.44947
| 98>    H       -6.81114         0.41903        -7.63805
| 99>    H       -1.65180        -0.68106        -7.11183
|100>    H       -2.62441         2.67873        -3.52139
|101>    H        1.02010        -0.34197        -6.34744
|102> *
|103>
|104>                          ****END OF INPUT****

CARTESIAN COORDINATES (ANGSTROEM)
---------------------------------
  C    -13.281190    1.398650   -1.365380
  C    -13.328970    0.354120   -2.251950
  C    -12.255220   -0.096620   -3.047370
  N    -11.426540   -0.525160   -3.717840
  C    -14.475630   -0.435370   -2.483760
  N    -15.371530   -1.111460   -2.723740
  C    -14.373330    1.819240   -0.496450
  C    -13.920150    2.881800    0.323810
  C    -14.720140    3.493460    1.257280
  C    -16.034280    3.032530    1.391020
  C    -16.480730    1.972280    0.566060
  C    -15.670530    1.355030   -0.378750
  S    -18.137680    1.563880    0.891270
  C    -18.207290    2.803830    2.114650
  C    -17.050110    3.490290    2.273090
  Br   -19.800470    3.077440    3.064050
  C    -12.520540    3.191200   -0.010110
  O    -11.845810    4.097940    0.444270
  C    -12.135800    2.242360   -1.066610
  C    -10.966330    2.245610   -1.778960
  N     -9.803150    2.874730   -1.531230
  C     -9.247190    3.320870   -0.368260
  S     -9.738340    2.789570    1.195990
  C     -8.376040    3.596820    1.891390
  N     -8.234200    3.536670    3.284240
  O     -7.291580    4.116600    3.786160
  O     -9.075740    2.895280    3.888890
  C     -7.590480    4.246740    0.975270
  C     -8.079110    4.103890   -0.333110
  C     -7.508000    4.672870   -1.518490
  C     -6.223320    5.043970   -1.684100
  C     -5.730580    5.466130   -2.951440
  S     -6.825220    5.793490   -4.277610
  C     -5.503270    6.008150   -5.400970
  C     -4.300080    5.853230   -4.770030
  C     -4.429510    5.567920   -3.385750
  S     -2.947480    5.318030   -2.502230
  C     -1.859470    5.469280   -3.901130
  O     -0.683840    5.298510   -3.837490
  S     -2.684870    5.879250   -5.432780
  N     -5.749670    6.352340   -6.717040
  C     -6.955550    6.063940   -7.296460
  S     -7.847320    7.284920   -8.138380
  C     -9.113690    6.134950   -8.430090
  N    -10.225270    6.566860   -9.176070
  O    -11.115550    5.765860   -9.371660
  O    -10.200250    7.718600   -9.566790
  C     -8.860260    4.896890   -7.914430
  C     -7.605950    4.822150   -7.268430
  C     -6.952440    3.622730   -6.832640
  C     -7.412900    2.365340   -7.027830
  C     -6.577910    1.215480   -6.936650
  C     -5.422280    1.037090   -6.243880
  C     -4.869260    1.660480   -5.067650
  C     -5.570580    2.153330   -3.993930
  C     -6.955680    2.339400   -3.922100
  N     -8.071660    2.540420   -3.725750
  C     -4.967090    2.396200   -2.742010
  N     -4.528670    2.570990   -1.695630
  C     -3.436780    1.410520   -5.071170
  C     -3.139710    0.464470   -6.085580
  C     -4.392620    0.081960   -6.766920
  O     -4.562390   -0.766830   -7.605930
  C     -1.856880    0.046430   -6.342420
  C     -0.823350    0.599800   -5.576000
  C     -1.131470    1.551160   -4.569710
  C     -2.431170    1.958490   -4.299160
  S      0.291230    2.118190   -3.757800
  C      1.272080    1.078890   -4.753840
  C      0.570790    0.346410   -5.655330
  Br     3.129360    1.057020   -4.518590
  H    -14.343670    4.299020    1.867760
  H    -16.059420    0.553380   -0.983790
  H    -16.917330    4.286710    2.982300
  H    -10.942600    1.700360   -2.714650
  H     -9.162780    2.885560   -2.338990
  H     -6.723500    4.817520    1.251330
  H     -8.174400    4.771200   -2.367370
  H     -5.493400    4.944030   -0.894940
  H     -5.239960    7.148080   -7.081470
  H     -9.550220    4.080580   -8.022250
  H     -5.943160    3.752460   -6.463180
  H     -8.394540    2.209210   -7.449470
  H     -6.811140    0.419030   -7.638050
  H     -1.651800   -0.681060   -7.111830
  H     -2.624410    2.678730   -3.521390
  H      1.020100   -0.341970   -6.347440

 Total Charge           Charge          ....    0
 Multiplicity           Mult            ....    1
 Number of Electrons    NEL             ....  592
 Basis Dimension        Dim             .... 1138

ORBITAL ENERGIES
----------------

  NO   OCC          E(Eh)            E(eV)
   0   2.0000    -482.892042    -13140.1605
   1   2.0000    -482.883197    -13139.9198
   2   2.0000     -89.007852     -2422.0268
   3   2.0000     -88.990646     -2421.5586
   4   2.0000     -88.985577     -2421.4207
   5   2.0000     -88.984627     -2421.3948
   6   2.0000     -88.984295     -2421.3858
   7   2.0000     -88.980058     -2421.2705
   8   2.0000     -88.973247     -2421.0851
   9   2.0000     -62.569787     -1702.6105
  10   2.0000     -62.560937     -1702.3696
  11   2.0000     -56.403748     -1534.8240
  12   2.0000     -56.401012     -1534.7496
  13   2.0000     -56.400978     -1534.7486
  14   2.0000     -56.394884     -1534.5828
  15   2.0000     -56.392171     -1534.5090
  16   2.0000     -56.392135     -1534.5080
  17   2.0000     -19.256282      -523.9901
  18   2.0000     -19.255886      -523.9793
  19   2.0000     -19.251783      -523.8676
  20   2.0000     -19.231648      -523.3197
  21   2.0000     -19.231417      -523.3135
  22   2.0000     -19.229686      -523.2664
  23   2.0000     -19.214539      -522.8542
  24   2.0000     -14.667864      -399.1329
  25   2.0000     -14.643153      -398.4605
  26   2.0000     -14.503809      -394.6687
  27   2.0000     -14.490516      -394.3070
  28   2.0000     -14.451427      -393.2433
  29   2.0000     -14.431081      -392.6897
  30   2.0000     -14.416747      -392.2996
  31   2.0000     -14.412153      -392.1746
  32   2.0000     -10.430611      -283.8314
  33   2.0000     -10.392320      -282.7894
  34   2.0000     -10.381901      -282.5059
  35   2.0000     -10.377058      -282.3741
  36   2.0000     -10.367403      -282.1114
  37   2.0000     -10.365739      -282.0661
  38   2.0000     -10.364774      -282.0398
  39   2.0000     -10.363669      -282.0098
  40   2.0000     -10.362607      -281.9809
  41   2.0000     -10.360771      -281.9309
  42   2.0000     -10.360447      -281.9221
  43   2.0000     -10.359958      -281.9088
  44   2.0000     -10.356530      -281.8155
  45   2.0000     -10.342304      -281.4284
  46   2.0000     -10.341708      -281.4122
  47   2.0000     -10.339572      -281.3541
  48   2.0000     -10.338986      -281.3381
  49   2.0000     -10.337177      -281.2889
  50   2.0000     -10.336548      -281.2718
  51   2.0000     -10.336333      -281.2659
  52   2.0000     -10.335336      -281.2388
  53   2.0000     -10.333903      -281.1998
  54   2.0000     -10.331158      -281.1251
  55   2.0000     -10.329350      -281.0759
  56   2.0000     -10.326072      -280.9867
  57   2.0000     -10.322553      -280.8909
  58   2.0000     -10.321888      -280.8729
  59   2.0000     -10.320051      -280.8229
  60   2.0000     -10.319500      -280.8079
  61   2.0000     -10.319211      -280.8000
  62   2.0000     -10.315669      -280.7036
  63   2.0000     -10.314369      -280.6682
  64   2.0000     -10.313851      -280.6542
  65   2.0000     -10.313687      -280.6497
  66   2.0000     -10.307028      -280.4685
  67   2.0000     -10.305266      -280.4205
  68   2.0000     -10.304950      -280.4119
  69   2.0000     -10.304489      -280.3994
  70   2.0000     -10.303461      -280.3714
  71   2.0000     -10.302353      -280.3413
  72   2.0000     -10.301639      -280.3219
  73   2.0000     -10.301572      -280.3200
  74   2.0000     -10.298608      -280.2394
  75   2.0000     -10.298060      -280.2245
  76   2.0000     -10.295325      -280.1500
  77   2.0000     -10.294182      -280.1189
  78   2.0000     -10.289781      -279.9992
  79   2.0000      -8.799252      -239.4398
  80   2.0000      -8.790392      -239.1987
  81   2.0000      -8.103701      -220.5129
  82   2.0000      -8.085314      -220.0126
  83   2.0000      -8.082377      -219.9327
  84   2.0000      -8.080496      -219.8815
  85   2.0000      -8.080066      -219.8698
  86   2.0000      -8.074765      -219.7255
  87   2.0000      -8.069149      -219.5727
  88   2.0000      -6.635591      -180.5636
  89   2.0000      -6.626704      -180.3218
  90   2.0000      -6.620996      -180.1665
  91   2.0000      -6.620732      -180.1593
  92   2.0000      -6.612105      -179.9245
  93   2.0000      -6.611937      -179.9200
  94   2.0000      -6.073261      -165.2618
  95   2.0000      -6.068843      -165.1416
  96   2.0000      -6.065299      -165.0452
  97   2.0000      -6.054909      -164.7624
  98   2.0000      -6.052058      -164.6849
  99   2.0000      -6.050825      -164.6513
 100   2.0000      -6.050219      -164.6348
 101   2.0000      -6.049734      -164.6216
 102   2.0000      -6.048294      -164.5824
 103   2.0000      -6.046764      -164.5408
 104   2.0000      -6.046293      -164.5280
 105   2.0000      -6.045383      -164.5032
 106   2.0000      -6.044232      -164.4719
 107   2.0000      -6.042799      -164.4329
 108   2.0000      -6.041385      -164.3944
 109   2.0000      -6.041082      -164.3862
 110   2.0000      -6.039753      -164.3500
 111   2.0000      -6.038831      -164.3249
 112   2.0000      -6.036688      -164.2666
 113   2.0000      -6.034567      -164.2089
 114   2.0000      -6.030415      -164.0959
 115   2.0000      -2.751450       -74.8708
 116   2.0000      -2.747380       -74.7600
 117   2.0000      -2.747184       -74.7547
 118   2.0000      -2.742552       -74.6286
 119   2.0000      -2.738520       -74.5189
 120   2.0000      -2.738311       -74.5132
 121   2.0000      -2.735573       -74.4387
 122   2.0000      -2.735559       -74.4384
 123   2.0000      -2.726746       -74.1985
 124   2.0000      -2.726734       -74.1982
 125   2.0000      -1.338766       -36.4297
 126   2.0000      -1.313414       -35.7398
 127   2.0000      -1.181220       -32.1426
 128   2.0000      -1.158544       -31.5256
 129   2.0000      -1.146390       -31.1949
 130   2.0000      -1.132549       -30.8182
 131   2.0000      -1.131439       -30.7880
 132   2.0000      -1.114889       -30.3377
 133   2.0000      -1.092722       -29.7345
 134   2.0000      -1.046199       -28.4685
 135   2.0000      -1.037785       -28.2396
 136   2.0000      -1.031374       -28.0651
 137   2.0000      -1.021194       -27.7881
 138   2.0000      -1.019910       -27.7532
 139   2.0000      -1.017396       -27.6848
 140   2.0000      -1.012207       -27.5436
 141   2.0000      -1.006217       -27.3806
 142   2.0000      -1.002107       -27.2687
 143   2.0000      -0.993624       -27.0379
 144   2.0000      -0.986711       -26.8498
 145   2.0000      -0.962656       -26.1952
 146   2.0000      -0.960988       -26.1498
 147   2.0000      -0.947190       -25.7743
 148   2.0000      -0.940027       -25.5794
 149   2.0000      -0.929537       -25.2940
 150   2.0000      -0.924518       -25.1574
 151   2.0000      -0.916120       -24.9289
 152   2.0000      -0.908957       -24.7340
 153   2.0000      -0.906722       -24.6732
 154   2.0000      -0.898813       -24.4579
 155   2.0000      -0.895279       -24.3618
 156   2.0000      -0.892925       -24.2977
 157   2.0000      -0.883493       -24.0411
 158   2.0000      -0.880764       -23.9668
 159   2.0000      -0.879269       -23.9261
 160   2.0000      -0.857062       -23.3218
 161   2.0000      -0.846386       -23.0313
 162   2.0000      -0.844362       -22.9763
 163   2.0000      -0.840414       -22.8688
 164   2.0000      -0.837390       -22.7865
 165   2.0000      -0.826886       -22.5007
 166   2.0000      -0.819661       -22.3041
 167   2.0000      -0.805079       -21.9073
 168   2.0000      -0.795290       -21.6409
 169   2.0000      -0.784899       -21.3582
 170   2.0000      -0.772894       -21.0315
 171   2.0000      -0.761392       -20.7185
 172   2.0000      -0.757736       -20.6190
 173   2.0000      -0.742060       -20.1925
 174   2.0000      -0.731598       -19.9078
 175   2.0000      -0.718109       -19.5407
 176   2.0000      -0.711884       -19.3713
 177   2.0000      -0.705043       -19.1852
 178   2.0000      -0.701896       -19.0996
 179   2.0000      -0.696690       -18.9579
 180   2.0000      -0.690321       -18.7846
 181   2.0000      -0.681774       -18.5520
 182   2.0000      -0.678235       -18.4557
 183   2.0000      -0.674372       -18.3506
 184   2.0000      -0.669559       -18.2196
 185   2.0000      -0.666574       -18.1384
 186   2.0000      -0.657656       -17.8957
 187   2.0000      -0.655803       -17.8453
 188   2.0000      -0.651478       -17.7276
 189   2.0000      -0.649367       -17.6702
 190   2.0000      -0.646135       -17.5822
 191   2.0000      -0.640215       -17.4211
 192   2.0000      -0.637852       -17.3568
 193   2.0000      -0.635682       -17.2978
 194   2.0000      -0.625885       -17.0312
 195   2.0000      -0.624587       -16.9959
 196   2.0000      -0.621096       -16.9009
 197   2.0000      -0.617804       -16.8113
 198   2.0000      -0.614160       -16.7121
 199   2.0000      -0.612272       -16.6608
 200   2.0000      -0.605656       -16.4807
 201   2.0000      -0.601211       -16.3598
 202   2.0000      -0.597539       -16.2599
 203   2.0000      -0.592562       -16.1244
 204   2.0000      -0.587001       -15.9731
 205   2.0000      -0.581537       -15.8244
 206   2.0000      -0.580413       -15.7938
 207   2.0000      -0.569431       -15.4950
 208   2.0000      -0.567818       -15.4511
 209   2.0000      -0.566413       -15.4129
 210   2.0000      -0.561775       -15.2867
 211   2.0000      -0.560758       -15.2590
 212   2.0000      -0.554561       -15.0904
 213   2.0000      -0.553706       -15.0671
 214   2.0000      -0.549730       -14.9589
 215   2.0000      -0.547784       -14.9060
 216   2.0000      -0.545076       -14.8323
 217   2.0000      -0.543080       -14.7780
 218   2.0000      -0.540611       -14.7108
 219   2.0000      -0.538465       -14.6524
 220   2.0000      -0.533423       -14.5152
 221   2.0000      -0.530117       -14.4252
 222   2.0000      -0.528993       -14.3946
 223   2.0000      -0.525282       -14.2936
 224   2.0000      -0.523835       -14.2543
 225   2.0000      -0.521354       -14.1868
 226   2.0000      -0.517763       -14.0890
 227   2.0000      -0.514904       -14.0112
 228   2.0000      -0.511393       -13.9157
 229   2.0000      -0.510872       -13.9015
 230   2.0000      -0.507764       -13.8170
 231   2.0000      -0.506036       -13.7699
 232   2.0000      -0.503231       -13.6936
 233   2.0000      -0.497669       -13.5422
 234   2.0000      -0.497263       -13.5312
 235   2.0000      -0.492661       -13.4060
 236   2.0000      -0.492089       -13.3904
 237   2.0000      -0.489091       -13.3088
 238   2.0000      -0.484548       -13.1852
 239   2.0000      -0.480959       -13.0875
 240   2.0000      -0.478455       -13.0194
 241   2.0000      -0.476353       -12.9622
 242   2.0000      -0.475410       -12.9366
 243   2.0000      -0.472296       -12.8518
 244   2.0000      -0.466737       -12.7006
 245   2.0000      -0.463444       -12.6110
 246   2.0000      -0.460490       -12.5306
 247   2.0000      -0.458640       -12.4802
 248   2.0000      -0.457334       -12.4447
 249   2.0000      -0.456599       -12.4247
 250   2.0000      -0.454019       -12.3545
 251   2.0000      -0.452431       -12.3113
 252   2.0000      -0.449412       -12.2291
 253   2.0000      -0.446682       -12.1548
 254   2.0000      -0.444666       -12.1000
 255   2.0000      -0.442402       -12.0384
 256   2.0000      -0.441405       -12.0112
 257   2.0000      -0.439069       -11.9477
 258   2.0000      -0.437294       -11.8994
 259   2.0000      -0.431415       -11.7394
 260   2.0000      -0.430800       -11.7227
 261   2.0000      -0.426487       -11.6053
 262   2.0000      -0.424159       -11.5419
 263   2.0000      -0.422410       -11.4944
 264   2.0000      -0.418082       -11.3766
 265   2.0000      -0.410301       -11.1648
 266   2.0000      -0.407001       -11.0751
 267   2.0000      -0.402534       -10.9535
 268   2.0000      -0.399467       -10.8700
 269   2.0000      -0.396304       -10.7840
 270   2.0000      -0.394777       -10.7424
 271   2.0000      -0.389155       -10.5895
 272   2.0000      -0.384846       -10.4722
 273   2.0000      -0.384406       -10.4602
 274   2.0000      -0.382410       -10.4059
 275   2.0000      -0.381187       -10.3726
 276   2.0000      -0.378378       -10.2962
 277   2.0000      -0.372658       -10.1405
 278   2.0000      -0.371743       -10.1156
 279   2.0000      -0.371486       -10.1087
 280   2.0000      -0.367516       -10.0006
 281   2.0000      -0.366815        -9.9815
 282   2.0000      -0.360280        -9.8037
 283   2.0000      -0.354177        -9.6376
 284   2.0000      -0.348986        -9.4964
 285   2.0000      -0.345860        -9.4113
 286   2.0000      -0.331758        -9.0276
 287   2.0000      -0.326159        -8.8753
 288   2.0000      -0.321390        -8.7455
 289   2.0000      -0.320925        -8.7328
 290   2.0000      -0.311973        -8.4892
 291   2.0000      -0.305694        -8.3184
 292   2.0000      -0.300051        -8.1648
 293   2.0000      -0.292692        -7.9646
 294   2.0000      -0.288790        -7.8584
 295   2.0000      -0.259595        -7.0639
 296   0.0000      -0.111465        -3.0331
 297   0.0000      -0.084337        -2.2949
 298   0.0000      -0.077878        -2.1192
 299   0.0000      -0.072853        -1.9824
 300   0.0000      -0.055800        -1.5184

MULLIKEN ATOMIC CHARGES
-----------------------
   0 C :    0.309651
   1 C :   -0.346239
   2 C :   -0.206643
   3 N :    0.146113
   4 C :   -0.185328
   5 N :    0.145856
   6 C :    0.011837
   7 C :   -0.008671
   8 C :   -0.071744
   9 C :    0.119722
  10 C :   -0.092251
  11 C :   -0.021703
  12 S :    0.186275
  13 C :   -0.122378
  14 C :    0.036201
  15 Br:    0.023536
  16 C :    0.140311
  17 O :   -0.166229
  18 C :   -0.128801
  19 C :    0.011225
  20 N :   -0.004209
  21 C :   -0.058156
  22 S :    0.221418
  23 C :   -0.016420
  24 N :    0.275317
  25 O :   -0.249217
  26 O :   -0.264424
  27 C :    0.012047
  28 C :    0.115487
  29 C :   -0.076869
  30 C :    0.032367
  31 C :   -0.156707
  32 S :    0.133559
  33 C :   -0.182461
  34 C :    0.027843
  35 C :   -0.019324
  36 S :    0.123818
  37 C :    0.051539
  38 O :   -0.148481
  39 S :    0.101299
  40 N :   -0.059099
  41 C :   -0.120793
  42 S :    0.203402
  43 C :   -0.005023
  44 N :    0.275057
  45 O :   -0.235606
  46 O :   -0.254366
  47 C :    0.005189
  48 C :    0.071982
  49 C :    0.038438
  50 C :    0.005805
  51 C :    0.032521
  52 C :   -0.133992
  53 C :    0.274628
  54 C :   -0.348099
  55 C :   -0.092363
  56 N :    0.107279
  57 C :   -0.193144
  58 N :    0.157727
  59 C :    0.004044
  60 C :    0.009285
  61 C :    0.140257
  62 O :   -0.129763
  63 C :   -0.072040
  64 C :    0.111174
  65 C :   -0.090092
  66 C :   -0.013316
  67 S :    0.219171
  68 C :   -0.128753
  69 C :    0.040153
  70 Br:    0.033549
  71 H :   -0.009445
  72 H :   -0.006691
  73 H :   -0.001647
  74 H :    0.042925
  75 H :    0.156915
  76 H :    0.006482
  77 H :    0.009823
  78 H :    0.010539
  79 H :    0.154918
  80 H :    0.021984
  81 H :    0.033672
  82 H :    0.007732
  83 H :    0.044954
  84 H :   -0.004180
  85 H :   -0.019956
  86 H :   -0.000402
Sum of atomic charges:   -0.0000000

LOEWDIN ATOMIC CHARGES
----------------------
   0 C :    0.083806
   1 C :   -0.151045
   2 C :   -0.024206
   3 N :   -0.059444
   4 C :   -0.018970
   5 N :   -0.056611
   6 C :   -0.023617
   7 C :   -0.048341
   8 C :    0.021596
   9 C :   -0.031897
  10 C :   -0.146065
  11 C :   -0.008138
  12 S :    0.432782
  13 C :   -0.272036
  14 C :   -0.069894
  15 Br:    0.136759
  16 C :    0.064386
  17 O :   -0.168803
  18 C :   -0.150783
  19 C :    0.103055
  20 N :    0.076917
  21 C :   -0.104159
  22 S :    0.529145
  23 C :   -0.205702
  24 N :    0.273803
  25 O :   -0.215005
  26 O :   -0.230197
  27 C :   -0.005254
  28 C :   -0.091553
  29 C :   -0.024307
  30 C :   -0.041217
  31 C :   -0.180783
  32 S :    0.448311
  33 C :   -0.168583
  34 C :   -0.243498
  35 C :   -0.219362
  36 S :    0.384301
  37 C :   -0.204637
  38 O :   -0.146125
  39 S :    0.339890
  40 N :   -0.004837
  41 C :   -0.117157
  42 S :    0.472348
  43 C :   -0.198387
  44 N :    0.272554
  45 O :   -0.202421
  46 O :   -0.219976
  47 C :    0.008444
  48 C :   -0.101684
  49 C :    0.029253
  50 C :   -0.033084
  51 C :    0.071760
  52 C :   -0.090414
  53 C :    0.077537
  54 C :   -0.156178
  55 C :    0.044179
  56 N :   -0.070141
  57 C :   -0.016230
  58 N :   -0.056903
  59 C :   -0.025290
  60 C :   -0.051263
  61 C :    0.086570
  62 O :   -0.130498
  63 C :    0.024528
  64 C :   -0.027790
  65 C :   -0.143787
  66 C :   -0.009922
  67 S :    0.458695
  68 C :   -0.268791
  69 C :   -0.071868
  70 Br:    0.145331
  71 H :    0.041503
  72 H :    0.040993
  73 H :    0.039267
  74 H :    0.046430
  75 H :    0.071864
  76 H :    0.044091
  77 H :    0.018009
  78 H :    0.036059
  79 H :    0.095551
  80 H :    0.048540
  81 H :    0.036712
  82 H :    0.036286
  83 H :    0.053273
  84 H :    0.043390
  85 H :    0.029140
  86 H :    0.039795

  Mayer bond orders larger than 0.100000
B(  0-C ,  1-C ) :   1.6222 B(  0-C ,  6-C ) :   1.0111 B(  0-C , 18-C ) :   1.1086
B(  1-C ,  2-C ) :   1.1397 B(  1-C ,  4-C ) :   1.1433 B(  2-C ,  3-N ) :   2.9789
B(  4-C ,  5-N ) :   2.9688 B(  6-C ,  7-C ) :   1.2746 B(  6-C , 11-C ) :   1.4083
B(  7-C ,  8-C ) :   1.4286 B(  7-C , 16-C ) :   0.9443 B(  8-C ,  9-C ) :   1.2383
B(  8-C , 71-H ) :   1.0193 B(  9-C , 10-C ) :   1.3081 B(  9-C , 14-C ) :   1.1636
B( 10-C , 11-C ) :   1.3274 B( 10-C , 12-S ) :   1.0858 B( 11-C , 72-H ) :   0.9814
B( 12-S , 13-C ) :   1.0875 B( 13-C , 14-C ) :   1.6171 B( 13-C , 15-Br) :   1.0185
B( 14-C , 73-H ) :   1.0008 B( 16-C , 17-O ) :   2.1835 B( 16-C , 18-C ) :   0.9578
B( 18-C , 19-C ) :   1.5007 B( 19-C , 20-N ) :   1.3370 B( 19-C , 74-H ) :   0.9298
B( 20-N , 21-C ) :   1.1564 B( 20-N , 75-H ) :   0.8392 B( 21-C , 22-S ) :   1.1655
B( 21-C , 28-C ) :   1.3770 B( 22-S , 23-C ) :   1.1294 B( 23-C , 24-N ) :   0.9642
B( 23-C , 27-C ) :   1.4651 B( 24-N , 25-O ) :   1.5380 B( 24-N , 26-O ) :   1.5167
B( 25-O , 26-O ) :   0.2590 B( 27-C , 28-C ) :   1.2572 B( 27-C , 76-H ) :   1.0024
B( 28-C , 29-C ) :   1.0820 B( 29-C , 30-C ) :   1.7049 B( 29-C , 77-H ) :   0.9571
B( 30-C , 31-C ) :   1.1509 B( 30-C , 78-H ) :   0.9703 B( 31-C , 32-S ) :   1.0914
B( 31-C , 33-C ) :   0.1018 B( 31-C , 35-C ) :   1.5903 B( 32-S , 33-C ) :   1.1204
B( 33-C , 34-C ) :   1.6047 B( 33-C , 40-N ) :   1.0899 B( 34-C , 35-C ) :   1.2200
B( 34-C , 39-S ) :   0.9775 B( 35-C , 36-S ) :   0.9955 B( 36-S , 37-C ) :   0.9971
B( 36-S , 38-O ) :   0.1056 B( 37-C , 38-O ) :   2.1065 B( 37-C , 39-S ) :   0.9696
B( 38-O , 39-S ) :   0.1051 B( 40-N , 41-C ) :   1.1765 B( 40-N , 79-H ) :   0.9116
B( 41-C , 42-S ) :   1.1599 B( 41-C , 48-C ) :   1.3804 B( 42-S , 43-C ) :   1.0864
B( 43-C , 44-N ) :   0.9520 B( 43-C , 47-C ) :   1.5217 B( 44-N , 45-O ) :   1.5458
B( 44-N , 46-O ) :   1.5196 B( 45-O , 46-O ) :   0.2666 B( 47-C , 48-C ) :   1.2093
B( 47-C , 80-H ) :   0.9984 B( 48-C , 49-C ) :   1.1276 B( 49-C , 50-C ) :   1.6788
B( 49-C , 81-H ) :   0.9575 B( 50-C , 51-C ) :   1.1496 B( 50-C , 82-H ) :   0.9604
B( 51-C , 52-C ) :   1.6669 B( 51-C , 83-H ) :   0.9268 B( 52-C , 53-C ) :   1.0648
B( 52-C , 61-C ) :   0.9277 B( 53-C , 54-C ) :   1.5906 B( 53-C , 59-C ) :   1.0106
B( 54-C , 55-C ) :   1.2038 B( 54-C , 57-C ) :   1.1543 B( 55-C , 56-N ) :   2.8301
B( 56-N , 75-H ) :   0.1532 B( 57-C , 58-N ) :   2.9389 B( 59-C , 60-C ) :   1.2638
B( 59-C , 66-C ) :   1.4008 B( 60-C , 61-C ) :   0.9155 B( 60-C , 63-C ) :   1.4254
B( 61-C , 62-O ) :   2.2804 B( 63-C , 64-C ) :   1.2459 B( 63-C , 84-H ) :   1.0177
B( 64-C , 65-C ) :   1.2913 B( 64-C , 69-C ) :   1.1751 B( 65-C , 66-C ) :   1.3431
B( 65-C , 67-S ) :   1.0997 B( 66-C , 85-H ) :   0.9811 B( 67-S , 68-C ) :   1.0981
B( 68-C , 69-C ) :   1.6042 B( 68-C , 70-Br) :   1.0253 B( 69-C , 86-H ) :   1.0001

-----------------------------------------------------------------------------
         ABSORPTION SPECTRUM VIA TRANSITION ELECTRIC DIPOLE MOMENTS
-----------------------------------------------------------------------------
State   Energy  Wavelength   fosc         T2         TX        TY        TZ
        (cm-1)    (nm)                  (au**2)     (au)      (au)      (au)
-----------------------------------------------------------------------------
   0   15297.1    653.7   0.055338420   1.19095   0.73343  -0.72099  -0.36497
   1   21310.0    469.3   0.178426830   2.75647   1.27875  -0.89851   0.56030
   2   22184.1    450.8   0.577873259   8.57564   2.11047   1.79732  -0.94403
   3   24061.7    415.6   0.452996460   6.19790  -1.77895  -0.00617  -1.74160
   4   24781.1    403.5   0.096353411   1.28004  -0.51261   0.00114   1.00860
   5   25393.4    393.8   0.215947638   2.79965   1.65435  -0.16118   0.19186
   6   25932.5    385.6   0.205759533   2.61211   0.94978  -0.46715   1.22139
   7   27218.3    367.4   0.168042695   2.03252   1.40287   0.20529   0.14938
   8   27520.7    363.4   0.042533872   0.50880  -0.18030  -0.26028   0.63918
   9   28232.4    354.2   0.059426665   0.69296  -0.74712  -0.14565   0.33698
  10   28480.1    351.1   0.134072954   1.54980   0.96054   0.45760  -0.64635
  11   28978.1    345.1   0.248513658   2.82330   1.32318  -0.23521  -1.00854
  12   29047.3    344.3   0.553429735   6.27237   1.36090  -0.18025  -2.09472
  13   29354.1    340.7   0.131598033   1.47590  -1.05603   0.43599  -0.41305
  14   29699.5    336.7   0.108434318   1.20197   1.05520  -0.03304  -0.29569
  15   30080.6    332.4   0.205799419   2.25233  -0.18751   1.45943   0.29535
  16   30610.5    326.7   0.124299443   1.33682  -1.03570   0.43030  -0.28106
  17   31000.8    322.6   0.214763912   2.28068   1.39331  -0.40928   0.41456
  18   31374.4    318.7   0.124695062   1.30843  -1.01007   0.49737  -0.20204
  19   31591.6    316.5   0.076424105   0.79641   0.20500   0.05637   0.86672
  20   31813.5    314.3   0.032140483   0.33260  -0.57474  -0.00613   0.04718
  21   32005.2    312.4   0.283285772   2.91394  -1.38596   0.60999   0.78802
  22   32688.4    305.9   0.007717529   0.07773   0.06472  -0.16007  -0.21889
  23   32733.5    305.5   0.011547878   0.11614   0.14176   0.29784   0.08566
  24   33186.0    301.3   0.062486396   0.61988  -0.09689   0.55162  -0.55336
  25   33560.0    298.0   0.035880494   0.35197  -0.54987   0.09059  -0.20350
  26   33851.6    295.4   0.044295952   0.43079  -0.42421   0.12907  -0.48391
  27   34463.3    290.2   0.393589896   3.75978  -0.70383   1.19528   1.35488
  28   35163.6    284.4   0.005900531   0.05524  -0.04670  -0.01350  -0.22995
  29   35346.7    282.9   0.026973390   0.25122  -0.05697   0.18733   0.46140
  30   35404.5    282.4   0.296762818   2.75947   1.59817  -0.44244   0.09780
  31   35457.4    282.0   0.031529470   0.29274   0.05299   0.42675  -0.32836
  32   35584.9    281.0   0.079701832   0.73736   0.68439   0.50077  -0.13492
  33   35927.1    278.3   0.023144090   0.21208   0.18164  -0.01094   0.42304
  34   36216.3    276.1   0.012627826   0.11479   0.23663  -0.24237   0.00716
  35   36768.9    272.0   0.007768182   0.06955   0.10377   0.12069   0.21028
  36   37220.6    268.7   0.016438175   0.14539   0.37102  -0.02923  -0.08295
  37   37425.1    267.2   0.048959059   0.43067   0.51819   0.10256   0.38940
  38   37469.2    266.9   0.017360419   0.15253  -0.38425  -0.00786   0.06947
  39   37729.9    265.0   0.037272054   0.32522   0.49715  -0.27674  -0.03842
  40   38051.4    262.8   0.010595423   0.09167   0.10055  -0.15376   0.24066
  41   38571.9    259.3   0.006887220   0.05878  -0.18538  -0.07319   0.13806
  42   38667.3    258.6   0.043953848   0.37422   0.39993  -0.05120   0.46006
  43   38820.1    257.6   0.007494235   0.06355   0.05112   0.12192   0.21465
  44   38880.4    257.2   0.020335850   0.17219  -0.40337   0.09683  -0.01038
  45   39189.1    255.2   0.214422877   1.80128   0.18881   0.90295   0.97484
  46   39232.8    254.9   0.026507506   0.22243   0.09582  -0.36880  -0.27792
  47   39524.2    253.0   0.061757307   0.51440  -0.45722   0.36311   0.41653
  48   39730.6    251.7   0.117119075   0.97046   0.29443   0.04411  -0.93905
  49   39806.7    251.2   0.005595801   0.04628  -0.18666  -0.01695  -0.10559
  50   39942.4    250.4   0.076828669   0.63324   0.21856  -0.31986  -0.69510
  51   40043.5    249.7   0.109470125   0.89999   0.87688  -0.17837  -0.31505
  52   40149.0    249.1   0.256846443   2.10608  -1.24335  -0.74733   0.04082

FINAL SINGLE POINT ENERGY    -10695.916013263375

DIPOLE MOMENT
-------------
                                X             Y             Z
Electronic contribution:     -4.48466     -15.37551      47.86246
Nuclear contribution   :      6.99987      17.11947     -49.96060
                        -----------------------------------------
Total Dipole Moment    :      2.51522       1.74396      -2.09814
                        -----------------------------------------
Magnitude (a.u.)       :      3.71078
Magnitude (Debye)      :      9.43206

Rotational constants in cm-1:     0.001162     0.000298     0.000274
Rotational constants in MHz :    34.837412     8.941810     8.213687

                             ****ORCA TERMINATED NORMALLY****
TOTAL RUN TIME: 0 days 0 hours 9 minutes 49 seconds 741 msec
