                         Program Version 4.2.0 -  RELEASE  -
|  1> # ORCA input file
|  2> # SCF done       -196.488631560430          0.000590864466
|  3> ! CAM-B3LYP def2-SVP def2/J RIJCOSX Grid4 TightSCF
|  4> %maxcore 5000
|  5> %tddft
|  6>     Mode sTDDFT
|  7>     Ethresh 5.0
|  8>     maxcore 5000
|  9> end
| 10>
| 11> %pal
| 12>   nprocs 6
| 13>   end
| 14> * xyz 0 1
| 15>    C      -10.40423       -11.63604        -5.56913
| 16>    C      -10.09316       -11.48364        -4.23755
| 17>    C       -9.62077       -12.53112        -3.41964
| 18>    N       -9.21458       -13.34425        -2.71798
| 19>    C      -10.15324       -10.28750        -3.49407
| 20>    N      -10.14576        -9.36482        -2.80801
| 21>    C      -10.29881       -12.88202        -6.32687
| 22>    C      -10.66324       -12.62980        -7.67306
| 23>    C      -10.65689       -13.60593        -8.63843
| 24>    C      -10.27419       -14.89737        -8.25955
| 25>    C       -9.91808       -15.14151        -6.91304
| 26>    C       -9.92390       -14.15318        -5.93568
| 27>    S       -9.48075       -16.80451        -6.65912
| 28>    C       -9.77671       -17.14244        -8.34376
| 29>    C      -10.18301       -16.06857        -9.06102
| 30>   Br       -9.52011       -18.88205        -8.99761
| 31>    C      -11.02885       -11.20528        -7.82180
| 32>    O      -11.38344       -10.64939        -8.84247
| 33>    C      -10.86807       -10.61664        -6.47866
| 34>    C      -11.13690        -9.30847        -6.15179
| 35>    C      -11.61387        -8.31043        -7.00085
| 36>    C      -11.86071        -7.04269        -6.51096
| 37>    C      -12.41729        -5.91964        -7.16927
| 38>    C      -12.58883        -4.82797        -6.36673
| 39>    C      -12.16621        -5.03762        -5.03714
| 40>    S      -11.52225        -6.64899        -4.84419
| 41>    C      -12.24428        -4.24288        -3.90920
| 42>    C      -12.86293        -2.99573        -3.66938
| 43>    C      -12.88684        -2.64373        -2.35470
| 44>    C      -12.29992        -3.60460        -1.47929
| 45>    S      -11.60479        -4.90211        -2.42454
| 46>    C      -12.26391        -3.52224        -0.11623
| 47>    N      -11.82066        -4.44112         0.78995
| 48>    C      -11.65211        -5.79034         0.69815
| 49>    S      -12.53963        -6.75570        -0.43432
| 50>    C      -11.67832        -8.16684         0.08217
| 51>    N      -11.98987        -9.36837        -0.56839
| 52>    O      -11.42283       -10.37854        -0.20544
| 53>    O      -12.83574        -9.30304        -1.44372
| 54>    C      -10.78744        -7.91764         1.08552
| 55>    C      -10.78604        -6.56774         1.50244
| 56>    C       -9.97568        -6.13556         2.59911
| 57>    C      -10.21735        -5.05817         3.39331
| 58>    C       -9.42565        -4.59127         4.45663
| 59>    C       -9.74736        -3.42277         5.10576
| 60>    C       -9.13294        -2.79876         6.21587
| 61>    C       -9.72003        -1.62736         6.60202
| 62>    C      -10.82367        -1.25278         5.80688
| 63>    S      -11.10109        -2.43546         4.56025
| 64>    C      -11.67128        -0.16097         5.88620
| 65>    C      -11.77214         0.87866         6.82910
| 66>    C      -12.82340         1.72051         6.59839
| 67>    C      -13.61495         1.38339         5.47404
| 68>    S      -12.93725        -0.01039         4.68727
| 69>    C      -14.70653         2.09417         4.99706
| 70>    C      -15.51815         1.82192         3.90127
| 71>    C      -15.71932         0.67272         3.14771
| 72>    C      -15.54609        -0.71907         3.41148
| 73>    C      -15.45849        -1.32377         4.65164
| 74>    C      -15.19207        -2.68948         4.84488
| 75>    N      -14.91273        -3.78618         5.04721
| 76>    C      -15.67123        -0.63366         5.85776
| 77>    N      -15.85340        -0.10205         6.85954
| 78>    C      -15.63164        -1.43503         2.13909
| 79>    C      -16.02038        -0.51861         1.13272
| 80>    C      -16.16679         0.82502         1.74365
| 81>    O      -16.53216         1.84187         1.19429
| 82>    C      -16.19709        -0.89232        -0.17590
| 83>    C      -15.96544        -2.23347        -0.51054
| 84>    C      -15.58243        -3.13946         0.50289
| 85>    C      -15.41452        -2.76272         1.83135
| 86>    S      -15.34099        -4.74268        -0.12806
| 87>    C      -15.72137        -4.17347        -1.73086
| 88>    C      -16.03873        -2.85846        -1.78684
| 89>   Br      -15.61920        -5.36047        -3.18232
| 90>    H      -10.93821       -13.38118        -9.65537
| 91>    H       -9.64546       -14.39231        -4.92322
| 92>    H      -10.40931       -16.09840       -10.11124
| 93>    H      -10.98259        -9.01791        -5.11956
| 94>    H      -11.81226        -8.53372        -8.03844
| 95>    H      -12.69252        -5.96044        -8.20828
| 96>    H      -13.01293        -3.89425        -6.69065
| 97>    H      -13.30041        -2.41770        -4.46309
| 98>    H      -13.33363        -1.74357        -1.97098
| 99>    H      -12.59504        -2.59637         0.33725
|100>    H      -11.53519        -4.04143         1.67542
|101>    H      -10.17401        -8.68518         1.52147
|102>    H       -9.12659        -6.76687         2.82507
|103>    H      -11.13455        -4.49719         3.26154
|104>    H       -8.54868        -5.14162         4.76485
|105>    H       -8.28145        -3.23850         6.70472
|106>    H       -9.38990        -1.02589         7.42997
|107>    H      -11.09065         0.96908         7.65580
|108>    H      -13.07367         2.56062         7.22107
|109>    H      -14.88593         3.03586         5.50075
|110>    H      -16.04609         2.68175         3.49693
|111>    H      -16.50221        -0.17544        -0.92216
|112>    H      -15.12065        -3.48999         2.56948
|113>    H      -16.30788        -2.34676        -2.69259
|114> *
|115>
|116>                          ****END OF INPUT****

CARTESIAN COORDINATES (ANGSTROEM)
---------------------------------
  C    -10.404230  -11.636040   -5.569130
  C    -10.093160  -11.483640   -4.237550
  C     -9.620770  -12.531120   -3.419640
  N     -9.214580  -13.344250   -2.717980
  C    -10.153240  -10.287500   -3.494070
  N    -10.145760   -9.364820   -2.808010
  C    -10.298810  -12.882020   -6.326870
  C    -10.663240  -12.629800   -7.673060
  C    -10.656890  -13.605930   -8.638430
  C    -10.274190  -14.897370   -8.259550
  C     -9.918080  -15.141510   -6.913040
  C     -9.923900  -14.153180   -5.935680
  S     -9.480750  -16.804510   -6.659120
  C     -9.776710  -17.142440   -8.343760
  C    -10.183010  -16.068570   -9.061020
  Br    -9.520110  -18.882050   -8.997610
  C    -11.028850  -11.205280   -7.821800
  O    -11.383440  -10.649390   -8.842470
  C    -10.868070  -10.616640   -6.478660
  C    -11.136900   -9.308470   -6.151790
  C    -11.613870   -8.310430   -7.000850
  C    -11.860710   -7.042690   -6.510960
  C    -12.417290   -5.919640   -7.169270
  C    -12.588830   -4.827970   -6.366730
  C    -12.166210   -5.037620   -5.037140
  S    -11.522250   -6.648990   -4.844190
  C    -12.244280   -4.242880   -3.909200
  C    -12.862930   -2.995730   -3.669380
  C    -12.886840   -2.643730   -2.354700
  C    -12.299920   -3.604600   -1.479290
  S    -11.604790   -4.902110   -2.424540
  C    -12.263910   -3.522240   -0.116230
  N    -11.820660   -4.441120    0.789950
  C    -11.652110   -5.790340    0.698150
  S    -12.539630   -6.755700   -0.434320
  C    -11.678320   -8.166840    0.082170
  N    -11.989870   -9.368370   -0.568390
  O    -11.422830  -10.378540   -0.205440
  O    -12.835740   -9.303040   -1.443720
  C    -10.787440   -7.917640    1.085520
  C    -10.786040   -6.567740    1.502440
  C     -9.975680   -6.135560    2.599110
  C    -10.217350   -5.058170    3.393310
  C     -9.425650   -4.591270    4.456630
  C     -9.747360   -3.422770    5.105760
  C     -9.132940   -2.798760    6.215870
  C     -9.720030   -1.627360    6.602020
  C    -10.823670   -1.252780    5.806880
  S    -11.101090   -2.435460    4.560250
  C    -11.671280   -0.160970    5.886200
  C    -11.772140    0.878660    6.829100
  C    -12.823400    1.720510    6.598390
  C    -13.614950    1.383390    5.474040
  S    -12.937250   -0.010390    4.687270
  C    -14.706530    2.094170    4.997060
  C    -15.518150    1.821920    3.901270
  C    -15.719320    0.672720    3.147710
  C    -15.546090   -0.719070    3.411480
  C    -15.458490   -1.323770    4.651640
  C    -15.192070   -2.689480    4.844880
  N    -14.912730   -3.786180    5.047210
  C    -15.671230   -0.633660    5.857760
  N    -15.853400   -0.102050    6.859540
  C    -15.631640   -1.435030    2.139090
  C    -16.020380   -0.518610    1.132720
  C    -16.166790    0.825020    1.743650
  O    -16.532160    1.841870    1.194290
  C    -16.197090   -0.892320   -0.175900
  C    -15.965440   -2.233470   -0.510540
  C    -15.582430   -3.139460    0.502890
  C    -15.414520   -2.762720    1.831350
  S    -15.340990   -4.742680   -0.128060
  C    -15.721370   -4.173470   -1.730860
  C    -16.038730   -2.858460   -1.786840
  Br   -15.619200   -5.360470   -3.182320
  H    -10.938210  -13.381180   -9.655370
  H     -9.645460  -14.392310   -4.923220
  H    -10.409310  -16.098400  -10.111240
  H    -10.982590   -9.017910   -5.119560
  H    -11.812260   -8.533720   -8.038440
  H    -12.692520   -5.960440   -8.208280
  H    -13.012930   -3.894250   -6.690650
  H    -13.300410   -2.417700   -4.463090
  H    -13.333630   -1.743570   -1.970980
  H    -12.595040   -2.596370    0.337250
  H    -11.535190   -4.041430    1.675420
  H    -10.174010   -8.685180    1.521470
  H     -9.126590   -6.766870    2.825070
  H    -11.134550   -4.497190    3.261540
  H     -8.548680   -5.141620    4.764850
  H     -8.281450   -3.238500    6.704720
  H     -9.389900   -1.025890    7.429970
  H    -11.090650    0.969080    7.655800
  H    -13.073670    2.560620    7.221070
  H    -14.885930    3.035860    5.500750
  H    -16.046090    2.681750    3.496930
  H    -16.502210   -0.175440   -0.922160
  H    -15.120650   -3.489990    2.569480
  H    -16.307880   -2.346760   -2.692590

 Total Charge           Charge          ....    0
 Multiplicity           Mult            ....    1
 Number of Electrons    NEL             ....  616
 Basis Dimension        Dim             .... 1234

ORBITAL ENERGIES
----------------

  NO   OCC          E(Eh)            E(eV)
   0   2.0000    -482.886460    -13140.0086
   1   2.0000    -482.875542    -13139.7115
   2   2.0000     -88.986720     -2421.4518
   3   2.0000     -88.978252     -2421.2213
   4   2.0000     -88.974220     -2421.1116
   5   2.0000     -88.972028     -2421.0520
   6   2.0000     -88.963600     -2420.8226
   7   2.0000     -88.963062     -2420.8080
   8   2.0000     -88.952973     -2420.5334
   9   2.0000     -62.563696     -1702.4447
  10   2.0000     -62.553259     -1702.1607
  11   2.0000     -56.397687     -1534.6591
  12   2.0000     -56.394935     -1534.5842
  13   2.0000     -56.394879     -1534.5827
  14   2.0000     -56.387194     -1534.3736
  15   2.0000     -56.384506     -1534.3004
  16   2.0000     -56.384468     -1534.2994
  17   2.0000     -19.228431      -523.2322
  18   2.0000     -19.228310      -523.2289
  19   2.0000     -19.207497      -522.6626
  20   2.0000     -19.198015      -522.4046
  21   2.0000     -14.639183      -398.3524
  22   2.0000     -14.500395      -394.5758
  23   2.0000     -14.408332      -392.0706
  24   2.0000     -14.403616      -391.9423
  25   2.0000     -14.400752      -391.8644
  26   2.0000     -14.394569      -391.6961
  27   2.0000     -10.374636      -282.3082
  28   2.0000     -10.358923      -281.8806
  29   2.0000     -10.357594      -281.8445
  30   2.0000     -10.354671      -281.7649
  31   2.0000     -10.348244      -281.5900
  32   2.0000     -10.347973      -281.5827
  33   2.0000     -10.346755      -281.5495
  34   2.0000     -10.337877      -281.3079
  35   2.0000     -10.332696      -281.1670
  36   2.0000     -10.332619      -281.1649
  37   2.0000     -10.332511      -281.1619
  38   2.0000     -10.330457      -281.1060
  39   2.0000     -10.325933      -280.9829
  40   2.0000     -10.325445      -280.9696
  41   2.0000     -10.325301      -280.9657
  42   2.0000     -10.324535      -280.9449
  43   2.0000     -10.323516      -280.9172
  44   2.0000     -10.321651      -280.8664
  45   2.0000     -10.320203      -280.8270
  46   2.0000     -10.319422      -280.8057
  47   2.0000     -10.319150      -280.7983
  48   2.0000     -10.317620      -280.7567
  49   2.0000     -10.316926      -280.7378
  50   2.0000     -10.313125      -280.6344
  51   2.0000     -10.313008      -280.6312
  52   2.0000     -10.311086      -280.5789
  53   2.0000     -10.310291      -280.5573
  54   2.0000     -10.306987      -280.4674
  55   2.0000     -10.306394      -280.4512
  56   2.0000     -10.306238      -280.4470
  57   2.0000     -10.306121      -280.4438
  58   2.0000     -10.305836      -280.4360
  59   2.0000     -10.305580      -280.4291
  60   2.0000     -10.305271      -280.4207
  61   2.0000     -10.305165      -280.4178
  62   2.0000     -10.304972      -280.4126
  63   2.0000     -10.302246      -280.3384
  64   2.0000     -10.301052      -280.3059
  65   2.0000     -10.300579      -280.2930
  66   2.0000     -10.299994      -280.2771
  67   2.0000     -10.299003      -280.2501
  68   2.0000     -10.298844      -280.2458
  69   2.0000     -10.295989      -280.1681
  70   2.0000     -10.294464      -280.1266
  71   2.0000     -10.293126      -280.0902
  72   2.0000     -10.292127      -280.0630
  73   2.0000     -10.291959      -280.0584
  74   2.0000     -10.289415      -279.9892
  75   2.0000     -10.289267      -279.9852
  76   2.0000     -10.288584      -279.9666
  77   2.0000     -10.285925      -279.8942
  78   2.0000     -10.284981      -279.8686
  79   2.0000     -10.284166      -279.8464
  80   2.0000     -10.275811      -279.6190
  81   2.0000     -10.273494      -279.5560
  82   2.0000     -10.272736      -279.5354
  83   2.0000      -8.792972      -239.2689
  84   2.0000      -8.782684      -238.9890
  85   2.0000      -8.081503      -219.9089
  86   2.0000      -8.073173      -219.6822
  87   2.0000      -8.070494      -219.6093
  88   2.0000      -8.067041      -219.5153
  89   2.0000      -8.059881      -219.3205
  90   2.0000      -8.059003      -219.2966
  91   2.0000      -8.049246      -219.0311
  92   2.0000      -6.629259      -180.3913
  93   2.0000      -6.618923      -180.1101
  94   2.0000      -6.614706      -179.9953
  95   2.0000      -6.614499      -179.9897
  96   2.0000      -6.604435      -179.7158
  97   2.0000      -6.604280      -179.7116
  98   2.0000      -6.051012      -164.6564
  99   2.0000      -6.046438      -164.5319
 100   2.0000      -6.043321      -164.4471
 101   2.0000      -6.042922      -164.4363
 102   2.0000      -6.040149      -164.3608
 103   2.0000      -6.038623      -164.3193
 104   2.0000      -6.036452      -164.2602
 105   2.0000      -6.036167      -164.2525
 106   2.0000      -6.034496      -164.2070
 107   2.0000      -6.032280      -164.1467
 108   2.0000      -6.031512      -164.1258
 109   2.0000      -6.029625      -164.0744
 110   2.0000      -6.028847      -164.0533
 111   2.0000      -6.028687      -164.0489
 112   2.0000      -6.025248      -163.9553
 113   2.0000      -6.024441      -163.9334
 114   2.0000      -6.020845      -163.8355
 115   2.0000      -6.020234      -163.8189
 116   2.0000      -6.018852      -163.7813
 117   2.0000      -6.014780      -163.6705
 118   2.0000      -6.010341      -163.5497
 119   2.0000      -2.745168       -74.6998
 120   2.0000      -2.741033       -74.5873
 121   2.0000      -2.740888       -74.5834
 122   2.0000      -2.734810       -74.4180
 123   2.0000      -2.730725       -74.3068
 124   2.0000      -2.730620       -74.3040
 125   2.0000      -2.729319       -74.2685
 126   2.0000      -2.729309       -74.2683
 127   2.0000      -2.719101       -73.9905
 128   2.0000      -2.719089       -73.9902
 129   2.0000      -1.309303       -35.6279
 130   2.0000      -1.128829       -30.7170
 131   2.0000      -1.121446       -30.5161
 132   2.0000      -1.111322       -30.2406
 133   2.0000      -1.100198       -29.9379
 134   2.0000      -1.023738       -27.8573
 135   2.0000      -1.020649       -27.7733
 136   2.0000      -1.012574       -27.5535
 137   2.0000      -1.007772       -27.4229
 138   2.0000      -1.007381       -27.4122
 139   2.0000      -1.005163       -27.3519
 140   2.0000      -0.997155       -27.1340
 141   2.0000      -0.996751       -27.1230
 142   2.0000      -0.986915       -26.8553
 143   2.0000      -0.984825       -26.7984
 144   2.0000      -0.982480       -26.7346
 145   2.0000      -0.976952       -26.5842
 146   2.0000      -0.971846       -26.4453
 147   2.0000      -0.943525       -25.6746
 148   2.0000      -0.938830       -25.5469
 149   2.0000      -0.928915       -25.2771
 150   2.0000      -0.915780       -24.9196
 151   2.0000      -0.909173       -24.7398
 152   2.0000      -0.904334       -24.6082
 153   2.0000      -0.901638       -24.5348
 154   2.0000      -0.893345       -24.3092
 155   2.0000      -0.889801       -24.2127
 156   2.0000      -0.884642       -24.0723
 157   2.0000      -0.881349       -23.9827
 158   2.0000      -0.876074       -23.8392
 159   2.0000      -0.871733       -23.7211
 160   2.0000      -0.871147       -23.7051
 161   2.0000      -0.864727       -23.5304
 162   2.0000      -0.863041       -23.4846
 163   2.0000      -0.852210       -23.1898
 164   2.0000      -0.844300       -22.9746
 165   2.0000      -0.834296       -22.7023
 166   2.0000      -0.832939       -22.6654
 167   2.0000      -0.829349       -22.5677
 168   2.0000      -0.826520       -22.4908
 169   2.0000      -0.814974       -22.1766
 170   2.0000      -0.805142       -21.9090
 171   2.0000      -0.799418       -21.7533
 172   2.0000      -0.779690       -21.2164
 173   2.0000      -0.772792       -21.0287
 174   2.0000      -0.755547       -20.5595
 175   2.0000      -0.750061       -20.4102
 176   2.0000      -0.743079       -20.2202
 177   2.0000      -0.739933       -20.1346
 178   2.0000      -0.725555       -19.7434
 179   2.0000      -0.716155       -19.4876
 180   2.0000      -0.713780       -19.4229
 181   2.0000      -0.703640       -19.1470
 182   2.0000      -0.698858       -19.0169
 183   2.0000      -0.692598       -18.8465
 184   2.0000      -0.683281       -18.5930
 185   2.0000      -0.681561       -18.5462
 186   2.0000      -0.674952       -18.3664
 187   2.0000      -0.673348       -18.3227
 188   2.0000      -0.663724       -18.0608
 189   2.0000      -0.656397       -17.8615
 190   2.0000      -0.655676       -17.8419
 191   2.0000      -0.651753       -17.7351
 192   2.0000      -0.649370       -17.6703
 193   2.0000      -0.643806       -17.5189
 194   2.0000      -0.636094       -17.3090
 195   2.0000      -0.632567       -17.2130
 196   2.0000      -0.630682       -17.1617
 197   2.0000      -0.626665       -17.0524
 198   2.0000      -0.624334       -16.9890
 199   2.0000      -0.621136       -16.9020
 200   2.0000      -0.618696       -16.8356
 201   2.0000      -0.616332       -16.7713
 202   2.0000      -0.613297       -16.6887
 203   2.0000      -0.608956       -16.5705
 204   2.0000      -0.607269       -16.5246
 205   2.0000      -0.593211       -16.1421
 206   2.0000      -0.590044       -16.0559
 207   2.0000      -0.584853       -15.9147
 208   2.0000      -0.583421       -15.8757
 209   2.0000      -0.579408       -15.7665
 210   2.0000      -0.576717       -15.6933
 211   2.0000      -0.572778       -15.5861
 212   2.0000      -0.567611       -15.4455
 213   2.0000      -0.559779       -15.2324
 214   2.0000      -0.549985       -14.9658
 215   2.0000      -0.548986       -14.9387
 216   2.0000      -0.546220       -14.8634
 217   2.0000      -0.543852       -14.7990
 218   2.0000      -0.539804       -14.6888
 219   2.0000      -0.536512       -14.5992
 220   2.0000      -0.535270       -14.5654
 221   2.0000      -0.530136       -14.4257
 222   2.0000      -0.528011       -14.3679
 223   2.0000      -0.527195       -14.3457
 224   2.0000      -0.525449       -14.2982
 225   2.0000      -0.523016       -14.2320
 226   2.0000      -0.521980       -14.2038
 227   2.0000      -0.517988       -14.0952
 228   2.0000      -0.517380       -14.0786
 229   2.0000      -0.516904       -14.0657
 230   2.0000      -0.515665       -14.0320
 231   2.0000      -0.510229       -13.8840
 232   2.0000      -0.507163       -13.8006
 233   2.0000      -0.505722       -13.7614
 234   2.0000      -0.504624       -13.7315
 235   2.0000      -0.501839       -13.6557
 236   2.0000      -0.499524       -13.5927
 237   2.0000      -0.497369       -13.5341
 238   2.0000      -0.494950       -13.4683
 239   2.0000      -0.494390       -13.4530
 240   2.0000      -0.493343       -13.4245
 241   2.0000      -0.485550       -13.2125
 242   2.0000      -0.482740       -13.1360
 243   2.0000      -0.481710       -13.1080
 244   2.0000      -0.481038       -13.0897
 245   2.0000      -0.479834       -13.0570
 246   2.0000      -0.478457       -13.0195
 247   2.0000      -0.476134       -12.9563
 248   2.0000      -0.475552       -12.9404
 249   2.0000      -0.474024       -12.8988
 250   2.0000      -0.463114       -12.6020
 251   2.0000      -0.458970       -12.4892
 252   2.0000      -0.457035       -12.4366
 253   2.0000      -0.456172       -12.4131
 254   2.0000      -0.453468       -12.3395
 255   2.0000      -0.451782       -12.2936
 256   2.0000      -0.448270       -12.1980
 257   2.0000      -0.446396       -12.1470
 258   2.0000      -0.444691       -12.1007
 259   2.0000      -0.443768       -12.0755
 260   2.0000      -0.442751       -12.0479
 261   2.0000      -0.441325       -12.0091
 262   2.0000      -0.438846       -11.9416
 263   2.0000      -0.436678       -11.8826
 264   2.0000      -0.435282       -11.8446
 265   2.0000      -0.433511       -11.7964
 266   2.0000      -0.431096       -11.7307
 267   2.0000      -0.426620       -11.6089
 268   2.0000      -0.425444       -11.5769
 269   2.0000      -0.425032       -11.5657
 270   2.0000      -0.418046       -11.3756
 271   2.0000      -0.417538       -11.3618
 272   2.0000      -0.412122       -11.2144
 273   2.0000      -0.410175       -11.1614
 274   2.0000      -0.409529       -11.1439
 275   2.0000      -0.407543       -11.0898
 276   2.0000      -0.405323       -11.0294
 277   2.0000      -0.400595       -10.9007
 278   2.0000      -0.394926       -10.7465
 279   2.0000      -0.390783       -10.6338
 280   2.0000      -0.389738       -10.6053
 281   2.0000      -0.387974       -10.5573
 282   2.0000      -0.377517       -10.2728
 283   2.0000      -0.375449       -10.2165
 284   2.0000      -0.374410       -10.1882
 285   2.0000      -0.373430       -10.1615
 286   2.0000      -0.366720        -9.9790
 287   2.0000      -0.365136        -9.9358
 288   2.0000      -0.364496        -9.9184
 289   2.0000      -0.362534        -9.8650
 290   2.0000      -0.356932        -9.7126
 291   2.0000      -0.355359        -9.6698
 292   2.0000      -0.353449        -9.6178
 293   2.0000      -0.345638        -9.4053
 294   2.0000      -0.339864        -9.2482
 295   2.0000      -0.334180        -9.0935
 296   2.0000      -0.329113        -8.9556
 297   2.0000      -0.321487        -8.7481
 298   2.0000      -0.318686        -8.6719
 299   2.0000      -0.311220        -8.4687
 300   2.0000      -0.310777        -8.4567
 301   2.0000      -0.301546        -8.2055
 302   2.0000      -0.299921        -8.1613
 303   2.0000      -0.287563        -7.8250
 304   2.0000      -0.283100        -7.7035
 305   2.0000      -0.277261        -7.5446
 306   2.0000      -0.241530        -6.5724
 307   2.0000      -0.225322        -6.1313
 308   0.0000      -0.117876        -3.2076
 309   0.0000      -0.100778        -2.7423
 310   0.0000      -0.064695        -1.7605
 311   0.0000      -0.057549        -1.5660
 312   0.0000      -0.050690        -1.3793

MULLIKEN ATOMIC CHARGES
-----------------------
   0 C :    0.333768
   1 C :   -0.369005
   2 C :   -0.187395
   3 N :    0.136242
   4 C :   -0.157278
   5 N :    0.106997
   6 C :    0.013452
   7 C :   -0.015839
   8 C :   -0.076501
   9 C :    0.118030
  10 C :   -0.093131
  11 C :   -0.023139
  12 S :    0.179616
  13 C :   -0.123192
  14 C :    0.036636
  15 Br:    0.013702
  16 C :    0.133170
  17 O :   -0.161652
  18 C :   -0.073935
  19 C :   -0.061243
  20 C :   -0.011187
  21 C :    0.005850
  22 C :    0.025394
  23 C :    0.049777
  24 C :   -0.040689
  25 S :    0.076538
  26 C :   -0.032763
  27 C :    0.012857
  28 C :    0.081843
  29 C :   -0.092282
  30 S :    0.111767
  31 C :    0.041378
  32 N :   -0.010796
  33 C :   -0.131390
  34 S :    0.206021
  35 C :    0.008460
  36 N :    0.290297
  37 O :   -0.240072
  38 O :   -0.263435
  39 C :    0.011275
  40 C :    0.109441
  41 C :    0.015919
  42 C :   -0.068824
  43 C :    0.038643
  44 C :   -0.036767
  45 C :    0.061227
  46 C :    0.024636
  47 C :   -0.004398
  48 S :    0.052398
  49 C :   -0.059193
  50 C :    0.044673
  51 C :    0.052142
  52 C :   -0.036801
  53 S :    0.104436
  54 C :    0.011501
  55 C :    0.023878
  56 C :   -0.149283
  57 C :    0.281135
  58 C :   -0.365544
  59 C :   -0.172776
  60 N :    0.132945
  61 C :   -0.209286
  62 N :    0.161043
  63 C :    0.015757
  64 C :    0.003685
  65 C :    0.133517
  66 O :   -0.149798
  67 C :   -0.085991
  68 C :    0.104229
  69 C :   -0.106237
  70 C :   -0.052725
  71 S :    0.173107
  72 C :   -0.125566
  73 C :    0.046504
  74 Br:    0.033490
  75 H :   -0.015915
  76 H :   -0.009038
  77 H :   -0.007228
  78 H :    0.027307
  79 H :    0.012469
  80 H :   -0.002071
  81 H :   -0.007385
  82 H :   -0.011408
  83 H :   -0.002352
  84 H :    0.030254
  85 H :    0.138136
  86 H :    0.011354
  87 H :    0.008208
  88 H :    0.024859
  89 H :    0.002893
  90 H :    0.003182
  91 H :   -0.000919
  92 H :   -0.006664
  93 H :   -0.003479
  94 H :   -0.002163
  95 H :    0.025427
  96 H :   -0.014970
  97 H :   -0.018432
  98 H :   -0.011327
Sum of atomic charges:    0.0000000

LOEWDIN ATOMIC CHARGES
----------------------
   0 C :    0.074075
   1 C :   -0.152539
   2 C :   -0.016000
   3 N :   -0.066613
   4 C :   -0.008679
   5 N :   -0.082848
   6 C :   -0.017544
   7 C :   -0.049334
   8 C :    0.017011
   9 C :   -0.036047
  10 C :   -0.145800
  11 C :   -0.012658
  12 S :    0.427543
  13 C :   -0.274948
  14 C :   -0.071115
  15 Br:    0.129095
  16 C :    0.080836
  17 O :   -0.158060
  18 C :   -0.106756
  19 C :    0.047771
  20 C :   -0.072631
  21 C :   -0.103160
  22 C :   -0.044078
  23 C :   -0.007809
  24 C :   -0.198107
  25 S :    0.414133
  26 C :   -0.149656
  27 C :   -0.054171
  28 C :   -0.000831
  29 C :   -0.209843
  30 S :    0.406547
  31 C :    0.003302
  32 N :    0.050762
  33 C :   -0.121232
  34 S :    0.500376
  35 C :   -0.201648
  36 N :    0.279467
  37 O :   -0.203330
  38 O :   -0.227369
  39 C :    0.000598
  40 C :   -0.101744
  41 C :    0.021290
  42 C :   -0.071096
  43 C :   -0.005522
  44 C :   -0.155641
  45 C :   -0.001452
  46 C :   -0.038709
  47 C :   -0.134266
  48 S :    0.383386
  49 C :   -0.199694
  50 C :   -0.017668
  51 C :   -0.032203
  52 C :   -0.112975
  53 S :    0.465523
  54 C :   -0.068077
  55 C :    0.037824
  56 C :   -0.118523
  57 C :    0.030726
  58 C :   -0.171490
  59 C :   -0.021799
  60 N :   -0.075081
  61 C :   -0.027200
  62 N :   -0.059257
  63 C :   -0.011589
  64 C :   -0.052304
  65 C :    0.081516
  66 O :   -0.150513
  67 C :    0.014091
  68 C :   -0.047639
  69 C :   -0.149984
  70 C :   -0.031870
  71 S :    0.433448
  72 C :   -0.274800
  73 C :   -0.069905
  74 Br:    0.148652
  75 H :    0.038588
  76 H :    0.040277
  77 H :    0.037276
  78 H :    0.028651
  79 H :    0.038256
  80 H :    0.037541
  81 H :    0.035226
  82 H :    0.033245
  83 H :    0.035859
  84 H :    0.040197
  85 H :    0.090027
  86 H :    0.047345
  87 H :    0.040024
  88 H :    0.012280
  89 H :    0.040911
  90 H :    0.040594
  91 H :    0.037671
  92 H :    0.035862
  93 H :    0.038108
  94 H :    0.040937
  95 H :    0.046183
  96 H :    0.039133
  97 H :    0.036391
  98 H :    0.035251

  Mayer bond orders larger than 0.100000
B(  0-C ,  1-C ) :   1.5790 B(  0-C ,  6-C ) :   0.9901 B(  0-C , 18-C ) :   1.1143
B(  1-C ,  2-C ) :   1.1531 B(  1-C ,  4-C ) :   1.1637 B(  2-C ,  3-N ) :   2.9605
B(  4-C ,  5-N ) :   2.9118 B(  6-C ,  7-C ) :   1.2778 B(  6-C , 11-C ) :   1.4194
B(  7-C ,  8-C ) :   1.4305 B(  7-C , 16-C ) :   0.9319 B(  8-C ,  9-C ) :   1.2402
B(  8-C , 75-H ) :   1.0160 B(  9-C , 10-C ) :   1.3144 B(  9-C , 14-C ) :   1.1616
B( 10-C , 11-C ) :   1.3212 B( 10-C , 12-S ) :   1.0834 B( 11-C , 76-H ) :   0.9785
B( 12-S , 13-C ) :   1.0854 B( 13-C , 14-C ) :   1.6208 B( 13-C , 15-Br) :   1.0122
B( 14-C , 77-H ) :   0.9999 B( 16-C , 17-O ) :   2.2048 B( 16-C , 18-C ) :   0.9618
B( 18-C , 19-C ) :   1.4966 B( 19-C , 20-C ) :   1.2536 B( 19-C , 78-H ) :   0.9307
B( 20-C , 21-C ) :   1.4200 B( 20-C , 79-H ) :   0.9869 B( 21-C , 22-C ) :   1.1731
B( 21-C , 25-S ) :   1.0912 B( 22-C , 23-C ) :   1.5450 B( 22-C , 80-H ) :   1.0003
B( 23-C , 24-C ) :   1.2146 B( 23-C , 81-H ) :   0.9974 B( 24-C , 25-S ) :   1.0498
B( 24-C , 26-C ) :   1.4661 B( 26-C , 27-C ) :   1.1832 B( 26-C , 30-S ) :   1.0717
B( 27-C , 28-C ) :   1.6039 B( 27-C , 82-H ) :   0.9973 B( 28-C , 29-C ) :   1.1489
B( 28-C , 83-H ) :   0.9881 B( 29-C , 30-S ) :   1.0286 B( 29-C , 31-C ) :   1.6029
B( 31-C , 32-N ) :   1.1746 B( 31-C , 84-H ) :   0.9512 B( 32-N , 33-C ) :   1.1953
B( 32-N , 85-H ) :   0.8988 B( 33-C , 34-S ) :   1.1565 B( 33-C , 40-C ) :   1.3263
B( 34-S , 35-C ) :   1.0848 B( 35-C , 36-N ) :   0.9636 B( 35-C , 39-C ) :   1.4976
B( 36-N , 37-O ) :   1.5416 B( 36-N , 38-O ) :   1.5112 B( 37-O , 38-O ) :   0.2617
B( 39-C , 40-C ) :   1.2202 B( 39-C , 86-H ) :   1.0042 B( 40-C , 41-C ) :   1.1160
B( 41-C , 42-C ) :   1.6100 B( 41-C , 87-H ) :   0.9750 B( 42-C , 43-C ) :   1.1734
B( 42-C , 88-H ) :   0.9409 B( 43-C , 44-C ) :   1.5540 B( 43-C , 89-H ) :   0.9892
B( 44-C , 45-C ) :   1.1611 B( 44-C , 48-S ) :   1.0174 B( 45-C , 46-C ) :   1.5668
B( 45-C , 90-H ) :   0.9985 B( 46-C , 47-C ) :   1.2070 B( 46-C , 91-H ) :   0.9963
B( 47-C , 48-S ) :   1.0965 B( 47-C , 49-C ) :   1.4485 B( 49-C , 50-C ) :   1.2192
B( 49-C , 53-S ) :   1.0408 B( 50-C , 51-C ) :   1.5510 B( 50-C , 92-H ) :   0.9933
B( 51-C , 52-C ) :   1.1876 B( 51-C , 93-H ) :   0.9975 B( 52-C , 53-S ) :   1.1251
B( 52-C , 54-C ) :   1.4130 B( 54-C , 55-C ) :   1.3662 B( 54-C , 94-H ) :   0.9561
B( 55-C , 56-C ) :   1.4279 B( 55-C , 95-H ) :   0.9325 B( 56-C , 57-C ) :   1.1586
B( 56-C , 65-C ) :   0.9679 B( 57-C , 58-C ) :   1.5320 B( 57-C , 63-C ) :   0.9990
B( 58-C , 59-C ) :   1.1442 B( 58-C , 61-C ) :   1.1742 B( 59-C , 60-N ) :   2.9596
B( 61-C , 62-N ) :   3.0012 B( 63-C , 64-C ) :   1.2829 B( 63-C , 70-C ) :   1.4254
B( 64-C , 65-C ) :   0.9075 B( 64-C , 67-C ) :   1.4343 B( 65-C , 66-O ) :   2.2577
B( 67-C , 68-C ) :   1.2315 B( 67-C , 96-H ) :   1.0170 B( 68-C , 69-C ) :   1.3252
B( 68-C , 73-C ) :   1.1578 B( 69-C , 70-C ) :   1.2981 B( 69-C , 71-S ) :   1.0791
B( 70-C , 97-H ) :   0.9859 B( 71-S , 72-C ) :   1.0896 B( 72-C , 73-C ) :   1.5999
B( 72-C , 74-Br) :   1.0267 B( 73-C , 98-H ) :   1.0048

-----------------------------------------------------------------------------
         ABSORPTION SPECTRUM VIA TRANSITION ELECTRIC DIPOLE MOMENTS
-----------------------------------------------------------------------------
State   Energy  Wavelength   fosc         T2         TX        TY        TZ
        (cm-1)    (nm)                  (au**2)     (au)      (au)      (au)
-----------------------------------------------------------------------------
   0   10082.5    991.8   0.853287396  27.86126   1.93335  -3.77702  -3.13967
   1   12468.3    802.0   0.297849479   7.86440  -1.08547  -1.47442  -2.12420
   2   14079.8    710.2   0.146487088   3.42514  -1.40484   1.19626  -0.14330
   3   18741.1    533.6   0.181659322   3.19108  -1.20501   1.21271  -0.51804
   4   20462.9    488.7   0.037387698   0.60150   0.53056  -0.56567  -0.00457
   5   21151.0    472.8   0.067726344   1.05415   0.06189  -0.95588   0.36960
   6   21527.2    464.5   0.208658967   3.19098  -1.06700  -0.50004  -1.34255
   7   22214.3    450.2   0.322081476   4.77320  -0.74220   1.04587  -1.76875
   8   23518.7    425.2   0.061373345   0.85910   0.25590   0.01457   0.89073
   9   23627.2    423.2   0.097077194   1.35264   0.42249  -1.08070  -0.07896
  10   23767.5    420.7   0.194270977   2.69092  -0.75948   1.00049  -1.05505
  11   24755.0    404.0   0.073676521   0.97981  -0.60427  -0.76310   0.17983
  12   25478.3    392.5   1.017398075  13.14609  -0.14571  -3.33234  -1.42140
  13   25887.5    386.3   0.075458119   0.95960   0.25276  -0.28676   0.90193
  14   25949.2    385.4   0.034128406   0.43298   0.59084  -0.17679   0.22943
  15   26563.6    376.5   0.114417031   1.41801  -0.18009  -0.98802  -0.63984
  16   27111.9    368.8   0.158501394   1.92464  -0.07353  -1.25644  -0.58360
  17   27382.8    365.2   0.009037756   0.10866   0.02527  -0.26199  -0.19844
  18   27604.4    362.3   0.176984850   2.11073   0.06860   1.34409   0.54722
  19   28240.8    354.1   0.123912102   1.44448  -0.15797   1.14953  -0.31323
  20   28646.9    349.1   0.090058295   1.03496   0.00721  -0.99817  -0.19636
  21   28710.9    348.3   0.011421335   0.13096  -0.12445   0.33226  -0.07125
  22   28903.0    346.0   0.040436908   0.46059  -0.12101  -0.26782  -0.61173
  23   29074.7    343.9   0.043532253   0.49292   0.14993  -0.64572  -0.23127
  24   29700.8    336.7   0.105052861   1.16444  -0.22643  -0.64594  -0.83422
  25   29948.3    333.9   0.013968264   0.15355  -0.37833   0.08823   0.05131
  26   30219.7    330.9   0.035516219   0.38691   0.15989  -0.18397  -0.57228
  27   30785.6    324.8   0.054360441   0.58132   0.33537  -0.65347   0.20449
  28   31129.4    321.2   0.051317978   0.54272  -0.35961  -0.50158  -0.40227
  29   31469.6    317.8   0.629401247   6.58434   0.13586   1.45376   2.11009
  30   31673.5    315.7   0.392023664   4.07466  -0.60243   0.36737  -1.89124
  31   31984.6    312.7   0.107699587   1.10853   0.00069   0.64364   0.83322
  32   32066.0    311.9   0.296236780   3.04137  -0.18486   1.44003   0.96619
  33   32171.1    310.8   0.012299368   0.12586  -0.10478  -0.25730  -0.22063
  34   32337.3    309.2   0.000435988   0.00444   0.03462   0.05096  -0.02536
  35   32434.6    308.3   0.155869241   1.58208   0.17138   1.09019   0.60348
  36   32774.4    305.1   0.020565898   0.20658  -0.06482  -0.15468  -0.42244
  37   33413.3    299.3   0.091675452   0.90325   0.32496  -0.46202  -0.76433
  38   33611.7    297.5   0.005562884   0.05449   0.09729  -0.12413  -0.17208
  39   33711.3    296.6   0.010270967   0.10030  -0.26779   0.12238  -0.11667
  40   33784.1    296.0   0.021449764   0.20902  -0.18127   0.33610  -0.25139
  41   33863.7    295.3   0.026859475   0.26112   0.01304  -0.16965  -0.48184
  42   33951.9    294.5   0.083682532   0.81142  -0.00083   0.62371   0.64993
  43   34221.6    292.2   0.042555311   0.40938  -0.20888   0.59640   0.10032
  44   34260.4    291.9   0.062437636   0.59997  -0.36952   0.65833  -0.17328
  45   34816.5    287.2   0.019807278   0.18729  -0.17345   0.30749  -0.25031
  46   34831.1    287.1   0.045196775   0.42719  -0.22587   0.49436   0.36301
  47   35164.7    284.4   0.080707414   0.75558   0.37562  -0.69063  -0.37083
  48   35535.0    281.4   0.005164219   0.04784   0.11032   0.08411  -0.16911
  49   35625.3    280.7   0.032766194   0.30279  -0.19104   0.43311  -0.28055
  50   35941.9    278.2   0.004485847   0.04109  -0.11854   0.03087  -0.16150
  51   36128.2    276.8   0.012845726   0.11705   0.08496  -0.30992  -0.11741
  52   36277.6    275.7   0.145734207   1.32251  -0.66813   0.48258  -0.80202
  53   36550.2    273.6   0.048683825   0.43850   0.18278   0.49100  -0.40499
  54   36581.1    273.4   0.038213207   0.34390  -0.01227   0.06373  -0.58283
  55   36953.7    270.6   0.009242062   0.08234  -0.10980   0.03412  -0.26290
  56   37015.1    270.2   0.132973255   1.18266  -0.37752  -0.03510  -1.01927
  57   37393.6    267.4   0.045131329   0.39733   0.21277  -0.47502   0.35555
  58   37980.9    263.3   0.002935892   0.02545  -0.04589   0.14983   0.02991
  59   38089.9    262.5   0.068318755   0.59048  -0.17805  -0.36923  -0.64996
  60   38289.7    261.2   0.005865223   0.05043  -0.03842  -0.04765  -0.21606
  61   38483.3    259.9   0.009937388   0.08501  -0.17327   0.06059  -0.22654
  62   38566.7    259.3   0.078511624   0.67019  -0.26490   0.35044  -0.69080
  63   38751.0    258.1   0.156453771   1.32917   0.41722  -0.14921   1.06434
  64   38795.1    257.8   0.077043821   0.65379   0.21430   0.12183   0.77008
  65   39047.0    256.1   0.013087285   0.11034  -0.30207   0.13078  -0.04465
  66   39296.6    254.5   0.009533443   0.07987   0.05748  -0.27646   0.01147
  67   39529.9    253.0   0.033438440   0.27848   0.19399  -0.48862   0.04586
  68   39602.9    252.5   0.015761372   0.13102  -0.26053   0.22358   0.11469
  69   39752.1    251.6   0.092942646   0.76972  -0.00859  -0.82352  -0.30241
  70   40028.0    249.8   0.154276804   1.26886   0.13620   0.26291   1.08682
  71   40205.2    248.7   0.040056180   0.32799   0.12098  -0.24078   0.50535
  72   40264.1    248.4   0.063466805   0.51892  -0.37945   0.11029  -0.60231

FINAL SINGLE POINT ENERGY    -10708.440861491401

DIPOLE MOMENT
-------------
                                X             Y             Z
Electronic contribution:     -8.13386    -145.91968    -110.86659
Nuclear contribution   :     10.10903     149.56175     111.26721
                        -----------------------------------------
Total Dipole Moment    :      1.97518       3.64207       0.40062
                        -----------------------------------------
Magnitude (a.u.)       :      4.16251
Magnitude (Debye)      :     10.58026

Rotational constants in cm-1:     0.001651     0.000247     0.000227
Rotational constants in MHz :    49.484794     7.390419     6.808113

                             ****ORCA TERMINATED NORMALLY****
TOTAL RUN TIME: 0 days 0 hours 13 minutes 23 seconds 495 msec
