                         Program Version 4.2.0 -  RELEASE  -
|  1> # ORCA input file
|  2> # SCF done       -186.263785419179          0.000456723159
|  3> ! CAM-B3LYP def2-SVP def2/J RIJCOSX Grid4 TightSCF
|  4> %maxcore 5000
|  5> %tddft
|  6>     Mode sTDDFT
|  7>     Ethresh 5.0
|  8>     maxcore 5000
|  9> end
| 10>
| 11> %pal
| 12>   nprocs 6
| 13>   end
| 14> * xyz 0 1
| 15>    C        1.02398         2.17478        -3.07173
| 16>    C       -0.06393         2.98916        -3.13971
| 17>    S       -1.50870         2.07969        -3.39240
| 18>    C       -0.63071         0.56729        -3.41043
| 19>   Cl       -1.42389        -0.91286        -3.62485
| 20>    C        0.70076         0.78908        -3.22544
| 21>    C        1.91909        -0.02497        -3.14389
| 22>    O        2.01049        -1.21992        -3.29754
| 23>    C        3.02046         0.96289        -2.91541
| 24>    C        2.45417         2.30366        -2.87784
| 25>    C        3.09718         3.49416        -2.65566
| 26>    C        2.38897         4.71454        -2.63466
| 27>    N        1.83317         5.71811        -2.61772
| 28>    C        4.47476         3.67169        -2.42037
| 29>    N        5.58263         3.89595        -2.21627
| 30>    C        4.35927         0.69489        -2.87814
| 31>    C        5.03261        -0.54777        -2.78174
| 32>    C        4.59648        -1.78088        -2.34234
| 33>    C        5.67935        -2.70578        -2.40528
| 34>    C        6.84631        -1.95205        -2.89047
| 35>    C        6.45647        -0.66631        -3.08686
| 36>    C        8.15741        -2.42861        -3.02453
| 37>    N        9.25146        -2.76665        -3.10750
| 38>    C        5.63913        -4.04689        -2.09137
| 39>    C        6.64121        -5.02064        -2.33129
| 40>    C        6.22292        -6.24358        -1.83277
| 41>    C        4.89787        -6.05039        -1.25360
| 42>    C        4.53183        -4.75360        -1.42179
| 43>    C        3.33154        -4.20461        -0.95256
| 44>    N        2.34675        -3.80252        -0.51997
| 45>    C        7.00251        -7.42376        -1.91696
| 46>    N        6.85932        -8.58105        -1.18960
| 47>    C        5.87999        -8.89253        -0.17485
| 48>    C        4.63961        -9.55073        -0.77489
| 49>    C        7.85077        -9.52610        -1.50286
| 50>    O        7.92999       -10.61486        -0.96770
| 51>    C        8.65340        -8.88695        -2.52041
| 52>    C        8.11558        -7.60449        -2.75078
| 53>    C        8.89269        -6.97799        -3.80430
| 54>    O        8.79737        -5.91510        -4.37299
| 55>    N        9.89182        -7.92915        -4.10645
| 56>    C       10.86488        -7.67385        -5.14125
| 57>    C       10.50882        -8.38651        -6.44343
| 58>    C        9.76270        -9.06906        -3.35851
| 59>    C       10.64067       -10.17430        -3.43871
| 60>    C       10.45846       -11.29718        -2.69104
| 61>    C       11.31500       -12.42395        -2.69442
| 62>    S       10.91036       -13.80195        -1.71114
| 63>    C       12.33437       -14.65931        -2.20002
| 64>    C       13.08512       -13.88298        -3.09581
| 65>    C       12.50575       -12.63886        -3.36768
| 66>    C       14.31122       -14.25837        -3.67360
| 67>    N       15.32313       -14.50285        -4.15595
| 68>    C       12.56687       -15.96233        -1.69959
| 69>    C       13.62139       -16.75116        -2.03315
| 70>    C       13.79543       -18.06004        -1.52784
| 71>    C       14.69679       -18.97638        -1.97742
| 72>    C       15.05597       -20.15030        -1.12153
| 73>    O       14.45853       -20.53703        -0.14649
| 74>    C       16.30239       -20.65556        -1.70900
| 75>    C       17.22883       -21.61327        -1.42188
| 76>    S       18.49842       -21.61706        -2.62323
| 77>    C       17.75714       -20.33077        -3.50456
| 78>    C       16.60794       -19.92299        -2.90442
| 79>    C       15.54641       -18.96426        -3.15393
| 80>    C       15.31634       -18.35184        -4.35776
| 81>    C       16.22880       -18.48139        -5.42686
| 82>    N       16.96988       -18.57960        -6.29667
| 83>    C       14.13893       -17.65784        -4.70234
| 84>    N       13.17446       -17.13903        -5.04617
| 85>   Cl       17.24335       -22.69622        -0.11983
| 86>    H       -0.12276         4.05662        -3.06290
| 87>    H        5.02817         1.54664        -2.93521
| 88>    H        3.60574        -2.03096        -2.02230
| 89>    H        7.07522         0.14736        -3.41862
| 90>    H        7.56699        -4.83175        -2.83748
| 91>    H        4.28153        -6.80422        -0.80462
| 92>    H        5.63299        -7.98522         0.37943
| 93>    H        6.36121        -9.59955         0.50788
| 94>    H        4.19399        -8.92750        -1.54741
| 95>    H        3.90268        -9.72952         0.00328
| 96>    H        4.91183       -10.50421        -1.22066
| 97>    H       11.85742        -7.97036        -4.79117
| 98>    H       10.85698        -6.59213        -5.30117
| 99>    H       10.46380        -9.46443        -6.30237
|100>    H       11.25584        -8.16306        -7.19973
|101>    H        9.54108        -8.04365        -6.80075
|102>    H       11.48017       -10.10158        -4.11403
|103>    H        9.60151       -11.35423        -2.03199
|104>    H       12.95505       -11.92359        -4.03312
|105>    H       11.80829       -16.35243        -1.03270
|106>    H       14.37685       -16.36680        -2.70068
|107>    H       13.21113       -18.35416        -0.66264
|108>    H       18.22695       -19.96257        -4.39491
|109> *
|110>
|111>                          ****END OF INPUT****

CARTESIAN COORDINATES (ANGSTROEM)
---------------------------------
  C      1.023980    2.174780   -3.071730
  C     -0.063930    2.989160   -3.139710
  S     -1.508700    2.079690   -3.392400
  C     -0.630710    0.567290   -3.410430
  Cl    -1.423890   -0.912860   -3.624850
  C      0.700760    0.789080   -3.225440
  C      1.919090   -0.024970   -3.143890
  O      2.010490   -1.219920   -3.297540
  C      3.020460    0.962890   -2.915410
  C      2.454170    2.303660   -2.877840
  C      3.097180    3.494160   -2.655660
  C      2.388970    4.714540   -2.634660
  N      1.833170    5.718110   -2.617720
  C      4.474760    3.671690   -2.420370
  N      5.582630    3.895950   -2.216270
  C      4.359270    0.694890   -2.878140
  C      5.032610   -0.547770   -2.781740
  C      4.596480   -1.780880   -2.342340
  C      5.679350   -2.705780   -2.405280
  C      6.846310   -1.952050   -2.890470
  C      6.456470   -0.666310   -3.086860
  C      8.157410   -2.428610   -3.024530
  N      9.251460   -2.766650   -3.107500
  C      5.639130   -4.046890   -2.091370
  C      6.641210   -5.020640   -2.331290
  C      6.222920   -6.243580   -1.832770
  C      4.897870   -6.050390   -1.253600
  C      4.531830   -4.753600   -1.421790
  C      3.331540   -4.204610   -0.952560
  N      2.346750   -3.802520   -0.519970
  C      7.002510   -7.423760   -1.916960
  N      6.859320   -8.581050   -1.189600
  C      5.879990   -8.892530   -0.174850
  C      4.639610   -9.550730   -0.774890
  C      7.850770   -9.526100   -1.502860
  O      7.929990  -10.614860   -0.967700
  C      8.653400   -8.886950   -2.520410
  C      8.115580   -7.604490   -2.750780
  C      8.892690   -6.977990   -3.804300
  O      8.797370   -5.915100   -4.372990
  N      9.891820   -7.929150   -4.106450
  C     10.864880   -7.673850   -5.141250
  C     10.508820   -8.386510   -6.443430
  C      9.762700   -9.069060   -3.358510
  C     10.640670  -10.174300   -3.438710
  C     10.458460  -11.297180   -2.691040
  C     11.315000  -12.423950   -2.694420
  S     10.910360  -13.801950   -1.711140
  C     12.334370  -14.659310   -2.200020
  C     13.085120  -13.882980   -3.095810
  C     12.505750  -12.638860   -3.367680
  C     14.311220  -14.258370   -3.673600
  N     15.323130  -14.502850   -4.155950
  C     12.566870  -15.962330   -1.699590
  C     13.621390  -16.751160   -2.033150
  C     13.795430  -18.060040   -1.527840
  C     14.696790  -18.976380   -1.977420
  C     15.055970  -20.150300   -1.121530
  O     14.458530  -20.537030   -0.146490
  C     16.302390  -20.655560   -1.709000
  C     17.228830  -21.613270   -1.421880
  S     18.498420  -21.617060   -2.623230
  C     17.757140  -20.330770   -3.504560
  C     16.607940  -19.922990   -2.904420
  C     15.546410  -18.964260   -3.153930
  C     15.316340  -18.351840   -4.357760
  C     16.228800  -18.481390   -5.426860
  N     16.969880  -18.579600   -6.296670
  C     14.138930  -17.657840   -4.702340
  N     13.174460  -17.139030   -5.046170
  Cl    17.243350  -22.696220   -0.119830
  H     -0.122760    4.056620   -3.062900
  H      5.028170    1.546640   -2.935210
  H      3.605740   -2.030960   -2.022300
  H      7.075220    0.147360   -3.418620
  H      7.566990   -4.831750   -2.837480
  H      4.281530   -6.804220   -0.804620
  H      5.632990   -7.985220    0.379430
  H      6.361210   -9.599550    0.507880
  H      4.193990   -8.927500   -1.547410
  H      3.902680   -9.729520    0.003280
  H      4.911830  -10.504210   -1.220660
  H     11.857420   -7.970360   -4.791170
  H     10.856980   -6.592130   -5.301170
  H     10.463800   -9.464430   -6.302370
  H     11.255840   -8.163060   -7.199730
  H      9.541080   -8.043650   -6.800750
  H     11.480170  -10.101580   -4.114030
  H      9.601510  -11.354230   -2.031990
  H     12.955050  -11.923590   -4.033120
  H     11.808290  -16.352430   -1.032700
  H     14.376850  -16.366800   -2.700680
  H     13.211130  -18.354160   -0.662640
  H     18.226950  -19.962570   -4.394910

 Total Charge           Charge          ....    0
 Multiplicity           Mult            ....    1
 Number of Electrons    NEL             ....  518
 Basis Dimension        Dim             .... 1129

ORBITAL ENERGIES
----------------

  NO   OCC          E(Eh)            E(eV)
   0   2.0000    -101.618888     -2765.1905
   1   2.0000    -101.616262     -2765.1191
   2   2.0000     -88.995530     -2421.6915
   3   2.0000     -88.994548     -2421.6648
   4   2.0000     -88.993503     -2421.6363
   5   2.0000     -19.222945      -523.0829
   6   2.0000     -19.222484      -523.0704
   7   2.0000     -19.210638      -522.7480
   8   2.0000     -19.205815      -522.6168
   9   2.0000     -14.470875      -393.7725
  10   2.0000     -14.470407      -393.7598
  11   2.0000     -14.425164      -392.5287
  12   2.0000     -14.423282      -392.4775
  13   2.0000     -14.421472      -392.4282
  14   2.0000     -14.420937      -392.4137
  15   2.0000     -14.420793      -392.4097
  16   2.0000     -14.414307      -392.2332
  17   2.0000     -14.403874      -391.9493
  18   2.0000     -10.392169      -282.7853
  19   2.0000     -10.388506      -282.6856
  20   2.0000     -10.380116      -282.4573
  21   2.0000     -10.378752      -282.4202
  22   2.0000     -10.377950      -282.3984
  23   2.0000     -10.375823      -282.3405
  24   2.0000     -10.362211      -281.9701
  25   2.0000     -10.355424      -281.7854
  26   2.0000     -10.353051      -281.7208
  27   2.0000     -10.351477      -281.6780
  28   2.0000     -10.350467      -281.6505
  29   2.0000     -10.349875      -281.6344
  30   2.0000     -10.349471      -281.6234
  31   2.0000     -10.339296      -281.3465
  32   2.0000     -10.338731      -281.3312
  33   2.0000     -10.332442      -281.1600
  34   2.0000     -10.330288      -281.1014
  35   2.0000     -10.329859      -281.0898
  36   2.0000     -10.327565      -281.0273
  37   2.0000     -10.326243      -280.9913
  38   2.0000     -10.326053      -280.9862
  39   2.0000     -10.325555      -280.9726
  40   2.0000     -10.325551      -280.9725
  41   2.0000     -10.324908      -280.9550
  42   2.0000     -10.323938      -280.9286
  43   2.0000     -10.323256      -280.9101
  44   2.0000     -10.322967      -280.9022
  45   2.0000     -10.322909      -280.9006
  46   2.0000     -10.322451      -280.8882
  47   2.0000     -10.321617      -280.8655
  48   2.0000     -10.320561      -280.8367
  49   2.0000     -10.320161      -280.8259
  50   2.0000     -10.319979      -280.8209
  51   2.0000     -10.319942      -280.8199
  52   2.0000     -10.315554      -280.7005
  53   2.0000     -10.315153      -280.6896
  54   2.0000     -10.314839      -280.6810
  55   2.0000     -10.312833      -280.6265
  56   2.0000     -10.312670      -280.6220
  57   2.0000     -10.312247      -280.6105
  58   2.0000     -10.310299      -280.5575
  59   2.0000     -10.310290      -280.5573
  60   2.0000     -10.309218      -280.5281
  61   2.0000     -10.306733      -280.4605
  62   2.0000     -10.305281      -280.4209
  63   2.0000     -10.302227      -280.3378
  64   2.0000     -10.299524      -280.2643
  65   2.0000     -10.298899      -280.2473
  66   2.0000     -10.290385      -280.0156
  67   2.0000     -10.284338      -279.8511
  68   2.0000     -10.278697      -279.6976
  69   2.0000     -10.275960      -279.6231
  70   2.0000     -10.274546      -279.5846
  71   2.0000      -9.573669      -260.5128
  72   2.0000      -9.571035      -260.4411
  73   2.0000      -8.091190      -220.1725
  74   2.0000      -8.090275      -220.1476
  75   2.0000      -8.089241      -220.1194
  76   2.0000      -7.344273      -199.8478
  77   2.0000      -7.341692      -199.7776
  78   2.0000      -7.333726      -199.5608
  79   2.0000      -7.333186      -199.5461
  80   2.0000      -7.331060      -199.4883
  81   2.0000      -7.330518      -199.4735
  82   2.0000      -6.060216      -164.9069
  83   2.0000      -6.059659      -164.8917
  84   2.0000      -6.058612      -164.8632
  85   2.0000      -6.056156      -164.7964
  86   2.0000      -6.055053      -164.7664
  87   2.0000      -6.054003      -164.7378
  88   2.0000      -6.053636      -164.7278
  89   2.0000      -6.052518      -164.6974
  90   2.0000      -6.051500      -164.6697
  91   2.0000      -1.151982       -31.3470
  92   2.0000      -1.144496       -31.1433
  93   2.0000      -1.140560       -31.0362
  94   2.0000      -1.139206       -30.9994
  95   2.0000      -1.081820       -29.4378
  96   2.0000      -1.072714       -29.1900
  97   2.0000      -1.039894       -28.2970
  98   2.0000      -1.038492       -28.2588
  99   2.0000      -1.032381       -28.0925
 100   2.0000      -1.022229       -27.8163
 101   2.0000      -1.019069       -27.7303
 102   2.0000      -1.018630       -27.7183
 103   2.0000      -1.004651       -27.3380
 104   2.0000      -1.003738       -27.3131
 105   2.0000      -1.000477       -27.2244
 106   2.0000      -0.999443       -27.1962
 107   2.0000      -0.990431       -26.9510
 108   2.0000      -0.989774       -26.9331
 109   2.0000      -0.988585       -26.9008
 110   2.0000      -0.981094       -26.6969
 111   2.0000      -0.959183       -26.1007
 112   2.0000      -0.954689       -25.9784
 113   2.0000      -0.947820       -25.7915
 114   2.0000      -0.942802       -25.6550
 115   2.0000      -0.926569       -25.2132
 116   2.0000      -0.912648       -24.8344
 117   2.0000      -0.908225       -24.7141
 118   2.0000      -0.901252       -24.5243
 119   2.0000      -0.894447       -24.3391
 120   2.0000      -0.888406       -24.1748
 121   2.0000      -0.882920       -24.0255
 122   2.0000      -0.879357       -23.9285
 123   2.0000      -0.862786       -23.4776
 124   2.0000      -0.846620       -23.0377
 125   2.0000      -0.843438       -22.9511
 126   2.0000      -0.835098       -22.7242
 127   2.0000      -0.834183       -22.6993
 128   2.0000      -0.833039       -22.6681
 129   2.0000      -0.821732       -22.3605
 130   2.0000      -0.807794       -21.9812
 131   2.0000      -0.792370       -21.5615
 132   2.0000      -0.781551       -21.2671
 133   2.0000      -0.774443       -21.0737
 134   2.0000      -0.768213       -20.9041
 135   2.0000      -0.759474       -20.6663
 136   2.0000      -0.755779       -20.5658
 137   2.0000      -0.743300       -20.2262
 138   2.0000      -0.729008       -19.8373
 139   2.0000      -0.725150       -19.7323
 140   2.0000      -0.722794       -19.6682
 141   2.0000      -0.709839       -19.3157
 142   2.0000      -0.703611       -19.1462
 143   2.0000      -0.701267       -19.0824
 144   2.0000      -0.694902       -18.9093
 145   2.0000      -0.692623       -18.8472
 146   2.0000      -0.680059       -18.5053
 147   2.0000      -0.678096       -18.4519
 148   2.0000      -0.677741       -18.4423
 149   2.0000      -0.674077       -18.3426
 150   2.0000      -0.665847       -18.1186
 151   2.0000      -0.653561       -17.7843
 152   2.0000      -0.649827       -17.6827
 153   2.0000      -0.643540       -17.5116
 154   2.0000      -0.637437       -17.3455
 155   2.0000      -0.634842       -17.2749
 156   2.0000      -0.622559       -16.9407
 157   2.0000      -0.616153       -16.7664
 158   2.0000      -0.611898       -16.6506
 159   2.0000      -0.609266       -16.5790
 160   2.0000      -0.606148       -16.4941
 161   2.0000      -0.603542       -16.4232
 162   2.0000      -0.594174       -16.1683
 163   2.0000      -0.580008       -15.7828
 164   2.0000      -0.578467       -15.7409
 165   2.0000      -0.575885       -15.6706
 166   2.0000      -0.568276       -15.4636
 167   2.0000      -0.565613       -15.3911
 168   2.0000      -0.563473       -15.3329
 169   2.0000      -0.558183       -15.1889
 170   2.0000      -0.555161       -15.1067
 171   2.0000      -0.551663       -15.0115
 172   2.0000      -0.550020       -14.9668
 173   2.0000      -0.548514       -14.9258
 174   2.0000      -0.542671       -14.7668
 175   2.0000      -0.541635       -14.7386
 176   2.0000      -0.538005       -14.6399
 177   2.0000      -0.534076       -14.5329
 178   2.0000      -0.533582       -14.5195
 179   2.0000      -0.532114       -14.4795
 180   2.0000      -0.531506       -14.4630
 181   2.0000      -0.529969       -14.4212
 182   2.0000      -0.525603       -14.3024
 183   2.0000      -0.524409       -14.2699
 184   2.0000      -0.523976       -14.2581
 185   2.0000      -0.521897       -14.2015
 186   2.0000      -0.514980       -14.0133
 187   2.0000      -0.513815       -13.9816
 188   2.0000      -0.512524       -13.9465
 189   2.0000      -0.507441       -13.8082
 190   2.0000      -0.507121       -13.7995
 191   2.0000      -0.504929       -13.7398
 192   2.0000      -0.500443       -13.6177
 193   2.0000      -0.496588       -13.5128
 194   2.0000      -0.495666       -13.4877
 195   2.0000      -0.493442       -13.4272
 196   2.0000      -0.493361       -13.4250
 197   2.0000      -0.490446       -13.3457
 198   2.0000      -0.488957       -13.3052
 199   2.0000      -0.487224       -13.2580
 200   2.0000      -0.484720       -13.1899
 201   2.0000      -0.483470       -13.1559
 202   2.0000      -0.479094       -13.0368
 203   2.0000      -0.477706       -12.9990
 204   2.0000      -0.474042       -12.8993
 205   2.0000      -0.471405       -12.8276
 206   2.0000      -0.468865       -12.7585
 207   2.0000      -0.466760       -12.7012
 208   2.0000      -0.463352       -12.6085
 209   2.0000      -0.458910       -12.4876
 210   2.0000      -0.457266       -12.4428
 211   2.0000      -0.455699       -12.4002
 212   2.0000      -0.455196       -12.3865
 213   2.0000      -0.454425       -12.3655
 214   2.0000      -0.451794       -12.2939
 215   2.0000      -0.451232       -12.2786
 216   2.0000      -0.449226       -12.2241
 217   2.0000      -0.448432       -12.2024
 218   2.0000      -0.447850       -12.1866
 219   2.0000      -0.447299       -12.1716
 220   2.0000      -0.445097       -12.1117
 221   2.0000      -0.442858       -12.0508
 222   2.0000      -0.442575       -12.0431
 223   2.0000      -0.441312       -12.0087
 224   2.0000      -0.436608       -11.8807
 225   2.0000      -0.435846       -11.8600
 226   2.0000      -0.433870       -11.8062
 227   2.0000      -0.433097       -11.7852
 228   2.0000      -0.432339       -11.7645
 229   2.0000      -0.431569       -11.7436
 230   2.0000      -0.428613       -11.6632
 231   2.0000      -0.421597       -11.4722
 232   2.0000      -0.421010       -11.4563
 233   2.0000      -0.417789       -11.3686
 234   2.0000      -0.417349       -11.3566
 235   2.0000      -0.414472       -11.2783
 236   2.0000      -0.409946       -11.1552
 237   2.0000      -0.407280       -11.0826
 238   2.0000      -0.404697       -11.0124
 239   2.0000      -0.402390       -10.9496
 240   2.0000      -0.398759       -10.8508
 241   2.0000      -0.384061       -10.4508
 242   2.0000      -0.372933       -10.1480
 243   2.0000      -0.364700        -9.9240
 244   2.0000      -0.355560        -9.6753
 245   2.0000      -0.349408        -9.5079
 246   2.0000      -0.348523        -9.4838
 247   2.0000      -0.346449        -9.4274
 248   2.0000      -0.345140        -9.3917
 249   2.0000      -0.339858        -9.2480
 250   2.0000      -0.334806        -9.1105
 251   2.0000      -0.333198        -9.0668
 252   2.0000      -0.332561        -9.0495
 253   2.0000      -0.321360        -8.7447
 254   2.0000      -0.315287        -8.5794
 255   2.0000      -0.314971        -8.5708
 256   2.0000      -0.295014        -8.0278
 257   2.0000      -0.291092        -7.9210
 258   2.0000      -0.248089        -6.7508
 259   0.0000      -0.145089        -3.9481
 260   0.0000      -0.114536        -3.1167
 261   0.0000      -0.085982        -2.3397
 262   0.0000      -0.077907        -2.1200
 263   0.0000      -0.055983        -1.5234

MULLIKEN ATOMIC CHARGES
-----------------------
   0 C :    0.030800
   1 C :   -0.130500
   2 S :    0.187378
   3 C :   -0.169531
   4 Cl:    0.003434
   5 C :    0.077064
   6 C :    0.151560
   7 O :   -0.126764
   8 C :   -0.079165
   9 C :    0.293302
  10 C :   -0.333350
  11 C :   -0.195793
  12 N :    0.156559
  13 C :   -0.183598
  14 N :    0.161507
  15 C :   -0.026294
  16 C :    0.087237
  17 C :   -0.057721
  18 C :    0.077320
  19 C :   -0.076991
  20 C :   -0.007906
  21 C :   -0.185172
  22 N :    0.148702
  23 C :    0.138516
  24 C :   -0.118248
  25 C :    0.048238
  26 C :   -0.033727
  27 C :   -0.086005
  28 C :   -0.178656
  29 N :    0.149448
  30 C :    0.154854
  31 N :   -0.258682
  32 C :    0.098716
  33 C :    0.002135
  34 C :    0.166679
  35 O :   -0.218677
  36 C :   -0.077340
  37 C :   -0.051438
  38 C :    0.157845
  39 O :   -0.169047
  40 N :   -0.260008
  41 C :    0.093206
  42 C :    0.001118
  43 C :    0.156280
  44 C :   -0.030852
  45 C :    0.091981
  46 C :   -0.079262
  47 S :    0.199658
  48 C :   -0.058913
  49 C :   -0.051908
  50 C :    0.016061
  51 C :   -0.155513
  52 N :    0.121837
  53 C :    0.054067
  54 C :    0.007120
  55 C :    0.021753
  56 C :   -0.115051
  57 C :    0.140653
  58 O :   -0.126359
  59 C :    0.084028
  60 C :   -0.173865
  61 S :    0.186030
  62 C :   -0.124752
  63 C :    0.021066
  64 C :    0.263578
  65 C :   -0.298997
  66 C :   -0.180125
  67 N :    0.156681
  68 C :   -0.199798
  69 N :    0.163414
  70 Cl:    0.000799
  71 H :    0.055614
  72 H :    0.013498
  73 H :    0.026380
  74 H :    0.008846
  75 H :    0.027785
  76 H :   -0.009476
  77 H :    0.027304
  78 H :    0.043349
  79 H :    0.021823
  80 H :    0.028723
  81 H :    0.034502
  82 H :    0.025792
  83 H :    0.056991
  84 H :    0.016324
  85 H :    0.031276
  86 H :    0.032174
  87 H :   -0.022400
  88 H :    0.013453
  89 H :    0.005109
  90 H :    0.002256
  91 H :    0.035075
  92 H :    0.020268
  93 H :    0.054721
Sum of atomic charges:   -0.0000000

LOEWDIN ATOMIC CHARGES
----------------------
   0 C :   -0.060174
   1 C :   -0.148846
   2 S :    0.476805
   3 C :   -0.271137
   4 Cl:    0.195209
   5 C :   -0.116273
   6 C :    0.082608
   7 O :   -0.121178
   8 C :   -0.074273
   9 C :    0.073916
  10 C :   -0.135263
  11 C :   -0.014854
  12 N :   -0.050345
  13 C :   -0.024655
  14 N :   -0.045317
  15 C :    0.067862
  16 C :   -0.041006
  17 C :    0.040363
  18 C :    0.032943
  19 C :   -0.086043
  20 C :    0.058393
  21 C :   -0.034738
  22 N :   -0.052529
  23 C :    0.047773
  24 C :    0.002800
  25 C :   -0.024656
  26 C :    0.044706
  27 C :   -0.071519
  28 C :   -0.033944
  29 N :   -0.050428
  30 C :    0.064215
  31 N :    0.003938
  32 C :    0.036536
  33 C :   -0.062175
  34 C :    0.078594
  35 O :   -0.205931
  36 C :   -0.124364
  37 C :   -0.093121
  38 C :    0.086857
  39 O :   -0.160208
  40 N :    0.003023
  41 C :    0.037119
  42 C :   -0.060368
  43 C :    0.091077
  44 C :   -0.044153
  45 C :    0.021156
  46 C :   -0.168652
  47 S :    0.501352
  48 C :   -0.139631
  49 C :   -0.087301
  50 C :   -0.005576
  51 C :   -0.022568
  52 N :   -0.046941
  53 C :   -0.003867
  54 C :   -0.007120
  55 C :    0.061658
  56 C :   -0.074891
  57 C :    0.079306
  58 O :   -0.132083
  59 C :   -0.118701
  60 C :   -0.272541
  61 S :    0.475240
  62 C :   -0.150338
  63 C :   -0.056405
  64 C :    0.066567
  65 C :   -0.124382
  66 C :   -0.012872
  67 N :   -0.044432
  68 C :   -0.019716
  69 N :   -0.046819
  70 Cl:    0.192433
  71 H :    0.037892
  72 H :    0.047464
  73 H :    0.036594
  74 H :    0.040705
  75 H :    0.038642
  76 H :    0.036597
  77 H :    0.024640
  78 H :    0.038770
  79 H :    0.021476
  80 H :    0.033198
  81 H :    0.035283
  82 H :    0.024083
  83 H :    0.043184
  84 H :    0.021762
  85 H :    0.033951
  86 H :    0.033590
  87 H :    0.030407
  88 H :    0.038459
  89 H :    0.041593
  90 H :    0.037822
  91 H :    0.038966
  92 H :    0.046533
  93 H :    0.038271

  Mayer bond orders larger than 0.100000
B(  0-C ,  1-C ) :   1.5428 B(  0-C ,  5-C ) :   1.2220 B(  0-C ,  9-C ) :   0.9971
B(  1-C ,  2-S ) :   1.1628 B(  1-C , 71-H ) :   0.9539 B(  2-S ,  3-C ) :   1.1501
B(  3-C ,  4-Cl) :   1.1312 B(  3-C ,  5-C ) :   1.4775 B(  5-C ,  6-C ) :   0.9496
B(  6-C ,  7-O ) :   2.2259 B(  6-C ,  8-C ) :   0.9246 B(  8-C ,  9-C ) :   1.0731
B(  8-C , 15-C ) :   1.6054 B(  9-C , 10-C ) :   1.6440 B( 10-C , 11-C ) :   1.1507
B( 10-C , 13-C ) :   1.1371 B( 11-C , 12-N ) :   2.9887 B( 13-C , 14-N ) :   2.9734
B( 15-C , 16-C ) :   1.1318 B( 15-C , 72-H ) :   0.9393 B( 16-C , 17-C ) :   1.5234
B( 16-C , 20-C ) :   1.0296 B( 17-C , 18-C ) :   1.1188 B( 17-C , 73-H ) :   0.9869
B( 18-C , 19-C ) :   1.1141 B( 18-C , 23-C ) :   1.3831 B( 19-C , 20-C ) :   1.6581
B( 19-C , 21-C ) :   1.0850 B( 20-C , 74-H ) :   1.0239 B( 21-C , 22-N ) :   2.9915
B( 23-C , 24-C ) :   1.1340 B( 23-C , 27-C ) :   1.0905 B( 24-C , 25-C ) :   1.5306
B( 24-C , 75-H ) :   0.9898 B( 25-C , 26-C ) :   1.0122 B( 25-C , 30-C ) :   1.0661
B( 26-C , 27-C ) :   1.6861 B( 26-C , 76-H ) :   1.0236 B( 27-C , 28-C ) :   1.0797
B( 28-C , 29-N ) :   2.9771 B( 30-C , 31-N ) :   1.1876 B( 30-C , 37-C ) :   1.3540
B( 31-N , 32-C ) :   0.9398 B( 31-N , 34-C ) :   1.0638 B( 32-C , 33-C ) :   1.1194
B( 32-C , 77-H ) :   0.9499 B( 32-C , 78-H ) :   0.9264 B( 33-C , 79-H ) :   0.9652
B( 33-C , 80-H ) :   0.9683 B( 33-C , 81-H ) :   0.9597 B( 34-C , 35-O ) :   2.0006
B( 34-C , 36-C ) :   0.9972 B( 35-O , 88-H ) :   0.1232 B( 36-C , 37-C ) :   1.2764
B( 36-C , 43-C ) :   1.2804 B( 37-C , 38-C ) :   0.9611 B( 38-C , 39-O ) :   2.0993
B( 38-C , 40-N ) :   1.0326 B( 40-N , 41-C ) :   0.9398 B( 40-N , 43-C ) :   1.1835
B( 41-C , 42-C ) :   1.1202 B( 41-C , 82-H ) :   0.9498 B( 41-C , 83-H ) :   0.9278
B( 42-C , 84-H ) :   0.9685 B( 42-C , 85-H ) :   0.9682 B( 42-C , 86-H ) :   0.9636
B( 43-C , 44-C ) :   1.1839 B( 44-C , 45-C ) :   1.6044 B( 44-C , 87-H ) :   0.9630
B( 45-C , 46-C ) :   1.1324 B( 45-C , 88-H ) :   0.9293 B( 46-C , 47-S ) :   1.1366
B( 46-C , 50-C ) :   1.4331 B( 47-S , 48-C ) :   1.1498 B( 48-C , 49-C ) :   1.4145
B( 48-C , 53-C ) :   1.1431 B( 49-C , 50-C ) :   1.3418 B( 49-C , 51-C ) :   1.1148
B( 50-C , 89-H ) :   0.9984 B( 51-C , 52-N ) :   2.9476 B( 53-C , 54-C ) :   1.6657
B( 53-C , 90-H ) :   0.9580 B( 54-C , 55-C ) :   1.1307 B( 54-C , 91-H ) :   0.9409
B( 55-C , 56-C ) :   1.6330 B( 55-C , 92-H ) :   0.9631 B( 56-C , 57-C ) :   0.9344
B( 56-C , 64-C ) :   1.0385 B( 57-C , 58-O ) :   2.2821 B( 57-C , 59-C ) :   0.9270
B( 59-C , 60-C ) :   1.4829 B( 59-C , 63-C ) :   1.2211 B( 60-C , 61-S ) :   1.1536
B( 60-C , 70-Cl) :   1.1294 B( 61-S , 62-C ) :   1.1566 B( 62-C , 63-C ) :   1.5566
B( 62-C , 93-H ) :   0.9550 B( 63-C , 64-C ) :   1.0100 B( 64-C , 65-C ) :   1.6641
B( 65-C , 66-C ) :   1.1363 B( 65-C , 68-C ) :   1.1565 B( 66-C , 67-N ) :   2.9983
B( 68-C , 69-N ) :   2.9840

-----------------------------------------------------------------------------
         ABSORPTION SPECTRUM VIA TRANSITION ELECTRIC DIPOLE MOMENTS
-----------------------------------------------------------------------------
State   Energy  Wavelength   fosc         T2         TX        TY        TZ
        (cm-1)    (nm)                  (au**2)     (au)      (au)      (au)
-----------------------------------------------------------------------------
   0    7635.7   1309.6   0.614170169  26.47969  -2.62225   4.42221   0.21799
   1   14962.5    668.3   0.030759461   0.67679   0.06958  -0.78116   0.24845
   2   16124.0    620.2   0.603237462  12.31664   2.20965  -2.68500  -0.47418
   3   18931.5    528.2   0.037504869   0.65220   0.58113  -0.52904  -0.18603
   4   20833.0    480.0   0.568961753   8.99097  -1.31544   2.69003  -0.15588
   5   22064.6    453.2   0.027130659   0.40480  -0.48152   0.36107   0.20632
   6   22331.8    447.8   0.109337352   1.61183   0.23731   1.19948  -0.34172
   7   22883.4    437.0   0.039745100   0.57179  -0.33687   0.67698  -0.00289
   8   23218.7    430.7   0.000392542   0.00557  -0.02293   0.05522   0.04462
   9   24097.2    415.0   0.180188246   2.46170  -0.87672   1.25822  -0.33158
  10   24871.1    402.1   0.137508853   1.82017   0.71627  -1.07975  -0.37587
  11   24916.4    401.3   0.099207510   1.31079   0.42557  -1.03761  -0.23034
  12   25223.8    396.5   0.123654726   1.61390  -0.13445  -1.14599   0.53153
  13   26116.5    382.9   0.142038213   1.79046   0.89095  -0.98877   0.13785
  14   27609.4    362.2   0.163586615   1.95059  -0.64239   1.19750  -0.32236
  15   27638.1    361.8   0.118055287   1.40622   0.36592  -1.03716   0.44342
  16   28122.3    355.6   0.088159997   1.03204   0.36410  -0.94838  -0.00616
  17   29363.8    340.6   0.002412029   0.02704   0.03037  -0.11712   0.11137
  18   29950.8    333.9   0.224754556   2.47045   0.18759  -1.26592   0.91252
  19   30386.4    329.1   0.123126049   1.33397   0.29365  -0.87982   0.68823
  20   30606.1    326.7   0.038370630   0.41273   0.23381  -0.59538  -0.05994
  21   30845.1    324.2   0.039057223   0.41686  -0.62041  -0.11258  -0.13882
  22   31024.8    322.3   0.002249962   0.02387   0.11285  -0.00054   0.10555
  23   31402.9    318.4   0.169403820   1.77594  -0.48699   0.98472  -0.75440
  24   31572.7    316.7   0.041043519   0.42797   0.02729  -0.48672   0.43626
  25   32319.2    309.4   0.019575516   0.19940  -0.32692   0.29146   0.08703
  26   32892.7    304.0   0.004828974   0.04833  -0.07276  -0.18487  -0.09413
  27   32995.9    303.1   0.047526446   0.47419   0.12386  -0.66192   0.14392
  28   33442.6    299.0   0.171302220   1.68631  -1.22332  -0.24477   0.36039
  29   33513.0    298.4   0.053511435   0.52566  -0.60011  -0.28193  -0.29334
  30   33718.6    296.6   0.025881783   0.25270   0.07649  -0.42835   0.25171
  31   33805.7    295.8   0.031603254   0.30776  -0.14326   0.52708  -0.09709
  32   34023.4    293.9   0.075457710   0.73013   0.60214  -0.55598   0.24177
  33   34558.2    289.4   0.003519324   0.03353  -0.08100  -0.16098   0.03243
  34   35385.2    282.6   0.110735679   1.03025   1.00853   0.09896  -0.05767
  35   35426.2    282.3   0.077181421   0.71724   0.35685  -0.35637   0.68036
  36   35630.2    280.7   0.026032034   0.24053   0.22129   0.16219  -0.40651
  37   35820.5    279.2   0.058591259   0.53849   0.51785   0.50899   0.10604
  38   35972.3    278.0   0.055552455   0.50841  -0.56451   0.42677   0.08721
  39   36246.8    275.9   0.015053366   0.13672  -0.19234   0.31358  -0.03736
  40   36645.8    272.9   0.129771472   1.16582  -0.72855   0.66997  -0.43147
  41   36682.7    272.6   0.077095804   0.69190  -0.48502   0.66221  -0.13465
  42   36900.2    271.0   0.088903557   0.79317  -0.30173  -0.44386   0.71072
  43   37147.2    269.2   0.047176435   0.41809  -0.56680   0.31075  -0.01621
  44   37343.1    267.8   0.024736760   0.21808   0.21704  -0.13400   0.39117
  45   37627.5    265.8   0.018594577   0.16269   0.05137  -0.39344  -0.07248
  46   37845.4    264.2   0.077084977   0.67055  -0.78174   0.03704  -0.24094
  47   37946.6    263.5   0.022127552   0.19197   0.17033  -0.38764   0.11268
  48   38024.0    263.0   0.155717669   1.34820   0.39746  -1.03125   0.35602
  49   38070.0    262.7   0.085525433   0.73958   0.67101   0.36191   0.39793
  50   38221.6    261.6   0.190822020   1.64360  -0.81004   0.76889  -0.62947
  51   38701.3    258.4   0.321651434   2.73612   1.20028   1.10592   0.26905
  52   38881.4    257.2   0.037158522   0.31462   0.29752   0.46547   0.09720
  53   39157.4    255.4   0.026484197   0.22266   0.45392   0.06268   0.11265
  54   39595.7    252.6   0.000515170   0.00428   0.00691  -0.05855   0.02841
  55   39753.3    251.6   0.088415535   0.73220  -0.35858   0.77065  -0.09858
  56   39909.7    250.6   0.024945145   0.20577  -0.17205   0.40505  -0.11000

FINAL SINGLE POINT ENERGY     -4937.695540506925

DIPOLE MOMENT
-------------
                                X             Y             Z
Electronic contribution:     -1.36668     -12.01191       7.16611
Nuclear contribution   :      0.91596       9.61536      -6.56247
                        -----------------------------------------
Total Dipole Moment    :     -0.45072      -2.39654       0.60364
                        -----------------------------------------
Magnitude (a.u.)       :      2.51216
Magnitude (Debye)      :      6.38540

Rotational constants in cm-1:     0.003259     0.000164     0.000161
Rotational constants in MHz :    97.692760     4.923828     4.814438

                             ****ORCA TERMINATED NORMALLY****
TOTAL RUN TIME: 0 days 0 hours 10 minutes 45 seconds 103 msec
