                         Program Version 4.2.0 -  RELEASE  -
|  1> # ORCA input file
|  2> # SCF done       -187.243293736023          0.000700863702
|  3> ! CAM-B3LYP def2-SVP def2/J RIJCOSX Grid4 TightSCF
|  4> %maxcore 5000
|  5> %tddft
|  6>     Mode sTDDFT
|  7>     Ethresh 5.0
|  8>     maxcore 5000
|  9> end
| 10>
| 11> %pal
| 12>   nprocs 6
| 13>   end
| 14> * xyz 0 1
| 15>    C        2.54633         0.66431        -0.23688
| 16>    C        3.19651         0.51969         0.95882
| 17>    C        3.93954        -0.62659         1.31453
| 18>    N        4.55497        -1.53268         1.65711
| 19>    C        3.26627         1.50408         1.96937
| 20>    N        3.40289         2.26085         2.82088
| 21>    C        2.56466        -0.28631        -1.34096
| 22>    C        1.94904         0.32275        -2.47223
| 23>    C        1.82428        -0.33081        -3.66497
| 24>    C        2.31275        -1.65104        -3.78078
| 25>    C        2.92449        -2.26981        -2.65166
| 26>    C        3.04375        -1.56658        -1.43091
| 27>    C        3.40431        -3.58931        -2.77800
| 28>    C        3.28638        -4.26663        -3.96130
| 29>    C        2.68386        -3.65670        -5.07191
| 30>    C        2.20814        -2.37642        -4.98397
| 31>    C        1.51342         1.68451        -2.12652
| 32>    O        1.02839         2.50241        -2.87651
| 33>    C        1.78576         1.82723        -0.66709
| 34>    C        1.23450         2.75788         0.16504
| 35>    C        0.42759         3.86110        -0.16208
| 36>    C        0.24688         4.66193        -1.24088
| 37>    C       -0.73678         5.68041        -1.10199
| 38>    C       -1.38747         5.76712         0.09338
| 39>    S       -0.66717         4.46988         1.14797
| 40>    O       -1.64020         3.46515         1.48350
| 41>    O        0.09978         5.03672         2.21931
| 42>    C       -2.41903         6.67885         0.39281
| 43>    N       -3.11795         6.80112         1.56331
| 44>    C       -2.93565         6.09958         2.81548
| 45>    C       -1.95506         6.83259         3.72656
| 46>    C       -4.10053         7.81521         1.48496
| 47>    O       -4.85044         8.10265         2.38981
| 48>    C       -3.96695         8.33705         0.14172
| 49>    C       -2.93907         7.63163        -0.50446
| 50>    C       -2.82071         8.17413        -1.84247
| 51>    O       -2.08229         7.89883        -2.76617
| 52>    N       -3.79542         9.18976        -1.90845
| 53>    C       -3.99528         9.89925        -3.15183
| 54>    C       -5.23301         9.40814        -3.89777
| 55>    C       -4.49674         9.29609        -0.73057
| 56>    C       -5.54919        10.15852        -0.35315
| 57>    C       -6.13184        11.17754        -1.04879
| 58>    C       -7.19666        11.95874        -0.57095
| 59>    C       -7.91943        11.98284         0.57831
| 60>    C       -8.99695        12.91604         0.62848
| 61>    C       -9.19714        13.67180        -0.47901
| 62>    S       -7.89052        13.22929        -1.66082
| 63>    O       -6.96106        14.30574        -1.84916
| 64>    O       -8.44293        12.62284        -2.84072
| 65>    C      -10.11782        14.66102        -0.86681
| 66>    C      -11.42075        14.79266        -0.48435
| 67>    C      -12.34889        15.79349        -0.98540
| 68>    C      -12.01332        17.00334        -1.53012
| 69>    C      -12.95762        17.95251        -1.97631
| 70>    N      -13.68190        18.75645        -2.35872
| 71>    C      -10.69347        17.48952        -1.65787
| 72>    N       -9.65565        17.96758        -1.76205
| 73>    C      -13.69945        15.31694        -0.71863
| 74>    C      -13.61306        14.11976         0.04925
| 75>    C      -12.20047        13.79046         0.29683
| 76>    O      -11.77474        12.88491         0.97963
| 77>    C      -14.72717        13.44256         0.45592
| 78>    C      -16.00174        13.93744         0.10091
| 79>    C      -16.09607        15.13066        -0.67313
| 80>    C      -14.92519        15.81306        -1.07600
| 81>    C      -17.37330        15.61177        -1.02582
| 82>    C      -18.50407        14.94819        -0.63353
| 83>    C      -18.41013        13.77412         0.12877
| 84>    C      -17.18571        13.27983         0.48888
| 85>    H        1.35576         0.15373        -4.50866
| 86>    H        3.50510        -2.06404        -0.59265
| 87>    H        3.86871        -4.05428        -1.92094
| 88>    H        3.65699        -5.27688        -4.04800
| 89>    H        2.59813        -4.20641        -5.99714
| 90>    H        1.74323        -1.90159        -5.83544
| 91>    H        1.33550         2.61321         1.23593
| 92>    H        0.79980         4.56017        -2.16030
| 93>    H       -0.94484         6.34667        -1.92807
| 94>    H       -2.60350         5.08063         2.62677
| 95>    H       -3.92186         6.07522         3.28925
| 96>    H       -0.95329         6.81120         3.30620
| 97>    H       -1.92905         6.33946         4.69355
| 98>    H       -2.27227         7.86355         3.86760
| 99>    H       -3.10483         9.69184        -3.75324
|100>    H       -4.03996        10.97373        -2.96136
|101>    H       -5.12416         8.35349        -4.13958
|102>    H       -5.34596         9.96626        -4.82269
|103>    H       -6.13489         9.53669        -3.30420
|104>    H       -5.91121         9.95116         0.64603
|105>    H       -5.80646        11.45076        -2.04053
|106>    H       -7.71911        11.34832         1.42744
|107>    H       -9.59648        13.00314         1.51970
|108>    H       -9.73621        15.32124        -1.63907
|109>    H      -14.63641        12.53829         1.03918
|110>    H      -15.02800        16.70942        -1.66685
|111>    H      -17.44072        16.51668        -1.61150
|112>    H      -19.47775        15.32460        -0.90879
|113>    H      -19.31261        13.26317         0.42891
|114>    H      -17.10716        12.37631         1.07550
|115> *
|116>
|117>                          ****END OF INPUT****

CARTESIAN COORDINATES (ANGSTROEM)
---------------------------------
  C      2.546330    0.664310   -0.236880
  C      3.196510    0.519690    0.958820
  C      3.939540   -0.626590    1.314530
  N      4.554970   -1.532680    1.657110
  C      3.266270    1.504080    1.969370
  N      3.402890    2.260850    2.820880
  C      2.564660   -0.286310   -1.340960
  C      1.949040    0.322750   -2.472230
  C      1.824280   -0.330810   -3.664970
  C      2.312750   -1.651040   -3.780780
  C      2.924490   -2.269810   -2.651660
  C      3.043750   -1.566580   -1.430910
  C      3.404310   -3.589310   -2.778000
  C      3.286380   -4.266630   -3.961300
  C      2.683860   -3.656700   -5.071910
  C      2.208140   -2.376420   -4.983970
  C      1.513420    1.684510   -2.126520
  O      1.028390    2.502410   -2.876510
  C      1.785760    1.827230   -0.667090
  C      1.234500    2.757880    0.165040
  C      0.427590    3.861100   -0.162080
  C      0.246880    4.661930   -1.240880
  C     -0.736780    5.680410   -1.101990
  C     -1.387470    5.767120    0.093380
  S     -0.667170    4.469880    1.147970
  O     -1.640200    3.465150    1.483500
  O      0.099780    5.036720    2.219310
  C     -2.419030    6.678850    0.392810
  N     -3.117950    6.801120    1.563310
  C     -2.935650    6.099580    2.815480
  C     -1.955060    6.832590    3.726560
  C     -4.100530    7.815210    1.484960
  O     -4.850440    8.102650    2.389810
  C     -3.966950    8.337050    0.141720
  C     -2.939070    7.631630   -0.504460
  C     -2.820710    8.174130   -1.842470
  O     -2.082290    7.898830   -2.766170
  N     -3.795420    9.189760   -1.908450
  C     -3.995280    9.899250   -3.151830
  C     -5.233010    9.408140   -3.897770
  C     -4.496740    9.296090   -0.730570
  C     -5.549190   10.158520   -0.353150
  C     -6.131840   11.177540   -1.048790
  C     -7.196660   11.958740   -0.570950
  C     -7.919430   11.982840    0.578310
  C     -8.996950   12.916040    0.628480
  C     -9.197140   13.671800   -0.479010
  S     -7.890520   13.229290   -1.660820
  O     -6.961060   14.305740   -1.849160
  O     -8.442930   12.622840   -2.840720
  C    -10.117820   14.661020   -0.866810
  C    -11.420750   14.792660   -0.484350
  C    -12.348890   15.793490   -0.985400
  C    -12.013320   17.003340   -1.530120
  C    -12.957620   17.952510   -1.976310
  N    -13.681900   18.756450   -2.358720
  C    -10.693470   17.489520   -1.657870
  N     -9.655650   17.967580   -1.762050
  C    -13.699450   15.316940   -0.718630
  C    -13.613060   14.119760    0.049250
  C    -12.200470   13.790460    0.296830
  O    -11.774740   12.884910    0.979630
  C    -14.727170   13.442560    0.455920
  C    -16.001740   13.937440    0.100910
  C    -16.096070   15.130660   -0.673130
  C    -14.925190   15.813060   -1.076000
  C    -17.373300   15.611770   -1.025820
  C    -18.504070   14.948190   -0.633530
  C    -18.410130   13.774120    0.128770
  C    -17.185710   13.279830    0.488880
  H      1.355760    0.153730   -4.508660
  H      3.505100   -2.064040   -0.592650
  H      3.868710   -4.054280   -1.920940
  H      3.656990   -5.276880   -4.048000
  H      2.598130   -4.206410   -5.997140
  H      1.743230   -1.901590   -5.835440
  H      1.335500    2.613210    1.235930
  H      0.799800    4.560170   -2.160300
  H     -0.944840    6.346670   -1.928070
  H     -2.603500    5.080630    2.626770
  H     -3.921860    6.075220    3.289250
  H     -0.953290    6.811200    3.306200
  H     -1.929050    6.339460    4.693550
  H     -2.272270    7.863550    3.867600
  H     -3.104830    9.691840   -3.753240
  H     -4.039960   10.973730   -2.961360
  H     -5.124160    8.353490   -4.139580
  H     -5.345960    9.966260   -4.822690
  H     -6.134890    9.536690   -3.304200
  H     -5.911210    9.951160    0.646030
  H     -5.806460   11.450760   -2.040530
  H     -7.719110   11.348320    1.427440
  H     -9.596480   13.003140    1.519700
  H     -9.736210   15.321240   -1.639070
  H    -14.636410   12.538290    1.039180
  H    -15.028000   16.709420   -1.666850
  H    -17.440720   16.516680   -1.611500
  H    -19.477750   15.324600   -0.908790
  H    -19.312610   13.263170    0.428910
  H    -17.107160   12.376310    1.075500

 Total Charge           Charge          ....    0
 Multiplicity           Mult            ....    1
 Number of Electrons    NEL             ....  492
 Basis Dimension        Dim             .... 1138

ORBITAL ENERGIES
----------------

  NO   OCC          E(Eh)            E(eV)
   0   2.0000     -89.165081     -2426.3052
   1   2.0000     -89.149060     -2425.8693
   2   2.0000     -19.233492      -523.3699
   3   2.0000     -19.227672      -523.2116
   4   2.0000     -19.221700      -523.0490
   5   2.0000     -19.220909      -523.0275
   6   2.0000     -19.213324      -522.8211
   7   2.0000     -19.209538      -522.7181
   8   2.0000     -19.209337      -522.7126
   9   2.0000     -19.208063      -522.6780
  10   2.0000     -14.472386      -393.8136
  11   2.0000     -14.472058      -393.8047
  12   2.0000     -14.424396      -392.5078
  13   2.0000     -14.422619      -392.4594
  14   2.0000     -14.419792      -392.3825
  15   2.0000     -14.417526      -392.3208
  16   2.0000     -10.395388      -282.8729
  17   2.0000     -10.391538      -282.7681
  18   2.0000     -10.383730      -282.5557
  19   2.0000     -10.378149      -282.4038
  20   2.0000     -10.373693      -282.2825
  21   2.0000     -10.358833      -281.8782
  22   2.0000     -10.355238      -281.7804
  23   2.0000     -10.350971      -281.6642
  24   2.0000     -10.349440      -281.6226
  25   2.0000     -10.345680      -281.5203
  26   2.0000     -10.340325      -281.3745
  27   2.0000     -10.338715      -281.3307
  28   2.0000     -10.333697      -281.1942
  29   2.0000     -10.332578      -281.1637
  30   2.0000     -10.329506      -281.0801
  31   2.0000     -10.327853      -281.0352
  32   2.0000     -10.326167      -280.9893
  33   2.0000     -10.324950      -280.9562
  34   2.0000     -10.323870      -280.9268
  35   2.0000     -10.323643      -280.9206
  36   2.0000     -10.322602      -280.8923
  37   2.0000     -10.321963      -280.8749
  38   2.0000     -10.321848      -280.8718
  39   2.0000     -10.320756      -280.8420
  40   2.0000     -10.319850      -280.8174
  41   2.0000     -10.319699      -280.8133
  42   2.0000     -10.318912      -280.7919
  43   2.0000     -10.317969      -280.7662
  44   2.0000     -10.314254      -280.6651
  45   2.0000     -10.312908      -280.6285
  46   2.0000     -10.308563      -280.5102
  47   2.0000     -10.306810      -280.4626
  48   2.0000     -10.306403      -280.4515
  49   2.0000     -10.306127      -280.4440
  50   2.0000     -10.305781      -280.4346
  51   2.0000     -10.303558      -280.3741
  52   2.0000     -10.302869      -280.3553
  53   2.0000     -10.302703      -280.3508
  54   2.0000     -10.302453      -280.3440
  55   2.0000     -10.301786      -280.3259
  56   2.0000     -10.299301      -280.2582
  57   2.0000     -10.295206      -280.1468
  58   2.0000     -10.294193      -280.1192
  59   2.0000     -10.293711      -280.1061
  60   2.0000     -10.293350      -280.0963
  61   2.0000     -10.292838      -280.0824
  62   2.0000     -10.290933      -280.0305
  63   2.0000     -10.290473      -280.0180
  64   2.0000     -10.290172      -280.0098
  65   2.0000     -10.289589      -279.9939
  66   2.0000     -10.287395      -279.9343
  67   2.0000     -10.285533      -279.8836
  68   2.0000     -10.269736      -279.4537
  69   2.0000     -10.249774      -278.9105
  70   2.0000      -8.230802      -223.9715
  71   2.0000      -8.215736      -223.5615
  72   2.0000      -6.199761      -168.7041
  73   2.0000      -6.199549      -168.6983
  74   2.0000      -6.198731      -168.6760
  75   2.0000      -6.184577      -168.2909
  76   2.0000      -6.184374      -168.2854
  77   2.0000      -6.183704      -168.2671
  78   2.0000      -1.226531       -33.3756
  79   2.0000      -1.213300       -33.0156
  80   2.0000      -1.153875       -31.3985
  81   2.0000      -1.148546       -31.2535
  82   2.0000      -1.146491       -31.1976
  83   2.0000      -1.142670       -31.0936
  84   2.0000      -1.104569       -30.0569
  85   2.0000      -1.090846       -29.6834
  86   2.0000      -1.083258       -29.4769
  87   2.0000      -1.073741       -29.2180
  88   2.0000      -1.027903       -27.9707
  89   2.0000      -1.022902       -27.8346
  90   2.0000      -1.007996       -27.4290
  91   2.0000      -1.003390       -27.3036
  92   2.0000      -1.001601       -27.2550
  93   2.0000      -0.997997       -27.1569
  94   2.0000      -0.996864       -27.1260
  95   2.0000      -0.992626       -27.0107
  96   2.0000      -0.980771       -26.6881
  97   2.0000      -0.976680       -26.5768
  98   2.0000      -0.945480       -25.7278
  99   2.0000      -0.940469       -25.5915
 100   2.0000      -0.937378       -25.5074
 101   2.0000      -0.927813       -25.2471
 102   2.0000      -0.924666       -25.1614
 103   2.0000      -0.909890       -24.7594
 104   2.0000      -0.900583       -24.5061
 105   2.0000      -0.890118       -24.2213
 106   2.0000      -0.889040       -24.1920
 107   2.0000      -0.885623       -24.0990
 108   2.0000      -0.881541       -23.9880
 109   2.0000      -0.868062       -23.6212
 110   2.0000      -0.855306       -23.2741
 111   2.0000      -0.837006       -22.7761
 112   2.0000      -0.833279       -22.6747
 113   2.0000      -0.832349       -22.6494
 114   2.0000      -0.826628       -22.4937
 115   2.0000      -0.825237       -22.4558
 116   2.0000      -0.804057       -21.8795
 117   2.0000      -0.794041       -21.6070
 118   2.0000      -0.787336       -21.4245
 119   2.0000      -0.778597       -21.1867
 120   2.0000      -0.772241       -21.0137
 121   2.0000      -0.767394       -20.8818
 122   2.0000      -0.766365       -20.8539
 123   2.0000      -0.735864       -20.0239
 124   2.0000      -0.731941       -19.9171
 125   2.0000      -0.727333       -19.7917
 126   2.0000      -0.717873       -19.5343
 127   2.0000      -0.713774       -19.4228
 128   2.0000      -0.709910       -19.3176
 129   2.0000      -0.708783       -19.2870
 130   2.0000      -0.704535       -19.1714
 131   2.0000      -0.702892       -19.1267
 132   2.0000      -0.689579       -18.7644
 133   2.0000      -0.683273       -18.5928
 134   2.0000      -0.681453       -18.5433
 135   2.0000      -0.674628       -18.3576
 136   2.0000      -0.670097       -18.2343
 137   2.0000      -0.658532       -17.9196
 138   2.0000      -0.652182       -17.7468
 139   2.0000      -0.644426       -17.5357
 140   2.0000      -0.640844       -17.4383
 141   2.0000      -0.635710       -17.2986
 142   2.0000      -0.630554       -17.1583
 143   2.0000      -0.619027       -16.8446
 144   2.0000      -0.615707       -16.7542
 145   2.0000      -0.614273       -16.7152
 146   2.0000      -0.613788       -16.7020
 147   2.0000      -0.611710       -16.6455
 148   2.0000      -0.607535       -16.5319
 149   2.0000      -0.597624       -16.2622
 150   2.0000      -0.586224       -15.9520
 151   2.0000      -0.582428       -15.8487
 152   2.0000      -0.581430       -15.8215
 153   2.0000      -0.579075       -15.7574
 154   2.0000      -0.570823       -15.5329
 155   2.0000      -0.568798       -15.4778
 156   2.0000      -0.559596       -15.2274
 157   2.0000      -0.559279       -15.2187
 158   2.0000      -0.556179       -15.1344
 159   2.0000      -0.553442       -15.0599
 160   2.0000      -0.552967       -15.0470
 161   2.0000      -0.552208       -15.0264
 162   2.0000      -0.550323       -14.9751
 163   2.0000      -0.548409       -14.9230
 164   2.0000      -0.546883       -14.8814
 165   2.0000      -0.546338       -14.8666
 166   2.0000      -0.543867       -14.7994
 167   2.0000      -0.540461       -14.7067
 168   2.0000      -0.536443       -14.5973
 169   2.0000      -0.535699       -14.5771
 170   2.0000      -0.535123       -14.5614
 171   2.0000      -0.533791       -14.5252
 172   2.0000      -0.529202       -14.4003
 173   2.0000      -0.528153       -14.3718
 174   2.0000      -0.525883       -14.3100
 175   2.0000      -0.525023       -14.2866
 176   2.0000      -0.520633       -14.1671
 177   2.0000      -0.519554       -14.1378
 178   2.0000      -0.517706       -14.0875
 179   2.0000      -0.517050       -14.0696
 180   2.0000      -0.513595       -13.9756
 181   2.0000      -0.508545       -13.8382
 182   2.0000      -0.507234       -13.8025
 183   2.0000      -0.506912       -13.7938
 184   2.0000      -0.503273       -13.6948
 185   2.0000      -0.502689       -13.6789
 186   2.0000      -0.498524       -13.5655
 187   2.0000      -0.496545       -13.5117
 188   2.0000      -0.492166       -13.3925
 189   2.0000      -0.486949       -13.2506
 190   2.0000      -0.485988       -13.2244
 191   2.0000      -0.478604       -13.0235
 192   2.0000      -0.478183       -13.0120
 193   2.0000      -0.474637       -12.9155
 194   2.0000      -0.472898       -12.8682
 195   2.0000      -0.470652       -12.8071
 196   2.0000      -0.470068       -12.7912
 197   2.0000      -0.462306       -12.5800
 198   2.0000      -0.455953       -12.4071
 199   2.0000      -0.454671       -12.3722
 200   2.0000      -0.454023       -12.3546
 201   2.0000      -0.451735       -12.2923
 202   2.0000      -0.450363       -12.2550
 203   2.0000      -0.448556       -12.2058
 204   2.0000      -0.446769       -12.1572
 205   2.0000      -0.446355       -12.1459
 206   2.0000      -0.444570       -12.0974
 207   2.0000      -0.442374       -12.0376
 208   2.0000      -0.441484       -12.0134
 209   2.0000      -0.439301       -11.9540
 210   2.0000      -0.437524       -11.9056
 211   2.0000      -0.436145       -11.8681
 212   2.0000      -0.433871       -11.8062
 213   2.0000      -0.432093       -11.7578
 214   2.0000      -0.430206       -11.7065
 215   2.0000      -0.428552       -11.6615
 216   2.0000      -0.427362       -11.6291
 217   2.0000      -0.423374       -11.5206
 218   2.0000      -0.418884       -11.3984
 219   2.0000      -0.417070       -11.3490
 220   2.0000      -0.413428       -11.2500
 221   2.0000      -0.412142       -11.2150
 222   2.0000      -0.408443       -11.1143
 223   2.0000      -0.406182       -11.0528
 224   2.0000      -0.403764       -10.9870
 225   2.0000      -0.389608       -10.6018
 226   2.0000      -0.388775       -10.5791
 227   2.0000      -0.386775       -10.5247
 228   2.0000      -0.381978       -10.3941
 229   2.0000      -0.380778       -10.3615
 230   2.0000      -0.376668       -10.2497
 231   2.0000      -0.371003       -10.0955
 232   2.0000      -0.367593       -10.0027
 233   2.0000      -0.366303        -9.9676
 234   2.0000      -0.355308        -9.6684
 235   2.0000      -0.354413        -9.6441
 236   2.0000      -0.350926        -9.5492
 237   2.0000      -0.346673        -9.4335
 238   2.0000      -0.333827        -9.0839
 239   2.0000      -0.327553        -8.9132
 240   2.0000      -0.322530        -8.7765
 241   2.0000      -0.319881        -8.7044
 242   2.0000      -0.307266        -8.3611
 243   2.0000      -0.300934        -8.1888
 244   2.0000      -0.295308        -8.0357
 245   2.0000      -0.253377        -6.8947
 246   0.0000      -0.139831        -3.8050
 247   0.0000      -0.111789        -3.0419
 248   0.0000      -0.083239        -2.2650
 249   0.0000      -0.070338        -1.9140
 250   0.0000      -0.062864        -1.7106

MULLIKEN ATOMIC CHARGES
-----------------------
   0 C :    0.294625
   1 C :   -0.330275
   2 C :   -0.180671
   3 N :    0.156087
   4 C :   -0.204048
   5 N :    0.183985
   6 C :    0.055087
   7 C :   -0.007599
   8 C :   -0.076720
   9 C :    0.098733
  10 C :    0.096575
  11 C :   -0.083482
  12 C :   -0.017827
  13 C :    0.039320
  14 C :    0.037327
  15 C :   -0.015172
  16 C :    0.158820
  17 O :   -0.148270
  18 C :   -0.072654
  19 C :    0.044920
  20 C :   -0.064366
  21 C :    0.076729
  22 C :   -0.003434
  23 C :   -0.098155
  24 S :    0.770718
  25 O :   -0.430238
  26 O :   -0.421951
  27 C :    0.214221
  28 N :   -0.261185
  29 C :    0.075759
  30 C :    0.011556
  31 C :    0.154463
  32 O :   -0.178883
  33 C :   -0.030434
  34 C :   -0.088306
  35 C :    0.166198
  36 O :   -0.202157
  37 N :   -0.263410
  38 C :    0.089435
  39 C :   -0.000683
  40 C :    0.119656
  41 C :   -0.024904
  42 C :    0.096601
  43 C :   -0.038494
  44 C :   -0.003410
  45 C :    0.077239
  46 C :   -0.083201
  47 S :    0.750257
  48 O :   -0.436988
  49 O :   -0.448906
  50 C :    0.049221
  51 C :   -0.082496
  52 C :    0.292946
  53 C :   -0.327639
  54 C :   -0.181831
  55 N :    0.154686
  56 C :   -0.207046
  57 N :    0.178204
  58 C :    0.052552
  59 C :   -0.010612
  60 C :    0.158256
  61 O :   -0.152574
  62 C :   -0.073253
  63 C :    0.094934
  64 C :    0.094485
  65 C :   -0.077561
  66 C :   -0.017272
  67 C :    0.037511
  68 C :    0.036775
  69 C :   -0.014378
  70 H :   -0.010603
  71 H :   -0.004716
  72 H :   -0.007383
  73 H :   -0.001820
  74 H :   -0.001925
  75 H :   -0.015371
  76 H :    0.040277
  77 H :    0.033575
  78 H :    0.027436
  79 H :    0.038864
  80 H :    0.036798
  81 H :    0.032370
  82 H :    0.025584
  83 H :    0.017021
  84 H :    0.048950
  85 H :    0.038735
  86 H :    0.026036
  87 H :    0.034035
  88 H :    0.028190
  89 H :    0.014765
  90 H :    0.000136
  91 H :    0.019822
  92 H :    0.028865
  93 H :    0.041505
  94 H :   -0.012366
  95 H :   -0.005947
  96 H :   -0.007271
  97 H :   -0.003100
  98 H :   -0.003390
  99 H :   -0.016462
Sum of atomic charges:   -0.0000000

LOEWDIN ATOMIC CHARGES
----------------------
   0 C :    0.069416
   1 C :   -0.122862
   2 C :   -0.016015
   3 N :   -0.043043
   4 C :   -0.029919
   5 N :   -0.029888
   6 C :   -0.025364
   7 C :   -0.057863
   8 C :    0.036054
   9 C :   -0.007650
  10 C :   -0.004162
  11 C :    0.021396
  12 C :   -0.004343
  13 C :   -0.009651
  14 C :   -0.009649
  15 C :   -0.008046
  16 C :    0.087378
  17 O :   -0.133697
  18 C :   -0.056997
  19 C :    0.041540
  20 C :   -0.151728
  21 C :    0.030873
  22 C :    0.020558
  23 C :   -0.163722
  24 S :    1.172440
  25 O :   -0.479813
  26 O :   -0.465450
  27 C :    0.072505
  28 N :    0.008218
  29 C :    0.027356
  30 C :   -0.062469
  31 C :    0.083611
  32 O :   -0.177353
  33 C :   -0.095867
  34 C :   -0.110424
  35 C :    0.086189
  36 O :   -0.186909
  37 N :    0.002383
  38 C :    0.035736
  39 C :   -0.060908
  40 C :    0.070035
  41 C :    0.004067
  42 C :   -0.022383
  43 C :   -0.135495
  44 C :   -0.017940
  45 C :    0.036843
  46 C :   -0.169952
  47 S :    1.167270
  48 O :   -0.481802
  49 O :   -0.492999
  50 C :    0.046413
  51 C :   -0.066253
  52 C :    0.070701
  53 C :   -0.126557
  54 C :   -0.016460
  55 N :   -0.046134
  56 C :   -0.029456
  57 N :   -0.033750
  58 C :   -0.024988
  59 C :   -0.056927
  60 C :    0.086832
  61 O :   -0.137545
  62 C :    0.034505
  63 C :   -0.008077
  64 C :   -0.004777
  65 C :    0.020895
  66 C :   -0.004737
  67 C :   -0.010877
  68 C :   -0.010722
  69 C :   -0.008719
  70 H :    0.039966
  71 H :    0.039948
  72 H :    0.035587
  73 H :    0.034614
  74 H :    0.034128
  75 H :    0.032730
  76 H :    0.050250
  77 H :    0.047553
  78 H :    0.044985
  79 H :    0.014715
  80 H :    0.036967
  81 H :    0.021597
  82 H :    0.034008
  83 H :    0.024378
  84 H :    0.039617
  85 H :    0.025682
  86 H :    0.031693
  87 H :    0.036472
  88 H :    0.024384
  89 H :    0.049013
  90 H :    0.034888
  91 H :    0.043510
  92 H :    0.045370
  93 H :    0.050895
  94 H :    0.039265
  95 H :    0.039671
  96 H :    0.035462
  97 H :    0.033956
  98 H :    0.033555
  99 H :    0.032263

  Mayer bond orders larger than 0.100000
B(  0-C ,  1-C ) :   1.6624 B(  0-C ,  6-C ) :   0.9940 B(  0-C , 18-C ) :   1.0465
B(  1-C ,  2-C ) :   1.1451 B(  1-C ,  4-C ) :   1.1316 B(  2-C ,  3-N ) :   2.9697
B(  4-C ,  5-N ) :   3.0043 B(  6-C ,  7-C ) :   1.2108 B(  6-C , 11-C ) :   1.4504
B(  7-C ,  8-C ) :   1.4675 B(  7-C , 16-C ) :   0.9520 B(  8-C ,  9-C ) :   1.1846
B(  8-C , 70-H ) :   1.0158 B(  9-C , 10-C ) :   1.2533 B(  9-C , 15-C ) :   1.2433
B( 10-C , 11-C ) :   1.2080 B( 10-C , 12-C ) :   1.2415 B( 11-C , 71-H ) :   0.9906
B( 12-C , 13-C ) :   1.4894 B( 12-C , 72-H ) :   0.9971 B( 13-C , 14-C ) :   1.2601
B( 13-C , 73-H ) :   0.9882 B( 14-C , 15-C ) :   1.4897 B( 14-C , 74-H ) :   0.9885
B( 15-C , 75-H ) :   0.9979 B( 16-C , 17-O ) :   2.2013 B( 16-C , 18-C ) :   0.9315
B( 18-C , 19-C ) :   1.6475 B( 19-C , 20-C ) :   1.1723 B( 19-C , 76-H ) :   0.9201
B( 20-C , 21-C ) :   1.6144 B( 20-C , 24-S ) :   0.8086 B( 21-C , 22-C ) :   1.1043
B( 21-C , 77-H ) :   0.9865 B( 22-C , 23-C ) :   1.6179 B( 22-C , 78-H ) :   0.9557
B( 23-C , 24-S ) :   0.7529 B( 23-C , 27-C ) :   1.2145 B( 24-S , 25-O ) :   1.6879
B( 24-S , 26-O ) :   1.7034 B( 27-C , 28-N ) :   1.2226 B( 27-C , 34-C ) :   1.3144
B( 28-N , 29-C ) :   0.9192 B( 28-N , 31-C ) :   1.0301 B( 29-C , 30-C ) :   1.1188
B( 29-C , 79-H ) :   0.9242 B( 29-C , 80-H ) :   0.9246 B( 30-C , 81-H ) :   0.9565
B( 30-C , 82-H ) :   0.9668 B( 30-C , 83-H ) :   0.9631 B( 31-C , 32-O ) :   2.1330
B( 31-C , 33-C ) :   0.9669 B( 33-C , 34-C ) :   1.2781 B( 33-C , 40-C ) :   1.3130
B( 34-C , 35-C ) :   0.9796 B( 35-C , 36-O ) :   2.0217 B( 35-C , 37-N ) :   1.0692
B( 36-O , 78-H ) :   0.1109 B( 37-N , 38-C ) :   0.9312 B( 37-N , 40-C ) :   1.1672
B( 38-C , 39-C ) :   1.1183 B( 38-C , 84-H ) :   0.9237 B( 38-C , 85-H ) :   0.9509
B( 39-C , 86-H ) :   0.9613 B( 39-C , 87-H ) :   0.9677 B( 39-C , 88-H ) :   0.9681
B( 40-C , 41-C ) :   1.2188 B( 41-C , 42-C ) :   1.5567 B( 41-C , 89-H ) :   0.9469
B( 42-C , 43-C ) :   1.1704 B( 42-C , 90-H ) :   0.9517 B( 43-C , 44-C ) :   1.6086
B( 43-C , 47-S ) :   0.7979 B( 44-C , 45-C ) :   1.1240 B( 44-C , 91-H ) :   0.9926
B( 45-C , 46-C ) :   1.6241 B( 45-C , 92-H ) :   0.9843 B( 46-C , 47-S ) :   0.8000
B( 46-C , 50-C ) :   1.1666 B( 47-S , 48-O ) :   1.7190 B( 47-S , 49-O ) :   1.7219
B( 50-C , 51-C ) :   1.6450 B( 50-C , 93-H ) :   0.9258 B( 51-C , 52-C ) :   1.0462
B( 51-C , 60-C ) :   0.9364 B( 52-C , 53-C ) :   1.6608 B( 52-C , 58-C ) :   0.9947
B( 53-C , 54-C ) :   1.1428 B( 53-C , 56-C ) :   1.1329 B( 54-C , 55-N ) :   2.9715
B( 56-C , 57-N ) :   3.0062 B( 58-C , 59-C ) :   1.2108 B( 58-C , 65-C ) :   1.4523
B( 59-C , 60-C ) :   0.9505 B( 59-C , 62-C ) :   1.4707 B( 60-C , 61-O ) :   2.2024
B( 62-C , 63-C ) :   1.1840 B( 62-C , 94-H ) :   1.0150 B( 63-C , 64-C ) :   1.2544
B( 63-C , 69-C ) :   1.2449 B( 64-C , 65-C ) :   1.2076 B( 64-C , 66-C ) :   1.2397
B( 65-C , 95-H ) :   0.9905 B( 66-C , 67-C ) :   1.4890 B( 66-C , 96-H ) :   0.9974
B( 67-C , 68-C ) :   1.2600 B( 67-C , 97-H ) :   0.9890 B( 68-C , 69-C ) :   1.4883
B( 68-C , 98-H ) :   0.9891 B( 69-C , 99-H ) :   0.9975

-----------------------------------------------------------------------------
         ABSORPTION SPECTRUM VIA TRANSITION ELECTRIC DIPOLE MOMENTS
-----------------------------------------------------------------------------
State   Energy  Wavelength   fosc         T2         TX        TY        TZ
        (cm-1)    (nm)                  (au**2)     (au)      (au)      (au)
-----------------------------------------------------------------------------
   0   10446.4    957.3   1.199071156  37.78800   4.13924  -4.50367   0.60960
   1   17113.2    584.3   0.098657389   1.89790   1.20469  -0.62552   0.23528
   2   21043.4    475.2   0.257595814   4.02994   1.56663  -1.24291  -0.17551
   3   21549.1    464.1   0.132474855   2.02386  -1.06972   0.92886  -0.12951
   4   23120.2    432.5   0.175824005   2.50358   1.15336  -1.00993  -0.39167
   5   23373.7    427.8   0.037024332   0.52148  -0.62620  -0.35911  -0.01975
   6   23500.8    425.5   0.150264923   2.10499  -1.06050   0.95127   0.27460
   7   24317.6    411.2   0.032649894   0.44201   0.41470  -0.25396  -0.45337
   8   25577.9    391.0   0.001982896   0.02552   0.14843  -0.03229  -0.04948
   9   25883.6    386.3   0.251664583   3.20090  -1.37102   1.04165   0.48599
  10   26219.9    381.4   0.095766028   1.20242   0.42442  -0.98022  -0.24790
  11   26277.1    380.6   0.031697031   0.39712  -0.17066  -0.41770  -0.43991
  12   27008.3    370.3   0.013883772   0.16923  -0.29909   0.10906   0.26055
  13   27794.8    359.8   0.111614973   1.32201   0.12866   0.95745   0.62350
  14   28653.8    349.0   0.006748979   0.07754   0.14373  -0.16062  -0.17630
  15   28838.1    346.8   0.171591929   1.95887  -0.81415  -0.03249   1.13797
  16   29125.0    343.3   0.030256394   0.34200  -0.56580   0.11031  -0.09852
  17   29601.2    337.8   0.018755943   0.20860   0.01057  -0.45634   0.01548
  18   30280.8    330.2   0.049123309   0.53407   0.54642   0.30056  -0.38099
  19   30712.5    325.6   0.202332686   2.16883   1.42903   0.34827   0.07365
  20   30870.5    323.9   0.161673932   1.72414  -0.05509   0.80634   1.03485
  21   31115.9    321.4   0.093634782   0.99067  -0.06968  -0.66511  -0.73719
  22   31815.0    314.3   0.055717063   0.57654  -0.18399   0.38076   0.63064
  23   31971.4    312.8   0.110496598   1.13779  -0.80869  -0.67870  -0.15222
  24   32514.4    307.6   0.054741510   0.55426  -0.48567   0.28067   0.48950
  25   33121.6    301.9   0.027586092   0.27419  -0.49103   0.12541   0.13173
  26   33695.4    296.8   0.033456830   0.32688   0.41542   0.32039  -0.22728
  27   34059.9    293.6   0.083461811   0.80672   0.14794  -0.61356  -0.63904
  28   34197.3    292.4   0.144720377   1.39320  -0.77874  -0.33083   0.82299
  29   34457.2    290.2   0.057127262   0.54581   0.05549  -0.67199  -0.30193
  30   34607.4    289.0   0.085858139   0.81675  -0.41692  -0.61744  -0.51156
  31   34775.1    287.6   0.023687952   0.22425   0.09360  -0.14972   0.43940
  32   35028.2    285.5   0.078607942   0.73879   0.13767   0.28823   0.79798
  33   35156.9    284.4   0.081342453   0.76170   0.65197   0.52420  -0.24869
  34   35451.8    282.1   0.308466310   2.86447   1.34263   0.99723  -0.25955
  35   35797.0    279.4   0.014585382   0.13414   0.21023   0.05528   0.29476
  36   36117.9    276.9   0.106218700   0.96818  -0.33100  -0.34409  -0.86036
  37   36286.2    275.6   0.082602182   0.74942   0.77923  -0.37215   0.06106
  38   36913.7    270.9   0.251744199   2.24516   0.28645   0.58157   1.35088
  39   37255.3    268.4   0.032912378   0.29084  -0.52565  -0.02438   0.11805
  40   37394.6    267.4   0.078938874   0.69496   0.50617  -0.63704   0.18147
  41   37930.6    263.6   0.037322756   0.32394   0.17831   0.00389   0.54049
  42   38109.8    262.4   0.015246746   0.13171  -0.24095  -0.15725  -0.22118
  43   38305.9    261.1   0.013977944   0.12013  -0.25064   0.23852  -0.02050
  44   38807.9    257.7   0.259809848   2.20400   0.18785  -1.36234   0.55923
  45   39252.7    254.8   0.074085943   0.62136   0.35780  -0.66410   0.22873
  46   39571.3    252.7   0.028546844   0.23749   0.04185  -0.26317   0.40802
  47   39622.0    252.4   0.121402432   1.00871   0.36233   0.38057  -0.85592
  48   39678.1    252.0   0.191351775   1.58766   1.14481  -0.46466   0.24730
  49   39889.5    250.7   0.015527015   0.12815   0.17251  -0.07872   0.30363
  50   40150.6    249.1   0.033887812   0.27786  -0.47161  -0.12744  -0.19801

FINAL SINGLE POINT ENERGY     -3798.234942592481

DIPOLE MOMENT
-------------
                                X             Y             Z
Electronic contribution:      9.90874      10.81675       6.06541
Nuclear contribution   :    -11.93694     -13.96514      -7.69535
                        -----------------------------------------
Total Dipole Moment    :     -2.02820      -3.14839      -1.62994
                        -----------------------------------------
Magnitude (a.u.)       :      4.08444
Magnitude (Debye)      :     10.38183

Rotational constants in cm-1:     0.002515     0.000213     0.000212
Rotational constants in MHz :    75.399010     6.384925     6.342285

                             ****ORCA TERMINATED NORMALLY****
TOTAL RUN TIME: 0 days 0 hours 9 minutes 34 seconds 689 msec
