                         Program Version 4.2.0 -  RELEASE  -
|  1> # ORCA input file
|  2> # SCF done       -211.794089916252          0.000694508260
|  3> ! CAM-B3LYP def2-SVP def2/J RIJCOSX Grid4 TightSCF
|  4> %maxcore 5000
|  5> %tddft
|  6>     Mode sTDDFT
|  7>     Ethresh 5.0
|  8>     maxcore 5000
|  9> end
| 10>
| 11> %pal
| 12>   nprocs 6
| 13>   end
| 14> * xyz 0 1
| 15>    C       -4.52635        -2.28314        -5.86357
| 16>    C       -3.25965        -2.07187        -6.31356
| 17>    C       -2.49582        -1.34747        -5.37721
| 18>    C       -3.22628        -1.02844        -4.22540
| 19>    S       -4.82942        -1.61094        -4.29341
| 20>    C       -2.38227        -0.30383        -3.33888
| 21>    C       -1.12301        -0.16720        -3.93465
| 22>    C       -1.15255        -0.82206        -5.23916
| 23>    C       -0.12389        -0.91810        -6.13089
| 24>    C        1.14719        -0.36439        -5.87324
| 25>    N        2.18148         0.08694        -5.66906
| 26>    C       -0.26169        -1.58126        -7.36797
| 27>    N       -0.36827        -2.11883        -8.37528
| 28>    C       -0.21418         0.53069        -3.13854
| 29>    C       -0.77066         0.92625        -1.93600
| 30>    S       -2.45284         0.42482        -1.79546
| 31>    C       -0.14155         1.64098        -0.87439
| 32>    C       -0.78170         1.94730         0.29888
| 33>    C       -0.20232         2.62282         1.37405
| 34>    C        1.19825         3.06315         1.32371
| 35>    C        2.01309         2.87627         0.26434
| 36>    S        1.53608         2.08903        -1.18355
| 37>    C        1.43998         3.67256         2.58370
| 38>    C        0.28579         3.61517         3.37142
| 39>    C        0.48345         4.24075         4.62474
| 40>    C        1.74477         4.72823         4.75298
| 41>    S        2.74838         4.46139         3.36864
| 42>    C       -0.75096         2.95520         2.62116
| 43>    C       -2.08501         2.66489         3.03355
| 44>    C       -2.52810         2.69136         4.30412
| 45>    C       -3.90854         2.43259         4.67169
| 46>    C       -4.92374         3.02650         3.98425
| 47>    S       -6.49484         2.72493         4.61734
| 48>    C       -5.79768         1.72339         5.85191
| 49>    C       -4.40034         1.63167         5.76924
| 50>    C       -3.71274         0.78584         6.67169
| 51>    C       -2.22311         0.63484         6.49550
| 52>    C       -1.43001         1.58208         7.39930
| 53>    C       -4.40451         0.10010         7.66520
| 54>    C       -3.65665        -0.68831         8.70943
| 55>    C       -3.75207        -0.01694        10.08159
| 56>    C       -5.81925         0.19025         7.73574
| 57>    C       -6.77624        -0.42731         8.63471
| 58>    C       -8.05391         0.00137         8.38731
| 59>    S       -8.20865         1.08239         7.07194
| 60>    C       -6.48770         1.02622         6.82793
| 61>    C       -6.53191        -1.43975         9.62569
| 62>    C       -7.26877        -1.62056        10.74594
| 63>    C       -7.02238        -2.66509        11.67776
| 64>    C       -7.60239        -2.92188        12.88983
| 65>    C       -7.00373        -4.09688        13.47252
| 66>    N       -6.05503        -4.57337        12.62912
| 67>    C       -5.99552        -3.74360        11.50199
| 68>    O       -5.22278        -3.93053        10.59420
| 69>    C       -5.20070        -5.71274        12.82490
| 70>    C       -7.51835        -4.30087        14.72861
| 71>    C       -8.53675        -3.22080        14.91354
| 72>    O       -9.28706        -3.04517        15.84835
| 73>    N       -8.53406        -2.43957        13.76643
| 74>    C       -9.36385        -1.27740        13.60374
| 75>    C       -7.23513        -5.32781        15.65460
| 76>    C       -7.45381        -5.33195        17.00038
| 77>    C       -7.49066        -6.62263        17.73467
| 78>    O       -7.14151        -7.70441        17.32425
| 79>    C       -8.08588        -6.29796        19.05437
| 80>    C       -8.27602        -4.90659        19.14505
| 81>    C       -8.87864        -4.36033        20.26586
| 82>    C       -9.26009        -5.20255        21.30766
| 83>    C       -9.04735        -6.58865        21.21627
| 84>    C       -8.45775        -7.14442        20.07591
| 85>    C       -9.39405        -7.46654        22.27490
| 86>    N       -9.59913        -8.25583        23.07892
| 87>    C       -9.95721        -4.67036        22.52673
| 88>    O      -10.74090        -5.32738        23.15023
| 89>    O       -9.65877        -3.41585        22.88385
| 90>    C       -7.74223        -4.27431        17.94032
| 91>    C       -7.34392        -2.96609        17.85686
| 92>    C       -6.62010        -2.44179        16.76912
| 93>    N       -6.00421        -1.99390        15.90981
| 94>    C       -7.53328        -2.04103        18.90172
| 95>    N       -7.66376        -1.28229        19.75349
| 96>    H       -5.32309        -2.80081        -6.35883
| 97>    H       -2.89830        -2.41846        -7.26440
| 98>    H        0.80446         0.74314        -3.40861
| 99>    H       -1.81136         1.62524         0.38792
|100>    H        3.03896         3.20936         0.25237
|101>    H       -0.25714         4.34997         5.39538
|102>    H        2.16420         5.24561         5.59373
|103>    H       -2.76720         2.34862         2.25474
|104>    H       -1.85095         2.95027         5.10107
|105>    H       -4.82398         3.68596         3.14401
|106>    H       -1.97863         0.83826         5.45236
|107>    H       -1.91855        -0.39463         6.68856
|108>    H       -1.80660         2.59939         7.31367
|109>    H       -0.37754         1.57338         7.12300
|110>    H       -1.51310         1.28706         8.44170
|111>    H       -2.60462        -0.76603         8.45018
|112>    H       -4.03642        -1.70751         8.76383
|113>    H       -3.33690         0.98792        10.03870
|114>    H       -3.19397        -0.59273        10.81605
|115>    H       -4.78252         0.05675        10.41799
|116>    H       -8.94387        -0.32919         8.88643
|117>    H       -5.72393        -2.12780         9.44530
|118>    H       -8.06494        -0.93218        10.99657
|119>    H       -4.69180        -5.64203        13.78727
|120>    H       -4.46679        -5.71242        12.01944
|121>    H       -5.77471        -6.64069        12.78554
|122>    H       -9.97821        -1.18955        14.49934
|123>    H      -10.01044        -1.38550        12.73094
|124>    H       -8.74947        -0.38138        13.49720
|125>    H       -6.86664        -6.26433        15.24746
|126>    H       -9.09436        -3.30303        20.30604
|127>    H       -8.30084        -8.20961        19.99859
|128>    H       -8.99820        -2.98623        22.32220
|129> *
|130>
|131>                          ****END OF INPUT****

CARTESIAN COORDINATES (ANGSTROEM)
---------------------------------
  C     -4.526350   -2.283140   -5.863570
  C     -3.259650   -2.071870   -6.313560
  C     -2.495820   -1.347470   -5.377210
  C     -3.226280   -1.028440   -4.225400
  S     -4.829420   -1.610940   -4.293410
  C     -2.382270   -0.303830   -3.338880
  C     -1.123010   -0.167200   -3.934650
  C     -1.152550   -0.822060   -5.239160
  C     -0.123890   -0.918100   -6.130890
  C      1.147190   -0.364390   -5.873240
  N      2.181480    0.086940   -5.669060
  C     -0.261690   -1.581260   -7.367970
  N     -0.368270   -2.118830   -8.375280
  C     -0.214180    0.530690   -3.138540
  C     -0.770660    0.926250   -1.936000
  S     -2.452840    0.424820   -1.795460
  C     -0.141550    1.640980   -0.874390
  C     -0.781700    1.947300    0.298880
  C     -0.202320    2.622820    1.374050
  C      1.198250    3.063150    1.323710
  C      2.013090    2.876270    0.264340
  S      1.536080    2.089030   -1.183550
  C      1.439980    3.672560    2.583700
  C      0.285790    3.615170    3.371420
  C      0.483450    4.240750    4.624740
  C      1.744770    4.728230    4.752980
  S      2.748380    4.461390    3.368640
  C     -0.750960    2.955200    2.621160
  C     -2.085010    2.664890    3.033550
  C     -2.528100    2.691360    4.304120
  C     -3.908540    2.432590    4.671690
  C     -4.923740    3.026500    3.984250
  S     -6.494840    2.724930    4.617340
  C     -5.797680    1.723390    5.851910
  C     -4.400340    1.631670    5.769240
  C     -3.712740    0.785840    6.671690
  C     -2.223110    0.634840    6.495500
  C     -1.430010    1.582080    7.399300
  C     -4.404510    0.100100    7.665200
  C     -3.656650   -0.688310    8.709430
  C     -3.752070   -0.016940   10.081590
  C     -5.819250    0.190250    7.735740
  C     -6.776240   -0.427310    8.634710
  C     -8.053910    0.001370    8.387310
  S     -8.208650    1.082390    7.071940
  C     -6.487700    1.026220    6.827930
  C     -6.531910   -1.439750    9.625690
  C     -7.268770   -1.620560   10.745940
  C     -7.022380   -2.665090   11.677760
  C     -7.602390   -2.921880   12.889830
  C     -7.003730   -4.096880   13.472520
  N     -6.055030   -4.573370   12.629120
  C     -5.995520   -3.743600   11.501990
  O     -5.222780   -3.930530   10.594200
  C     -5.200700   -5.712740   12.824900
  C     -7.518350   -4.300870   14.728610
  C     -8.536750   -3.220800   14.913540
  O     -9.287060   -3.045170   15.848350
  N     -8.534060   -2.439570   13.766430
  C     -9.363850   -1.277400   13.603740
  C     -7.235130   -5.327810   15.654600
  C     -7.453810   -5.331950   17.000380
  C     -7.490660   -6.622630   17.734670
  O     -7.141510   -7.704410   17.324250
  C     -8.085880   -6.297960   19.054370
  C     -8.276020   -4.906590   19.145050
  C     -8.878640   -4.360330   20.265860
  C     -9.260090   -5.202550   21.307660
  C     -9.047350   -6.588650   21.216270
  C     -8.457750   -7.144420   20.075910
  C     -9.394050   -7.466540   22.274900
  N     -9.599130   -8.255830   23.078920
  C     -9.957210   -4.670360   22.526730
  O    -10.740900   -5.327380   23.150230
  O     -9.658770   -3.415850   22.883850
  C     -7.742230   -4.274310   17.940320
  C     -7.343920   -2.966090   17.856860
  C     -6.620100   -2.441790   16.769120
  N     -6.004210   -1.993900   15.909810
  C     -7.533280   -2.041030   18.901720
  N     -7.663760   -1.282290   19.753490
  H     -5.323090   -2.800810   -6.358830
  H     -2.898300   -2.418460   -7.264400
  H      0.804460    0.743140   -3.408610
  H     -1.811360    1.625240    0.387920
  H      3.038960    3.209360    0.252370
  H     -0.257140    4.349970    5.395380
  H      2.164200    5.245610    5.593730
  H     -2.767200    2.348620    2.254740
  H     -1.850950    2.950270    5.101070
  H     -4.823980    3.685960    3.144010
  H     -1.978630    0.838260    5.452360
  H     -1.918550   -0.394630    6.688560
  H     -1.806600    2.599390    7.313670
  H     -0.377540    1.573380    7.123000
  H     -1.513100    1.287060    8.441700
  H     -2.604620   -0.766030    8.450180
  H     -4.036420   -1.707510    8.763830
  H     -3.336900    0.987920   10.038700
  H     -3.193970   -0.592730   10.816050
  H     -4.782520    0.056750   10.417990
  H     -8.943870   -0.329190    8.886430
  H     -5.723930   -2.127800    9.445300
  H     -8.064940   -0.932180   10.996570
  H     -4.691800   -5.642030   13.787270
  H     -4.466790   -5.712420   12.019440
  H     -5.774710   -6.640690   12.785540
  H     -9.978210   -1.189550   14.499340
  H    -10.010440   -1.385500   12.730940
  H     -8.749470   -0.381380   13.497200
  H     -6.866640   -6.264330   15.247460
  H     -9.094360   -3.303030   20.306040
  H     -8.300840   -8.209610   19.998590
  H     -8.998200   -2.986230   22.322200

 Total Charge           Charge          ....    0
 Multiplicity           Mult            ....    1
 Number of Electrons    NEL             ....  596
 Basis Dimension        Dim             .... 1323

ORBITAL ENERGIES
----------------

  NO   OCC          E(Eh)            E(eV)
   0   2.0000     -88.988861     -2421.5100
   1   2.0000     -88.986749     -2421.4525
   2   2.0000     -88.974344     -2421.1150
   3   2.0000     -88.959364     -2420.7074
   4   2.0000     -88.956698     -2420.6348
   5   2.0000     -88.951765     -2420.5006
   6   2.0000     -19.272523      -524.4320
   7   2.0000     -19.241104      -523.5771
   8   2.0000     -19.233377      -523.3668
   9   2.0000     -19.222540      -523.0719
  10   2.0000     -19.211988      -522.7848
  11   2.0000     -14.490428      -394.3046
  12   2.0000     -14.479229      -393.9998
  13   2.0000     -14.431152      -392.6916
  14   2.0000     -14.430628      -392.6774
  15   2.0000     -14.428597      -392.6221
  16   2.0000     -14.428170      -392.6105
  17   2.0000     -14.408424      -392.0731
  18   2.0000     -10.417682      -283.4795
  19   2.0000     -10.417368      -283.4710
  20   2.0000     -10.405106      -283.1373
  21   2.0000     -10.384126      -282.5664
  22   2.0000     -10.369541      -282.1695
  23   2.0000     -10.362073      -281.9663
  24   2.0000     -10.356784      -281.8224
  25   2.0000     -10.354331      -281.7557
  26   2.0000     -10.350560      -281.6531
  27   2.0000     -10.349651      -281.6283
  28   2.0000     -10.346498      -281.5425
  29   2.0000     -10.335232      -281.2360
  30   2.0000     -10.334041      -281.2035
  31   2.0000     -10.333970      -281.2016
  32   2.0000     -10.333006      -281.1754
  33   2.0000     -10.332601      -281.1644
  34   2.0000     -10.332505      -281.1618
  35   2.0000     -10.329080      -281.0685
  36   2.0000     -10.328856      -281.0624
  37   2.0000     -10.328669      -281.0574
  38   2.0000     -10.328542      -281.0539
  39   2.0000     -10.327646      -281.0295
  40   2.0000     -10.327335      -281.0211
  41   2.0000     -10.326908      -281.0094
  42   2.0000     -10.326503      -280.9984
  43   2.0000     -10.325473      -280.9704
  44   2.0000     -10.325225      -280.9637
  45   2.0000     -10.317711      -280.7592
  46   2.0000     -10.317366      -280.7498
  47   2.0000     -10.315569      -280.7009
  48   2.0000     -10.310575      -280.5650
  49   2.0000     -10.310245      -280.5560
  50   2.0000     -10.308384      -280.5054
  51   2.0000     -10.303832      -280.3815
  52   2.0000     -10.302298      -280.3398
  53   2.0000     -10.300505      -280.2910
  54   2.0000     -10.299373      -280.2602
  55   2.0000     -10.298786      -280.2442
  56   2.0000     -10.298009      -280.2231
  57   2.0000     -10.297653      -280.2134
  58   2.0000     -10.296635      -280.1857
  59   2.0000     -10.296250      -280.1752
  60   2.0000     -10.296142      -280.1723
  61   2.0000     -10.293255      -280.0937
  62   2.0000     -10.292802      -280.0814
  63   2.0000     -10.291039      -280.0334
  64   2.0000     -10.289785      -279.9993
  65   2.0000     -10.286586      -279.9122
  66   2.0000     -10.283929      -279.8399
  67   2.0000     -10.282877      -279.8113
  68   2.0000     -10.280832      -279.7557
  69   2.0000     -10.278737      -279.6986
  70   2.0000     -10.277294      -279.6594
  71   2.0000     -10.275800      -279.6187
  72   2.0000     -10.275205      -279.6025
  73   2.0000     -10.274524      -279.5840
  74   2.0000     -10.274112      -279.5728
  75   2.0000     -10.273889      -279.5667
  76   2.0000     -10.273321      -279.5513
  77   2.0000     -10.264769      -279.3186
  78   2.0000     -10.263227      -279.2766
  79   2.0000     -10.259154      -279.1658
  80   2.0000     -10.254709      -279.0448
  81   2.0000      -8.083223      -219.9557
  82   2.0000      -8.081779      -219.9164
  83   2.0000      -8.069545      -219.5835
  84   2.0000      -8.055547      -219.2026
  85   2.0000      -8.052128      -219.1095
  86   2.0000      -8.047951      -218.9959
  87   2.0000      -6.052511      -164.6972
  88   2.0000      -6.051015      -164.6565
  89   2.0000      -6.048421      -164.5859
  90   2.0000      -6.046600      -164.5363
  91   2.0000      -6.045461      -164.5054
  92   2.0000      -6.044391      -164.4762
  93   2.0000      -6.039234      -164.3359
  94   2.0000      -6.034670      -164.2117
  95   2.0000      -6.031209      -164.1175
  96   2.0000      -6.024991      -163.9483
  97   2.0000      -6.021517      -163.8538
  98   2.0000      -6.020764      -163.8333
  99   2.0000      -6.017458      -163.7434
 100   2.0000      -6.017344      -163.7403
 101   2.0000      -6.017324      -163.7397
 102   2.0000      -6.014207      -163.6549
 103   2.0000      -6.013277      -163.6296
 104   2.0000      -6.009585      -163.5291
 105   2.0000      -1.196442       -32.5568
 106   2.0000      -1.178478       -32.0680
 107   2.0000      -1.163007       -31.6470
 108   2.0000      -1.148231       -31.2450
 109   2.0000      -1.111607       -30.2484
 110   2.0000      -1.109059       -30.1790
 111   2.0000      -1.074265       -29.2322
 112   2.0000      -1.041673       -28.3454
 113   2.0000      -1.035989       -28.1907
 114   2.0000      -1.020066       -27.7574
 115   2.0000      -1.018999       -27.7284
 116   2.0000      -1.010056       -27.4850
 117   2.0000      -1.006828       -27.3972
 118   2.0000      -1.005759       -27.3681
 119   2.0000      -1.004948       -27.3460
 120   2.0000      -0.995742       -27.0955
 121   2.0000      -0.995201       -27.0808
 122   2.0000      -0.975059       -26.5327
 123   2.0000      -0.972039       -26.4505
 124   2.0000      -0.969975       -26.3944
 125   2.0000      -0.953007       -25.9326
 126   2.0000      -0.948626       -25.8134
 127   2.0000      -0.944617       -25.7043
 128   2.0000      -0.927949       -25.2508
 129   2.0000      -0.926622       -25.2147
 130   2.0000      -0.919878       -25.0312
 131   2.0000      -0.910929       -24.7876
 132   2.0000      -0.905248       -24.6330
 133   2.0000      -0.895562       -24.3695
 134   2.0000      -0.892934       -24.2980
 135   2.0000      -0.886457       -24.1217
 136   2.0000      -0.881674       -23.9916
 137   2.0000      -0.865721       -23.5575
 138   2.0000      -0.864290       -23.5185
 139   2.0000      -0.858502       -23.3610
 140   2.0000      -0.850703       -23.1488
 141   2.0000      -0.844692       -22.9852
 142   2.0000      -0.839138       -22.8341
 143   2.0000      -0.838166       -22.8077
 144   2.0000      -0.823386       -22.4055
 145   2.0000      -0.818115       -22.2620
 146   2.0000      -0.815134       -22.1809
 147   2.0000      -0.802097       -21.8262
 148   2.0000      -0.797396       -21.6983
 149   2.0000      -0.795983       -21.6598
 150   2.0000      -0.786760       -21.4088
 151   2.0000      -0.784067       -21.3355
 152   2.0000      -0.776730       -21.1359
 153   2.0000      -0.767891       -20.8954
 154   2.0000      -0.761977       -20.7344
 155   2.0000      -0.746663       -20.3177
 156   2.0000      -0.730454       -19.8767
 157   2.0000      -0.727893       -19.8070
 158   2.0000      -0.726180       -19.7604
 159   2.0000      -0.720436       -19.6041
 160   2.0000      -0.718684       -19.5564
 161   2.0000      -0.716231       -19.4896
 162   2.0000      -0.707683       -19.2570
 163   2.0000      -0.704574       -19.1724
 164   2.0000      -0.701201       -19.0806
 165   2.0000      -0.697528       -18.9807
 166   2.0000      -0.693309       -18.8659
 167   2.0000      -0.683516       -18.5994
 168   2.0000      -0.680636       -18.5211
 169   2.0000      -0.673552       -18.3283
 170   2.0000      -0.666653       -18.1405
 171   2.0000      -0.658522       -17.9193
 172   2.0000      -0.652396       -17.7526
 173   2.0000      -0.650740       -17.7075
 174   2.0000      -0.647886       -17.6299
 175   2.0000      -0.647192       -17.6110
 176   2.0000      -0.638961       -17.3870
 177   2.0000      -0.636066       -17.3082
 178   2.0000      -0.626194       -17.0396
 179   2.0000      -0.624828       -17.0024
 180   2.0000      -0.621606       -16.9148
 181   2.0000      -0.617094       -16.7920
 182   2.0000      -0.612433       -16.6651
 183   2.0000      -0.609527       -16.5861
 184   2.0000      -0.603995       -16.4356
 185   2.0000      -0.602645       -16.3988
 186   2.0000      -0.599826       -16.3221
 187   2.0000      -0.594517       -16.1776
 188   2.0000      -0.587876       -15.9969
 189   2.0000      -0.585810       -15.9407
 190   2.0000      -0.577256       -15.7079
 191   2.0000      -0.576950       -15.6996
 192   2.0000      -0.570074       -15.5125
 193   2.0000      -0.565211       -15.3802
 194   2.0000      -0.564329       -15.3562
 195   2.0000      -0.561214       -15.2714
 196   2.0000      -0.556529       -15.1439
 197   2.0000      -0.555595       -15.1185
 198   2.0000      -0.551193       -14.9987
 199   2.0000      -0.549193       -14.9443
 200   2.0000      -0.545749       -14.8506
 201   2.0000      -0.544285       -14.8107
 202   2.0000      -0.544195       -14.8083
 203   2.0000      -0.538314       -14.6483
 204   2.0000      -0.535711       -14.5774
 205   2.0000      -0.534960       -14.5570
 206   2.0000      -0.534251       -14.5377
 207   2.0000      -0.532005       -14.4766
 208   2.0000      -0.526842       -14.3361
 209   2.0000      -0.522736       -14.2244
 210   2.0000      -0.521612       -14.1938
 211   2.0000      -0.521371       -14.1872
 212   2.0000      -0.519623       -14.1397
 213   2.0000      -0.516836       -14.0638
 214   2.0000      -0.513905       -13.9841
 215   2.0000      -0.512081       -13.9344
 216   2.0000      -0.510492       -13.8912
 217   2.0000      -0.508524       -13.8376
 218   2.0000      -0.507179       -13.8010
 219   2.0000      -0.506450       -13.7812
 220   2.0000      -0.504866       -13.7381
 221   2.0000      -0.501522       -13.6471
 222   2.0000      -0.497744       -13.5443
 223   2.0000      -0.495548       -13.4845
 224   2.0000      -0.494606       -13.4589
 225   2.0000      -0.492632       -13.4052
 226   2.0000      -0.492430       -13.3997
 227   2.0000      -0.489678       -13.3248
 228   2.0000      -0.486398       -13.2356
 229   2.0000      -0.485530       -13.2119
 230   2.0000      -0.484994       -13.1974
 231   2.0000      -0.480829       -13.0840
 232   2.0000      -0.478965       -13.0333
 233   2.0000      -0.476547       -12.9675
 234   2.0000      -0.471951       -12.8424
 235   2.0000      -0.467703       -12.7268
 236   2.0000      -0.467130       -12.7113
 237   2.0000      -0.466372       -12.6906
 238   2.0000      -0.462102       -12.5744
 239   2.0000      -0.460448       -12.5294
 240   2.0000      -0.459848       -12.5131
 241   2.0000      -0.457468       -12.4483
 242   2.0000      -0.456985       -12.4352
 243   2.0000      -0.456466       -12.4211
 244   2.0000      -0.456174       -12.4131
 245   2.0000      -0.455549       -12.3961
 246   2.0000      -0.451276       -12.2798
 247   2.0000      -0.448044       -12.1919
 248   2.0000      -0.447239       -12.1700
 249   2.0000      -0.445777       -12.1302
 250   2.0000      -0.445464       -12.1217
 251   2.0000      -0.442902       -12.0520
 252   2.0000      -0.439639       -11.9632
 253   2.0000      -0.438775       -11.9397
 254   2.0000      -0.438642       -11.9360
 255   2.0000      -0.438481       -11.9317
 256   2.0000      -0.436711       -11.8835
 257   2.0000      -0.435550       -11.8519
 258   2.0000      -0.434604       -11.8262
 259   2.0000      -0.431164       -11.7326
 260   2.0000      -0.429446       -11.6858
 261   2.0000      -0.426162       -11.5965
 262   2.0000      -0.423958       -11.5365
 263   2.0000      -0.423116       -11.5136
 264   2.0000      -0.422025       -11.4839
 265   2.0000      -0.420498       -11.4423
 266   2.0000      -0.415762       -11.3135
 267   2.0000      -0.414363       -11.2754
 268   2.0000      -0.413463       -11.2509
 269   2.0000      -0.411465       -11.1965
 270   2.0000      -0.409151       -11.1336
 271   2.0000      -0.406675       -11.0662
 272   2.0000      -0.401424       -10.9233
 273   2.0000      -0.395129       -10.7520
 274   2.0000      -0.393943       -10.7197
 275   2.0000      -0.387243       -10.5374
 276   2.0000      -0.385729       -10.4962
 277   2.0000      -0.378438       -10.2978
 278   2.0000      -0.376698       -10.2505
 279   2.0000      -0.371068       -10.0973
 280   2.0000      -0.364302        -9.9132
 281   2.0000      -0.363936        -9.9032
 282   2.0000      -0.359577        -9.7846
 283   2.0000      -0.356433        -9.6990
 284   2.0000      -0.353784        -9.6269
 285   2.0000      -0.348707        -9.4888
 286   2.0000      -0.345307        -9.3963
 287   2.0000      -0.333950        -9.0873
 288   2.0000      -0.327707        -8.9174
 289   2.0000      -0.319839        -8.7033
 290   2.0000      -0.319664        -8.6985
 291   2.0000      -0.302406        -8.2289
 292   2.0000      -0.296208        -8.0602
 293   2.0000      -0.293331        -7.9819
 294   2.0000      -0.278175        -7.5695
 295   2.0000      -0.264916        -7.2087
 296   2.0000      -0.259549        -7.0627
 297   2.0000      -0.227330        -6.1860
 298   0.0000      -0.114346        -3.1115
 299   0.0000      -0.101554        -2.7634
 300   0.0000      -0.088445        -2.4067
 301   0.0000      -0.062897        -1.7115
 302   0.0000      -0.056712        -1.5432

MULLIKEN ATOMIC CHARGES
-----------------------
   0 C :   -0.082577
   1 C :    0.037400
   2 C :   -0.032885
   3 C :   -0.115529
   4 S :    0.179256
   5 C :   -0.097645
   6 C :    0.014037
   7 C :    0.300176
   8 C :   -0.300972
   9 C :   -0.184305
  10 N :    0.170700
  11 C :   -0.190971
  12 N :    0.173660
  13 C :   -0.057154
  14 C :   -0.063183
  15 S :    0.164250
  16 C :   -0.017044
  17 C :   -0.095784
  18 C :    0.057804
  19 C :    0.062720
  20 C :   -0.119908
  21 S :    0.123151
  22 C :   -0.115357
  23 C :    0.051236
  24 C :   -0.004697
  25 C :   -0.069965
  26 S :    0.127337
  27 C :    0.077002
  28 C :   -0.030344
  29 C :   -0.034952
  30 C :    0.065816
  31 C :   -0.119903
  32 S :    0.117678
  33 C :   -0.141603
  34 C :    0.110419
  35 C :   -0.123701
  36 C :    0.010334
  37 C :    0.034162
  38 C :   -0.117680
  39 C :    0.046652
  40 C :    0.021195
  41 C :    0.129319
  42 C :    0.077212
  43 C :   -0.115116
  44 S :    0.136738
  45 C :   -0.154717
  46 C :   -0.032554
  47 C :   -0.067165
  48 C :   -0.106111
  49 C :    0.172426
  50 C :    0.218719
  51 N :   -0.229818
  52 C :    0.187703
  53 O :   -0.157559
  54 C :    0.113928
  55 C :   -0.143527
  56 C :    0.153111
  57 O :   -0.178888
  58 N :   -0.231424
  59 C :    0.119615
  60 C :   -0.021822
  61 C :   -0.128637
  62 C :    0.141669
  63 O :   -0.131293
  64 C :    0.012173
  65 C :    0.027792
  66 C :   -0.086787
  67 C :    0.008811
  68 C :   -0.074614
  69 C :   -0.037421
  70 C :   -0.156632
  71 N :    0.139985
  72 C :    0.181939
  73 O :   -0.147626
  74 O :   -0.142831
  75 C :    0.303417
  76 C :   -0.283586
  77 C :   -0.192975
  78 N :    0.150180
  79 C :   -0.189221
  80 N :    0.146941
  81 H :    0.035979
  82 H :    0.010868
  83 H :    0.019572
  84 H :   -0.012718
  85 H :    0.036406
  86 H :   -0.012403
  87 H :    0.024639
  88 H :   -0.033055
  89 H :   -0.020272
  90 H :    0.019116
  91 H :    0.017753
  92 H :    0.010452
  93 H :    0.015682
  94 H :    0.019495
  95 H :    0.007778
  96 H :   -0.009790
  97 H :    0.012210
  98 H :    0.009372
  99 H :    0.013720
 100 H :    0.022859
 101 H :    0.016121
 102 H :    0.035943
 103 H :   -0.029914
 104 H :    0.050970
 105 H :    0.064145
 106 H :    0.051307
 107 H :    0.060567
 108 H :    0.041223
 109 H :    0.050723
 110 H :    0.011503
 111 H :    0.010843
 112 H :    0.017533
 113 H :    0.191198
Sum of atomic charges:   -0.0000000

LOEWDIN ATOMIC CHARGES
----------------------
   0 C :   -0.179066
   1 C :   -0.033552
   2 C :   -0.078901
   3 C :   -0.182467
   4 S :    0.475341
   5 C :   -0.181669
   6 C :   -0.068964
   7 C :    0.084188
   8 C :   -0.103940
   9 C :   -0.016311
  10 N :   -0.034832
  11 C :   -0.016891
  12 N :   -0.033639
  13 C :   -0.043334
  14 C :   -0.177793
  15 S :    0.473208
  16 C :   -0.183797
  17 C :   -0.032164
  18 C :   -0.027514
  19 C :   -0.051142
  20 C :   -0.138328
  21 S :    0.452531
  22 C :   -0.200588
  23 C :   -0.039641
  24 C :   -0.068192
  25 C :   -0.167307
  26 S :    0.422780
  27 C :   -0.048583
  28 C :   -0.022425
  29 C :   -0.029885
  30 C :   -0.059055
  31 C :   -0.170772
  32 S :    0.404421
  33 C :   -0.179348
  34 C :   -0.041822
  35 C :   -0.018457
  36 C :   -0.031654
  37 C :   -0.052476
  38 C :   -0.019740
  39 C :   -0.029915
  40 C :   -0.049741
  41 C :   -0.039337
  42 C :   -0.067924
  43 C :   -0.163765
  44 S :    0.423557
  45 C :   -0.176492
  46 C :    0.016539
  47 C :   -0.044678
  48 C :   -0.076954
  49 C :    0.034489
  50 C :    0.095693
  51 N :   -0.009836
  52 C :    0.119264
  53 O :   -0.139237
  54 C :    0.036565
  55 C :   -0.126012
  56 C :    0.094318
  57 O :   -0.174082
  58 N :   -0.009841
  59 C :    0.036771
  60 C :    0.070756
  61 C :   -0.091588
  62 C :    0.085268
  63 O :   -0.132319
  64 C :   -0.034281
  65 C :    0.007970
  66 C :   -0.002178
  67 C :   -0.035785
  68 C :   -0.026044
  69 C :    0.049661
  70 C :   -0.034182
  71 N :   -0.026527
  72 C :    0.080333
  73 O :   -0.119953
  74 O :   -0.014900
  75 C :    0.076698
  76 C :   -0.122853
  77 C :   -0.011497
  78 N :   -0.055981
  79 C :   -0.013395
  80 N :   -0.057931
  81 H :    0.027331
  82 H :    0.042362
  83 H :    0.034311
  84 H :    0.025349
  85 H :    0.037078
  86 H :    0.028806
  87 H :    0.023101
  88 H :    0.024239
  89 H :    0.026504
  90 H :    0.022894
  91 H :    0.032228
  92 H :    0.026987
  93 H :    0.020437
  94 H :    0.026807
  95 H :    0.022988
  96 H :    0.025805
  97 H :    0.028254
  98 H :    0.022633
  99 H :    0.025474
 100 H :    0.023338
 101 H :    0.021029
 102 H :    0.032970
 103 H :    0.026216
 104 H :    0.035415
 105 H :    0.044663
 106 H :    0.032102
 107 H :    0.043627
 108 H :    0.028662
 109 H :    0.033080
 110 H :    0.046452
 111 H :    0.037449
 112 H :    0.053270
 113 H :    0.099263

  Mayer bond orders larger than 0.100000
B(  0-C ,  1-C ) :   1.5520 B(  0-C ,  4-S ) :   1.1467 B(  0-C , 81-H ) :   0.9640
B(  1-C ,  2-C ) :   1.2743 B(  1-C , 82-H ) :   0.9964 B(  2-C ,  3-C ) :   1.4539
B(  2-C ,  7-C ) :   1.0188 B(  3-C ,  4-S ) :   1.1374 B(  3-C ,  5-C ) :   1.1807
B(  5-C ,  6-C ) :   1.4700 B(  5-C , 15-S ) :   1.1202 B(  6-C ,  7-C ) :   0.9958
B(  6-C , 13-C ) :   1.2912 B(  7-C ,  8-C ) :   1.7081 B(  8-C ,  9-C ) :   1.1323
B(  8-C , 11-C ) :   1.1320 B(  9-C , 10-N ) :   2.9895 B( 11-C , 12-N ) :   3.0020
B( 13-C , 14-C ) :   1.4693 B( 13-C , 83-H ) :   0.9805 B( 14-C , 15-S ) :   1.1078
B( 14-C , 16-C ) :   1.1591 B( 16-C , 17-C ) :   1.5450 B( 16-C , 21-S ) :   1.0474
B( 17-C , 18-C ) :   1.2326 B( 17-C , 84-H ) :   0.9598 B( 18-C , 19-C ) :   1.0416
B( 18-C , 27-C ) :   1.4162 B( 19-C , 20-C ) :   1.6192 B( 19-C , 22-C ) :   1.1795
B( 20-C , 21-S ) :   1.1325 B( 20-C , 85-H ) :   0.9397 B( 22-C , 23-C ) :   1.4464
B( 22-C , 26-S ) :   1.0779 B( 23-C , 24-C ) :   1.2115 B( 23-C , 27-C ) :   1.0898
B( 24-C , 25-C ) :   1.5832 B( 24-C , 86-H ) :   0.9961 B( 25-C , 26-S ) :   1.1550
B( 25-C , 87-H ) :   0.9653 B( 27-C , 28-C ) :   1.1259 B( 28-C , 29-C ) :   1.7399
B( 28-C , 88-H ) :   0.9617 B( 29-C , 30-C ) :   0.9996 B( 29-C , 89-H ) :   0.9516
B( 30-C , 31-C ) :   1.6250 B( 30-C , 34-C ) :   1.1508 B( 31-C , 32-S ) :   1.1033
B( 31-C , 90-H ) :   0.9638 B( 32-S , 33-C ) :   1.0786 B( 33-C , 34-C ) :   1.3701
B( 33-C , 45-C ) :   1.3793 B( 34-C , 35-C ) :   1.2682 B( 35-C , 36-C ) :   1.0556
B( 35-C , 38-C ) :   1.5165 B( 36-C , 37-C ) :   1.1023 B( 36-C , 91-H ) :   0.9168
B( 36-C , 92-H ) :   0.9192 B( 37-C , 93-H ) :   0.9566 B( 37-C , 94-H ) :   0.9647
B( 37-C , 95-H ) :   0.9619 B( 38-C , 39-C ) :   1.0723 B( 38-C , 41-C ) :   1.2441
B( 39-C , 40-C ) :   1.1040 B( 39-C , 96-H ) :   0.9062 B( 39-C , 97-H ) :   0.9253
B( 40-C , 98-H ) :   0.9558 B( 40-C , 99-H ) :   0.9659 B( 40-C ,100-H ) :   0.9644
B( 41-C , 42-C ) :   1.1383 B( 41-C , 45-C ) :   1.3766 B( 42-C , 43-C ) :   1.5880
B( 42-C , 46-C ) :   1.0119 B( 43-C , 44-S ) :   1.1317 B( 43-C ,101-H ) :   0.9621
B( 44-S , 45-C ) :   1.0736 B( 46-C , 47-C ) :   1.6832 B( 46-C ,102-H ) :   0.9631
B( 47-C , 48-C ) :   1.1490 B( 47-C ,103-H ) :   0.9851 B( 48-C , 49-C ) :   1.5076
B( 48-C , 52-C ) :   0.9090 B( 49-C , 50-C ) :   1.0775 B( 49-C , 58-N ) :   1.1304
B( 50-C , 51-N ) :   1.1979 B( 50-C , 55-C ) :   1.4697 B( 51-N , 52-C ) :   1.0220
B( 51-N , 54-C ) :   0.9452 B( 52-C , 53-O ) :   2.1312 B( 54-C ,104-H ) :   0.9711
B( 54-C ,105-H ) :   0.9566 B( 54-C ,106-H ) :   0.9741 B( 55-C , 56-C ) :   0.9081
B( 55-C , 60-C ) :   1.1365 B( 56-C , 57-O ) :   2.1268 B( 56-C , 58-N ) :   1.0749
B( 58-N , 59-C ) :   0.9531 B( 59-C ,107-H ) :   0.9557 B( 59-C ,108-H ) :   0.9734
B( 59-C ,109-H ) :   0.9721 B( 60-C , 61-C ) :   1.6454 B( 60-C ,110-H ) :   0.9538
B( 61-C , 62-C ) :   0.9492 B( 61-C , 75-C ) :   1.0429 B( 62-C , 63-O ) :   2.2728
B( 62-C , 64-C ) :   0.9016 B( 64-C , 65-C ) :   1.3412 B( 64-C , 69-C ) :   1.3544
B( 65-C , 66-C ) :   1.3896 B( 65-C , 75-C ) :   0.9951 B( 66-C , 67-C ) :   1.3186
B( 66-C ,111-H ) :   0.9684 B( 67-C , 68-C ) :   1.3951 B( 67-C , 72-C ) :   0.8688
B( 68-C , 69-C ) :   1.3660 B( 68-C , 70-C ) :   1.0692 B( 69-C ,112-H ) :   1.0164
B( 70-C , 71-N ) :   3.0373 B( 72-C , 73-O ) :   2.1675 B( 72-C , 74-O ) :   1.2589
B( 74-O ,113-H ) :   0.9449 B( 75-C , 76-C ) :   1.6610 B( 76-C , 77-C ) :   1.1643
B( 76-C , 79-C ) :   1.1411 B( 77-C , 78-N ) :   2.9922 B( 79-C , 80-N ) :   2.9914

-----------------------------------------------------------------------------
         ABSORPTION SPECTRUM VIA TRANSITION ELECTRIC DIPOLE MOMENTS
-----------------------------------------------------------------------------
State   Energy  Wavelength   fosc         T2         TX        TY        TZ
        (cm-1)    (nm)                  (au**2)     (au)      (au)      (au)
-----------------------------------------------------------------------------
   0   11814.2    846.4   0.089486508   2.49360  -0.39697  -0.69163  -1.36296
   1   15896.9    629.1   0.388900662   8.05382   0.44159   1.25521  -2.50664
   2   17164.6    582.6   0.001023385   0.01963  -0.08213  -0.03277   0.10867
   3   19174.4    521.5   0.023464105   0.40286   0.37981  -0.04705  -0.50636
   4   20536.7    486.9   0.535303774   8.58115  -0.25579   0.94873   2.75964
   5   21599.2    463.0   0.467388453   7.12388   0.40475   0.32833  -2.61768
   6   23317.9    428.9   0.014008828   0.19778  -0.02263  -0.07002  -0.43860
   7   24374.2    410.3   0.520660922   7.03235   0.23410  -0.91984  -2.47618
   8   24487.5    408.4   0.009897277   0.13306  -0.05330   0.24201   0.26767
   9   24751.5    404.0   0.030574856   0.40667  -0.07628   0.47298   0.42088
  10   25696.0    389.2   0.198430471   2.54225  -0.43045  -0.02030   1.53510
  11   26457.8    378.0   0.066295500   0.82491  -0.81845  -0.37682  -0.11428
  12   26553.8    376.6   0.003386082   0.04198   0.17451   0.10724  -0.00528
  13   26871.5    372.1   0.005483866   0.06718   0.10497  -0.21164  -0.10664
  14   27721.9    360.7   0.000841084   0.00999  -0.03908   0.03560   0.08481
  15   27824.3    359.4   0.011641243   0.13774  -0.26755  -0.02765   0.25572
  16   28297.8    353.4   0.071242491   0.82882  -0.36291  -0.67252   0.49481
  17   29216.8    342.3   0.001209143   0.01362  -0.07275  -0.07197   0.05615
  18   29485.3    339.2   0.279098297   3.11621  -1.51629  -0.69889   0.57327
  19   29890.7    334.6   0.569464120   6.27200   0.55686   1.23739  -2.10494
  20   30024.5    333.1   0.051983302   0.56999  -0.06720  -0.17410   0.73155
  21   31566.0    316.8   0.663865062   6.92366  -2.04254   0.00849   1.65880
  22   31659.0    315.9   0.088485963   0.92014   0.17348   0.88480  -0.32737
  23   31838.4    314.1   0.000834485   0.00863   0.06019   0.03956   0.05866
  24   31907.7    313.4   0.070223383   0.72454  -0.36182  -0.30538   0.70737
  25   32335.7    309.3   0.032969681   0.33567  -0.34257  -0.15228  -0.44173
  26   32413.5    308.5   0.153820411   1.56230  -1.23622   0.05628   0.17574
  27   32769.5    305.2   0.000033240   0.00033  -0.01019   0.01386   0.00617
  28   33066.5    302.4   0.041787402   0.41604   0.34056  -0.09901  -0.53875
  29   33471.5    298.8   0.019641892   0.19319  -0.31415   0.19079   0.24104
  30   33581.1    297.8   0.086581127   0.84880   0.17511   0.87111  -0.24353
  31   33792.5    295.9   0.088286141   0.86010   0.42505  -0.46315  -0.68186
  32   33833.6    295.6   0.036345990   0.35366  -0.07596   0.07847   0.58458
  33   34063.5    293.6   0.626546082   6.05535  -0.54027  -0.83398  -2.25121
  34   34605.9    289.0   0.243240946   2.31399   0.68146   1.07430  -0.83396
  35   34735.5    287.9   0.005625908   0.05332  -0.16561  -0.12020   0.10699
  36   34942.4    286.2   0.332561311   3.13325   0.74165   1.40519  -0.78016
  37   35132.9    284.6   0.174397966   1.63419  -1.11692  -0.55310  -0.28420
  38   35425.2    282.3   0.142051510   1.32011  -0.72723  -0.84119  -0.28922
  39   35572.3    281.1   0.056639899   0.52419   0.11890  -0.19821  -0.68612
  40   35884.9    278.7   0.280316725   2.57166   0.58883   0.55253   1.38551
  41   36165.3    276.5   0.210312600   1.91447   0.49560  -0.28265  -1.26054
  42   36515.6    273.9   0.035269014   0.31797  -0.37715  -0.29751   0.29533
  43   36560.4    273.5   0.141076354   1.27034   0.95590   0.45270   0.38944
  44   36756.4    272.1   0.047553612   0.42592  -0.09499  -0.35975  -0.53617
  45   37082.0    269.7   0.100348918   0.89089  -0.72822  -0.32961   0.50193
  46   37922.7    263.7   0.278096441   2.41419  -1.46232   0.47318  -0.22783
  47   38210.6    261.7   0.003714902   0.03201   0.05299   0.17018  -0.01538
  48   38279.3    261.2   0.022484218   0.19337  -0.30149   0.27267   0.16772
  49   38524.9    259.6   0.000093226   0.00080  -0.01627  -0.01295   0.01909
  50   39342.7    254.2   0.026611783   0.22268  -0.04575   0.46414  -0.07188
  51   39360.0    254.1   0.114329569   0.95627  -0.22075  -0.28616   0.90865
  52   39436.8    253.6   0.078962924   0.65917  -0.03656  -0.17878   0.79112
  53   39543.7    252.9   0.042334393   0.35245  -0.44214  -0.28843   0.27160
  54   39608.3    252.5   0.006152480   0.05114  -0.07072  -0.09972   0.19024
  55   39769.9    251.4   0.006149925   0.05091  -0.05035   0.21990   0.00402
  56   40018.1    249.9   0.218947672   1.80119  -1.05446  -0.02807   0.82976
  57   40128.3    249.2   0.024518157   0.20115  -0.29577  -0.17270   0.28956
  58   40195.0    248.8   0.110948402   0.90871   0.67984   0.65474  -0.13356

FINAL SINGLE POINT ENERGY     -5564.264145115792

DIPOLE MOMENT
-------------
                                X             Y             Z
Electronic contribution:     -8.29637      -9.26008     -29.90467
Nuclear contribution   :      8.41937      10.33292      26.79384
                        -----------------------------------------
Total Dipole Moment    :      0.12300       1.07285      -3.11083
                        -----------------------------------------
Magnitude (a.u.)       :      3.29293
Magnitude (Debye)      :      8.36995

Rotational constants in cm-1:     0.001415     0.000151     0.000145
Rotational constants in MHz :    42.408820     4.512116     4.336518

                             ****ORCA TERMINATED NORMALLY****
TOTAL RUN TIME: 0 days 0 hours 12 minutes 53 seconds 283 msec
