                         Program Version 4.2.0 -  RELEASE  -
|  1> # ORCA input file
|  2> # SCF done       -152.486838306047          0.000859696030
|  3> ! CAM-B3LYP def2-SVP def2/J RIJCOSX Grid4 TightSCF
|  4> %maxcore 5000
|  5> %tddft
|  6>     Mode sTDDFT
|  7>     Ethresh 5.0
|  8>     maxcore 5000
|  9> end
| 10>
| 11> %pal
| 12>   nprocs 6
| 13>   end
| 14> * xyz 0 1
| 15>    C       -1.48370        -0.32486         0.68819
| 16>    N       -0.47100        -1.08744         0.33551
| 17>    C       -0.08772        -1.97730         1.25691
| 18>    N       -0.66779        -2.11209         2.45553
| 19>    C       -1.67073        -1.29320         2.68714
| 20>    N       -2.12514        -0.37760         1.84578
| 21>    C        1.01200        -2.84406         0.95773
| 22>    C        1.76027        -2.89731        -0.20134
| 23>    C        2.75732        -3.86695        -0.11570
| 24>    C        2.74991        -4.54433         1.12330
| 25>    S        1.52317        -3.99172         2.17006
| 26>    C        3.80039        -5.49480         1.12583
| 27>    C        4.47142        -5.41936        -0.11209
| 28>    C        3.82968        -4.40449        -0.93569
| 29>    C        4.16091        -4.05147        -2.21013
| 30>    C        5.20924        -4.68568        -2.91243
| 31>    N        6.05085        -5.20945        -3.48779
| 32>    C        3.47046        -3.04458        -2.91837
| 33>    N        2.91535        -2.22812        -3.50074
| 34>    C        5.54248        -6.29742        -0.20036
| 35>    C        5.69721        -7.05017         0.95846
| 36>    S        4.47727        -6.66493         2.16687
| 37>    C        6.68678        -8.02693         1.25304
| 38>    C        7.78620        -8.33282         0.41136
| 39>    C        8.75662        -9.33250         0.78587
| 40>    N        9.77104        -9.61692        -0.03880
| 41>    C        9.90259        -8.97331        -1.17117
| 42>    C        8.96668        -7.94556        -1.52051
| 43>    N        7.95259        -7.66691        -0.74085
| 44>    C        9.15309        -7.21077        -2.72016
| 45>    N        9.36042        -6.63906        -3.68993
| 46>    C       10.97632        -9.30362        -2.03449
| 47>    N       11.83745        -9.55213        -2.74722
| 48>    C        8.70716       -10.05137         2.00388
| 49>    C        7.61133        -9.74530         2.84049
| 50>    C        6.63354        -8.75547         2.46292
| 51>    N        5.68976        -8.61796         3.39553
| 52>    S        5.99249        -9.62025         4.61264
| 53>    N        7.32930       -10.27890         4.03032
| 54>    C        9.71242       -10.99248         2.34138
| 55>    C        9.77811       -11.75756         3.50145
| 56>    C       10.91077       -12.55786         3.52919
| 57>    C       11.71713       -12.40287         2.38223
| 58>    S       11.07264       -11.27793         1.26820
| 59>    C       12.84685       -13.24686         2.51612
| 60>    C       12.75566       -13.93431         3.74694
| 61>    C       11.53486       -13.52545         4.42008
| 62>    C       11.06685       -13.94963         5.62878
| 63>    C       11.75648       -14.89577         6.41703
| 64>    N       12.30877       -15.66064         7.06813
| 65>    C        9.85656       -13.47094         6.17470
| 66>    N        8.87841       -13.08262         6.63008
| 67>    C       13.83846       -14.78343         3.96616
| 68>    C       14.73273       -14.73501         2.91496
| 69>    S       14.25265       -13.64438         1.63935
| 70>    C       15.96430       -15.45175         2.77039
| 71>    N       16.33894       -16.28903         3.74293
| 72>    C       17.48271       -16.90576         3.53313
| 73>    N       18.25634       -16.75975         2.46844
| 74>    C       17.79668       -15.90836         1.56440
| 75>    N       16.67225       -15.23231         1.65620
| 76>    H       -1.82067         0.40974        -0.03250
| 77>    H       -2.16356        -1.37459         3.64804
| 78>    H        1.56693        -2.25253        -1.03905
| 79>    H        6.19640        -6.40358        -1.04550
| 80>    H        9.02267       -11.70282         4.26358
| 81>    H       13.99639       -15.40862         4.82589
| 82>    H       17.81844       -17.59327         4.29946
| 83>    H       18.39559       -15.75380         0.67555
| 84> *
| 85>
| 86>                          ****END OF INPUT****

CARTESIAN COORDINATES (ANGSTROEM)
---------------------------------
  C     -1.483700   -0.324860    0.688190
  N     -0.471000   -1.087440    0.335510
  C     -0.087720   -1.977300    1.256910
  N     -0.667790   -2.112090    2.455530
  C     -1.670730   -1.293200    2.687140
  N     -2.125140   -0.377600    1.845780
  C      1.012000   -2.844060    0.957730
  C      1.760270   -2.897310   -0.201340
  C      2.757320   -3.866950   -0.115700
  C      2.749910   -4.544330    1.123300
  S      1.523170   -3.991720    2.170060
  C      3.800390   -5.494800    1.125830
  C      4.471420   -5.419360   -0.112090
  C      3.829680   -4.404490   -0.935690
  C      4.160910   -4.051470   -2.210130
  C      5.209240   -4.685680   -2.912430
  N      6.050850   -5.209450   -3.487790
  C      3.470460   -3.044580   -2.918370
  N      2.915350   -2.228120   -3.500740
  C      5.542480   -6.297420   -0.200360
  C      5.697210   -7.050170    0.958460
  S      4.477270   -6.664930    2.166870
  C      6.686780   -8.026930    1.253040
  C      7.786200   -8.332820    0.411360
  C      8.756620   -9.332500    0.785870
  N      9.771040   -9.616920   -0.038800
  C      9.902590   -8.973310   -1.171170
  C      8.966680   -7.945560   -1.520510
  N      7.952590   -7.666910   -0.740850
  C      9.153090   -7.210770   -2.720160
  N      9.360420   -6.639060   -3.689930
  C     10.976320   -9.303620   -2.034490
  N     11.837450   -9.552130   -2.747220
  C      8.707160  -10.051370    2.003880
  C      7.611330   -9.745300    2.840490
  C      6.633540   -8.755470    2.462920
  N      5.689760   -8.617960    3.395530
  S      5.992490   -9.620250    4.612640
  N      7.329300  -10.278900    4.030320
  C      9.712420  -10.992480    2.341380
  C      9.778110  -11.757560    3.501450
  C     10.910770  -12.557860    3.529190
  C     11.717130  -12.402870    2.382230
  S     11.072640  -11.277930    1.268200
  C     12.846850  -13.246860    2.516120
  C     12.755660  -13.934310    3.746940
  C     11.534860  -13.525450    4.420080
  C     11.066850  -13.949630    5.628780
  C     11.756480  -14.895770    6.417030
  N     12.308770  -15.660640    7.068130
  C      9.856560  -13.470940    6.174700
  N      8.878410  -13.082620    6.630080
  C     13.838460  -14.783430    3.966160
  C     14.732730  -14.735010    2.914960
  S     14.252650  -13.644380    1.639350
  C     15.964300  -15.451750    2.770390
  N     16.338940  -16.289030    3.742930
  C     17.482710  -16.905760    3.533130
  N     18.256340  -16.759750    2.468440
  C     17.796680  -15.908360    1.564400
  N     16.672250  -15.232310    1.656200
  H     -1.820670    0.409740   -0.032500
  H     -2.163560   -1.374590    3.648040
  H      1.566930   -2.252530   -1.039050
  H      6.196400   -6.403580   -1.045500
  H      9.022670  -11.702820    4.263580
  H     13.996390  -15.408620    4.825890
  H     17.818440  -17.593270    4.299460
  H     18.395590  -15.753800    0.675550

 Total Charge           Charge          ....    0
 Multiplicity           Mult            ....    1
 Number of Electrons    NEL             ....  440
 Basis Dimension        Dim             ....  914

ORBITAL ENERGIES
----------------

  NO   OCC          E(Eh)            E(eV)
   0   2.0000     -89.064486     -2423.5679
   1   2.0000     -88.994266     -2421.6571
   2   2.0000     -88.994008     -2421.6501
   3   2.0000     -88.991999     -2421.5954
   4   2.0000     -88.991982     -2421.5949
   5   2.0000     -14.481338      -394.0572
   6   2.0000     -14.475652      -393.9025
   7   2.0000     -14.472497      -393.8167
   8   2.0000     -14.472252      -393.8100
   9   2.0000     -14.442494      -393.0002
  10   2.0000     -14.434916      -392.7940
  11   2.0000     -14.433088      -392.7443
  12   2.0000     -14.431315      -392.6961
  13   2.0000     -14.430899      -392.6847
  14   2.0000     -14.430142      -392.6641
  15   2.0000     -14.429975      -392.6596
  16   2.0000     -14.429450      -392.6453
  17   2.0000     -14.428644      -392.6234
  18   2.0000     -14.428389      -392.6164
  19   2.0000     -14.422299      -392.4507
  20   2.0000     -14.421825      -392.4378
  21   2.0000     -10.398339      -282.9532
  22   2.0000     -10.395808      -282.8843
  23   2.0000     -10.376950      -282.3712
  24   2.0000     -10.376435      -282.3572
  25   2.0000     -10.366935      -282.0986
  26   2.0000     -10.366040      -282.0743
  27   2.0000     -10.365456      -282.0584
  28   2.0000     -10.363504      -282.0053
  29   2.0000     -10.361674      -281.9555
  30   2.0000     -10.361580      -281.9529
  31   2.0000     -10.360945      -281.9356
  32   2.0000     -10.360583      -281.9258
  33   2.0000     -10.360312      -281.9184
  34   2.0000     -10.359795      -281.9043
  35   2.0000     -10.354837      -281.7695
  36   2.0000     -10.353207      -281.7251
  37   2.0000     -10.339113      -281.3416
  38   2.0000     -10.338516      -281.3253
  39   2.0000     -10.337728      -281.3039
  40   2.0000     -10.337045      -281.2853
  41   2.0000     -10.335546      -281.2445
  42   2.0000     -10.333896      -281.1996
  43   2.0000     -10.333582      -281.1911
  44   2.0000     -10.333216      -281.1811
  45   2.0000     -10.332723      -281.1677
  46   2.0000     -10.331349      -281.1303
  47   2.0000     -10.331131      -281.1244
  48   2.0000     -10.329849      -281.0895
  49   2.0000     -10.329209      -281.0721
  50   2.0000     -10.326729      -281.0046
  51   2.0000     -10.320709      -280.8408
  52   2.0000     -10.320686      -280.8401
  53   2.0000     -10.309058      -280.5237
  54   2.0000     -10.308861      -280.5184
  55   2.0000     -10.308589      -280.5110
  56   2.0000     -10.308320      -280.5036
  57   2.0000     -10.306698      -280.4595
  58   2.0000     -10.306479      -280.4535
  59   2.0000     -10.305727      -280.4331
  60   2.0000     -10.303352      -280.3685
  61   2.0000      -8.155336      -221.9180
  62   2.0000      -8.088405      -220.0967
  63   2.0000      -8.088104      -220.0885
  64   2.0000      -8.085266      -220.0113
  65   2.0000      -8.084423      -219.9883
  66   2.0000      -6.126401      -166.7079
  67   2.0000      -6.118589      -166.4953
  68   2.0000      -6.118205      -166.4848
  69   2.0000      -6.057547      -164.8342
  70   2.0000      -6.057214      -164.8252
  71   2.0000      -6.054692      -164.7565
  72   2.0000      -6.053982      -164.7372
  73   2.0000      -6.053300      -164.7187
  74   2.0000      -6.052942      -164.7089
  75   2.0000      -6.051047      -164.6574
  76   2.0000      -6.050823      -164.6513
  77   2.0000      -6.050090      -164.6313
  78   2.0000      -6.049145      -164.6056
  79   2.0000      -6.047684      -164.5658
  80   2.0000      -6.046904      -164.5446
  81   2.0000      -1.161737       -31.6125
  82   2.0000      -1.138237       -30.9730
  83   2.0000      -1.132253       -30.8102
  84   2.0000      -1.131701       -30.7951
  85   2.0000      -1.065766       -29.0010
  86   2.0000      -1.048301       -28.5257
  87   2.0000      -1.047830       -28.5129
  88   2.0000      -1.026184       -27.9239
  89   2.0000      -1.024293       -27.8724
  90   2.0000      -1.022930       -27.8353
  91   2.0000      -1.020433       -27.7674
  92   2.0000      -1.013027       -27.5659
  93   2.0000      -1.011131       -27.5143
  94   2.0000      -1.009584       -27.4722
  95   2.0000      -1.009105       -27.4591
  96   2.0000      -1.006984       -27.4014
  97   2.0000      -1.002172       -27.2705
  98   2.0000      -1.001618       -27.2554
  99   2.0000      -1.000099       -27.2141
 100   2.0000      -0.990146       -26.9432
 101   2.0000      -0.982683       -26.7402
 102   2.0000      -0.959806       -26.1176
 103   2.0000      -0.956724       -26.0338
 104   2.0000      -0.925829       -25.1931
 105   2.0000      -0.924190       -25.1485
 106   2.0000      -0.911741       -24.8097
 107   2.0000      -0.894520       -24.3411
 108   2.0000      -0.873291       -23.7634
 109   2.0000      -0.871072       -23.7031
 110   2.0000      -0.859719       -23.3941
 111   2.0000      -0.859324       -23.3834
 112   2.0000      -0.853351       -23.2209
 113   2.0000      -0.835825       -22.7440
 114   2.0000      -0.830545       -22.6003
 115   2.0000      -0.815432       -22.1890
 116   2.0000      -0.800446       -21.7812
 117   2.0000      -0.786084       -21.3904
 118   2.0000      -0.782319       -21.2880
 119   2.0000      -0.773662       -21.0524
 120   2.0000      -0.772688       -21.0259
 121   2.0000      -0.761343       -20.7172
 122   2.0000      -0.754565       -20.5328
 123   2.0000      -0.734737       -19.9932
 124   2.0000      -0.720526       -19.6065
 125   2.0000      -0.711015       -19.3477
 126   2.0000      -0.703958       -19.1557
 127   2.0000      -0.702513       -19.1164
 128   2.0000      -0.702401       -19.1133
 129   2.0000      -0.686861       -18.6905
 130   2.0000      -0.682836       -18.5809
 131   2.0000      -0.674853       -18.3637
 132   2.0000      -0.670092       -18.2341
 133   2.0000      -0.660923       -17.9846
 134   2.0000      -0.652846       -17.7648
 135   2.0000      -0.651153       -17.7188
 136   2.0000      -0.641998       -17.4697
 137   2.0000      -0.638283       -17.3686
 138   2.0000      -0.628762       -17.1095
 139   2.0000      -0.624404       -16.9909
 140   2.0000      -0.622248       -16.9322
 141   2.0000      -0.617402       -16.8004
 142   2.0000      -0.612115       -16.6565
 143   2.0000      -0.607050       -16.5187
 144   2.0000      -0.597467       -16.2579
 145   2.0000      -0.594327       -16.1725
 146   2.0000      -0.575005       -15.6467
 147   2.0000      -0.572145       -15.5689
 148   2.0000      -0.566694       -15.4205
 149   2.0000      -0.560292       -15.2463
 150   2.0000      -0.559897       -15.2356
 151   2.0000      -0.557355       -15.1664
 152   2.0000      -0.547814       -14.9068
 153   2.0000      -0.546675       -14.8758
 154   2.0000      -0.540648       -14.7118
 155   2.0000      -0.534218       -14.5368
 156   2.0000      -0.532735       -14.4965
 157   2.0000      -0.527673       -14.3587
 158   2.0000      -0.517474       -14.0812
 159   2.0000      -0.515410       -14.0250
 160   2.0000      -0.513171       -13.9641
 161   2.0000      -0.507887       -13.8203
 162   2.0000      -0.504246       -13.7212
 163   2.0000      -0.502155       -13.6643
 164   2.0000      -0.501377       -13.6432
 165   2.0000      -0.499995       -13.6056
 166   2.0000      -0.499075       -13.5805
 167   2.0000      -0.495740       -13.4898
 168   2.0000      -0.494228       -13.4486
 169   2.0000      -0.485722       -13.2172
 170   2.0000      -0.481144       -13.0926
 171   2.0000      -0.480218       -13.0674
 172   2.0000      -0.477905       -13.0045
 173   2.0000      -0.476482       -12.9657
 174   2.0000      -0.465739       -12.6734
 175   2.0000      -0.464809       -12.6481
 176   2.0000      -0.464309       -12.6345
 177   2.0000      -0.462561       -12.5869
 178   2.0000      -0.461110       -12.5474
 179   2.0000      -0.460522       -12.5314
 180   2.0000      -0.457828       -12.4581
 181   2.0000      -0.457715       -12.4551
 182   2.0000      -0.457032       -12.4365
 183   2.0000      -0.456513       -12.4223
 184   2.0000      -0.450976       -12.2717
 185   2.0000      -0.445540       -12.1238
 186   2.0000      -0.444553       -12.0969
 187   2.0000      -0.442506       -12.0412
 188   2.0000      -0.440711       -11.9924
 189   2.0000      -0.439777       -11.9670
 190   2.0000      -0.439564       -11.9611
 191   2.0000      -0.438645       -11.9361
 192   2.0000      -0.434347       -11.8192
 193   2.0000      -0.431660       -11.7461
 194   2.0000      -0.429652       -11.6914
 195   2.0000      -0.427714       -11.6387
 196   2.0000      -0.425427       -11.5765
 197   2.0000      -0.421200       -11.4614
 198   2.0000      -0.421110       -11.4590
 199   2.0000      -0.413875       -11.2621
 200   2.0000      -0.413241       -11.2449
 201   2.0000      -0.407992       -11.1020
 202   2.0000      -0.404983       -11.0201
 203   2.0000      -0.404190       -10.9986
 204   2.0000      -0.388407       -10.5691
 205   2.0000      -0.381099       -10.3702
 206   2.0000      -0.366556        -9.9745
 207   2.0000      -0.365934        -9.9576
 208   2.0000      -0.363703        -9.8969
 209   2.0000      -0.352597        -9.5947
 210   2.0000      -0.351786        -9.5726
 211   2.0000      -0.351410        -9.5624
 212   2.0000      -0.350983        -9.5507
 213   2.0000      -0.350729        -9.5438
 214   2.0000      -0.350285        -9.5317
 215   2.0000      -0.328838        -8.9481
 216   2.0000      -0.323648        -8.8069
 217   2.0000      -0.321644        -8.7524
 218   2.0000      -0.290502        -7.9049
 219   2.0000      -0.250761        -6.8236
 220   0.0000      -0.143439        -3.9032
 221   0.0000      -0.106646        -2.9020
 222   0.0000      -0.103137        -2.8065
 223   0.0000      -0.067142        -1.8270
 224   0.0000      -0.057652        -1.5688

MULLIKEN ATOMIC CHARGES
-----------------------
   0 C :    0.106664
   1 N :   -0.071713
   2 C :   -0.077123
   3 N :   -0.100175
   4 C :    0.108797
   5 N :   -0.127001
   6 C :   -0.038172
   7 C :   -0.034347
   8 C :    0.008191
   9 C :   -0.096760
  10 S :    0.246030
  11 C :   -0.072016
  12 C :    0.044972
  13 C :    0.299886
  14 C :   -0.296216
  15 C :   -0.195149
  16 N :    0.187894
  17 C :   -0.193611
  18 N :    0.183398
  19 C :   -0.058196
  20 C :   -0.184884
  21 S :    0.209225
  22 C :    0.208106
  23 C :   -0.073382
  24 C :   -0.057310
  25 N :   -0.013712
  26 C :   -0.097799
  27 C :   -0.116880
  28 N :    0.055694
  29 C :   -0.222767
  30 N :    0.260265
  31 C :   -0.237467
  32 N :    0.254194
  33 C :    0.185499
  34 C :   -0.003896
  35 C :   -0.027844
  36 N :   -0.334348
  37 S :    0.584482
  38 N :   -0.275734
  39 C :   -0.174820
  40 C :   -0.065783
  41 C :    0.038414
  42 C :   -0.063547
  43 S :    0.212049
  44 C :   -0.100179
  45 C :    0.009098
  46 C :    0.306368
  47 C :   -0.302376
  48 C :   -0.195765
  49 N :    0.181997
  50 C :   -0.187743
  51 N :    0.173453
  52 C :   -0.035809
  53 C :   -0.038745
  54 S :    0.255549
  55 C :   -0.077146
  56 N :   -0.073238
  57 C :    0.108038
  58 N :   -0.127768
  59 C :    0.108903
  60 N :   -0.097967
  61 H :    0.029634
  62 H :    0.026222
  63 H :    0.025443
  64 H :    0.023691
  65 H :    0.022325
  66 H :    0.025148
  67 H :    0.029268
  68 H :    0.028494
Sum of atomic charges:   -0.0000000

LOEWDIN ATOMIC CHARGES
----------------------
   0 C :    0.079255
   1 N :   -0.098098
   2 C :    0.032562
   3 N :   -0.118590
   4 C :    0.077679
   5 N :   -0.110297
   6 C :   -0.195289
   7 C :    0.008965
   8 C :   -0.069624
   9 C :   -0.171068
  10 S :    0.519267
  11 C :   -0.181082
  12 C :   -0.067395
  13 C :    0.076524
  14 C :   -0.097783
  15 C :   -0.019024
  16 N :   -0.022978
  17 C :   -0.019065
  18 N :   -0.026648
  19 C :   -0.008490
  20 C :   -0.163913
  21 S :    0.513357
  22 C :   -0.040563
  23 C :   -0.004942
  24 C :   -0.013925
  25 N :   -0.018981
  26 C :   -0.019161
  27 C :   -0.018135
  28 N :    0.011048
  29 C :   -0.041690
  30 N :    0.015816
  31 C :   -0.039321
  32 N :    0.004687
  33 C :   -0.034963
  34 C :   -0.037687
  35 C :   -0.045269
  36 N :   -0.302883
  37 S :    0.701138
  38 N :   -0.266628
  39 C :   -0.167210
  40 C :   -0.006965
  41 C :   -0.070301
  42 C :   -0.178098
  43 S :    0.515252
  44 C :   -0.171148
  45 C :   -0.069837
  46 C :    0.079406
  47 C :   -0.102288
  48 C :   -0.019627
  49 N :   -0.027987
  50 C :   -0.015620
  51 N :   -0.035527
  52 C :    0.008107
  53 C :   -0.194267
  54 S :    0.527824
  55 C :    0.032195
  56 N :   -0.098612
  57 C :    0.079110
  58 N :   -0.109729
  59 C :    0.078810
  60 N :   -0.117194
  61 H :    0.026292
  62 H :    0.024923
  63 H :    0.048983
  64 H :    0.037747
  65 H :    0.038388
  66 H :    0.048738
  67 H :    0.026110
  68 H :    0.025720

  Mayer bond orders larger than 0.100000
B(  0-C ,  1-N ) :   1.5104 B(  0-C ,  5-N ) :   1.4996 B(  0-C , 61-H ) :   0.9773
B(  1-N ,  2-C ) :   1.5892 B(  2-C ,  3-N ) :   1.5837 B(  2-C ,  6-C ) :   1.0461
B(  3-N ,  4-C ) :   1.5091 B(  4-C ,  5-N ) :   1.5110 B(  4-C , 62-H ) :   0.9769
B(  6-C ,  7-C ) :   1.4687 B(  6-C , 10-S ) :   1.1042 B(  7-C ,  8-C ) :   1.2735
B(  7-C , 63-H ) :   1.0062 B(  8-C ,  9-C ) :   1.4109 B(  8-C , 13-C ) :   0.9957
B(  9-C , 10-S ) :   1.1380 B(  9-C , 11-C ) :   1.2012 B( 11-C , 12-C ) :   1.4007
B( 11-C , 21-S ) :   1.1041 B( 12-C , 13-C ) :   0.9929 B( 12-C , 19-C ) :   1.2777
B( 13-C , 14-C ) :   1.7173 B( 14-C , 15-C ) :   1.1357 B( 14-C , 17-C ) :   1.1329
B( 15-C , 16-N ) :   2.9925 B( 17-C , 18-N ) :   3.0013 B( 19-C , 20-C ) :   1.4049
B( 19-C , 64-H ) :   0.9837 B( 20-C , 21-S ) :   1.0980 B( 20-C , 22-C ) :   1.1943
B( 22-C , 23-C ) :   1.2565 B( 22-C , 33-C ) :   0.1224 B( 22-C , 35-C ) :   1.1909
B( 23-C , 24-C ) :   1.1065 B( 23-C , 28-N ) :   1.4514 B( 24-C , 25-N ) :   1.3962
B( 24-C , 33-C ) :   1.2481 B( 25-N , 26-C ) :   1.6946 B( 26-C , 27-C ) :   1.2104
B( 26-C , 31-C ) :   1.1627 B( 27-C , 28-N ) :   1.7311 B( 27-C , 29-C ) :   1.1588
B( 29-C , 30-N ) :   3.0275 B( 31-C , 32-N ) :   3.0408 B( 33-C , 34-C ) :   1.2025
B( 33-C , 39-C ) :   1.2109 B( 34-C , 35-C ) :   1.1097 B( 34-C , 38-N ) :   1.5129
B( 35-C , 36-N ) :   1.4718 B( 36-N , 37-S ) :   1.2739 B( 36-N , 38-N ) :   0.1497
B( 37-S , 38-N ) :   1.2932 B( 39-C , 40-C ) :   1.4079 B( 39-C , 43-S ) :   1.0875
B( 40-C , 41-C ) :   1.2851 B( 40-C , 65-H ) :   0.9825 B( 41-C , 42-C ) :   1.4025
B( 41-C , 46-C ) :   0.9890 B( 42-C , 43-S ) :   1.0899 B( 42-C , 44-C ) :   1.2057
B( 44-C , 45-C ) :   1.4072 B( 44-C , 54-S ) :   1.1419 B( 45-C , 46-C ) :   0.9956
B( 45-C , 52-C ) :   1.2758 B( 46-C , 47-C ) :   1.7142 B( 47-C , 48-C ) :   1.1323
B( 47-C , 50-C ) :   1.1404 B( 48-C , 49-N ) :   3.0027 B( 50-C , 51-N ) :   2.9859
B( 52-C , 53-C ) :   1.4670 B( 52-C , 66-H ) :   1.0061 B( 53-C , 54-S ) :   1.1071
B( 53-C , 55-C ) :   1.0445 B( 55-C , 56-N ) :   1.5916 B( 55-C , 60-N ) :   1.5841
B( 56-N , 57-C ) :   1.5085 B( 57-C , 58-N ) :   1.5014 B( 57-C , 67-H ) :   0.9771
B( 58-N , 59-C ) :   1.5092 B( 59-C , 60-N ) :   1.5089 B( 59-C , 68-H ) :   0.9769

-----------------------------------------------------------------------------
         ABSORPTION SPECTRUM VIA TRANSITION ELECTRIC DIPOLE MOMENTS
-----------------------------------------------------------------------------
State   Energy  Wavelength   fosc         T2         TX        TY        TZ
        (cm-1)    (nm)                  (au**2)     (au)      (au)      (au)
-----------------------------------------------------------------------------
   0    8064.1   1240.1   0.575726314  23.50368  -3.45600   3.25671  -0.97654
   1   14458.9    691.6   0.002318505   0.05279  -0.10952   0.10936   0.16980
   2   14833.4    674.2   0.051583659   1.14485  -0.83708   0.66588   0.02723
   3   17440.0    573.4   0.006474782   0.12222   0.05085   0.01016  -0.34574
   4   23184.5    431.3   0.185044131   2.62756  -1.31388   0.89752   0.30940
   5   23685.9    422.2   0.038994909   0.54199   0.07567  -0.39535   0.61641
   6   23759.1    420.9   0.010490195   0.14535  -0.21386  -0.05797   0.31025
   7   24203.6    413.2   0.117333475   1.59595   0.84689  -0.84496   0.40590
   8   24262.5    412.2   0.206959053   2.80818  -1.16135   1.12964  -0.42821
   9   25215.9    396.6   0.001364677   0.01782   0.05906   0.10183   0.06293
  10   25863.0    386.7   0.088566108   1.12736  -0.78417   0.68852  -0.19590
  11   26269.5    380.7   0.354128551   4.43797  -1.64511   1.31585   0.01098
  12   28152.3    355.2   1.048130171  12.25679   2.62577  -2.28460   0.37782
  13   29313.9    341.1   0.117761480   1.32253   0.91612  -0.55017  -0.42494
  14   29901.1    334.4   0.290451016   3.19788   1.39550  -0.60059  -0.94326
  15   29980.2    333.6   0.040418266   0.44383   0.47786  -0.30333   0.35138
  16   30620.7    326.6   0.054966625   0.59096  -0.65419   0.18280   0.35998
  17   31306.3    319.4   0.017453223   0.18354  -0.37578   0.05992  -0.19682
  18   31964.5    312.8   0.022882111   0.23567  -0.22742  -0.26631   0.33620
  19   32211.9    310.4   0.001395151   0.01426  -0.03492  -0.04871   0.10328
  20   32474.7    307.9   1.786088074  18.10644  -1.10367  -1.43775   3.84984
  21   32549.1    307.2   0.024423337   0.24703  -0.15752  -0.17701   0.43690
  22   33339.7    299.9   0.016663203   0.16454  -0.16880   0.27466  -0.24620
  23   33598.8    297.6   0.051479685   0.50441   0.10509  -0.41477   0.56687
  24   33753.9    296.3   0.007092201   0.06917   0.10396  -0.18340  -0.15725
  25   33816.7    295.7   0.212101605   2.06485   1.20946  -0.70760  -0.31838
  26   34124.6    293.0   0.001736312   0.01675   0.07312   0.08967   0.05800
  27   34264.0    291.9   0.133806379   1.28563  -0.68419   0.17641   0.88678
  28   34542.4    289.5   0.189310603   1.80425   1.10012  -0.47002  -0.61079
  29   34822.9    287.2   0.018317923   0.17318  -0.26739  -0.05004   0.31492
  30   35226.0    283.9   0.024430532   0.22832  -0.30069   0.28257   0.24095
  31   35545.1    281.3   0.308722940   2.85933   1.40366  -0.47261  -0.81591
  32   35903.6    278.5   0.101233943   0.92825   0.39382  -0.73212   0.48698
  33   36557.0    273.5   0.054246591   0.48851   0.55525  -0.25303  -0.34087
  34   37738.7    265.0   0.003536304   0.03085  -0.05583  -0.00397   0.16648
  35   38148.5    262.1   0.004120662   0.03556   0.01456   0.09568   0.16184
  36   38317.9    261.0   0.002590525   0.02226  -0.00948   0.12182   0.08559
  37   38385.5    260.5   0.000066461   0.00057  -0.00541   0.02112   0.00972
  38   38497.5    259.8   0.000015367   0.00013   0.00749  -0.00412   0.00764
  39   38828.4    257.5   0.000516846   0.00438  -0.05601  -0.01720   0.03082
  40   39005.0    256.4   0.002880716   0.02431  -0.01734  -0.13977  -0.06692
  41   39578.8    252.7   0.254767827   2.11913  -1.15582   0.77075   0.43492
  42   39745.2    251.6   0.079072071   0.65496   0.72952  -0.24261  -0.25279
  43   39903.2    250.6   0.034490438   0.28456  -0.36329   0.05082   0.38729
  44   39979.6    250.1   0.000500063   0.00412   0.01408   0.03043   0.05471
  45   40021.5    249.9   0.002713271   0.02232  -0.00913  -0.02435   0.14712

FINAL SINGLE POINT ENERGY     -4392.275830810455

DIPOLE MOMENT
-------------
                                X             Y             Z
Electronic contribution:     -0.87244      -1.15905      -0.78155
Nuclear contribution   :     -0.15649       0.86151       2.86271
                        -----------------------------------------
Total Dipole Moment    :     -1.02892      -0.29753       2.08116
                        -----------------------------------------
Magnitude (a.u.)       :      2.34061
Magnitude (Debye)      :      5.94935

Rotational constants in cm-1:     0.002948     0.000399     0.000352
Rotational constants in MHz :    88.368889    11.959895    10.560313

                             ****ORCA TERMINATED NORMALLY****
TOTAL RUN TIME: 0 days 0 hours 5 minutes 32 seconds 475 msec
