                         Program Version 4.2.0 -  RELEASE  -
|  1> # ORCA input file
|  2> # SCF done       -204.256793481272          0.000349580032
|  3> ! CAM-B3LYP def2-SVP def2/J RIJCOSX Grid4 TightSCF
|  4> %maxcore 5000
|  5> %tddft
|  6>     Mode sTDDFT
|  7>     Ethresh 5.0
|  8>     maxcore 5000
|  9> end
| 10>
| 11> %pal
| 12>   nprocs 6
| 13>   end
| 14> * xyz 0 1
| 15>    C        0.85663         4.01108         2.97484
| 16>    C        1.42713         2.77837         2.79325
| 17>    C        2.79937         2.50755         2.98252
| 18>    N        3.90255         2.22237         3.12028
| 19>    C        0.75320         1.60788         2.38434
| 20>    N        0.28356         0.61453         2.05066
| 21>    C        1.57359         5.21935         3.37160
| 22>    C        0.65829         6.30049         3.41093
| 23>    C        1.02909         7.57921         3.74954
| 24>    C        2.37196         7.80403         4.06885
| 25>    C        3.28060         6.71906         4.02991
| 26>    C        2.90393         5.42646         3.68505
| 27>    S        4.88746         7.21611         4.46278
| 28>    C        4.32601         8.85159         4.68683
| 29>    C        3.00280         9.01928         4.45006
| 30>   Br        5.53753        10.18234         5.21296
| 31>    C       -0.67909         5.81073         3.04567
| 32>    O       -1.69726         6.47887         2.97350
| 33>    C       -0.53923         4.37252         2.79559
| 34>    C       -1.56174         3.51670         2.47597
| 35>    C       -2.92895         3.76752         2.28070
| 36>    C       -3.82866         2.73846         1.97251
| 37>    C       -5.12155         3.19571         1.80875
| 38>    C       -5.21758         4.59647         1.98939
| 39>    S       -3.73073         5.33556         2.36670
| 40>    C       -6.56796         4.96762         1.79052
| 41>    C       -7.32575         3.82058         1.48583
| 42>    C       -6.44105         2.66611         1.49365
| 43>    C       -6.77576         1.36584         1.26084
| 44>    C       -5.82086         0.32670         1.30261
| 45>    N       -5.05004        -0.52085         1.33835
| 46>    C       -8.09710         0.96334         0.96772
| 47>    N       -9.16576         0.62242         0.73270
| 48>    C       -8.67156         4.10244         1.25826
| 49>    C       -8.94441         5.45350         1.38701
| 50>    S       -7.51294         6.38652         1.80123
| 51>    C      -10.19956         6.10672         1.20022
| 52>    C      -10.37709         7.47393         1.35004
| 53>    C      -11.59308         8.12075         1.12756
| 54>    C      -12.74705         7.46277         0.72954
| 55>    C      -12.62105         6.05251         0.58629
| 56>    C      -11.36476         5.38304         0.82095
| 57>    N      -11.56812         4.09731         0.61148
| 58>    O      -12.84490         3.96900         0.27537
| 59>    N      -13.49604         5.12449         0.25225
| 60>    C      -13.97650         8.13197         0.45176
| 61>    C      -15.14867         7.57275        -0.02720
| 62>    C      -16.13928         8.53240        -0.22601
| 63>    C      -15.71965         9.83290         0.11246
| 64>    S      -14.10945         9.87141         0.66915
| 65>    C      -16.77725        10.73771        -0.14769
| 66>    C      -17.86898        10.00614        -0.65702
| 67>    C      -17.50321         8.60096        -0.72715
| 68>    C      -18.27330         7.58460        -1.20897
| 69>    C      -17.83087         6.24482        -1.25247
| 70>    N      -17.48470         5.15298        -1.28601
| 71>    C      -19.57375         7.82535        -1.70225
| 72>    N      -20.62780         8.04049        -2.09918
| 73>    C      -18.94582        10.81293        -0.99890
| 74>    C      -18.69267        12.15598        -0.75989
| 75>    S      -17.09814        12.40624        -0.06045
| 76>    C      -19.53912        13.26625        -0.97648
| 77>    C      -20.61611        13.35916        -1.80350
| 78>    C      -21.10658        12.53836        -2.89224
| 79>    C      -20.35892        11.77073        -3.74714
| 80>    C      -20.88722        11.11274        -4.87826
| 81>    N      -21.26307        10.56433        -5.81327
| 82>    C      -18.96036        11.62752        -3.66509
| 83>    N      -17.81866        11.50447        -3.66048
| 84>    C      -22.50463        12.89723        -3.10522
| 85>    C      -22.79700        14.06376        -2.35341
| 86>    C      -21.60595        14.45112        -1.57484
| 87>    O      -21.46005        15.41636        -0.86182
| 88>    C      -24.02904        14.67113        -2.38651
| 89>    C      -25.01973        14.09369        -3.18780
| 90>    C      -24.72264        12.91693        -3.91803
| 91>    C      -23.47472        12.30649        -3.89162
| 92>    S      -26.09428        12.36609        -4.82884
| 93>    C      -27.03448        13.70786        -4.23218
| 94>    C      -26.35860        14.52608        -3.39041
| 95>   Br      -28.81843        13.90123        -4.77489
| 96>    H        0.30641         8.37982         3.76843
| 97>    H        3.63554         4.63633         3.67194
| 98>    H        2.49173         9.96029         4.54056
| 99>    H       -1.30558         2.47143         2.35212
|100>    H       -3.51428         1.71398         1.87825
|101>    H       -9.43354         3.38693         1.00745
|102>    H       -9.52868         8.07446         1.64443
|103>    H      -11.63037         9.19231         1.26015
|104>    H      -15.24358         6.51905        -0.21768
|105>    H      -19.88853        10.45332        -1.36914
|106>    H      -19.35059        14.14546        -0.36792
|107>    H      -24.22333        15.56380        -1.81305
|108>    H      -23.29479        11.40603        -4.45524
|109>    H      -26.78515        15.39881        -2.93077
|110> *
|111>
|112>                          ****END OF INPUT****

CARTESIAN COORDINATES (ANGSTROEM)
---------------------------------
  C      0.856630    4.011080    2.974840
  C      1.427130    2.778370    2.793250
  C      2.799370    2.507550    2.982520
  N      3.902550    2.222370    3.120280
  C      0.753200    1.607880    2.384340
  N      0.283560    0.614530    2.050660
  C      1.573590    5.219350    3.371600
  C      0.658290    6.300490    3.410930
  C      1.029090    7.579210    3.749540
  C      2.371960    7.804030    4.068850
  C      3.280600    6.719060    4.029910
  C      2.903930    5.426460    3.685050
  S      4.887460    7.216110    4.462780
  C      4.326010    8.851590    4.686830
  C      3.002800    9.019280    4.450060
  Br     5.537530   10.182340    5.212960
  C     -0.679090    5.810730    3.045670
  O     -1.697260    6.478870    2.973500
  C     -0.539230    4.372520    2.795590
  C     -1.561740    3.516700    2.475970
  C     -2.928950    3.767520    2.280700
  C     -3.828660    2.738460    1.972510
  C     -5.121550    3.195710    1.808750
  C     -5.217580    4.596470    1.989390
  S     -3.730730    5.335560    2.366700
  C     -6.567960    4.967620    1.790520
  C     -7.325750    3.820580    1.485830
  C     -6.441050    2.666110    1.493650
  C     -6.775760    1.365840    1.260840
  C     -5.820860    0.326700    1.302610
  N     -5.050040   -0.520850    1.338350
  C     -8.097100    0.963340    0.967720
  N     -9.165760    0.622420    0.732700
  C     -8.671560    4.102440    1.258260
  C     -8.944410    5.453500    1.387010
  S     -7.512940    6.386520    1.801230
  C    -10.199560    6.106720    1.200220
  C    -10.377090    7.473930    1.350040
  C    -11.593080    8.120750    1.127560
  C    -12.747050    7.462770    0.729540
  C    -12.621050    6.052510    0.586290
  C    -11.364760    5.383040    0.820950
  N    -11.568120    4.097310    0.611480
  O    -12.844900    3.969000    0.275370
  N    -13.496040    5.124490    0.252250
  C    -13.976500    8.131970    0.451760
  C    -15.148670    7.572750   -0.027200
  C    -16.139280    8.532400   -0.226010
  C    -15.719650    9.832900    0.112460
  S    -14.109450    9.871410    0.669150
  C    -16.777250   10.737710   -0.147690
  C    -17.868980   10.006140   -0.657020
  C    -17.503210    8.600960   -0.727150
  C    -18.273300    7.584600   -1.208970
  C    -17.830870    6.244820   -1.252470
  N    -17.484700    5.152980   -1.286010
  C    -19.573750    7.825350   -1.702250
  N    -20.627800    8.040490   -2.099180
  C    -18.945820   10.812930   -0.998900
  C    -18.692670   12.155980   -0.759890
  S    -17.098140   12.406240   -0.060450
  C    -19.539120   13.266250   -0.976480
  C    -20.616110   13.359160   -1.803500
  C    -21.106580   12.538360   -2.892240
  C    -20.358920   11.770730   -3.747140
  C    -20.887220   11.112740   -4.878260
  N    -21.263070   10.564330   -5.813270
  C    -18.960360   11.627520   -3.665090
  N    -17.818660   11.504470   -3.660480
  C    -22.504630   12.897230   -3.105220
  C    -22.797000   14.063760   -2.353410
  C    -21.605950   14.451120   -1.574840
  O    -21.460050   15.416360   -0.861820
  C    -24.029040   14.671130   -2.386510
  C    -25.019730   14.093690   -3.187800
  C    -24.722640   12.916930   -3.918030
  C    -23.474720   12.306490   -3.891620
  S    -26.094280   12.366090   -4.828840
  C    -27.034480   13.707860   -4.232180
  C    -26.358600   14.526080   -3.390410
  Br   -28.818430   13.901230   -4.774890
  H      0.306410    8.379820    3.768430
  H      3.635540    4.636330    3.671940
  H      2.491730    9.960290    4.540560
  H     -1.305580    2.471430    2.352120
  H     -3.514280    1.713980    1.878250
  H     -9.433540    3.386930    1.007450
  H     -9.528680    8.074460    1.644430
  H    -11.630370    9.192310    1.260150
  H    -15.243580    6.519050   -0.217680
  H    -19.888530   10.453320   -1.369140
  H    -19.350590   14.145460   -0.367920
  H    -24.223330   15.563800   -1.813050
  H    -23.294790   11.406030   -4.455240
  H    -26.785150   15.398810   -2.930770

 Total Charge           Charge          ....    0
 Multiplicity           Mult            ....    1
 Number of Electrons    NEL             ....  634
 Basis Dimension        Dim             .... 1264

ORBITAL ENERGIES
----------------

  NO   OCC          E(Eh)            E(eV)
   0   2.0000    -482.890456    -13140.1173
   1   2.0000    -482.887705    -13140.0425
   2   2.0000     -89.001627     -2421.8574
   3   2.0000     -89.001054     -2421.8418
   4   2.0000     -89.000198     -2421.8185
   5   2.0000     -88.995281     -2421.6847
   6   2.0000     -88.981415     -2421.3074
   7   2.0000     -88.978232     -2421.2208
   8   2.0000     -62.568171     -1702.5665
   9   2.0000     -62.565424     -1702.4917
  10   2.0000     -56.402129     -1534.7800
  11   2.0000     -56.399402     -1534.7057
  12   2.0000     -56.399379     -1534.7051
  13   2.0000     -56.399367     -1534.7048
  14   2.0000     -56.396654     -1534.6310
  15   2.0000     -56.396623     -1534.6301
  16   2.0000     -19.372197      -527.1443
  17   2.0000     -19.231574      -523.3177
  18   2.0000     -19.220925      -523.0280
  19   2.0000     -14.497265      -394.4906
  20   2.0000     -14.497070      -394.4853
  21   2.0000     -14.437141      -392.8546
  22   2.0000     -14.433174      -392.7466
  23   2.0000     -14.433007      -392.7421
  24   2.0000     -14.431592      -392.7036
  25   2.0000     -14.422318      -392.4512
  26   2.0000     -14.421529      -392.4298
  27   2.0000     -14.419148      -392.3650
  28   2.0000     -14.418016      -392.3341
  29   2.0000     -10.379017      -282.4274
  30   2.0000     -10.372297      -282.2446
  31   2.0000     -10.372033      -282.2374
  32   2.0000     -10.370200      -282.1875
  33   2.0000     -10.364439      -282.0307
  34   2.0000     -10.361473      -281.9500
  35   2.0000     -10.358443      -281.8676
  36   2.0000     -10.357277      -281.8358
  37   2.0000     -10.348884      -281.6075
  38   2.0000     -10.348188      -281.5885
  39   2.0000     -10.348096      -281.5860
  40   2.0000     -10.347733      -281.5761
  41   2.0000     -10.347504      -281.5699
  42   2.0000     -10.344677      -281.4930
  43   2.0000     -10.344446      -281.4867
  44   2.0000     -10.344328      -281.4835
  45   2.0000     -10.342141      -281.4240
  46   2.0000     -10.339013      -281.3389
  47   2.0000     -10.338560      -281.3265
  48   2.0000     -10.337489      -281.2974
  49   2.0000     -10.337155      -281.2883
  50   2.0000     -10.333717      -281.1947
  51   2.0000     -10.333320      -281.1839
  52   2.0000     -10.332802      -281.1698
  53   2.0000     -10.332632      -281.1652
  54   2.0000     -10.332622      -281.1649
  55   2.0000     -10.332440      -281.1600
  56   2.0000     -10.332139      -281.1518
  57   2.0000     -10.331718      -281.1403
  58   2.0000     -10.330818      -281.1158
  59   2.0000     -10.330156      -281.0978
  60   2.0000     -10.329375      -281.0766
  61   2.0000     -10.323921      -280.9282
  62   2.0000     -10.323856      -280.9264
  63   2.0000     -10.322041      -280.8770
  64   2.0000     -10.320316      -280.8301
  65   2.0000     -10.318406      -280.7781
  66   2.0000     -10.318041      -280.7682
  67   2.0000     -10.317763      -280.7606
  68   2.0000     -10.317015      -280.7402
  69   2.0000     -10.315660      -280.7034
  70   2.0000     -10.314754      -280.6787
  71   2.0000     -10.314676      -280.6766
  72   2.0000     -10.313795      -280.6526
  73   2.0000     -10.313495      -280.6445
  74   2.0000     -10.313043      -280.6322
  75   2.0000     -10.311523      -280.5908
  76   2.0000     -10.311157      -280.5809
  77   2.0000     -10.311050      -280.5779
  78   2.0000     -10.309396      -280.5329
  79   2.0000     -10.308617      -280.5117
  80   2.0000     -10.308474      -280.5078
  81   2.0000     -10.307940      -280.4933
  82   2.0000     -10.306261      -280.4476
  83   2.0000     -10.305603      -280.4297
  84   2.0000     -10.305577      -280.4290
  85   2.0000     -10.302339      -280.3409
  86   2.0000     -10.299616      -280.2668
  87   2.0000     -10.299274      -280.2575
  88   2.0000     -10.297561      -280.2109
  89   2.0000      -8.797606      -239.3950
  90   2.0000      -8.794861      -239.3203
  91   2.0000      -8.096365      -220.3133
  92   2.0000      -8.095670      -220.2944
  93   2.0000      -8.094771      -220.2699
  94   2.0000      -8.087544      -220.0732
  95   2.0000      -8.077343      -219.7957
  96   2.0000      -8.074335      -219.7138
  97   2.0000      -6.633953      -180.5190
  98   2.0000      -6.631187      -180.4438
  99   2.0000      -6.619312      -180.1206
 100   2.0000      -6.619120      -180.1154
 101   2.0000      -6.616586      -180.0465
 102   2.0000      -6.616374      -180.0407
 103   2.0000      -6.065509      -165.0509
 104   2.0000      -6.064909      -165.0346
 105   2.0000      -6.064014      -165.0102
 106   2.0000      -6.061381      -164.9386
 107   2.0000      -6.060754      -164.9215
 108   2.0000      -6.059821      -164.8961
 109   2.0000      -6.058841      -164.8694
 110   2.0000      -6.058041      -164.8477
 111   2.0000      -6.057177      -164.8242
 112   2.0000      -6.056998      -164.8193
 113   2.0000      -6.052196      -164.6886
 114   2.0000      -6.050093      -164.6314
 115   2.0000      -6.047045      -164.5485
 116   2.0000      -6.044017      -164.4661
 117   2.0000      -6.042725      -164.4309
 118   2.0000      -6.039729      -164.3494
 119   2.0000      -6.038605      -164.3188
 120   2.0000      -6.035537      -164.2353
 121   2.0000      -2.749766       -74.8249
 122   2.0000      -2.747043       -74.7508
 123   2.0000      -2.745757       -74.7159
 124   2.0000      -2.745549       -74.7102
 125   2.0000      -2.742965       -74.6399
 126   2.0000      -2.742809       -74.6356
 127   2.0000      -2.733946       -74.3945
 128   2.0000      -2.733913       -74.3936
 129   2.0000      -2.731200       -74.3197
 130   2.0000      -2.731183       -74.3193
 131   2.0000      -1.328059       -36.1383
 132   2.0000      -1.147061       -31.2131
 133   2.0000      -1.136482       -30.9252
 134   2.0000      -1.055699       -28.7270
 135   2.0000      -1.052977       -28.6530
 136   2.0000      -1.031623       -28.0719
 137   2.0000      -1.029265       -28.0077
 138   2.0000      -1.028558       -27.9885
 139   2.0000      -1.028184       -27.9783
 140   2.0000      -1.025886       -27.9158
 141   2.0000      -1.023422       -27.8487
 142   2.0000      -1.019015       -27.7288
 143   2.0000      -1.017818       -27.6962
 144   2.0000      -1.012187       -27.5430
 145   2.0000      -1.009801       -27.4781
 146   2.0000      -1.007700       -27.4209
 147   2.0000      -1.002210       -27.2715
 148   2.0000      -0.999237       -27.1906
 149   2.0000      -0.998369       -27.1670
 150   2.0000      -0.996027       -27.1033
 151   2.0000      -0.993788       -27.0423
 152   2.0000      -0.969558       -26.3830
 153   2.0000      -0.966401       -26.2971
 154   2.0000      -0.948662       -25.8144
 155   2.0000      -0.947133       -25.7728
 156   2.0000      -0.940199       -25.5841
 157   2.0000      -0.932001       -25.3610
 158   2.0000      -0.923354       -25.1257
 159   2.0000      -0.914744       -24.8915
 160   2.0000      -0.912737       -24.8368
 161   2.0000      -0.909595       -24.7513
 162   2.0000      -0.899416       -24.4744
 163   2.0000      -0.892312       -24.2811
 164   2.0000      -0.891780       -24.2666
 165   2.0000      -0.889745       -24.2112
 166   2.0000      -0.879866       -23.9424
 167   2.0000      -0.878353       -23.9012
 168   2.0000      -0.866694       -23.5839
 169   2.0000      -0.865917       -23.5628
 170   2.0000      -0.864252       -23.5175
 171   2.0000      -0.857631       -23.3373
 172   2.0000      -0.835761       -22.7422
 173   2.0000      -0.833218       -22.6730
 174   2.0000      -0.824734       -22.4422
 175   2.0000      -0.805150       -21.9092
 176   2.0000      -0.795627       -21.6501
 177   2.0000      -0.788499       -21.4561
 178   2.0000      -0.786980       -21.4148
 179   2.0000      -0.773929       -21.0597
 180   2.0000      -0.771569       -20.9955
 181   2.0000      -0.766824       -20.8663
 182   2.0000      -0.765891       -20.8409
 183   2.0000      -0.761302       -20.7161
 184   2.0000      -0.740425       -20.1480
 185   2.0000      -0.725976       -19.7548
 186   2.0000      -0.716824       -19.5058
 187   2.0000      -0.707873       -19.2622
 188   2.0000      -0.706055       -19.2127
 189   2.0000      -0.700901       -19.0725
 190   2.0000      -0.698846       -19.0166
 191   2.0000      -0.695077       -18.9140
 192   2.0000      -0.691073       -18.8051
 193   2.0000      -0.690344       -18.7852
 194   2.0000      -0.684634       -18.6298
 195   2.0000      -0.677384       -18.4326
 196   2.0000      -0.665497       -18.1091
 197   2.0000      -0.664469       -18.0811
 198   2.0000      -0.657250       -17.8847
 199   2.0000      -0.653076       -17.7711
 200   2.0000      -0.650683       -17.7060
 201   2.0000      -0.643490       -17.5103
 202   2.0000      -0.640972       -17.4417
 203   2.0000      -0.633670       -17.2430
 204   2.0000      -0.628877       -17.1126
 205   2.0000      -0.626745       -17.0546
 206   2.0000      -0.624495       -16.9934
 207   2.0000      -0.623906       -16.9773
 208   2.0000      -0.623192       -16.9579
 209   2.0000      -0.616149       -16.7663
 210   2.0000      -0.609037       -16.5727
 211   2.0000      -0.605614       -16.4796
 212   2.0000      -0.601961       -16.3802
 213   2.0000      -0.595435       -16.2026
 214   2.0000      -0.591184       -16.0869
 215   2.0000      -0.583255       -15.8712
 216   2.0000      -0.581807       -15.8318
 217   2.0000      -0.570896       -15.5349
 218   2.0000      -0.565193       -15.3797
 219   2.0000      -0.557412       -15.1679
 220   2.0000      -0.556166       -15.1340
 221   2.0000      -0.554554       -15.0902
 222   2.0000      -0.554040       -15.0762
 223   2.0000      -0.549964       -14.9653
 224   2.0000      -0.548953       -14.9378
 225   2.0000      -0.545414       -14.8415
 226   2.0000      -0.542325       -14.7574
 227   2.0000      -0.541559       -14.7366
 228   2.0000      -0.539449       -14.6792
 229   2.0000      -0.533115       -14.5068
 230   2.0000      -0.529359       -14.4046
 231   2.0000      -0.527797       -14.3621
 232   2.0000      -0.522140       -14.2081
 233   2.0000      -0.518810       -14.1175
 234   2.0000      -0.518082       -14.0977
 235   2.0000      -0.516239       -14.0476
 236   2.0000      -0.515283       -14.0216
 237   2.0000      -0.514094       -13.9892
 238   2.0000      -0.511474       -13.9179
 239   2.0000      -0.509486       -13.8638
 240   2.0000      -0.508848       -13.8465
 241   2.0000      -0.506109       -13.7719
 242   2.0000      -0.505761       -13.7624
 243   2.0000      -0.505129       -13.7452
 244   2.0000      -0.503253       -13.6942
 245   2.0000      -0.500591       -13.6218
 246   2.0000      -0.499989       -13.6054
 247   2.0000      -0.497716       -13.5435
 248   2.0000      -0.494473       -13.4553
 249   2.0000      -0.492010       -13.3883
 250   2.0000      -0.488017       -13.2796
 251   2.0000      -0.482793       -13.1375
 252   2.0000      -0.481725       -13.1084
 253   2.0000      -0.479909       -13.0590
 254   2.0000      -0.479183       -13.0392
 255   2.0000      -0.474294       -12.9062
 256   2.0000      -0.466461       -12.6930
 257   2.0000      -0.466050       -12.6819
 258   2.0000      -0.462293       -12.5796
 259   2.0000      -0.462260       -12.5787
 260   2.0000      -0.461891       -12.5687
 261   2.0000      -0.459631       -12.5072
 262   2.0000      -0.457585       -12.4515
 263   2.0000      -0.456719       -12.4280
 264   2.0000      -0.455262       -12.3883
 265   2.0000      -0.453818       -12.3490
 266   2.0000      -0.453086       -12.3291
 267   2.0000      -0.452327       -12.3084
 268   2.0000      -0.450789       -12.2666
 269   2.0000      -0.448571       -12.2063
 270   2.0000      -0.448107       -12.1936
 271   2.0000      -0.446175       -12.1410
 272   2.0000      -0.445165       -12.1136
 273   2.0000      -0.444487       -12.0951
 274   2.0000      -0.443357       -12.0644
 275   2.0000      -0.441993       -12.0272
 276   2.0000      -0.441875       -12.0240
 277   2.0000      -0.441451       -12.0125
 278   2.0000      -0.439374       -11.9560
 279   2.0000      -0.433509       -11.7964
 280   2.0000      -0.431802       -11.7499
 281   2.0000      -0.431375       -11.7383
 282   2.0000      -0.430971       -11.7273
 283   2.0000      -0.429482       -11.6868
 284   2.0000      -0.428223       -11.6525
 285   2.0000      -0.424206       -11.5432
 286   2.0000      -0.421939       -11.4815
 287   2.0000      -0.419175       -11.4063
 288   2.0000      -0.415953       -11.3187
 289   2.0000      -0.414401       -11.2764
 290   2.0000      -0.414115       -11.2686
 291   2.0000      -0.411841       -11.2068
 292   2.0000      -0.407571       -11.0906
 293   2.0000      -0.398713       -10.8495
 294   2.0000      -0.394813       -10.7434
 295   2.0000      -0.393464       -10.7067
 296   2.0000      -0.389042       -10.5864
 297   2.0000      -0.385447       -10.4886
 298   2.0000      -0.379858       -10.3365
 299   2.0000      -0.377155       -10.2629
 300   2.0000      -0.376983       -10.2582
 301   2.0000      -0.368678       -10.0322
 302   2.0000      -0.357852        -9.7377
 303   2.0000      -0.357098        -9.7171
 304   2.0000      -0.356502        -9.7009
 305   2.0000      -0.347752        -9.4628
 306   2.0000      -0.345811        -9.4100
 307   2.0000      -0.337875        -9.1941
 308   2.0000      -0.330511        -8.9937
 309   2.0000      -0.328161        -8.9297
 310   2.0000      -0.322085        -8.7644
 311   2.0000      -0.318824        -8.6756
 312   2.0000      -0.313624        -8.5341
 313   2.0000      -0.299667        -8.1544
 314   2.0000      -0.297498        -8.0953
 315   2.0000      -0.282065        -7.6754
 316   2.0000      -0.256761        -6.9868
 317   0.0000      -0.124284        -3.3819
 318   0.0000      -0.113716        -3.0944
 319   0.0000      -0.094375        -2.5681
 320   0.0000      -0.092259        -2.5105
 321   0.0000      -0.083767        -2.2794

MULLIKEN ATOMIC CHARGES
-----------------------
   0 C :    0.325822
   1 C :   -0.353659
   2 C :   -0.185046
   3 N :    0.152667
   4 C :   -0.192952
   5 N :    0.158072
   6 C :    0.012754
   7 C :   -0.013161
   8 C :   -0.071439
   9 C :    0.118378
  10 C :   -0.091534
  11 C :   -0.019652
  12 S :    0.191162
  13 C :   -0.122753
  14 C :    0.037514
  15 Br:    0.026807
  16 C :    0.164750
  17 O :   -0.191386
  18 C :   -0.087174
  19 C :   -0.031166
  20 C :   -0.052237
  21 C :   -0.061281
  22 C :    0.051678
  23 C :   -0.071864
  24 S :    0.241526
  25 C :   -0.094853
  26 C :    0.035858
  27 C :    0.304051
  28 C :   -0.294351
  29 C :   -0.197202
  30 N :    0.188991
  31 C :   -0.193045
  32 N :    0.191496
  33 C :   -0.059866
  34 C :   -0.109156
  35 S :    0.174768
  36 C :    0.151149
  37 C :   -0.065706
  38 C :   -0.071475
  39 C :    0.156113
  40 C :   -0.043429
  41 C :   -0.045229
  42 N :    0.050021
  43 O :   -0.070491
  44 N :    0.048317
  45 C :   -0.110945
  46 C :   -0.061064
  47 C :    0.035049
  48 C :   -0.089834
  49 S :    0.171563
  50 C :   -0.072597
  51 C :   -0.001918
  52 C :    0.308852
  53 C :   -0.289835
  54 C :   -0.192343
  55 N :    0.192797
  56 C :   -0.181794
  57 N :    0.171688
  58 C :   -0.005475
  59 C :   -0.112834
  60 S :    0.216234
  61 C :    0.078548
  62 C :   -0.130144
  63 C :    0.268448
  64 C :   -0.329890
  65 C :   -0.173383
  66 N :    0.163355
  67 C :   -0.199825
  68 N :    0.165496
  69 C :   -0.007283
  70 C :    0.007634
  71 C :    0.132300
  72 O :   -0.143536
  73 C :   -0.071655
  74 C :    0.113114
  75 C :   -0.087923
  76 C :   -0.014774
  77 S :    0.191185
  78 C :   -0.125540
  79 C :    0.040762
  80 Br:    0.026953
  81 H :   -0.009722
  82 H :   -0.005048
  83 H :   -0.002907
  84 H :    0.017115
  85 H :    0.029192
  86 H :    0.031504
  87 H :   -0.002471
  88 H :   -0.002225
  89 H :    0.030486
  90 H :    0.025233
  91 H :    0.022679
  92 H :   -0.008448
  93 H :    0.003834
  94 H :   -0.002398
Sum of atomic charges:   -0.0000000

LOEWDIN ATOMIC CHARGES
----------------------
   0 C :    0.075966
   1 C :   -0.139215
   2 C :   -0.017934
   3 N :   -0.051023
   4 C :   -0.023767
   5 N :   -0.044954
   6 C :   -0.019627
   7 C :   -0.052104
   8 C :    0.022527
   9 C :   -0.032926
  10 C :   -0.143228
  11 C :   -0.008175
  12 S :    0.437027
  13 C :   -0.270821
  14 C :   -0.070607
  15 Br:    0.139506
  16 C :    0.086300
  17 O :   -0.175998
  18 C :   -0.110187
  19 C :    0.056529
  20 C :   -0.182533
  21 C :    0.012428
  22 C :   -0.074053
  23 C :   -0.169736
  24 S :    0.546312
  25 C :   -0.180417
  26 C :   -0.054955
  27 C :    0.074053
  28 C :   -0.093347
  29 C :   -0.019469
  30 N :   -0.021803
  31 C :   -0.021480
  32 N :   -0.017449
  33 C :   -0.017657
  34 C :   -0.154629
  35 S :    0.478846
  36 C :   -0.040022
  37 C :   -0.014595
  38 C :   -0.017584
  39 C :   -0.036653
  40 C :   -0.042877
  41 C :   -0.042829
  42 N :   -0.013100
  43 O :    0.093936
  44 N :   -0.012810
  45 C :   -0.158855
  46 C :   -0.014200
  47 C :   -0.058649
  48 C :   -0.175856
  49 S :    0.478901
  50 C :   -0.162993
  51 C :   -0.061576
  52 C :    0.079087
  53 C :   -0.090984
  54 C :   -0.021693
  55 N :   -0.015086
  56 C :   -0.011770
  57 N :   -0.031113
  58 C :    0.006225
  59 C :   -0.179659
  60 S :    0.499892
  61 C :    0.041524
  62 C :   -0.087981
  63 C :    0.065720
  64 C :   -0.135844
  65 C :   -0.019761
  66 N :   -0.043956
  67 C :   -0.015507
  68 N :   -0.047858
  69 C :   -0.017996
  70 C :   -0.053850
  71 C :    0.083683
  72 O :   -0.142540
  73 C :    0.023594
  74 C :   -0.032608
  75 C :   -0.142140
  76 C :   -0.008360
  77 S :    0.437117
  78 C :   -0.271025
  79 C :   -0.070190
  80 Br:    0.139341
  81 H :    0.040932
  82 H :    0.041720
  83 H :    0.038957
  84 H :    0.054039
  85 H :    0.048514
  86 H :    0.043489
  87 H :    0.028836
  88 H :    0.028758
  89 H :    0.043565
  90 H :    0.042698
  91 H :    0.046343
  92 H :    0.041822
  93 H :    0.043260
  94 H :    0.039165

  Mayer bond orders larger than 0.100000
B(  0-C ,  1-C ) :   1.6279 B(  0-C ,  6-C ) :   0.9995 B(  0-C , 18-C ) :   1.0767
B(  1-C ,  2-C ) :   1.1461 B(  1-C ,  4-C ) :   1.1443 B(  2-C ,  3-N ) :   2.9668
B(  4-C ,  5-N ) :   2.9616 B(  6-C ,  7-C ) :   1.2745 B(  6-C , 11-C ) :   1.4122
B(  7-C ,  8-C ) :   1.4182 B(  7-C , 16-C ) :   0.9660 B(  8-C ,  9-C ) :   1.2434
B(  8-C , 81-H ) :   1.0180 B(  9-C , 10-C ) :   1.3048 B(  9-C , 14-C ) :   1.1649
B( 10-C , 11-C ) :   1.3270 B( 10-C , 12-S ) :   1.0900 B( 11-C , 82-H ) :   0.9806
B( 12-S , 13-C ) :   1.0879 B( 13-C , 14-C ) :   1.6154 B( 13-C , 15-Br) :   1.0197
B( 14-C , 83-H ) :   1.0005 B( 16-C , 17-O ) :   2.1079 B( 16-C , 18-C ) :   0.9828
B( 18-C , 19-C ) :   1.4944 B( 19-C , 20-C ) :   1.2658 B( 19-C , 84-H ) :   0.9394
B( 20-C , 21-C ) :   1.3271 B( 20-C , 24-S ) :   1.0711 B( 21-C , 22-C ) :   1.3315
B( 21-C , 85-H ) :   1.0088 B( 22-C , 23-C ) :   1.3580 B( 22-C , 27-C ) :   0.9816
B( 23-C , 24-S ) :   1.1206 B( 23-C , 25-C ) :   1.2039 B( 25-C , 26-C ) :   1.4297
B( 25-C , 35-S ) :   1.1213 B( 26-C , 27-C ) :   0.9975 B( 26-C , 33-C ) :   1.2538
B( 27-C , 28-C ) :   1.7202 B( 28-C , 29-C ) :   1.1365 B( 28-C , 31-C ) :   1.1360
B( 29-C , 30-N ) :   2.9952 B( 31-C , 32-N ) :   2.9926 B( 33-C , 34-C ) :   1.4783
B( 33-C , 86-H ) :   0.9812 B( 34-C , 35-S ) :   1.0950 B( 34-C , 36-C ) :   1.1317
B( 36-C , 37-C ) :   1.4592 B( 36-C , 39-C ) :   0.1130 B( 36-C , 41-C ) :   1.1464
B( 37-C , 38-C ) :   1.2540 B( 37-C , 87-H ) :   0.9831 B( 38-C , 39-C ) :   1.4587
B( 38-C , 88-H ) :   0.9839 B( 39-C , 40-C ) :   1.1464 B( 39-C , 45-C ) :   1.1327
B( 40-C , 41-C ) :   1.1487 B( 40-C , 44-N ) :   1.5939 B( 41-C , 42-N ) :   1.5969
B( 42-N , 43-O ) :   1.0735 B( 42-N , 44-N ) :   0.1801 B( 43-O , 44-N ) :   1.0729
B( 45-C , 46-C ) :   1.4773 B( 45-C , 49-S ) :   1.0924 B( 46-C , 47-C ) :   1.2554
B( 46-C , 89-H ) :   0.9829 B( 47-C , 48-C ) :   1.4365 B( 47-C , 52-C ) :   0.9926
B( 48-C , 49-S ) :   1.1245 B( 48-C , 50-C ) :   1.1929 B( 50-C , 51-C ) :   1.4160
B( 50-C , 60-S ) :   1.1490 B( 51-C , 52-C ) :   0.9956 B( 51-C , 58-C ) :   1.3549
B( 52-C , 53-C ) :   1.7216 B( 53-C , 54-C ) :   1.1347 B( 53-C , 56-C ) :   1.1348
B( 54-C , 55-N ) :   2.9939 B( 56-C , 57-N ) :   2.9807 B( 58-C , 59-C ) :   1.4018
B( 58-C , 90-H ) :   0.9817 B( 59-C , 60-S ) :   1.0928 B( 59-C , 61-C ) :   1.1235
B( 61-C , 62-C ) :   1.6824 B( 61-C , 91-H ) :   0.9295 B( 62-C , 63-C ) :   1.0324
B( 62-C , 71-C ) :   0.9423 B( 63-C , 64-C ) :   1.6523 B( 63-C , 69-C ) :   1.0121
B( 64-C , 65-C ) :   1.1246 B( 64-C , 67-C ) :   1.1711 B( 65-C , 66-N ) :   2.9954
B( 67-C , 68-N ) :   2.9972 B( 69-C , 70-C ) :   1.2732 B( 69-C , 76-C ) :   1.4148
B( 70-C , 71-C ) :   0.9230 B( 70-C , 73-C ) :   1.4218 B( 71-C , 72-O ) :   2.2657
B( 73-C , 74-C ) :   1.2523 B( 73-C , 92-H ) :   1.0172 B( 74-C , 75-C ) :   1.3037
B( 74-C , 79-C ) :   1.1641 B( 75-C , 76-C ) :   1.3283 B( 75-C , 77-S ) :   1.0871
B( 76-C , 93-H ) :   0.9835 B( 77-S , 78-C ) :   1.0884 B( 78-C , 79-C ) :   1.6166
B( 78-C , 80-Br) :   1.0211 B( 79-C , 94-H ) :   1.0009

-----------------------------------------------------------------------------
         ABSORPTION SPECTRUM VIA TRANSITION ELECTRIC DIPOLE MOMENTS
-----------------------------------------------------------------------------
State   Energy  Wavelength   fosc         T2         TX        TY        TZ
        (cm-1)    (nm)                  (au**2)     (au)      (au)      (au)
-----------------------------------------------------------------------------
   0   13138.0    761.2   1.041250450  26.09173   4.57929  -1.92264   1.19386
   1   14594.7    685.2   0.116201636   2.62115  -1.60908  -0.09133  -0.15380
   2   18846.8    530.6   1.519027617  26.53412   4.60805  -1.84617   1.37535
   3   21151.0    472.8   0.189418087   2.94826  -1.48183  -0.65161   0.57257
   4   21700.6    460.8   0.003209241   0.04869  -0.05211  -0.18268   0.11225
   5   23255.6    430.0   0.175892273   2.48998  -1.27012  -0.77886  -0.51977
   6   23883.6    418.7   0.027551711   0.37977  -0.51996   0.07329  -0.32256
   7   25300.9    395.2   0.079986643   1.04078  -0.98119   0.26951   0.07348
   8   26026.6    384.2   0.015128370   0.19136  -0.13213  -0.39328  -0.13869
   9   27060.6    369.5   0.170774712   2.07760  -0.67475  -1.22356  -0.35385
  10   27893.7    358.5   0.007980938   0.09419   0.24187   0.04114   0.18439
  11   28434.3    351.7   0.144288208   1.67057   1.11426   0.48049   0.44510
  12   28755.0    347.8   0.130864740   1.49825   0.38698  -1.16059  -0.03919
  13   28771.8    347.6   0.014573729   0.16676  -0.17758   0.36021  -0.07397
  14   29074.7    343.9   0.023693090   0.26828   0.38598   0.11104   0.32705
  15   29150.1    343.1   0.045600410   0.51500  -0.59240  -0.39970   0.06555
  16   29467.6    339.4   0.140660469   1.57146   0.67440  -1.02251  -0.26668
  17   29789.7    335.7   0.053037421   0.58613   0.67332   0.17856   0.31762
  18   29911.0    334.3   0.227070781   2.49923   0.32875  -1.53237  -0.20732
  19   29995.5    333.4   0.409166470   4.49075   1.87227   0.89688   0.42540
  20   30452.5    328.4   0.234393237   2.53395   1.49916  -0.03073   0.53434
  21   30795.6    324.7   0.020830498   0.22268   0.29628  -0.14895  -0.33573
  22   31202.7    320.5   0.072192526   0.76169  -0.07734  -0.86368   0.09879
  23   31884.8    313.6   0.541782485   5.59393   0.98586   2.02531   0.72119
  24   32181.1    310.7   0.182790095   1.86994  -0.69657  -1.15894  -0.20390
  25   32259.3    310.0   0.500773530   5.11049  -1.85157   1.29458  -0.07887
  26   32760.0    305.3   0.154740380   1.55502   1.06674  -0.49256   0.41770
  27   33099.5    302.1   0.107151871   1.06575  -0.84834  -0.53621  -0.24196
  28   33197.2    301.2   0.000963633   0.00956   0.08727   0.02842  -0.03366
  29   33476.4    298.7   0.066706915   0.65601  -0.63521  -0.44062  -0.24160
  30   33675.5    297.0   0.076594881   0.74879   0.78547  -0.33477  -0.14055
  31   33897.0    295.0   0.004648120   0.04514  -0.20355  -0.04196  -0.04416
  32   34130.5    293.0   0.092076324   0.88814  -0.54095   0.77062  -0.04072
  33   34492.4    289.9   0.173837022   1.65918   0.90519  -0.84485  -0.35503
  34   34681.5    288.3   0.387866389   3.68180   1.17906   1.46254   0.39062
  35   34957.7    286.1   0.098341941   0.92613  -0.10010   0.94326   0.16238
  36   35108.6    284.8   0.275033118   2.57898  -0.29420  -1.50366  -0.48109
  37   35507.1    281.6   0.022960549   0.21288  -0.23553  -0.38951  -0.07545
  38   35541.6    281.4   0.039386741   0.36483  -0.57574  -0.14591  -0.10982
  39   35974.7    278.0   0.121132824   1.10851   0.81488  -0.60382   0.28264
  40   36077.7    277.2   0.046628430   0.42549   0.29952   0.50547   0.28334
  41   36248.2    275.9   0.033609566   0.30525  -0.05883  -0.54015  -0.10011
  42   36636.7    273.0   0.067027668   0.60230  -0.27913   0.69314   0.20963
  43   36652.3    272.8   0.052163351   0.46853   0.60744  -0.31134   0.05115
  44   37359.1    267.7   0.251336518   2.21480   1.37027  -0.57949   0.03669
  45   37471.5    266.9   0.045880228   0.40309   0.49179  -0.39891  -0.04577
  46   37778.5    264.7   0.160804538   1.40129   1.11894  -0.29962   0.24392
  47   37929.0    263.7   0.031053675   0.26954  -0.06747   0.43494   0.27535
  48   38289.7    261.2   0.003846277   0.03307   0.17955  -0.02644  -0.01148
  49   38387.8    260.5   0.050834932   0.43596   0.41569  -0.50765   0.07380
  50   38540.4    259.5   0.005324778   0.04548  -0.14069   0.14722  -0.06338
  51   38701.3    258.4   0.010942756   0.09308  -0.21974   0.11202  -0.17959
  52   38944.5    256.8   0.005571343   0.04710   0.19403   0.07283   0.06437
  53   39282.4    254.6   0.140521629   1.17766  -0.94789  -0.46595  -0.24910
  54   39363.8    254.0   0.000856713   0.00716   0.06133  -0.05825   0.00331
  55   39436.2    253.6   0.013554540   0.11315  -0.26706  -0.02195  -0.20335
  56   39778.6    251.4   0.122946400   1.01752  -0.37525   0.82415   0.44440
  57   39784.5    251.4   0.054707005   0.45269   0.55761  -0.01393   0.37625
  58   40011.9    249.9   0.012293166   0.10115  -0.22390   0.09980  -0.20262
  59   40187.3    248.8   0.011178462   0.09157   0.15881   0.17375   0.19016

FINAL SINGLE POINT ENERGY    -10600.209965752159

DIPOLE MOMENT
-------------
                                X             Y             Z
Electronic contribution:     -7.64493      71.36247      -3.65744
Nuclear contribution   :      7.34573     -65.63646       6.07923
                        -----------------------------------------
Total Dipole Moment    :     -0.29920       5.72601       2.42179
                        -----------------------------------------
Magnitude (a.u.)       :      6.22429
Magnitude (Debye)      :     15.82088

Rotational constants in cm-1:     0.001333     0.000102     0.000096
Rotational constants in MHz :    39.962086     3.067629     2.875031

                             ****ORCA TERMINATED NORMALLY****
TOTAL RUN TIME: 0 days 0 hours 10 minutes 43 seconds 219 msec
