                         Program Version 4.2.0 -  RELEASE  -
|  1> # ORCA input file
|  2> # SCF done       -221.147320288616          0.000345100773
|  3> ! CAM-B3LYP def2-SVP def2/J RIJCOSX Grid4 TightSCF
|  4> %maxcore 5000
|  5> %tddft
|  6>     Mode sTDDFT
|  7>     Ethresh 5.0
|  8>     maxcore 5000
|  9> end
| 10>
| 11> %pal
| 12>   nprocs 6
| 13>   end
| 14> * xyz 0 1
| 15>    C       -5.83980        -0.22285         9.06684
| 16>    C       -6.47194         0.97283         8.87094
| 17>    F       -6.56084         1.85951         9.87127
| 18>    C       -7.03761         1.28888         7.61941
| 19>    F       -7.65230         2.46848         7.45627
| 20>    C       -6.96325         0.40408         6.58049
| 21>    C       -6.31944        -0.83678         6.75133
| 22>    C       -5.74607        -1.15747         8.01597
| 23>    C       -5.09460        -2.39700         8.21102
| 24>    C       -5.02396        -3.28940         7.17390
| 25>    C       -5.60716        -2.96455         5.91927
| 26>    C       -6.23564        -1.77356         5.69753
| 27>    C       -5.42590        -4.09096         4.98170
| 28>    O       -5.76386        -4.09665         3.81621
| 29>    C       -4.77897        -5.16413         5.76976
| 30>    C       -4.43392        -4.62068         7.07303
| 31>    C       -3.63359        -5.20042         8.02306
| 32>    C       -2.96275        -6.43524         7.89304
| 33>    N       -2.36504        -7.41540         7.85682
| 34>    C       -3.32596        -4.60091         9.26278
| 35>    N       -3.04298        -4.16975        10.28834
| 36>    C       -4.63998        -6.48960         5.44935
| 37>    C       -4.92062        -7.19397         4.26586
| 38>    C       -5.26145        -6.78861         2.98232
| 39>    C       -5.45238        -7.86122         2.12649
| 40>    C       -5.26281        -9.12026         2.73433
| 41>    S       -4.81850        -8.95676         4.38481
| 42>    C       -5.50665       -10.16361         1.84385
| 43>    C       -5.86059        -9.70429         0.55418
| 44>    S       -5.90852        -7.96861         0.44093
| 45>    C       -6.07253       -10.82102        -0.23814
| 46>    C       -5.87585       -11.93758         0.58851
| 47>    N       -5.51992       -11.52100         1.84571
| 48>    C       -5.04238       -12.29781         2.95726
| 49>    C       -6.09825       -13.29689         0.17958
| 50>    C       -6.74053       -14.26611         0.97872
| 51>    C       -7.01182       -15.60898         0.51054
| 52>    N       -7.58996       -16.48523         1.34331
| 53>    C       -7.96890       -16.10633         2.53878
| 54>    C       -7.79180       -14.75003         2.96172
| 55>    N       -7.17806       -13.88819         2.19166
| 56>    C       -8.25535       -14.32282         4.23100
| 57>    N       -8.62048       -13.99654         5.26653
| 58>    C       -8.55629       -17.05807         3.40852
| 59>    N       -9.03590       -17.80581         4.13171
| 60>    C       -6.68452       -16.01968        -0.80642
| 61>    C       -6.06024       -15.03601        -1.60424
| 62>    C       -5.78294       -13.70292        -1.13195
| 63>    N       -5.18617       -12.96424        -2.07122
| 64>    S       -5.00319       -13.84044        -3.39867
| 65>    N       -5.66142       -15.20551        -2.86487
| 66>    C       -6.96764       -17.30548        -1.34155
| 67>    C       -7.62959       -18.36899        -0.74639
| 68>    C       -7.73779       -19.46204        -1.59321
| 69>    C       -7.15404       -19.25803        -2.85588
| 70>    S       -6.46942       -17.67771        -2.98478
| 71>    C       -7.30208       -20.37715        -3.67479
| 72>    C       -8.01188       -21.42512        -3.03265
| 73>    S       -8.47199       -21.03700        -1.40149
| 74>    C       -8.14505       -22.45832        -3.93920
| 75>    C       -7.49772       -22.04099        -5.11811
| 76>    N       -6.97471       -20.78123        -4.92103
| 77>    C       -6.31428       -19.97815        -5.91250
| 78>    C       -7.27003       -22.77730        -6.30106
| 79>    C       -7.97872       -23.84696        -6.76465
| 80>    C       -7.35283       -24.79783        -7.71882
| 81>    O       -6.31175       -24.64389        -8.31666
| 82>    C       -8.24303       -25.97761        -7.72899
| 83>    C       -8.07141       -27.17910        -8.35331
| 84>    C       -9.05685       -28.18063        -8.19968
| 85>    C      -10.20294       -27.91773        -7.39429
| 86>    C      -11.17872       -28.92278        -7.24094
| 87>    C      -11.02635       -30.13102        -7.86125
| 88>    C       -9.89358       -30.38963        -8.65885
| 89>    C       -8.92863       -29.43595        -8.82521
| 90>    F       -9.76961       -31.58323        -9.25449
| 91>    F      -11.95573       -31.08427        -7.71617
| 92>    C      -10.35735       -26.66119        -6.76489
| 93>    C       -9.39423       -25.70373        -6.93545
| 94>    C       -9.30389       -24.32946        -6.44994
| 95>    C      -10.36275       -23.56455        -6.03113
| 96>    C      -10.28060       -22.16914        -5.85305
| 97>    N      -10.26358       -21.02502        -5.75928
| 98>    C      -11.66388       -24.06777        -5.83453
| 99>    N      -12.73267       -24.44012        -5.64323
|100>    H       -5.41117        -0.44825        10.03086
|101>    H       -7.40168         0.66016         5.62869
|102>    H       -4.67590        -2.61121         9.18086
|103>    H       -6.66677        -1.55243         4.73298
|104>    H       -4.29280        -7.13423         6.24923
|105>    H       -5.37135        -5.75567         2.70893
|106>    H       -6.36340       -10.85531        -1.26706
|107>    H       -4.67534       -13.26106         2.60883
|108>    H       -5.83389       -12.45956         3.69133
|109>    H       -4.22477       -11.75846         3.43827
|110>    H       -8.01122       -18.32964         0.25558
|111>    H       -8.60294       -23.41327        -3.77728
|112>    H       -6.95558       -19.84977        -6.78635
|113>    H       -5.37706       -20.44448        -6.22436
|114>    H       -6.09784       -19.00175        -5.48290
|115>    H       -6.37923       -22.53295        -6.87079
|116>    H       -7.19630       -27.36426        -8.95738
|117>    H      -12.05354       -28.73959        -6.63680
|118>    H       -8.06765       -29.65002        -9.43888
|119>    H      -11.23033       -26.48926        -6.15544
|120> *
|121>
|122>                          ****END OF INPUT****

CARTESIAN COORDINATES (ANGSTROEM)
---------------------------------
  C     -5.839800   -0.222850    9.066840
  C     -6.471940    0.972830    8.870940
  F     -6.560840    1.859510    9.871270
  C     -7.037610    1.288880    7.619410
  F     -7.652300    2.468480    7.456270
  C     -6.963250    0.404080    6.580490
  C     -6.319440   -0.836780    6.751330
  C     -5.746070   -1.157470    8.015970
  C     -5.094600   -2.397000    8.211020
  C     -5.023960   -3.289400    7.173900
  C     -5.607160   -2.964550    5.919270
  C     -6.235640   -1.773560    5.697530
  C     -5.425900   -4.090960    4.981700
  O     -5.763860   -4.096650    3.816210
  C     -4.778970   -5.164130    5.769760
  C     -4.433920   -4.620680    7.073030
  C     -3.633590   -5.200420    8.023060
  C     -2.962750   -6.435240    7.893040
  N     -2.365040   -7.415400    7.856820
  C     -3.325960   -4.600910    9.262780
  N     -3.042980   -4.169750   10.288340
  C     -4.639980   -6.489600    5.449350
  C     -4.920620   -7.193970    4.265860
  C     -5.261450   -6.788610    2.982320
  C     -5.452380   -7.861220    2.126490
  C     -5.262810   -9.120260    2.734330
  S     -4.818500   -8.956760    4.384810
  C     -5.506650  -10.163610    1.843850
  C     -5.860590   -9.704290    0.554180
  S     -5.908520   -7.968610    0.440930
  C     -6.072530  -10.821020   -0.238140
  C     -5.875850  -11.937580    0.588510
  N     -5.519920  -11.521000    1.845710
  C     -5.042380  -12.297810    2.957260
  C     -6.098250  -13.296890    0.179580
  C     -6.740530  -14.266110    0.978720
  C     -7.011820  -15.608980    0.510540
  N     -7.589960  -16.485230    1.343310
  C     -7.968900  -16.106330    2.538780
  C     -7.791800  -14.750030    2.961720
  N     -7.178060  -13.888190    2.191660
  C     -8.255350  -14.322820    4.231000
  N     -8.620480  -13.996540    5.266530
  C     -8.556290  -17.058070    3.408520
  N     -9.035900  -17.805810    4.131710
  C     -6.684520  -16.019680   -0.806420
  C     -6.060240  -15.036010   -1.604240
  C     -5.782940  -13.702920   -1.131950
  N     -5.186170  -12.964240   -2.071220
  S     -5.003190  -13.840440   -3.398670
  N     -5.661420  -15.205510   -2.864870
  C     -6.967640  -17.305480   -1.341550
  C     -7.629590  -18.368990   -0.746390
  C     -7.737790  -19.462040   -1.593210
  C     -7.154040  -19.258030   -2.855880
  S     -6.469420  -17.677710   -2.984780
  C     -7.302080  -20.377150   -3.674790
  C     -8.011880  -21.425120   -3.032650
  S     -8.471990  -21.037000   -1.401490
  C     -8.145050  -22.458320   -3.939200
  C     -7.497720  -22.040990   -5.118110
  N     -6.974710  -20.781230   -4.921030
  C     -6.314280  -19.978150   -5.912500
  C     -7.270030  -22.777300   -6.301060
  C     -7.978720  -23.846960   -6.764650
  C     -7.352830  -24.797830   -7.718820
  O     -6.311750  -24.643890   -8.316660
  C     -8.243030  -25.977610   -7.728990
  C     -8.071410  -27.179100   -8.353310
  C     -9.056850  -28.180630   -8.199680
  C    -10.202940  -27.917730   -7.394290
  C    -11.178720  -28.922780   -7.240940
  C    -11.026350  -30.131020   -7.861250
  C     -9.893580  -30.389630   -8.658850
  C     -8.928630  -29.435950   -8.825210
  F     -9.769610  -31.583230   -9.254490
  F    -11.955730  -31.084270   -7.716170
  C    -10.357350  -26.661190   -6.764890
  C     -9.394230  -25.703730   -6.935450
  C     -9.303890  -24.329460   -6.449940
  C    -10.362750  -23.564550   -6.031130
  C    -10.280600  -22.169140   -5.853050
  N    -10.263580  -21.025020   -5.759280
  C    -11.663880  -24.067770   -5.834530
  N    -12.732670  -24.440120   -5.643230
  H     -5.411170   -0.448250   10.030860
  H     -7.401680    0.660160    5.628690
  H     -4.675900   -2.611210    9.180860
  H     -6.666770   -1.552430    4.732980
  H     -4.292800   -7.134230    6.249230
  H     -5.371350   -5.755670    2.708930
  H     -6.363400  -10.855310   -1.267060
  H     -4.675340  -13.261060    2.608830
  H     -5.833890  -12.459560    3.691330
  H     -4.224770  -11.758460    3.438270
  H     -8.011220  -18.329640    0.255580
  H     -8.602940  -23.413270   -3.777280
  H     -6.955580  -19.849770   -6.786350
  H     -5.377060  -20.444480   -6.224360
  H     -6.097840  -19.001750   -5.482900
  H     -6.379230  -22.532950   -6.870790
  H     -7.196300  -27.364260   -8.957380
  H    -12.053540  -28.739590   -6.636800
  H     -8.067650  -29.650020   -9.438880
  H    -11.230330  -26.489260   -6.155440

 Total Charge           Charge          ....    0
 Multiplicity           Mult            ....    1
 Number of Electrons    NEL             ....  608
 Basis Dimension        Dim             .... 1310

ORBITAL ENERGIES
----------------

  NO   OCC          E(Eh)            E(eV)
   0   2.0000     -89.060636     -2423.4631
   1   2.0000     -88.976844     -2421.1830
   2   2.0000     -88.975624     -2421.1498
   3   2.0000     -88.964971     -2420.8599
   4   2.0000     -88.964789     -2420.8550
   5   2.0000     -24.799570      -674.8306
   6   2.0000     -24.798744      -674.8081
   7   2.0000     -24.796720      -674.7531
   8   2.0000     -24.795434      -674.7181
   9   2.0000     -19.218896      -522.9728
  10   2.0000     -19.217233      -522.9275
  11   2.0000     -14.492728      -394.3672
  12   2.0000     -14.489385      -394.2762
  13   2.0000     -14.473628      -393.8474
  14   2.0000     -14.473336      -393.8395
  15   2.0000     -14.469343      -393.7308
  16   2.0000     -14.467663      -393.6851
  17   2.0000     -14.440892      -392.9567
  18   2.0000     -14.439399      -392.9160
  19   2.0000     -14.417499      -392.3201
  20   2.0000     -14.417394      -392.3172
  21   2.0000     -14.414305      -392.2332
  22   2.0000     -14.412300      -392.1786
  23   2.0000     -10.392684      -282.7993
  24   2.0000     -10.392299      -282.7888
  25   2.0000     -10.382620      -282.5255
  26   2.0000     -10.382159      -282.5129
  27   2.0000     -10.379516      -282.4410
  28   2.0000     -10.378731      -282.4196
  29   2.0000     -10.370073      -282.1840
  30   2.0000     -10.368986      -282.1544
  31   2.0000     -10.362033      -281.9652
  32   2.0000     -10.361581      -281.9530
  33   2.0000     -10.357615      -281.8450
  34   2.0000     -10.357061      -281.8299
  35   2.0000     -10.344349      -281.4841
  36   2.0000     -10.343761      -281.4680
  37   2.0000     -10.339811      -281.3606
  38   2.0000     -10.339126      -281.3419
  39   2.0000     -10.336329      -281.2658
  40   2.0000     -10.335924      -281.2548
  41   2.0000     -10.334443      -281.2145
  42   2.0000     -10.334031      -281.2033
  43   2.0000     -10.333798      -281.1969
  44   2.0000     -10.332431      -281.1597
  45   2.0000     -10.330464      -281.1062
  46   2.0000     -10.329843      -281.0893
  47   2.0000     -10.329486      -281.0796
  48   2.0000     -10.328683      -281.0578
  49   2.0000     -10.327868      -281.0356
  50   2.0000     -10.326204      -280.9903
  51   2.0000     -10.324831      -280.9529
  52   2.0000     -10.324820      -280.9526
  53   2.0000     -10.321021      -280.8493
  54   2.0000     -10.320368      -280.8315
  55   2.0000     -10.319748      -280.8146
  56   2.0000     -10.319647      -280.8119
  57   2.0000     -10.317414      -280.7511
  58   2.0000     -10.315888      -280.7096
  59   2.0000     -10.315601      -280.7018
  60   2.0000     -10.315566      -280.7008
  61   2.0000     -10.312108      -280.6067
  62   2.0000     -10.311796      -280.5982
  63   2.0000     -10.309608      -280.5387
  64   2.0000     -10.308663      -280.5130
  65   2.0000     -10.308433      -280.5067
  66   2.0000     -10.308107      -280.4978
  67   2.0000     -10.307292      -280.4757
  68   2.0000     -10.304801      -280.4079
  69   2.0000     -10.304439      -280.3980
  70   2.0000     -10.303925      -280.3840
  71   2.0000     -10.302528      -280.3460
  72   2.0000     -10.301664      -280.3225
  73   2.0000     -10.300203      -280.2828
  74   2.0000     -10.299975      -280.2766
  75   2.0000     -10.299677      -280.2684
  76   2.0000     -10.299310      -280.2585
  77   2.0000     -10.298530      -280.2373
  78   2.0000     -10.298426      -280.2344
  79   2.0000     -10.298383      -280.2333
  80   2.0000     -10.297440      -280.2076
  81   2.0000     -10.295722      -280.1608
  82   2.0000     -10.294666      -280.1321
  83   2.0000     -10.290978      -280.0317
  84   2.0000     -10.285807      -279.8910
  85   2.0000      -8.151719      -221.8196
  86   2.0000      -8.071656      -219.6409
  87   2.0000      -8.068953      -219.5674
  88   2.0000      -8.059930      -219.3218
  89   2.0000      -8.059820      -219.3189
  90   2.0000      -6.122779      -166.6093
  91   2.0000      -6.114986      -166.3972
  92   2.0000      -6.114574      -166.3860
  93   2.0000      -6.041120      -164.3872
  94   2.0000      -6.038767      -164.3232
  95   2.0000      -6.037082      -164.2774
  96   2.0000      -6.034262      -164.2006
  97   2.0000      -6.033375      -164.1765
  98   2.0000      -6.030514      -164.0986
  99   2.0000      -6.029885      -164.0815
 100   2.0000      -6.029769      -164.0784
 101   2.0000      -6.025948      -163.9744
 102   2.0000      -6.025819      -163.9709
 103   2.0000      -6.020561      -163.8278
 104   2.0000      -6.020455      -163.8249
 105   2.0000      -1.322137       -35.9772
 106   2.0000      -1.318940       -35.8902
 107   2.0000      -1.307278       -35.5728
 108   2.0000      -1.304049       -35.4850
 109   2.0000      -1.157972       -31.5100
 110   2.0000      -1.133925       -30.8557
 111   2.0000      -1.133434       -30.8423
 112   2.0000      -1.132381       -30.8136
 113   2.0000      -1.118064       -30.4241
 114   2.0000      -1.114211       -30.3192
 115   2.0000      -1.059256       -28.8238
 116   2.0000      -1.025496       -27.9052
 117   2.0000      -1.021946       -27.8086
 118   2.0000      -1.020927       -27.7808
 119   2.0000      -1.018720       -27.7208
 120   2.0000      -1.015608       -27.6361
 121   2.0000      -1.013619       -27.5820
 122   2.0000      -1.008610       -27.4457
 123   2.0000      -1.005654       -27.3652
 124   2.0000      -1.002405       -27.2768
 125   2.0000      -0.996219       -27.1085
 126   2.0000      -0.992090       -26.9961
 127   2.0000      -0.990745       -26.9595
 128   2.0000      -0.983234       -26.7552
 129   2.0000      -0.979872       -26.6637
 130   2.0000      -0.958691       -26.0873
 131   2.0000      -0.956659       -26.0320
 132   2.0000      -0.936695       -25.4888
 133   2.0000      -0.930437       -25.3185
 134   2.0000      -0.923381       -25.1265
 135   2.0000      -0.921492       -25.0751
 136   2.0000      -0.913944       -24.8697
 137   2.0000      -0.905510       -24.6402
 138   2.0000      -0.899124       -24.4664
 139   2.0000      -0.894929       -24.3523
 140   2.0000      -0.892947       -24.2983
 141   2.0000      -0.889403       -24.2019
 142   2.0000      -0.884255       -24.0618
 143   2.0000      -0.877853       -23.8876
 144   2.0000      -0.868776       -23.6406
 145   2.0000      -0.859584       -23.3905
 146   2.0000      -0.847468       -23.0608
 147   2.0000      -0.842174       -22.9167
 148   2.0000      -0.838522       -22.8173
 149   2.0000      -0.831977       -22.6393
 150   2.0000      -0.828672       -22.5493
 151   2.0000      -0.825260       -22.4565
 152   2.0000      -0.822179       -22.3726
 153   2.0000      -0.809169       -22.0186
 154   2.0000      -0.797142       -21.6913
 155   2.0000      -0.789751       -21.4902
 156   2.0000      -0.787789       -21.4368
 157   2.0000      -0.773559       -21.0496
 158   2.0000      -0.767038       -20.8722
 159   2.0000      -0.765675       -20.8351
 160   2.0000      -0.757354       -20.6086
 161   2.0000      -0.746098       -20.3024
 162   2.0000      -0.740682       -20.1550
 163   2.0000      -0.729853       -19.8603
 164   2.0000      -0.723057       -19.6754
 165   2.0000      -0.719344       -19.5744
 166   2.0000      -0.714925       -19.4541
 167   2.0000      -0.709366       -19.3028
 168   2.0000      -0.705753       -19.2045
 169   2.0000      -0.702587       -19.1184
 170   2.0000      -0.693889       -18.8817
 171   2.0000      -0.692001       -18.8303
 172   2.0000      -0.685266       -18.6470
 173   2.0000      -0.679783       -18.4978
 174   2.0000      -0.675475       -18.3806
 175   2.0000      -0.668170       -18.1818
 176   2.0000      -0.663477       -18.0541
 177   2.0000      -0.661637       -18.0041
 178   2.0000      -0.655463       -17.8361
 179   2.0000      -0.652473       -17.7547
 180   2.0000      -0.651149       -17.7187
 181   2.0000      -0.648817       -17.6552
 182   2.0000      -0.643763       -17.5177
 183   2.0000      -0.640953       -17.4412
 184   2.0000      -0.638940       -17.3864
 185   2.0000      -0.635197       -17.2846
 186   2.0000      -0.629904       -17.1406
 187   2.0000      -0.626962       -17.0605
 188   2.0000      -0.616771       -16.7832
 189   2.0000      -0.615420       -16.7464
 190   2.0000      -0.608248       -16.5513
 191   2.0000      -0.600876       -16.3507
 192   2.0000      -0.599746       -16.3199
 193   2.0000      -0.593771       -16.1573
 194   2.0000      -0.592044       -16.1103
 195   2.0000      -0.591700       -16.1010
 196   2.0000      -0.586686       -15.9645
 197   2.0000      -0.586255       -15.9528
 198   2.0000      -0.583554       -15.8793
 199   2.0000      -0.582717       -15.8565
 200   2.0000      -0.581370       -15.8199
 201   2.0000      -0.579487       -15.7686
 202   2.0000      -0.575293       -15.6545
 203   2.0000      -0.571583       -15.5536
 204   2.0000      -0.569700       -15.5023
 205   2.0000      -0.562701       -15.3119
 206   2.0000      -0.559361       -15.2210
 207   2.0000      -0.555535       -15.1169
 208   2.0000      -0.552353       -15.0303
 209   2.0000      -0.549528       -14.9534
 210   2.0000      -0.548329       -14.9208
 211   2.0000      -0.545901       -14.8547
 212   2.0000      -0.545229       -14.8364
 213   2.0000      -0.544743       -14.8232
 214   2.0000      -0.539475       -14.6799
 215   2.0000      -0.537888       -14.6367
 216   2.0000      -0.534808       -14.5529
 217   2.0000      -0.531969       -14.4756
 218   2.0000      -0.531035       -14.4502
 219   2.0000      -0.527902       -14.3649
 220   2.0000      -0.524571       -14.2743
 221   2.0000      -0.523859       -14.2549
 222   2.0000      -0.522020       -14.2049
 223   2.0000      -0.521425       -14.1887
 224   2.0000      -0.520622       -14.1668
 225   2.0000      -0.519198       -14.1281
 226   2.0000      -0.515941       -14.0395
 227   2.0000      -0.514503       -14.0003
 228   2.0000      -0.512814       -13.9544
 229   2.0000      -0.512455       -13.9446
 230   2.0000      -0.504947       -13.7403
 231   2.0000      -0.503472       -13.7002
 232   2.0000      -0.502381       -13.6705
 233   2.0000      -0.500603       -13.6221
 234   2.0000      -0.498336       -13.5604
 235   2.0000      -0.497386       -13.5346
 236   2.0000      -0.495964       -13.4959
 237   2.0000      -0.494273       -13.4499
 238   2.0000      -0.493110       -13.4182
 239   2.0000      -0.487448       -13.2641
 240   2.0000      -0.485230       -13.2038
 241   2.0000      -0.484278       -13.1779
 242   2.0000      -0.480766       -13.0823
 243   2.0000      -0.478396       -13.0178
 244   2.0000      -0.476419       -12.9640
 245   2.0000      -0.474466       -12.9109
 246   2.0000      -0.467607       -12.7242
 247   2.0000      -0.467427       -12.7193
 248   2.0000      -0.465844       -12.6762
 249   2.0000      -0.464574       -12.6417
 250   2.0000      -0.463639       -12.6162
 251   2.0000      -0.463290       -12.6068
 252   2.0000      -0.461178       -12.5493
 253   2.0000      -0.459883       -12.5140
 254   2.0000      -0.455927       -12.4064
 255   2.0000      -0.453297       -12.3348
 256   2.0000      -0.452033       -12.3004
 257   2.0000      -0.447893       -12.1878
 258   2.0000      -0.447618       -12.1803
 259   2.0000      -0.446068       -12.1381
 260   2.0000      -0.445514       -12.1231
 261   2.0000      -0.444726       -12.1016
 262   2.0000      -0.442914       -12.0523
 263   2.0000      -0.441114       -12.0033
 264   2.0000      -0.435563       -11.8523
 265   2.0000      -0.433306       -11.7908
 266   2.0000      -0.430940       -11.7265
 267   2.0000      -0.429981       -11.7004
 268   2.0000      -0.428506       -11.6602
 269   2.0000      -0.427793       -11.6408
 270   2.0000      -0.426445       -11.6042
 271   2.0000      -0.425554       -11.5799
 272   2.0000      -0.423772       -11.5314
 273   2.0000      -0.421905       -11.4806
 274   2.0000      -0.420965       -11.4551
 275   2.0000      -0.419283       -11.4093
 276   2.0000      -0.418796       -11.3960
 277   2.0000      -0.417420       -11.3586
 278   2.0000      -0.408596       -11.1185
 279   2.0000      -0.406487       -11.0611
 280   2.0000      -0.400930       -10.9099
 281   2.0000      -0.398111       -10.8332
 282   2.0000      -0.387686       -10.5495
 283   2.0000      -0.385841       -10.4993
 284   2.0000      -0.382737       -10.4148
 285   2.0000      -0.374553       -10.1921
 286   2.0000      -0.370668       -10.0864
 287   2.0000      -0.369279       -10.0486
 288   2.0000      -0.362182        -9.8555
 289   2.0000      -0.354229        -9.6391
 290   2.0000      -0.348914        -9.4944
 291   2.0000      -0.347622        -9.4593
 292   2.0000      -0.341032        -9.2799
 293   2.0000      -0.339017        -9.2251
 294   2.0000      -0.331550        -9.0219
 295   2.0000      -0.318887        -8.6774
 296   2.0000      -0.316126        -8.6022
 297   2.0000      -0.308776        -8.4022
 298   2.0000      -0.302177        -8.2227
 299   2.0000      -0.296861        -8.0780
 300   2.0000      -0.290875        -7.9151
 301   2.0000      -0.290306        -7.8996
 302   2.0000      -0.268245        -7.2993
 303   2.0000      -0.241909        -6.5827
 304   0.0000      -0.137547        -3.7428
 305   0.0000      -0.095915        -2.6100
 306   0.0000      -0.092781        -2.5247
 307   0.0000      -0.064389        -1.7521
 308   0.0000      -0.059777        -1.6266

MULLIKEN ATOMIC CHARGES
-----------------------
   0 C :   -0.107806
   1 C :    0.241060
   2 F :   -0.172173
   3 C :    0.239377
   4 F :   -0.172325
   5 C :   -0.105290
   6 C :    0.117838
   7 C :    0.114868
   8 C :   -0.084673
   9 C :    0.051229
  10 C :    0.001897
  11 C :   -0.086351
  12 C :    0.156820
  13 O :   -0.160215
  14 C :   -0.097022
  15 C :    0.306329
  16 C :   -0.353521
  17 C :   -0.202298
  18 N :    0.155749
  19 C :   -0.182115
  20 N :    0.145548
  21 C :    0.042120
  22 C :   -0.100961
  23 C :   -0.004046
  24 C :   -0.058786
  25 C :   -0.043130
  26 S :    0.162220
  27 C :    0.020574
  28 C :   -0.006718
  29 S :    0.162917
  30 C :   -0.092817
  31 C :    0.004080
  32 N :   -0.150484
  33 C :    0.143226
  34 C :    0.106337
  35 C :   -0.072492
  36 C :   -0.080147
  37 N :    0.043142
  38 C :   -0.114475
  39 C :   -0.138051
  40 N :    0.037636
  41 C :   -0.221005
  42 N :    0.252548
  43 C :   -0.226446
  44 N :    0.244748
  45 C :    0.222762
  46 C :   -0.028433
  47 C :   -0.013363
  48 N :   -0.261018
  49 S :    0.558248
  50 N :   -0.325961
  51 C :   -0.166973
  52 C :   -0.037320
  53 C :   -0.025624
  54 C :   -0.030722
  55 S :    0.152312
  56 C :    0.039239
  57 C :   -0.010913
  58 S :    0.169301
  59 C :   -0.085449
  60 C :    0.102301
  61 N :   -0.158933
  62 C :    0.120788
  63 C :    0.012019
  64 C :   -0.136356
  65 C :    0.139525
  66 O :   -0.147631
  67 C :    0.015899
  68 C :   -0.085954
  69 C :    0.113639
  70 C :    0.113629
  71 C :   -0.108084
  72 C :    0.241974
  73 C :    0.239732
  74 C :   -0.105358
  75 F :   -0.171577
  76 F :   -0.171207
  77 C :   -0.085539
  78 C :    0.036100
  79 C :    0.263597
  80 C :   -0.339071
  81 C :   -0.194875
  82 N :    0.159944
  83 C :   -0.173424
  84 N :    0.151736
  85 H :    0.006142
  86 H :   -0.002235
  87 H :   -0.006227
  88 H :   -0.012811
  89 H :    0.015685
  90 H :    0.020936
  91 H :   -0.020875
  92 H :    0.033618
  93 H :    0.056166
  94 H :    0.042962
  95 H :    0.006039
  96 H :   -0.003561
  97 H :    0.059515
  98 H :    0.052116
  99 H :    0.044064
 100 H :    0.010985
 101 H :   -0.009950
 102 H :    0.005901
 103 H :   -0.000611
 104 H :   -0.003730
Sum of atomic charges:   -0.0000000

LOEWDIN ATOMIC CHARGES
----------------------
   0 C :   -0.029184
   1 C :    0.065966
   2 F :   -0.049595
   3 C :    0.066870
   4 F :   -0.050235
   5 C :   -0.033729
   6 C :   -0.009009
   7 C :   -0.006900
   8 C :    0.016909
   9 C :   -0.022559
  10 C :   -0.050801
  11 C :    0.027855
  12 C :    0.087040
  13 O :   -0.146467
  14 C :   -0.102986
  15 C :    0.076694
  16 C :   -0.145123
  17 C :   -0.025808
  18 N :   -0.054102
  19 C :   -0.017635
  20 N :   -0.056875
  21 C :    0.047248
  22 C :   -0.175370
  23 C :   -0.010650
  24 C :   -0.189190
  25 C :   -0.192077
  26 S :    0.440622
  27 C :   -0.040654
  28 C :   -0.178459
  29 S :    0.402346
  30 C :   -0.055510
  31 C :    0.013219
  32 N :    0.066490
  33 C :    0.033520
  34 C :   -0.040481
  35 C :   -0.011034
  36 C :   -0.010521
  37 N :    0.007875
  38 C :   -0.028672
  39 C :   -0.030045
  40 N :    0.003001
  41 C :   -0.040319
  42 N :   -0.000800
  43 C :   -0.040380
  44 N :   -0.001081
  45 C :   -0.031325
  46 C :   -0.047668
  47 C :   -0.037329
  48 N :   -0.272927
  49 S :    0.684023
  50 N :   -0.300336
  51 C :   -0.160957
  52 C :   -0.035903
  53 C :   -0.179734
  54 C :   -0.211058
  55 S :    0.457446
  56 C :   -0.019006
  57 C :   -0.177742
  58 S :    0.403627
  59 C :   -0.036597
  60 C :   -0.013480
  61 N :    0.065263
  62 C :    0.040131
  63 C :    0.052043
  64 C :   -0.097394
  65 C :    0.080713
  66 O :   -0.149387
  67 C :   -0.053424
  68 C :    0.029215
  69 C :   -0.009649
  70 C :   -0.006022
  71 C :   -0.030267
  72 C :    0.066920
  73 C :    0.066775
  74 C :   -0.033221
  75 F :   -0.049560
  76 F :   -0.048652
  77 C :    0.013104
  78 C :   -0.020231
  79 C :    0.065157
  80 C :   -0.142971
  81 C :   -0.014185
  82 N :   -0.052818
  83 C :   -0.021238
  84 N :   -0.054072
  85 H :    0.047472
  86 H :    0.044238
  87 H :    0.039819
  88 H :    0.039179
  89 H :    0.043833
  90 H :    0.039620
  91 H :    0.029204
  92 H :    0.032855
  93 H :    0.033282
  94 H :    0.029456
  95 H :    0.035340
  96 H :    0.033732
  97 H :    0.040713
  98 H :    0.035092
  99 H :    0.033234
 100 H :    0.044242
 101 H :    0.040323
 102 H :    0.047324
 103 H :    0.044717
 104 H :    0.039656

  Mayer bond orders larger than 0.100000
B(  0-C ,  1-C ) :   1.4409 B(  0-C ,  5-C ) :   0.1088 B(  0-C ,  7-C ) :   1.1883
B(  0-C , 85-H ) :   1.0066 B(  1-C ,  2-F ) :   1.1333 B(  1-C ,  3-C ) :   1.1928
B(  3-C ,  4-F ) :   1.1331 B(  3-C ,  5-C ) :   1.4424 B(  5-C ,  6-C ) :   1.1927
B(  5-C , 86-H ) :   1.0069 B(  6-C ,  7-C ) :   1.2591 B(  6-C , 11-C ) :   1.1861
B(  7-C ,  8-C ) :   1.2142 B(  8-C ,  9-C ) :   1.4519 B(  8-C , 87-H ) :   0.9905
B(  9-C , 10-C ) :   1.2245 B(  9-C , 15-C ) :   0.9803 B( 10-C , 11-C ) :   1.4721
B( 10-C , 12-C ) :   0.9486 B( 11-C , 88-H ) :   1.0163 B( 12-C , 13-O ) :   2.1664
B( 12-C , 14-C ) :   0.9501 B( 14-C , 15-C ) :   1.0841 B( 14-C , 21-C ) :   1.5639
B( 15-C , 16-C ) :   1.6207 B( 16-C , 17-C ) :   1.1407 B( 16-C , 19-C ) :   1.1480
B( 17-C , 18-N ) :   2.9887 B( 19-C , 20-N ) :   2.9646 B( 21-C , 22-C ) :   1.2446
B( 21-C , 89-H ) :   0.9153 B( 22-C , 23-C ) :   1.4241 B( 22-C , 26-S ) :   1.0474
B( 23-C , 24-C ) :   1.3186 B( 23-C , 90-H ) :   0.9786 B( 24-C , 25-C ) :   1.3703
B( 24-C , 29-S ) :   1.0466 B( 25-C , 26-S ) :   1.0833 B( 25-C , 27-C ) :   1.2807
B( 27-C , 28-C ) :   1.3497 B( 27-C , 31-C ) :   0.1000 B( 27-C , 32-N ) :   1.2070
B( 28-C , 29-S ) :   1.0163 B( 28-C , 30-C ) :   1.3478 B( 30-C , 31-C ) :   1.4262
B( 30-C , 91-H ) :   1.0117 B( 31-C , 32-N ) :   1.2044 B( 31-C , 34-C ) :   0.9990
B( 32-N , 33-C ) :   0.9581 B( 33-C , 92-H ) :   0.9686 B( 33-C , 93-H ) :   0.9644
B( 33-C , 94-H ) :   0.9624 B( 34-C , 35-C ) :   1.2833 B( 34-C , 45-C ) :   0.1232
B( 34-C , 47-C ) :   1.2595 B( 35-C , 36-C ) :   1.0918 B( 35-C , 40-N ) :   1.4462
B( 36-C , 37-N ) :   1.4515 B( 36-C , 45-C ) :   1.2507 B( 37-N , 38-C ) :   1.7264
B( 38-C , 39-C ) :   1.2040 B( 38-C , 43-C ) :   1.1495 B( 39-C , 40-N ) :   1.7197
B( 39-C , 41-C ) :   1.1595 B( 41-C , 42-N ) :   3.0481 B( 43-C , 44-N ) :   3.0456
B( 45-C , 46-C ) :   1.1782 B( 45-C , 51-C ) :   1.2073 B( 46-C , 47-C ) :   1.1075
B( 46-C , 50-N ) :   1.4794 B( 47-C , 48-N ) :   1.5228 B( 48-N , 49-S ) :   1.2927
B( 48-N , 50-N ) :   0.1507 B( 49-S , 50-N ) :   1.2686 B( 51-C , 52-C ) :   1.4410
B( 51-C , 55-S ) :   1.0751 B( 52-C , 53-C ) :   1.2858 B( 52-C , 95-H ) :   0.9892
B( 53-C , 54-C ) :   1.3999 B( 53-C , 58-S ) :   1.0464 B( 54-C , 55-S ) :   1.0238
B( 54-C , 56-C ) :   1.2777 B( 56-C , 57-C ) :   1.3286 B( 56-C , 61-N ) :   1.2329
B( 57-C , 58-S ) :   1.0139 B( 57-C , 59-C ) :   1.4094 B( 59-C , 60-C ) :   1.3481
B( 59-C , 96-H ) :   1.0102 B( 60-C , 61-N ) :   1.1436 B( 60-C , 63-C ) :   1.1113
B( 61-N , 62-C ) :   0.9666 B( 62-C , 97-H ) :   0.9685 B( 62-C , 98-H ) :   0.9652
B( 62-C , 99-H ) :   0.9685 B( 63-C , 64-C ) :   1.6179 B( 63-C ,100-H ) :   0.9375
B( 64-C , 65-C ) :   0.9514 B( 64-C , 79-C ) :   1.0544 B( 65-C , 66-O ) :   2.2642
B( 65-C , 67-C ) :   0.9151 B( 67-C , 68-C ) :   1.4754 B( 67-C , 78-C ) :   1.2219
B( 68-C , 69-C ) :   1.1916 B( 68-C ,101-H ) :   1.0159 B( 69-C , 70-C ) :   1.2598
B( 69-C , 74-C ) :   1.1930 B( 70-C , 71-C ) :   1.1900 B( 70-C , 77-C ) :   1.2106
B( 71-C , 72-C ) :   1.4403 B( 71-C , 74-C ) :   0.1090 B( 71-C ,102-H ) :   1.0068
B( 72-C , 73-C ) :   1.1937 B( 72-C , 76-F ) :   1.1342 B( 73-C , 74-C ) :   1.4425
B( 73-C , 75-F ) :   1.1339 B( 74-C ,103-H ) :   1.0067 B( 77-C , 78-C ) :   1.4586
B( 77-C ,104-H ) :   0.9943 B( 78-C , 79-C ) :   0.9951 B( 79-C , 80-C ) :   1.6432
B( 80-C , 81-C ) :   1.1636 B( 80-C , 83-C ) :   1.1334 B( 81-C , 82-N ) :   2.9977
B( 83-C , 84-N ) :   2.9832

-----------------------------------------------------------------------------
         ABSORPTION SPECTRUM VIA TRANSITION ELECTRIC DIPOLE MOMENTS
-----------------------------------------------------------------------------
State   Energy  Wavelength   fosc         T2         TX        TY        TZ
        (cm-1)    (nm)                  (au**2)     (au)      (au)      (au)
-----------------------------------------------------------------------------
   0    7960.3   1256.2   0.944547125  39.06318  -1.11374  -5.35089  -3.03162
   1   15013.8    666.1   0.027815717   0.60992  -0.25808  -0.36972  -0.63767
   2   17645.1    566.7   0.011821290   0.22055   0.13862   0.16196  -0.41846
   3   17722.3    564.3   0.072077993   1.33893  -0.27968  -0.96505  -0.57392
   4   17885.4    559.1   0.704647008  12.97026   1.13916   2.57176   2.24913
   5   19487.6    513.1   0.929614246  15.70433   0.59097   3.06262   2.44448
   6   22836.2    437.9   0.072060491   1.03884  -0.18705  -0.70284  -0.71405
   7   23402.4    427.3   0.130942100   1.84202   0.43181  -0.52878  -1.17301
   8   24380.8    410.2   0.033706828   0.45514  -0.04189   0.47079  -0.48140
   9   24938.8    401.0   0.032398066   0.42768   0.44589   0.47820   0.01372
  10   25616.7    390.4   0.001279682   0.01645  -0.04590   0.01362   0.11897
  11   25874.5    386.5   0.020610220   0.26223   0.16338  -0.32542  -0.36005
  12   26409.4    378.7   0.003991480   0.04976  -0.08349  -0.20426  -0.03265
  13   26495.8    377.4   0.240823538   2.99225   0.34755  -1.53782  -0.71174
  14   26621.0    375.6   0.004818717   0.05959  -0.21227  -0.05750   0.10596
  15   26994.9    370.4   0.227895697   2.77926  -0.33231   1.62481  -0.16974
  16   27116.9    368.8   0.106991909   1.29893  -0.19198  -0.74163  -0.84384
  17   27469.7    364.0   0.055738118   0.66800   0.08615  -0.33993  -0.73826
  18   28206.9    354.5   0.055355483   0.64607  -0.35760   0.53566   0.48089
  19   28505.3    350.8   0.011613360   0.13412   0.05474  -0.36003  -0.03884
  20   29125.0    343.3   0.067616773   0.76430  -0.18700   0.78866   0.32764
  21   29275.8    341.6   0.004038533   0.04541   0.07525   0.19780   0.02503
  22   29370.2    340.5   0.014511656   0.16266   0.28439  -0.10028   0.26782
  23   29535.7    338.6   0.021098676   0.23517  -0.20812  -0.15034   0.41141
  24   30191.0    331.2   0.429649014   4.68503  -0.43958   2.04267   0.56505
  25   30319.3    329.8   0.120297129   1.30620  -0.31294  -1.04482  -0.34151
  26   30816.6    324.5   0.037993171   0.40588  -0.18612   0.48199   0.37272
  27   30986.8    322.7   0.034574222   0.36733  -0.10055   0.24896   0.54335
  28   31246.8    320.0   0.093850243   0.98879  -0.26892  -0.00937   0.95728
  29   31531.4    317.1   0.313643362   3.27467  -0.37047   0.56531   1.67865
  30   31927.9    313.2   0.174131952   1.79549   0.85324   1.01802  -0.17635
  31   32100.8    311.5   0.111059331   1.13898  -0.08715  -1.05875   0.10215
  32   32352.2    309.1   0.011943325   0.12153  -0.25935  -0.09179   0.21411
  33   32735.8    305.5   0.195720363   1.96829   0.62095   0.70528  -1.04177
  34   33393.2    299.5   0.007404197   0.07300  -0.25173  -0.05728   0.07966
  35   33490.1    298.6   0.003651833   0.03590   0.02529   0.14801  -0.11555
  36   33927.4    294.7   0.126679313   1.22922  -0.60068   0.51866   0.77421
  37   34108.3    293.2   0.103566517   0.99962  -0.31647   0.91570  -0.24690
  38   34345.0    291.2   0.080786429   0.77437   0.40673  -0.66334   0.41100
  39   34370.3    290.9   0.063563576   0.60884   0.51574  -0.53600  -0.23572
  40   34545.6    289.5   0.083188469   0.79277   0.53659   0.18239  -0.68671
  41   34920.7    286.4   0.084245642   0.79422  -0.21191   0.57667  -0.64557
  42   35111.7    284.8   0.510636706   4.78779   0.78484  -2.03630  -0.15910
  43   35240.5    283.8   0.066701048   0.62311   0.71662  -0.32670   0.05330
  44   35438.2    282.2   0.391127097   3.63348  -0.36462   1.60649   0.95902
  45   35469.0    281.9   0.007415369   0.06883  -0.24015  -0.09974  -0.03472
  46   35833.0    279.1   0.010909917   0.10023  -0.28901   0.05979   0.11458
  47   36042.6    277.4   0.057219332   0.52264  -0.19394  -0.37127  -0.58922
  48   36046.7    277.4   0.002080001   0.01900   0.09365  -0.02931   0.09678
  49   36285.8    275.6   0.089564921   0.81260  -0.32959   0.76853   0.33665
  50   36324.4    275.3   0.049644022   0.44993  -0.12298   0.47137   0.46110
  51   36397.5    274.7   0.061714061   0.55820   0.45238  -0.59323   0.04040
  52   36497.6    274.0   0.002947446   0.02659   0.08887  -0.13597  -0.01419
  53   36637.0    272.9   0.184279437   1.65589  -0.31801   1.14292  -0.49850
  54   36926.1    270.8   0.023193952   0.20678  -0.06001   0.44720   0.05650
  55   37454.9    267.0   0.009068782   0.07971   0.11139   0.20311  -0.16140
  56   38395.5    260.4   0.013117637   0.11247   0.04854   0.05489  -0.32727
  57   38805.7    257.7   0.164833435   1.39838   0.17342  -0.29381   1.13225
  58   39083.2    255.9   0.035723750   0.30091  -0.47530  -0.24886   0.11431
  59   39235.0    254.9   0.077122006   0.64711   0.12482   0.01462   0.79456
  60   39429.6    253.6   0.094917632   0.79250   0.19995   0.13233  -0.85733
  61   39571.9    252.7   0.189447558   1.57608   0.22691   0.31100  -1.19493
  62   39787.0    251.3   0.051207897   0.42371   0.42205   0.16479  -0.46736
  63   39947.9    250.3   0.162667234   1.34054   0.97618   0.35327  -0.51265
  64   40127.4    249.2   0.002428622   0.01992   0.00758   0.13989   0.01724

FINAL SINGLE POINT ENERGY     -5567.282479516412

DIPOLE MOMENT
-------------
                                X             Y             Z
Electronic contribution:    -10.67023       8.03537       8.48098
Nuclear contribution   :     12.24517      -8.60224     -12.43386
                        -----------------------------------------
Total Dipole Moment    :      1.57494      -0.56687      -3.95288
                        -----------------------------------------
Magnitude (a.u.)       :      4.29267
Magnitude (Debye)      :     10.91110

Rotational constants in cm-1:     0.002590     0.000120     0.000118
Rotational constants in MHz :    77.637341     3.590653     3.546963

                             ****ORCA TERMINATED NORMALLY****
TOTAL RUN TIME: 0 days 0 hours 25 minutes 20 seconds 721 msec
