                         Program Version 4.2.0 -  RELEASE  -
|  1> # ORCA input file
|  2> # SCF done       -181.523813344367          0.000978204982
|  3> ! CAM-B3LYP def2-SVP def2/J RIJCOSX Grid4 TightSCF
|  4> %maxcore 5000
|  5> %tddft
|  6>     Mode sTDDFT
|  7>     Ethresh 5.0
|  8>     maxcore 5000
|  9> end
| 10>
| 11> %pal
| 12>   nprocs 6
| 13>   end
| 14> * xyz 0 1
| 15>    C       -4.25685        -1.65520        -1.55260
| 16>    C       -4.83981        -2.73648        -0.95028
| 17>    C       -4.56139        -4.07931        -1.28666
| 18>    N       -4.37665        -5.19024        -1.50642
| 19>    C       -5.78952        -2.67865         0.09219
| 20>    N       -6.55941        -2.71549         0.94299
| 21>    C       -3.27768        -1.70417        -2.62777
| 22>    C       -2.89464        -0.38177        -2.96868
| 23>    C       -1.97494        -0.10708        -3.95260
| 24>    C       -1.41350        -1.18486        -4.64224
| 25>    C       -1.80351        -2.50267        -4.29783
| 26>    C       -2.72631        -2.78179        -3.29837
| 27>    S       -0.98292        -3.67667        -5.27786
| 28>    C       -0.14486        -2.42182        -6.12219
| 29>    C       -0.45797        -1.17825        -5.69667
| 30>    C       -3.61372         0.57781        -2.11689
| 31>    O       -3.44163         1.77375        -2.06132
| 32>    C       -4.51909        -0.24957        -1.25936
| 33>    C       -5.35376         0.25750        -0.32804
| 34>    C       -5.65969         1.66954        -0.18707
| 35>    C       -5.66120         2.27314         1.06962
| 36>    C       -5.91797         3.62166         1.19587
| 37>    F       -5.84775         4.15426         2.43303
| 38>    C       -6.21151         4.43925         0.10150
| 39>    C       -6.26716         3.81835        -1.14639
| 40>    C       -5.99755         2.47489        -1.27909
| 41>    F       -6.13392         1.91494        -2.49459
| 42>    C       -6.42941         5.88423         0.23070
| 43>    C       -7.17348         6.41083         1.28985
| 44>    C       -7.33252         7.77425         1.38539
| 45>    C       -6.75263         8.62889         0.43578
| 46>    C       -6.01684         8.11215        -0.62004
| 47>    C       -5.86348         6.74291        -0.71514
| 48>    C       -7.08316         9.99485         0.78519
| 49>    C       -7.86712         9.98276         1.95380
| 50>    C       -8.03769         8.56931         2.46298
| 51>    C       -9.51488         8.17773         2.60811
| 52>    C      -10.27383         8.28240         1.29033
| 53>    C       -7.25091         8.33498         3.77495
| 54>    C       -7.69213         9.16482         4.97271
| 55>    C       -8.36858        11.15693         2.46084
| 56>    C       -8.04527        12.36715         1.82804
| 57>    C       -7.24472        12.36910         0.68216
| 58>    C       -6.77094        11.18790         0.14972
| 59>    C       -8.53844        13.59598         2.38809
| 60>    N       -9.28834        13.66625         3.44349
| 61>    C       -9.57206        14.93406         3.75172
| 62>    C       -9.02748        15.91754         2.91491
| 63>    S       -8.11331        15.17279         1.66674
| 64>    N       -9.29549        17.18714         3.22664
| 65>    C      -10.04203        17.24998         4.29011
| 66>    S      -10.48404        15.68253         5.00448
| 67>    C      -10.47333        18.47493         4.86815
| 68>    C      -10.12701        19.71902         4.41851
| 69>    C      -10.68258        20.77671         5.18495
| 70>    C      -11.47714        20.25992         6.24299
| 71>    S      -11.51412        18.52050         6.26717
| 72>    C      -12.16967        21.01039         7.18525
| 73>    O      -12.85400        20.25073         8.08526
| 74>    C      -13.61943        20.83534         9.10691
| 75>    C      -12.06872        22.40661         7.08087
| 76>    C      -11.27402        22.92324         6.02705
| 77>    C      -10.58178        22.17506         5.08102
| 78>    O       -9.89649        22.92776         4.18086
| 79>    C       -9.13180        22.33779         3.15948
| 80>    S      -11.23443        24.66287         6.01838
| 81>    C      -12.26414        24.69879         7.40277
| 82>    C      -12.62214        23.47806         7.85182
| 83>    H       -1.70379         0.91108        -4.18451
| 84>    H       -2.98672        -3.80218        -3.07253
| 85>    H        0.54245        -2.69756        -6.89834
| 86>    H       -0.03565        -0.27801        -6.10476
| 87>    H       -5.83880        -0.39684         0.38435
| 88>    H       -5.41841         1.69711         1.94910
| 89>    H       -6.53343         4.38618        -2.02366
| 90>    H       -7.63000         5.75106         2.01115
| 91>    H       -5.56484         8.76496        -1.35124
| 92>    H       -5.27002         6.32497        -1.51442
| 93>    H       -9.98617         8.83305         3.34092
| 94>    H       -9.57268         7.15371         2.98265
| 95>    H      -10.23914         9.30084         0.90965
| 96>    H      -11.31533         8.00496         1.43467
| 97>    H       -9.84188         7.62176         0.54175
| 98>    H       -6.19692         8.54284         3.57318
| 99>    H       -7.33298         7.27488         4.02418
|100>    H       -7.54083        10.22488         4.79052
|101>    H       -7.09842         8.88319         5.83952
|102>    H       -8.73775         8.99329         5.21215
|103>    H       -9.01059        11.18854         3.32571
|104>    H       -7.00694        13.31084         0.20920
|105>    H       -6.16881        11.19443        -0.74602
|106>    H       -9.48911        19.81799         3.56270
|107>    H      -14.05140        19.99736         9.65314
|108>    H      -14.42699        21.45227         8.70229
|109>    H      -12.99902        21.42451         9.78850
|110>    H       -8.70110        23.17376         2.60903
|111>    H       -9.75369        21.74495         2.48297
|112>    H       -8.32491        21.72179         3.56606
|113>    H      -12.54994        25.64797         7.81203
|114>    H      -13.25964        23.35762         8.70607
|115> *
|116>
|117>                          ****END OF INPUT****

CARTESIAN COORDINATES (ANGSTROEM)
---------------------------------
  C     -4.256850   -1.655200   -1.552600
  C     -4.839810   -2.736480   -0.950280
  C     -4.561390   -4.079310   -1.286660
  N     -4.376650   -5.190240   -1.506420
  C     -5.789520   -2.678650    0.092190
  N     -6.559410   -2.715490    0.942990
  C     -3.277680   -1.704170   -2.627770
  C     -2.894640   -0.381770   -2.968680
  C     -1.974940   -0.107080   -3.952600
  C     -1.413500   -1.184860   -4.642240
  C     -1.803510   -2.502670   -4.297830
  C     -2.726310   -2.781790   -3.298370
  S     -0.982920   -3.676670   -5.277860
  C     -0.144860   -2.421820   -6.122190
  C     -0.457970   -1.178250   -5.696670
  C     -3.613720    0.577810   -2.116890
  O     -3.441630    1.773750   -2.061320
  C     -4.519090   -0.249570   -1.259360
  C     -5.353760    0.257500   -0.328040
  C     -5.659690    1.669540   -0.187070
  C     -5.661200    2.273140    1.069620
  C     -5.917970    3.621660    1.195870
  F     -5.847750    4.154260    2.433030
  C     -6.211510    4.439250    0.101500
  C     -6.267160    3.818350   -1.146390
  C     -5.997550    2.474890   -1.279090
  F     -6.133920    1.914940   -2.494590
  C     -6.429410    5.884230    0.230700
  C     -7.173480    6.410830    1.289850
  C     -7.332520    7.774250    1.385390
  C     -6.752630    8.628890    0.435780
  C     -6.016840    8.112150   -0.620040
  C     -5.863480    6.742910   -0.715140
  C     -7.083160    9.994850    0.785190
  C     -7.867120    9.982760    1.953800
  C     -8.037690    8.569310    2.462980
  C     -9.514880    8.177730    2.608110
  C    -10.273830    8.282400    1.290330
  C     -7.250910    8.334980    3.774950
  C     -7.692130    9.164820    4.972710
  C     -8.368580   11.156930    2.460840
  C     -8.045270   12.367150    1.828040
  C     -7.244720   12.369100    0.682160
  C     -6.770940   11.187900    0.149720
  C     -8.538440   13.595980    2.388090
  N     -9.288340   13.666250    3.443490
  C     -9.572060   14.934060    3.751720
  C     -9.027480   15.917540    2.914910
  S     -8.113310   15.172790    1.666740
  N     -9.295490   17.187140    3.226640
  C    -10.042030   17.249980    4.290110
  S    -10.484040   15.682530    5.004480
  C    -10.473330   18.474930    4.868150
  C    -10.127010   19.719020    4.418510
  C    -10.682580   20.776710    5.184950
  C    -11.477140   20.259920    6.242990
  S    -11.514120   18.520500    6.267170
  C    -12.169670   21.010390    7.185250
  O    -12.854000   20.250730    8.085260
  C    -13.619430   20.835340    9.106910
  C    -12.068720   22.406610    7.080870
  C    -11.274020   22.923240    6.027050
  C    -10.581780   22.175060    5.081020
  O     -9.896490   22.927760    4.180860
  C     -9.131800   22.337790    3.159480
  S    -11.234430   24.662870    6.018380
  C    -12.264140   24.698790    7.402770
  C    -12.622140   23.478060    7.851820
  H     -1.703790    0.911080   -4.184510
  H     -2.986720   -3.802180   -3.072530
  H      0.542450   -2.697560   -6.898340
  H     -0.035650   -0.278010   -6.104760
  H     -5.838800   -0.396840    0.384350
  H     -5.418410    1.697110    1.949100
  H     -6.533430    4.386180   -2.023660
  H     -7.630000    5.751060    2.011150
  H     -5.564840    8.764960   -1.351240
  H     -5.270020    6.324970   -1.514420
  H     -9.986170    8.833050    3.340920
  H     -9.572680    7.153710    2.982650
  H    -10.239140    9.300840    0.909650
  H    -11.315330    8.004960    1.434670
  H     -9.841880    7.621760    0.541750
  H     -6.196920    8.542840    3.573180
  H     -7.332980    7.274880    4.024180
  H     -7.540830   10.224880    4.790520
  H     -7.098420    8.883190    5.839520
  H     -8.737750    8.993290    5.212150
  H     -9.010590   11.188540    3.325710
  H     -7.006940   13.310840    0.209200
  H     -6.168810   11.194430   -0.746020
  H     -9.489110   19.817990    3.562700
  H    -14.051400   19.997360    9.653140
  H    -14.426990   21.452270    8.702290
  H    -12.999020   21.424510    9.788500
  H     -8.701100   23.173760    2.609030
  H     -9.753690   21.744950    2.482970
  H     -8.324910   21.721790    3.566060
  H    -12.549940   25.647970    7.812030
  H    -13.259640   23.357620    8.706070

 Total Charge           Charge          ....    0
 Multiplicity           Mult            ....    1
 Number of Electrons    NEL             ....  506
 Basis Dimension        Dim             .... 1132

ORBITAL ENERGIES
----------------

  NO   OCC          E(Eh)            E(eV)
   0   2.0000     -88.969618     -2420.9864
   1   2.0000     -88.961439     -2420.7638
   2   2.0000     -88.959442     -2420.7095
   3   2.0000     -88.942703     -2420.2540
   4   2.0000     -88.938060     -2420.1277
   5   2.0000     -24.784290      -674.4148
   6   2.0000     -24.781945      -674.3510
   7   2.0000     -19.244604      -523.6723
   8   2.0000     -19.243999      -523.6558
   9   2.0000     -19.217820      -522.9435
  10   2.0000     -14.419692      -392.3798
  11   2.0000     -14.418382      -392.3441
  12   2.0000     -14.413555      -392.2128
  13   2.0000     -14.413291      -392.2056
  14   2.0000     -10.368681      -282.1462
  15   2.0000     -10.363674      -282.0099
  16   2.0000     -10.359385      -281.8932
  17   2.0000     -10.346945      -281.5547
  18   2.0000     -10.344967      -281.5009
  19   2.0000     -10.341562      -281.4082
  20   2.0000     -10.337176      -281.2889
  21   2.0000     -10.331563      -281.1361
  22   2.0000     -10.329842      -281.0893
  23   2.0000     -10.323792      -280.9247
  24   2.0000     -10.322494      -280.8893
  25   2.0000     -10.321999      -280.8759
  26   2.0000     -10.320974      -280.8480
  27   2.0000     -10.320828      -280.8440
  28   2.0000     -10.320460      -280.8340
  29   2.0000     -10.319841      -280.8171
  30   2.0000     -10.319451      -280.8066
  31   2.0000     -10.317296      -280.7479
  32   2.0000     -10.309791      -280.5437
  33   2.0000     -10.306341      -280.4498
  34   2.0000     -10.305079      -280.4155
  35   2.0000     -10.303587      -280.3749
  36   2.0000     -10.301588      -280.3205
  37   2.0000     -10.300630      -280.2944
  38   2.0000     -10.299266      -280.2573
  39   2.0000     -10.298368      -280.2328
  40   2.0000     -10.293122      -280.0901
  41   2.0000     -10.292223      -280.0656
  42   2.0000     -10.291732      -280.0523
  43   2.0000     -10.289446      -279.9901
  44   2.0000     -10.287504      -279.9372
  45   2.0000     -10.286278      -279.9039
  46   2.0000     -10.284859      -279.8652
  47   2.0000     -10.283432      -279.8264
  48   2.0000     -10.282905      -279.8121
  49   2.0000     -10.281841      -279.7831
  50   2.0000     -10.281242      -279.7668
  51   2.0000     -10.276816      -279.6464
  52   2.0000     -10.275605      -279.6134
  53   2.0000     -10.274010      -279.5700
  54   2.0000     -10.273359      -279.5523
  55   2.0000     -10.272689      -279.5341
  56   2.0000     -10.272415      -279.5266
  57   2.0000     -10.271870      -279.5118
  58   2.0000     -10.271073      -279.4901
  59   2.0000     -10.270280      -279.4685
  60   2.0000     -10.269270      -279.4410
  61   2.0000     -10.269250      -279.4405
  62   2.0000     -10.268729      -279.4263
  63   2.0000     -10.267848      -279.4023
  64   2.0000     -10.260012      -279.1891
  65   2.0000     -10.259789      -279.1830
  66   2.0000     -10.246414      -278.8191
  67   2.0000     -10.244120      -278.7567
  68   2.0000      -8.065790      -219.4813
  69   2.0000      -8.057325      -219.2510
  70   2.0000      -8.055236      -219.1941
  71   2.0000      -8.037977      -218.7245
  72   2.0000      -8.033703      -218.6082
  73   2.0000      -6.035330      -164.2297
  74   2.0000      -6.030966      -164.1109
  75   2.0000      -6.027485      -164.0162
  76   2.0000      -6.026476      -163.9887
  77   2.0000      -6.024344      -163.9307
  78   2.0000      -6.022758      -163.8876
  79   2.0000      -6.020697      -163.8315
  80   2.0000      -6.019141      -163.7892
  81   2.0000      -6.017098      -163.7336
  82   2.0000      -6.007669      -163.4770
  83   2.0000      -6.003599      -163.3662
  84   2.0000      -6.003340      -163.3592
  85   2.0000      -5.999204      -163.2466
  86   2.0000      -5.999050      -163.2425
  87   2.0000      -5.995236      -163.1387
  88   2.0000      -1.298894       -35.3447
  89   2.0000      -1.295880       -35.2627
  90   2.0000      -1.148509       -31.2525
  91   2.0000      -1.147171       -31.2161
  92   2.0000      -1.133367       -30.8405
  93   2.0000      -1.085439       -29.5363
  94   2.0000      -1.045190       -28.4411
  95   2.0000      -1.023291       -27.8452
  96   2.0000      -1.011573       -27.5263
  97   2.0000      -0.997580       -27.1455
  98   2.0000      -0.989015       -26.9125
  99   2.0000      -0.987812       -26.8797
 100   2.0000      -0.987005       -26.8578
 101   2.0000      -0.976268       -26.5656
 102   2.0000      -0.966366       -26.2962
 103   2.0000      -0.946677       -25.7604
 104   2.0000      -0.933923       -25.4133
 105   2.0000      -0.921830       -25.0843
 106   2.0000      -0.909563       -24.7505
 107   2.0000      -0.906606       -24.6700
 108   2.0000      -0.895901       -24.3787
 109   2.0000      -0.888905       -24.1883
 110   2.0000      -0.884228       -24.0611
 111   2.0000      -0.877041       -23.8655
 112   2.0000      -0.871602       -23.7175
 113   2.0000      -0.867972       -23.6187
 114   2.0000      -0.851217       -23.1628
 115   2.0000      -0.842638       -22.9293
 116   2.0000      -0.835496       -22.7350
 117   2.0000      -0.834071       -22.6962
 118   2.0000      -0.832550       -22.6548
 119   2.0000      -0.831881       -22.6366
 120   2.0000      -0.828830       -22.5536
 121   2.0000      -0.826081       -22.4788
 122   2.0000      -0.812912       -22.1204
 123   2.0000      -0.803236       -21.8571
 124   2.0000      -0.791069       -21.5261
 125   2.0000      -0.785580       -21.3767
 126   2.0000      -0.770372       -20.9629
 127   2.0000      -0.763378       -20.7726
 128   2.0000      -0.759972       -20.6799
 129   2.0000      -0.743744       -20.2383
 130   2.0000      -0.736805       -20.0495
 131   2.0000      -0.728826       -19.8324
 132   2.0000      -0.721468       -19.6321
 133   2.0000      -0.713325       -19.4106
 134   2.0000      -0.697440       -18.9783
 135   2.0000      -0.691766       -18.8239
 136   2.0000      -0.690340       -18.7851
 137   2.0000      -0.688229       -18.7277
 138   2.0000      -0.679261       -18.4836
 139   2.0000      -0.678025       -18.4500
 140   2.0000      -0.667461       -18.1625
 141   2.0000      -0.666830       -18.1454
 142   2.0000      -0.664546       -18.0832
 143   2.0000      -0.663642       -18.0586
 144   2.0000      -0.656404       -17.8617
 145   2.0000      -0.650279       -17.6950
 146   2.0000      -0.639703       -17.4072
 147   2.0000      -0.638074       -17.3629
 148   2.0000      -0.628898       -17.1132
 149   2.0000      -0.625299       -17.0152
 150   2.0000      -0.623110       -16.9557
 151   2.0000      -0.619664       -16.8619
 152   2.0000      -0.616802       -16.7840
 153   2.0000      -0.602816       -16.4035
 154   2.0000      -0.599422       -16.3111
 155   2.0000      -0.597467       -16.2579
 156   2.0000      -0.592379       -16.1194
 157   2.0000      -0.590155       -16.0589
 158   2.0000      -0.578786       -15.7496
 159   2.0000      -0.571851       -15.5609
 160   2.0000      -0.569248       -15.4900
 161   2.0000      -0.562092       -15.2953
 162   2.0000      -0.557396       -15.1675
 163   2.0000      -0.557057       -15.1583
 164   2.0000      -0.551188       -14.9986
 165   2.0000      -0.550898       -14.9907
 166   2.0000      -0.547419       -14.8960
 167   2.0000      -0.544662       -14.8210
 168   2.0000      -0.539653       -14.6847
 169   2.0000      -0.538722       -14.6594
 170   2.0000      -0.536931       -14.6106
 171   2.0000      -0.535915       -14.5830
 172   2.0000      -0.533954       -14.5296
 173   2.0000      -0.532362       -14.4863
 174   2.0000      -0.530557       -14.4372
 175   2.0000      -0.529298       -14.4029
 176   2.0000      -0.528922       -14.3927
 177   2.0000      -0.523260       -14.2386
 178   2.0000      -0.521257       -14.1841
 179   2.0000      -0.519157       -14.1270
 180   2.0000      -0.518354       -14.1051
 181   2.0000      -0.516095       -14.0437
 182   2.0000      -0.512382       -13.9426
 183   2.0000      -0.509349       -13.8601
 184   2.0000      -0.507921       -13.8212
 185   2.0000      -0.506569       -13.7845
 186   2.0000      -0.503658       -13.7052
 187   2.0000      -0.501216       -13.6388
 188   2.0000      -0.496476       -13.5098
 189   2.0000      -0.495516       -13.4837
 190   2.0000      -0.492504       -13.4017
 191   2.0000      -0.490517       -13.3476
 192   2.0000      -0.489659       -13.3243
 193   2.0000      -0.486511       -13.2386
 194   2.0000      -0.481908       -13.1134
 195   2.0000      -0.480135       -13.0651
 196   2.0000      -0.475119       -12.9287
 197   2.0000      -0.469259       -12.7692
 198   2.0000      -0.468366       -12.7449
 199   2.0000      -0.462800       -12.5934
 200   2.0000      -0.457289       -12.4435
 201   2.0000      -0.454551       -12.3690
 202   2.0000      -0.454164       -12.3584
 203   2.0000      -0.451946       -12.2981
 204   2.0000      -0.451536       -12.2869
 205   2.0000      -0.450525       -12.2594
 206   2.0000      -0.448922       -12.2158
 207   2.0000      -0.447386       -12.1740
 208   2.0000      -0.444369       -12.0919
 209   2.0000      -0.443405       -12.0657
 210   2.0000      -0.438390       -11.9292
 211   2.0000      -0.436380       -11.8745
 212   2.0000      -0.435896       -11.8613
 213   2.0000      -0.432585       -11.7712
 214   2.0000      -0.430242       -11.7075
 215   2.0000      -0.429819       -11.6960
 216   2.0000      -0.429171       -11.6783
 217   2.0000      -0.425370       -11.5749
 218   2.0000      -0.424614       -11.5543
 219   2.0000      -0.422402       -11.4941
 220   2.0000      -0.420096       -11.4314
 221   2.0000      -0.417031       -11.3480
 222   2.0000      -0.411830       -11.2065
 223   2.0000      -0.411269       -11.1912
 224   2.0000      -0.409828       -11.1520
 225   2.0000      -0.408495       -11.1157
 226   2.0000      -0.405999       -11.0478
 227   2.0000      -0.399644       -10.8749
 228   2.0000      -0.391839       -10.6625
 229   2.0000      -0.390861       -10.6359
 230   2.0000      -0.387243       -10.5374
 231   2.0000      -0.385476       -10.4893
 232   2.0000      -0.380971       -10.3668
 233   2.0000      -0.378432       -10.2977
 234   2.0000      -0.372866       -10.1462
 235   2.0000      -0.367148        -9.9906
 236   2.0000      -0.357681        -9.7330
 237   2.0000      -0.345517        -9.4020
 238   2.0000      -0.341349        -9.2886
 239   2.0000      -0.339060        -9.2263
 240   2.0000      -0.332137        -9.0379
 241   2.0000      -0.327234        -8.9045
 242   2.0000      -0.323560        -8.8045
 243   2.0000      -0.319812        -8.7025
 244   2.0000      -0.316797        -8.6205
 245   2.0000      -0.316012        -8.5991
 246   2.0000      -0.312829        -8.5125
 247   2.0000      -0.308506        -8.3949
 248   2.0000      -0.299441        -8.1482
 249   2.0000      -0.295457        -8.0398
 250   2.0000      -0.277305        -7.5459
 251   2.0000      -0.249306        -6.7840
 252   2.0000      -0.227359        -6.1868
 253   0.0000      -0.090358        -2.4588
 254   0.0000      -0.058570        -1.5938
 255   0.0000      -0.049350        -1.3429
 256   0.0000      -0.019637        -0.5344
 257   0.0000      -0.005357        -0.1458

MULLIKEN ATOMIC CHARGES
-----------------------
   0 C :    0.306760
   1 C :   -0.344114
   2 C :   -0.189304
   3 N :    0.157336
   4 C :   -0.190041
   5 N :    0.158452
   6 C :    0.016492
   7 C :   -0.016695
   8 C :   -0.059603
   9 C :    0.114797
  10 C :   -0.095076
  11 C :   -0.020382
  12 S :    0.143835
  13 C :   -0.049690
  14 C :    0.027257
  15 C :    0.137432
  16 O :   -0.140355
  17 C :   -0.055361
  18 C :   -0.027139
  19 C :   -0.006290
  20 C :   -0.072336
  21 C :    0.250246
  22 F :   -0.191145
  23 C :    0.021896
  24 C :   -0.094357
  25 C :    0.310534
  26 F :   -0.187316
  27 C :    0.074365
  28 C :   -0.067177
  29 C :    0.003138
  30 C :    0.108571
  31 C :   -0.051125
  32 C :   -0.011597
  33 C :    0.108399
  34 C :    0.029575
  35 C :   -0.131941
  36 C :    0.051995
  37 C :    0.025479
  38 C :    0.074580
  39 C :    0.031353
  40 C :   -0.103487
  41 C :    0.129449
  42 C :   -0.026887
  43 C :   -0.052193
  44 C :   -0.120467
  45 N :   -0.027035
  46 C :   -0.059262
  47 C :   -0.054575
  48 S :    0.094700
  49 N :   -0.034575
  50 C :   -0.099226
  51 S :    0.125082
  52 C :   -0.004822
  53 C :   -0.104297
  54 C :    0.064702
  55 C :   -0.134884
  56 S :    0.142566
  57 C :    0.136072
  58 O :   -0.317070
  59 C :    0.182375
  60 C :    0.046781
  61 C :   -0.170757
  62 C :    0.140122
  63 O :   -0.312276
  64 C :    0.183945
  65 S :    0.128513
  66 C :   -0.042504
  67 C :   -0.029347
  68 H :   -0.010994
  69 H :   -0.006150
  70 H :    0.040530
  71 H :   -0.005623
  72 H :    0.037299
  73 H :   -0.004491
  74 H :   -0.007404
  75 H :   -0.029904
  76 H :   -0.035065
  77 H :   -0.018446
  78 H :    0.012241
  79 H :   -0.001464
  80 H :    0.020462
  81 H :    0.009641
  82 H :    0.018137
  83 H :    0.004939
  84 H :    0.000346
  85 H :    0.023874
  86 H :    0.012318
  87 H :    0.004574
  88 H :   -0.014431
  89 H :   -0.013240
  90 H :   -0.033268
  91 H :   -0.020050
  92 H :    0.035108
  93 H :    0.029646
  94 H :    0.029650
  95 H :    0.034869
  96 H :    0.032856
  97 H :    0.032554
  98 H :    0.020556
  99 H :   -0.031163
Sum of atomic charges:   -0.0000000

LOEWDIN ATOMIC CHARGES
----------------------
   0 C :    0.076367
   1 C :   -0.133138
   2 C :   -0.017776
   3 N :   -0.048338
   4 C :   -0.019862
   5 N :   -0.046429
   6 C :   -0.023167
   7 C :   -0.052157
   8 C :    0.025296
   9 C :   -0.032839
  10 C :   -0.144192
  11 C :   -0.007173
  12 S :    0.431762
  13 C :   -0.147075
  14 C :   -0.057388
  15 C :    0.083359
  16 O :   -0.130052
  17 C :   -0.074240
  18 C :    0.076511
  19 C :   -0.058254
  20 C :   -0.020315
  21 C :    0.079305
  22 F :   -0.065596
  23 C :   -0.021016
  24 C :   -0.032402
  25 C :    0.100630
  26 F :   -0.059939
  27 C :   -0.021482
  28 C :   -0.011427
  29 C :    0.007633
  30 C :   -0.015571
  31 C :   -0.017895
  32 C :   -0.016200
  33 C :   -0.010352
  34 C :    0.004585
  35 C :   -0.034550
  36 C :   -0.014996
  37 C :   -0.056345
  38 C :   -0.008800
  39 C :   -0.058642
  40 C :    0.000906
  41 C :   -0.054122
  42 C :   -0.020924
  43 C :   -0.018796
  44 C :   -0.104697
  45 N :   -0.099866
  46 C :   -0.215734
  47 C :   -0.213304
  48 S :    0.401292
  49 N :   -0.104396
  50 C :   -0.128467
  51 S :    0.405638
  52 C :   -0.197456
  53 C :   -0.033527
  54 C :   -0.077761
  55 C :   -0.169100
  56 S :    0.408172
  57 C :    0.019427
  58 O :   -0.110688
  59 C :    0.078449
  60 C :   -0.073617
  61 C :   -0.177208
  62 C :    0.025568
  63 O :   -0.106361
  64 C :    0.079391
  65 S :    0.413870
  66 C :   -0.165744
  67 C :   -0.076014
  68 H :    0.040905
  69 H :    0.040912
  70 H :    0.030235
  71 H :    0.035801
  72 H :    0.047495
  73 H :    0.043340
  74 H :    0.041981
  75 H :    0.025235
  76 H :    0.027107
  77 H :    0.029246
  78 H :    0.022138
  79 H :    0.020560
  80 H :    0.025508
  81 H :    0.024309
  82 H :    0.023878
  83 H :    0.026541
  84 H :    0.021652
  85 H :    0.026103
  86 H :    0.027823
  87 H :    0.020705
  88 H :    0.030338
  89 H :    0.020557
  90 H :    0.027845
  91 H :    0.030304
  92 H :    0.029905
  93 H :    0.016267
  94 H :    0.016114
  95 H :    0.029969
  96 H :    0.018147
  97 H :    0.018180
  98 H :    0.023133
  99 H :    0.024996

  Mayer bond orders larger than 0.100000
B(  0-C ,  1-C ) :   1.6510 B(  0-C ,  6-C ) :   1.0204 B(  0-C , 17-C ) :   1.0422
B(  1-C ,  2-C ) :   1.1402 B(  1-C ,  4-C ) :   1.1444 B(  2-C ,  3-N ) :   2.9732
B(  4-C ,  5-N ) :   2.9686 B(  6-C ,  7-C ) :   1.2640 B(  6-C , 11-C ) :   1.3994
B(  7-C ,  8-C ) :   1.4256 B(  7-C , 15-C ) :   0.9481 B(  8-C ,  9-C ) :   1.2493
B(  8-C , 68-H ) :   1.0165 B(  9-C , 10-C ) :   1.2940 B(  9-C , 14-C ) :   1.1721
B( 10-C , 11-C ) :   1.3360 B( 10-C , 12-S ) :   1.0991 B( 11-C , 69-H ) :   0.9821
B( 12-S , 13-C ) :   1.1274 B( 13-C , 14-C ) :   1.6256 B( 13-C , 70-H ) :   0.9693
B( 14-C , 71-H ) :   1.0002 B( 15-C , 16-O ) :   2.2342 B( 15-C , 17-C ) :   0.9164
B( 17-C , 18-C ) :   1.7500 B( 18-C , 19-C ) :   1.0107 B( 18-C , 72-H ) :   0.9379
B( 19-C , 20-C ) :   1.2988 B( 19-C , 25-C ) :   1.3320 B( 20-C , 21-C ) :   1.3663
B( 20-C , 73-H ) :   1.0017 B( 21-C , 22-F ) :   1.0993 B( 21-C , 23-C ) :   1.3467
B( 23-C , 24-C ) :   1.3228 B( 23-C , 27-C ) :   0.9531 B( 24-C , 25-C ) :   1.3648
B( 24-C , 74-H ) :   1.0006 B( 25-C , 26-F ) :   1.1075 B( 27-C , 28-C ) :   1.3352
B( 27-C , 32-C ) :   1.3843 B( 28-C , 29-C ) :   1.3953 B( 28-C , 75-H ) :   1.0006
B( 29-C , 30-C ) :   1.3782 B( 29-C , 35-C ) :   0.9250 B( 30-C , 31-C ) :   1.3420
B( 30-C , 33-C ) :   0.9948 B( 31-C , 32-C ) :   1.3820 B( 31-C , 76-H ) :   0.9924
B( 32-C , 77-H ) :   0.9870 B( 33-C , 34-C ) :   1.3769 B( 33-C , 43-C ) :   1.3426
B( 34-C , 35-C ) :   0.9161 B( 34-C , 40-C ) :   1.3739 B( 35-C , 36-C ) :   1.0314
B( 35-C , 38-C ) :   1.0133 B( 36-C , 37-C ) :   1.1037 B( 36-C , 78-H ) :   0.9383
B( 36-C , 79-H ) :   0.9400 B( 37-C , 80-H ) :   0.9650 B( 37-C , 81-H ) :   0.9647
B( 37-C , 82-H ) :   0.9633 B( 38-C , 39-C ) :   1.1139 B( 38-C , 83-H ) :   0.9392
B( 38-C , 84-H ) :   0.9369 B( 39-C , 85-H ) :   0.9614 B( 39-C , 86-H ) :   0.9589
B( 39-C , 87-H ) :   0.9630 B( 40-C , 41-C ) :   1.3279 B( 40-C , 88-H ) :   1.0031
B( 41-C , 42-C ) :   1.3346 B( 41-C , 44-C ) :   1.0361 B( 42-C , 43-C ) :   1.3947
B( 42-C , 89-H ) :   0.9785 B( 43-C , 90-H ) :   0.9910 B( 44-C , 45-N ) :   1.7439
B( 44-C , 48-S ) :   1.0787 B( 45-N , 46-C ) :   1.3786 B( 46-C , 47-C ) :   1.3158
B( 46-C , 51-S ) :   1.0926 B( 47-C , 48-S ) :   1.0928 B( 47-C , 49-N ) :   1.3877
B( 49-N , 50-C ) :   1.7320 B( 50-C , 51-S ) :   1.0888 B( 50-C , 52-C ) :   1.0774
B( 52-C , 53-C ) :   1.6072 B( 52-C , 56-S ) :   1.0567 B( 53-C , 54-C ) :   1.1276
B( 53-C , 91-H ) :   1.0064 B( 54-C , 55-C ) :   1.3214 B( 54-C , 62-C ) :   1.2144
B( 55-C , 56-S ) :   1.0446 B( 55-C , 57-C ) :   1.4171 B( 57-C , 58-O ) :   1.2435
B( 57-C , 60-C ) :   1.2321 B( 58-O , 59-C ) :   0.9557 B( 59-C , 92-H ) :   0.9751
B( 59-C , 93-H ) :   0.9692 B( 59-C , 94-H ) :   0.9694 B( 60-C , 61-C ) :   1.3276
B( 60-C , 67-C ) :   1.1570 B( 61-C , 62-C ) :   1.4205 B( 61-C , 65-S ) :   1.0562
B( 62-C , 63-O ) :   1.2510 B( 63-O , 64-C ) :   0.9512 B( 64-C , 95-H ) :   0.9743
B( 64-C , 96-H ) :   0.9690 B( 64-C , 97-H ) :   0.9689 B( 65-S , 66-C ) :   1.1124
B( 66-C , 67-C ) :   1.6556 B( 66-C , 98-H ) :   0.9640 B( 67-C , 99-H ) :   0.9958

-----------------------------------------------------------------------------
         ABSORPTION SPECTRUM VIA TRANSITION ELECTRIC DIPOLE MOMENTS
-----------------------------------------------------------------------------
State   Energy  Wavelength   fosc         T2         TX        TY        TZ
        (cm-1)    (nm)                  (au**2)     (au)      (au)      (au)
-----------------------------------------------------------------------------
   0   22983.5    435.1   1.488152158  21.31607   1.06942  -4.37651  -1.00923
   1   23865.9    419.0   0.077501804   1.06908   0.17242   1.01870   0.03993
   2   25420.3    393.4   0.197409428   2.55660   0.40091  -1.52439  -0.26852
   3   27224.2    367.3   1.100516559  13.30811   1.26951  -3.00209  -1.63827
   4   27869.7    358.8   0.107686875   1.27206   0.60584   0.66194  -0.68326
   5   28107.3    355.8   0.259943988   3.04464   0.91714  -1.14892  -0.93993
   6   29176.1    342.7   0.041988350   0.47378  -0.07251   0.67224   0.12891
   7   30339.8    329.6   0.094632604   1.02684  -0.45969  -0.73671   0.52229
   8   31185.6    320.7   0.063604492   0.67144  -0.56486   0.46150   0.37335
   9   31978.0    312.7   0.063872254   0.65756   0.46454  -0.63865  -0.18410
  10   32312.3    309.5   0.139529272   1.42159   0.22607  -0.99783  -0.61222
  11   33431.9    299.1   0.036240989   0.35687   0.29363  -0.40154  -0.33079
  12   33720.8    296.6   0.149022640   1.45489   0.73442   0.58665  -0.75588
  13   34272.3    291.8   0.554914166   5.33038  -1.50022  -0.58871   1.65322
  14   35077.4    285.1   0.065235637   0.61226  -0.31632  -0.46260   0.54608
  15   35331.9    283.0   0.173102793   1.61292  -0.62850   0.87273   0.67547
  16   36254.4    275.8   0.046330856   0.42071  -0.41914   0.31564   0.38132
  17   36598.1    273.2   0.000602761   0.00542  -0.00537   0.05500  -0.04866
  18   37326.8    267.9   0.086022807   0.75870  -0.04959   0.86881  -0.03749
  19   38872.1    257.3   0.114111115   0.96642   0.27747  -0.78187  -0.52736
  20   39533.0    253.0   0.172438428   1.43598   0.03685   1.19734  -0.03153
  21   39707.1    251.8   0.020405337   0.16918   0.08975  -0.32759  -0.23197
  22   39920.6    250.5   0.047826982   0.39441   0.10649  -0.58391  -0.20524

FINAL SINGLE POINT ENERGY     -4708.334703892706

DIPOLE MOMENT
-------------
                                X             Y             Z
Electronic contribution:     19.29996     -41.63718     -22.24494
Nuclear contribution   :    -18.15448      43.32726      21.02192
                        -----------------------------------------
Total Dipole Moment    :      1.14548       1.69008      -1.22302
                        -----------------------------------------
Magnitude (a.u.)       :      2.37997
Magnitude (Debye)      :      6.04940

Rotational constants in cm-1:     0.004187     0.000163     0.000158
Rotational constants in MHz :   125.526690     4.872146     4.725430

                             ****ORCA TERMINATED NORMALLY****
TOTAL RUN TIME: 0 days 0 hours 8 minutes 28 seconds 771 msec
