                         Program Version 4.2.0 -  RELEASE  -
|  1> # ORCA input file
|  2> # SCF done       -184.582783634565          0.000963532161
|  3> ! CAM-B3LYP def2-SVP def2/J RIJCOSX Grid4 TightSCF
|  4> %maxcore 5000
|  5> %tddft
|  6>     Mode sTDDFT
|  7>     Ethresh 5.0
|  8>     maxcore 5000
|  9> end
| 10>
| 11> %pal
| 12>   nprocs 6
| 13>   end
| 14> * xyz 0 1
| 15>    N       10.59826        -0.58075        -0.42292
| 16>    C       10.68602        -0.44894         0.71347
| 17>    C       10.74363        -0.29908         2.11412
| 18>    C        9.86127        -1.15810         2.80569
| 19>    N        9.18956        -1.91659         3.34359
| 20>    C       11.63765         0.51537         2.75376
| 21>    C       11.79994         0.63827         4.18814
| 22>    C       10.90647         0.56752         5.20952
| 23>    C        9.49037         0.63192         5.16412
| 24>    C        8.64281         0.26913         6.18023
| 25>    C        7.28014         0.50205         5.89906
| 26>    C        6.16944         0.23673         6.70387
| 27>    C        4.92905         0.58085         6.22061
| 28>    S        3.40869         0.36763         7.04106
| 29>    C        2.54317         1.06907         5.68972
| 30>    C        1.12213         1.20690         5.74501
| 31>    C        0.28203         1.61734         4.74874
| 32>    C       -1.07918         1.65680         5.13793
| 33>    C       -2.18910         2.02204         4.37602
| 34>    C       -3.42520         1.98858         4.98130
| 35>    S       -4.94681         2.39349         4.23884
| 36>    C       -5.80113         2.06253         5.73367
| 37>    C       -7.22013         2.21881         5.79851
| 38>    C       -8.01181         2.19239         6.91271
| 39>    C       -9.38705         2.37131         6.63284
| 40>    C      -10.45701         2.40147         7.52661
| 41>    C      -11.72237         2.57820         7.01288
| 42>    S      -13.20230         2.63791         7.91789
| 43>    C      -14.13504         2.89891         6.45106
| 44>    C      -15.54315         2.97543         6.56031
| 45>    C      -16.47351         3.41519         5.66770
| 46>    C      -17.88855         2.99215         5.85701
| 47>    O      -18.36861         2.47377         6.83597
| 48>    C      -18.55491         3.29419         4.57092
| 49>    C      -19.84034         2.99327         4.17173
| 50>    C      -20.23174         3.35270         2.88821
| 51>   Br      -21.98570         2.95272         2.30955
| 52>    C      -19.33694         3.99804         2.03189
| 53>   Br      -19.87028         4.45916         0.27817
| 54>    C      -18.04502         4.31068         2.44033
| 55>    C      -17.65311         3.95995         3.72079
| 56>    C      -16.39782         4.17794         4.44055
| 57>    C      -15.46463         5.12655         4.11591
| 58>    C      -14.40432         5.50423         4.96498
| 59>    N      -13.54740         5.86706         5.63601
| 60>    C      -15.50307         5.89244         2.93185
| 61>    N      -15.48008         6.52013         1.97172
| 62>    C      -13.33275         2.90842         5.33462
| 63>    C      -11.96438         2.72920         5.61830
| 64>    C      -10.89060         2.70431         4.72304
| 65>    C       -9.62891         2.53206         5.23887
| 66>    S       -8.14398         2.47169         4.33168
| 67>    C       -4.95989         1.66263         6.73315
| 68>    C       -3.60097         1.60533         6.33849
| 69>    C       -2.49215         1.23200         7.09797
| 70>    C       -1.25683         1.26056         6.49110
| 71>    S        0.26295         0.84226         7.22961
| 72>    C        3.38027         1.43878         4.67336
| 73>    C        4.74438         1.18015         4.94335
| 74>    C        5.85385         1.44387         4.13826
| 75>    C        7.09520         1.10461         4.62397
| 76>    S        8.61493         1.34371         3.81231
| 77>    C       13.20712         1.03806         4.45812
| 78>    O       13.76444         1.07768         5.52820
| 79>    C       13.74413         1.43709         3.13658
| 80>    C       14.96262         2.00947         2.83555
| 81>    C       15.23032         2.32895         1.51039
| 82>   Br       16.88952         3.11771         1.06689
| 83>    C       14.28340         2.07434         0.51568
| 84>   Br       14.65080         2.53437        -1.28001
| 85>    C       13.06062         1.48585         0.81797
| 86>    C       12.79141         1.16402         2.13672
| 87>    H       11.33942         0.54962         6.20528
| 88>    H        8.99025        -0.17982         7.09388
| 89>    H        6.29031        -0.22110         7.67245
| 90>    H        0.61524         1.87969         3.76128
| 91>    H       -2.07565         2.32067         3.34615
| 92>    H       -7.62969         2.06040         7.90830
| 93>    H      -10.29224         2.28712         8.58589
| 94>    H      -15.96282         2.55165         7.46847
| 95>    H      -20.52223         2.49158         4.84062
| 96>    H      -17.37943         4.80627         1.75192
| 97>    H      -13.71271         2.98923         4.33138
| 98>    H      -11.05550         2.82572         3.66445
| 99>    H       -5.29336         1.40302         7.72128
|100>    H       -2.60571         0.93215         8.12748
|101>    H        3.04040         1.89285         3.76070
|102>    H        5.73360         1.89777         3.16766
|103>    H       15.68758         2.20432         3.61055
|104>    H       12.34832         1.30438         0.02894
|105> *
|106>
|107>                          ****END OF INPUT****

CARTESIAN COORDINATES (ANGSTROEM)
---------------------------------
  N     10.598260   -0.580750   -0.422920
  C     10.686020   -0.448940    0.713470
  C     10.743630   -0.299080    2.114120
  C      9.861270   -1.158100    2.805690
  N      9.189560   -1.916590    3.343590
  C     11.637650    0.515370    2.753760
  C     11.799940    0.638270    4.188140
  C     10.906470    0.567520    5.209520
  C      9.490370    0.631920    5.164120
  C      8.642810    0.269130    6.180230
  C      7.280140    0.502050    5.899060
  C      6.169440    0.236730    6.703870
  C      4.929050    0.580850    6.220610
  S      3.408690    0.367630    7.041060
  C      2.543170    1.069070    5.689720
  C      1.122130    1.206900    5.745010
  C      0.282030    1.617340    4.748740
  C     -1.079180    1.656800    5.137930
  C     -2.189100    2.022040    4.376020
  C     -3.425200    1.988580    4.981300
  S     -4.946810    2.393490    4.238840
  C     -5.801130    2.062530    5.733670
  C     -7.220130    2.218810    5.798510
  C     -8.011810    2.192390    6.912710
  C     -9.387050    2.371310    6.632840
  C    -10.457010    2.401470    7.526610
  C    -11.722370    2.578200    7.012880
  S    -13.202300    2.637910    7.917890
  C    -14.135040    2.898910    6.451060
  C    -15.543150    2.975430    6.560310
  C    -16.473510    3.415190    5.667700
  C    -17.888550    2.992150    5.857010
  O    -18.368610    2.473770    6.835970
  C    -18.554910    3.294190    4.570920
  C    -19.840340    2.993270    4.171730
  C    -20.231740    3.352700    2.888210
  Br   -21.985700    2.952720    2.309550
  C    -19.336940    3.998040    2.031890
  Br   -19.870280    4.459160    0.278170
  C    -18.045020    4.310680    2.440330
  C    -17.653110    3.959950    3.720790
  C    -16.397820    4.177940    4.440550
  C    -15.464630    5.126550    4.115910
  C    -14.404320    5.504230    4.964980
  N    -13.547400    5.867060    5.636010
  C    -15.503070    5.892440    2.931850
  N    -15.480080    6.520130    1.971720
  C    -13.332750    2.908420    5.334620
  C    -11.964380    2.729200    5.618300
  C    -10.890600    2.704310    4.723040
  C     -9.628910    2.532060    5.238870
  S     -8.143980    2.471690    4.331680
  C     -4.959890    1.662630    6.733150
  C     -3.600970    1.605330    6.338490
  C     -2.492150    1.232000    7.097970
  C     -1.256830    1.260560    6.491100
  S      0.262950    0.842260    7.229610
  C      3.380270    1.438780    4.673360
  C      4.744380    1.180150    4.943350
  C      5.853850    1.443870    4.138260
  C      7.095200    1.104610    4.623970
  S      8.614930    1.343710    3.812310
  C     13.207120    1.038060    4.458120
  O     13.764440    1.077680    5.528200
  C     13.744130    1.437090    3.136580
  C     14.962620    2.009470    2.835550
  C     15.230320    2.328950    1.510390
  Br    16.889520    3.117710    1.066890
  C     14.283400    2.074340    0.515680
  Br    14.650800    2.534370   -1.280010
  C     13.060620    1.485850    0.817970
  C     12.791410    1.164020    2.136720
  H     11.339420    0.549620    6.205280
  H      8.990250   -0.179820    7.093880
  H      6.290310   -0.221100    7.672450
  H      0.615240    1.879690    3.761280
  H     -2.075650    2.320670    3.346150
  H     -7.629690    2.060400    7.908300
  H    -10.292240    2.287120    8.585890
  H    -15.962820    2.551650    7.468470
  H    -20.522230    2.491580    4.840620
  H    -17.379430    4.806270    1.751920
  H    -13.712710    2.989230    4.331380
  H    -11.055500    2.825720    3.664450
  H     -5.293360    1.403020    7.721280
  H     -2.605710    0.932150    8.127480
  H      3.040400    1.892850    3.760700
  H      5.733600    1.897770    3.167660
  H     15.687580    2.204320    3.610550
  H     12.348320    1.304380    0.028940

 Total Charge           Charge          ....    0
 Multiplicity           Mult            ....    1
 Number of Electrons    NEL             ....  634
 Basis Dimension        Dim             .... 1194

ORBITAL ENERGIES
----------------

  NO   OCC          E(Eh)            E(eV)
   0   2.0000    -482.879005    -13139.8057
   1   2.0000    -482.878161    -13139.7828
   2   2.0000    -482.877656    -13139.7690
   3   2.0000    -482.877033    -13139.7521
   4   2.0000     -88.960820     -2420.7470
   5   2.0000     -88.960737     -2420.7447
   6   2.0000     -88.960190     -2420.7298
   7   2.0000     -88.959885     -2420.7215
   8   2.0000     -88.957969     -2420.6694
   9   2.0000     -88.957774     -2420.6641
  10   2.0000     -62.556608     -1702.2519
  11   2.0000     -62.555773     -1702.2291
  12   2.0000     -62.555264     -1702.2153
  13   2.0000     -62.554632     -1702.1981
  14   2.0000     -56.390559     -1534.4651
  15   2.0000     -56.389735     -1534.4427
  16   2.0000     -56.389213     -1534.4285
  17   2.0000     -56.388593     -1534.4116
  18   2.0000     -56.387901     -1534.3928
  19   2.0000     -56.387810     -1534.3903
  20   2.0000     -56.387062     -1534.3700
  21   2.0000     -56.386969     -1534.3674
  22   2.0000     -56.386557     -1534.3562
  23   2.0000     -56.386469     -1534.3538
  24   2.0000     -56.385922     -1534.3390
  25   2.0000     -56.385831     -1534.3365
  26   2.0000     -19.224960      -523.1378
  27   2.0000     -19.223850      -523.1076
  28   2.0000     -14.423748      -392.4901
  29   2.0000     -14.422293      -392.4505
  30   2.0000     -14.421776      -392.4365
  31   2.0000     -14.415641      -392.2695
  32   2.0000     -10.375916      -282.3430
  33   2.0000     -10.375599      -282.3344
  34   2.0000     -10.356852      -281.8243
  35   2.0000     -10.356009      -281.8013
  36   2.0000     -10.355655      -281.7917
  37   2.0000     -10.354475      -281.7596
  38   2.0000     -10.353710      -281.7388
  39   2.0000     -10.351913      -281.6899
  40   2.0000     -10.351772      -281.6860
  41   2.0000     -10.347938      -281.5817
  42   2.0000     -10.328077      -281.0413
  43   2.0000     -10.326564      -281.0001
  44   2.0000     -10.325760      -280.9782
  45   2.0000     -10.324086      -280.9327
  46   2.0000     -10.323431      -280.9148
  47   2.0000     -10.323286      -280.9109
  48   2.0000     -10.322481      -280.8890
  49   2.0000     -10.322425      -280.8875
  50   2.0000     -10.321759      -280.8693
  51   2.0000     -10.321023      -280.8493
  52   2.0000     -10.320259      -280.8285
  53   2.0000     -10.320172      -280.8262
  54   2.0000     -10.319941      -280.8199
  55   2.0000     -10.317838      -280.7627
  56   2.0000     -10.315398      -280.6962
  57   2.0000     -10.315013      -280.6858
  58   2.0000     -10.314844      -280.6812
  59   2.0000     -10.314716      -280.6777
  60   2.0000     -10.313401      -280.6419
  61   2.0000     -10.313044      -280.6322
  62   2.0000     -10.312893      -280.6281
  63   2.0000     -10.312418      -280.6152
  64   2.0000     -10.309503      -280.5359
  65   2.0000     -10.309332      -280.5312
  66   2.0000     -10.306839      -280.4633
  67   2.0000     -10.306272      -280.4479
  68   2.0000     -10.305765      -280.4341
  69   2.0000     -10.304408      -280.3972
  70   2.0000     -10.302734      -280.3517
  71   2.0000     -10.302172      -280.3364
  72   2.0000     -10.298219      -280.2288
  73   2.0000     -10.297440      -280.2076
  74   2.0000     -10.297425      -280.2072
  75   2.0000     -10.296470      -280.1812
  76   2.0000     -10.296236      -280.1748
  77   2.0000     -10.295805      -280.1631
  78   2.0000     -10.292192      -280.0648
  79   2.0000     -10.292158      -280.0639
  80   2.0000     -10.292079      -280.0617
  81   2.0000     -10.291441      -280.0443
  82   2.0000     -10.289966      -280.0042
  83   2.0000     -10.289845      -280.0009
  84   2.0000     -10.286775      -279.9174
  85   2.0000     -10.286663      -279.9143
  86   2.0000     -10.286416      -279.9076
  87   2.0000     -10.286085      -279.8986
  88   2.0000      -8.785935      -239.0774
  89   2.0000      -8.785101      -239.0548
  90   2.0000      -8.784587      -239.0408
  91   2.0000      -8.783942      -239.0232
  92   2.0000      -8.056887      -219.2390
  93   2.0000      -8.056302      -219.2231
  94   2.0000      -8.056277      -219.2224
  95   2.0000      -8.055981      -219.2144
  96   2.0000      -8.053991      -219.1602
  97   2.0000      -8.053789      -219.1547
  98   2.0000      -6.622047      -180.1951
  99   2.0000      -6.621248      -180.1733
 100   2.0000      -6.620703      -180.1585
 101   2.0000      -6.620092      -180.1418
 102   2.0000      -6.608059      -179.8144
 103   2.0000      -6.607286      -179.7934
 104   2.0000      -6.607211      -179.7914
 105   2.0000      -6.606706      -179.7776
 106   2.0000      -6.606429      -179.7701
 107   2.0000      -6.606060      -179.7600
 108   2.0000      -6.605951      -179.7571
 109   2.0000      -6.605260      -179.7383
 110   2.0000      -6.026542      -163.9905
 111   2.0000      -6.026021      -163.9764
 112   2.0000      -6.025856      -163.9719
 113   2.0000      -6.025635      -163.9659
 114   2.0000      -6.023662      -163.9122
 115   2.0000      -6.023455      -163.9066
 116   2.0000      -6.022460      -163.8795
 117   2.0000      -6.021975      -163.8663
 118   2.0000      -6.021907      -163.8644
 119   2.0000      -6.021572      -163.8553
 120   2.0000      -6.019588      -163.8013
 121   2.0000      -6.019382      -163.7957
 122   2.0000      -6.018030      -163.7589
 123   2.0000      -6.017463      -163.7435
 124   2.0000      -6.017355      -163.7406
 125   2.0000      -6.017119      -163.7341
 126   2.0000      -6.015156      -163.6807
 127   2.0000      -6.014962      -163.6754
 128   2.0000      -2.737985       -74.5044
 129   2.0000      -2.737189       -74.4827
 130   2.0000      -2.736623       -74.4673
 131   2.0000      -2.736032       -74.4512
 132   2.0000      -2.734185       -74.4010
 133   2.0000      -2.733585       -74.3846
 134   2.0000      -2.733369       -74.3788
 135   2.0000      -2.732848       -74.3646
 136   2.0000      -2.732749       -74.3619
 137   2.0000      -2.732247       -74.3482
 138   2.0000      -2.732193       -74.3468
 139   2.0000      -2.731614       -74.3310
 140   2.0000      -2.722449       -74.0816
 141   2.0000      -2.722446       -74.0815
 142   2.0000      -2.721589       -74.0582
 143   2.0000      -2.721577       -74.0579
 144   2.0000      -2.721113       -74.0452
 145   2.0000      -2.721104       -74.0450
 146   2.0000      -2.720432       -74.0267
 147   2.0000      -2.720427       -74.0266
 148   2.0000      -1.140972       -31.0474
 149   2.0000      -1.139713       -31.0132
 150   2.0000      -1.029790       -28.0220
 151   2.0000      -1.027978       -27.9727
 152   2.0000      -1.015710       -27.6389
 153   2.0000      -1.014132       -27.5959
 154   2.0000      -1.012425       -27.5495
 155   2.0000      -1.009769       -27.4772
 156   2.0000      -1.007812       -27.4240
 157   2.0000      -1.001541       -27.2533
 158   2.0000      -0.998450       -27.1692
 159   2.0000      -0.994992       -27.0751
 160   2.0000      -0.988501       -26.8985
 161   2.0000      -0.981111       -26.6974
 162   2.0000      -0.978962       -26.6389
 163   2.0000      -0.975633       -26.5483
 164   2.0000      -0.936186       -25.4749
 165   2.0000      -0.929665       -25.2975
 166   2.0000      -0.923896       -25.1405
 167   2.0000      -0.921603       -25.0781
 168   2.0000      -0.915761       -24.9191
 169   2.0000      -0.913888       -24.8682
 170   2.0000      -0.910674       -24.7807
 171   2.0000      -0.899469       -24.4758
 172   2.0000      -0.893381       -24.3101
 173   2.0000      -0.888395       -24.1745
 174   2.0000      -0.887667       -24.1546
 175   2.0000      -0.882994       -24.0275
 176   2.0000      -0.867385       -23.6027
 177   2.0000      -0.863290       -23.4913
 178   2.0000      -0.856212       -23.2987
 179   2.0000      -0.854723       -23.2582
 180   2.0000      -0.850364       -23.1396
 181   2.0000      -0.848608       -23.0918
 182   2.0000      -0.837440       -22.7879
 183   2.0000      -0.836197       -22.7541
 184   2.0000      -0.818966       -22.2852
 185   2.0000      -0.802125       -21.8269
 186   2.0000      -0.800027       -21.7698
 187   2.0000      -0.792854       -21.5747
 188   2.0000      -0.785434       -21.3728
 189   2.0000      -0.783632       -21.3237
 190   2.0000      -0.774942       -21.0873
 191   2.0000      -0.770060       -20.9544
 192   2.0000      -0.763215       -20.7681
 193   2.0000      -0.746467       -20.3124
 194   2.0000      -0.729697       -19.8561
 195   2.0000      -0.718489       -19.5511
 196   2.0000      -0.711700       -19.3663
 197   2.0000      -0.704250       -19.1636
 198   2.0000      -0.695664       -18.9300
 199   2.0000      -0.695283       -18.9196
 200   2.0000      -0.690573       -18.7914
 201   2.0000      -0.689315       -18.7572
 202   2.0000      -0.685640       -18.6572
 203   2.0000      -0.681459       -18.5434
 204   2.0000      -0.677184       -18.4271
 205   2.0000      -0.669611       -18.2210
 206   2.0000      -0.660360       -17.9693
 207   2.0000      -0.656428       -17.8623
 208   2.0000      -0.652204       -17.7474
 209   2.0000      -0.633270       -17.2322
 210   2.0000      -0.631393       -17.1811
 211   2.0000      -0.628187       -17.0938
 212   2.0000      -0.625719       -17.0267
 213   2.0000      -0.623830       -16.9753
 214   2.0000      -0.614869       -16.7314
 215   2.0000      -0.602093       -16.3838
 216   2.0000      -0.599264       -16.3068
 217   2.0000      -0.597355       -16.2549
 218   2.0000      -0.589333       -16.0366
 219   2.0000      -0.582791       -15.8585
 220   2.0000      -0.580887       -15.8067
 221   2.0000      -0.574766       -15.6402
 222   2.0000      -0.572684       -15.5835
 223   2.0000      -0.569507       -15.4971
 224   2.0000      -0.564940       -15.3728
 225   2.0000      -0.561642       -15.2831
 226   2.0000      -0.556356       -15.1392
 227   2.0000      -0.552212       -15.0264
 228   2.0000      -0.550370       -14.9763
 229   2.0000      -0.547271       -14.8920
 230   2.0000      -0.546595       -14.8736
 231   2.0000      -0.544666       -14.8211
 232   2.0000      -0.541801       -14.7432
 233   2.0000      -0.538337       -14.6489
 234   2.0000      -0.536560       -14.6005
 235   2.0000      -0.532156       -14.4807
 236   2.0000      -0.531596       -14.4655
 237   2.0000      -0.528234       -14.3740
 238   2.0000      -0.523563       -14.2469
 239   2.0000      -0.521365       -14.1871
 240   2.0000      -0.518296       -14.1035
 241   2.0000      -0.516204       -14.0466
 242   2.0000      -0.514205       -13.9922
 243   2.0000      -0.512147       -13.9362
 244   2.0000      -0.510253       -13.8847
 245   2.0000      -0.509097       -13.8532
 246   2.0000      -0.505039       -13.7428
 247   2.0000      -0.503124       -13.6907
 248   2.0000      -0.502448       -13.6723
 249   2.0000      -0.498227       -13.5574
 250   2.0000      -0.495902       -13.4942
 251   2.0000      -0.493304       -13.4235
 252   2.0000      -0.488744       -13.2994
 253   2.0000      -0.483427       -13.1547
 254   2.0000      -0.479129       -13.0378
 255   2.0000      -0.478415       -13.0183
 256   2.0000      -0.472770       -12.8647
 257   2.0000      -0.468170       -12.7396
 258   2.0000      -0.467543       -12.7225
 259   2.0000      -0.466340       -12.6898
 260   2.0000      -0.465045       -12.6545
 261   2.0000      -0.462468       -12.5844
 262   2.0000      -0.461872       -12.5682
 263   2.0000      -0.459998       -12.5172
 264   2.0000      -0.455756       -12.4018
 265   2.0000      -0.454417       -12.3653
 266   2.0000      -0.452179       -12.3044
 267   2.0000      -0.450922       -12.2702
 268   2.0000      -0.450331       -12.2541
 269   2.0000      -0.448764       -12.2115
 270   2.0000      -0.445875       -12.1329
 271   2.0000      -0.443070       -12.0566
 272   2.0000      -0.440142       -11.9769
 273   2.0000      -0.439847       -11.9688
 274   2.0000      -0.434538       -11.8244
 275   2.0000      -0.432883       -11.7793
 276   2.0000      -0.432710       -11.7746
 277   2.0000      -0.432052       -11.7567
 278   2.0000      -0.430994       -11.7279
 279   2.0000      -0.429673       -11.6920
 280   2.0000      -0.424811       -11.5597
 281   2.0000      -0.423526       -11.5247
 282   2.0000      -0.421898       -11.4804
 283   2.0000      -0.420471       -11.4416
 284   2.0000      -0.413599       -11.2546
 285   2.0000      -0.412430       -11.2228
 286   2.0000      -0.407106       -11.0779
 287   2.0000      -0.406503       -11.0615
 288   2.0000      -0.402519       -10.9531
 289   2.0000      -0.401298       -10.9199
 290   2.0000      -0.397959       -10.8290
 291   2.0000      -0.392503       -10.6806
 292   2.0000      -0.391529       -10.6540
 293   2.0000      -0.391306       -10.6480
 294   2.0000      -0.386454       -10.5160
 295   2.0000      -0.384399       -10.4600
 296   2.0000      -0.380218       -10.3462
 297   2.0000      -0.371677       -10.1139
 298   2.0000      -0.357189        -9.7196
 299   2.0000      -0.352616        -9.5952
 300   2.0000      -0.349801        -9.5186
 301   2.0000      -0.348487        -9.4828
 302   2.0000      -0.344354        -9.3703
 303   2.0000      -0.343199        -9.3389
 304   2.0000      -0.341454        -9.2914
 305   2.0000      -0.338975        -9.2240
 306   2.0000      -0.336638        -9.1604
 307   2.0000      -0.335362        -9.1257
 308   2.0000      -0.319586        -8.6964
 309   2.0000      -0.315295        -8.5796
 310   2.0000      -0.312952        -8.5158
 311   2.0000      -0.304764        -8.2930
 312   2.0000      -0.291561        -7.9338
 313   2.0000      -0.284252        -7.7349
 314   2.0000      -0.279494        -7.6054
 315   2.0000      -0.267500        -7.2790
 316   2.0000      -0.247750        -6.7416
 317   0.0000      -0.100691        -2.7400
 318   0.0000      -0.097920        -2.6645
 319   0.0000      -0.072850        -1.9823
 320   0.0000      -0.069588        -1.8936
 321   0.0000      -0.053635        -1.4595

MULLIKEN ATOMIC CHARGES
-----------------------
   0 N :    0.161883
   1 C :   -0.177926
   2 C :   -0.303745
   3 C :   -0.201720
   4 N :    0.176093
   5 C :    0.239199
   6 C :   -0.128339
   7 C :    0.056639
   8 C :   -0.082376
   9 C :    0.027364
  10 C :    0.110476
  11 C :   -0.038766
  12 C :   -0.044021
  13 S :    0.123907
  14 C :   -0.015295
  15 C :   -0.024110
  16 C :   -0.040794
  17 C :    0.114245
  18 C :   -0.051771
  19 C :   -0.045438
  20 S :    0.119678
  21 C :   -0.027062
  22 C :   -0.017574
  23 C :   -0.045666
  24 C :    0.122839
  25 C :   -0.055301
  26 C :   -0.025402
  27 S :    0.132514
  28 C :   -0.099982
  29 C :    0.096132
  30 C :   -0.131813
  31 C :    0.136712
  32 O :   -0.133281
  33 C :    0.004276
  34 C :   -0.022478
  35 C :   -0.016482
  36 Br:    0.015728
  37 C :   -0.022814
  38 Br:    0.022084
  39 C :   -0.013672
  40 C :    0.020906
  41 C :    0.259917
  42 C :   -0.326664
  43 C :   -0.208397
  44 N :    0.186332
  45 C :   -0.177775
  46 N :    0.163314
  47 C :    0.021016
  48 C :    0.086329
  49 C :   -0.036511
  50 C :   -0.045639
  51 S :    0.124219
  52 C :   -0.039511
  53 C :    0.114356
  54 C :   -0.052302
  55 C :   -0.044604
  56 S :    0.116839
  57 C :   -0.047775
  58 C :    0.118839
  59 C :   -0.050650
  60 C :   -0.031409
  61 S :    0.122442
  62 C :    0.144215
  63 O :   -0.133686
  64 C :   -0.002672
  65 C :   -0.022291
  66 C :   -0.015167
  67 Br:    0.014171
  68 C :   -0.022724
  69 Br:    0.021479
  70 C :   -0.010330
  71 C :    0.025321
  72 H :    0.028842
  73 H :   -0.006267
  74 H :   -0.024916
  75 H :   -0.022101
  76 H :   -0.029486
  77 H :   -0.021663
  78 H :   -0.026924
  79 H :    0.026983
  80 H :    0.009045
  81 H :    0.011220
  82 H :   -0.004126
  83 H :   -0.023827
  84 H :   -0.022787
  85 H :   -0.030238
  86 H :   -0.021298
  87 H :   -0.027494
  88 H :    0.008454
  89 H :    0.011055
Sum of atomic charges:   -0.0000000

LOEWDIN ATOMIC CHARGES
----------------------
   0 N :   -0.041610
   1 C :   -0.020214
   2 C :   -0.128982
   3 C :   -0.036405
   4 N :   -0.041314
   5 C :    0.056918
   6 C :   -0.095022
   7 C :    0.056616
   8 C :   -0.167917
   9 C :    0.004392
  10 C :   -0.050554
  11 C :   -0.019314
  12 C :   -0.153395
  13 S :    0.399726
  14 C :   -0.157171
  15 C :   -0.168673
  16 C :   -0.043100
  17 C :   -0.042913
  18 C :   -0.033837
  19 C :   -0.151161
  20 S :    0.394941
  21 C :   -0.168477
  22 C :   -0.157457
  23 C :   -0.051387
  24 C :   -0.030456
  25 C :   -0.037646
  26 C :   -0.141087
  27 S :    0.413226
  28 C :   -0.172967
  29 C :    0.055679
  30 C :   -0.093149
  31 C :    0.083756
  32 O :   -0.133076
  33 C :   -0.043981
  34 C :    0.007643
  35 C :   -0.123728
  36 Br:    0.138472
  37 C :   -0.117968
  38 Br:    0.142370
  39 C :   -0.010225
  40 C :   -0.009550
  41 C :    0.063364
  42 C :   -0.133279
  43 C :   -0.020957
  44 N :   -0.029908
  45 C :   -0.022553
  46 N :   -0.042719
  47 C :   -0.000377
  48 C :   -0.047408
  49 C :   -0.019807
  50 C :   -0.151810
  51 S :    0.399206
  52 C :   -0.043824
  53 C :   -0.042744
  54 C :   -0.034419
  55 C :   -0.151021
  56 S :    0.393341
  57 C :   -0.051096
  58 C :   -0.030125
  59 C :   -0.036398
  60 C :   -0.138451
  61 S :    0.418583
  62 C :    0.084629
  63 O :   -0.133899
  64 C :   -0.044477
  65 C :    0.007458
  66 C :   -0.124392
  67 Br:    0.137216
  68 C :   -0.117698
  69 Br:    0.142112
  70 C :   -0.009790
  71 C :   -0.007638
  72 H :    0.052867
  73 H :    0.038092
  74 H :    0.034210
  75 H :    0.030818
  76 H :    0.031869
  77 H :    0.030966
  78 H :    0.032754
  79 H :    0.047551
  80 H :    0.047157
  81 H :    0.044567
  82 H :    0.034323
  83 H :    0.034508
  84 H :    0.030583
  85 H :    0.031592
  86 H :    0.031167
  87 H :    0.033099
  88 H :    0.046893
  89 H :    0.044861

  Mayer bond orders larger than 0.100000
B(  0-N ,  1-C ) :   2.9930 B(  1-C ,  2-C ) :   1.1327 B(  2-C ,  3-C ) :   1.1446
B(  2-C ,  5-C ) :   1.6772 B(  3-C ,  4-N ) :   3.0298 B(  5-C ,  6-C ) :   1.0309
B(  5-C , 71-C ) :   1.0076 B(  6-C ,  7-C ) :   1.6536 B(  6-C , 62-C ) :   0.9406
B(  7-C ,  8-C ) :   1.1210 B(  7-C , 72-H ) :   0.9519 B(  8-C ,  9-C ) :   1.5072
B(  8-C , 61-S ) :   1.0675 B(  9-C , 10-C ) :   1.1648 B(  9-C , 73-H ) :   1.0044
B( 10-C , 11-C ) :   1.3058 B( 10-C , 60-C ) :   1.2686 B( 11-C , 12-C ) :   1.4002
B( 11-C , 74-H ) :   1.0005 B( 12-C , 13-S ) :   1.0416 B( 12-C , 58-C ) :   1.2711
B( 13-S , 14-C ) :   1.0794 B( 14-C , 15-C ) :   1.0920 B( 14-C , 57-C ) :   1.5935
B( 15-C , 16-C ) :   1.5993 B( 15-C , 56-S ) :   1.0716 B( 16-C , 17-C ) :   1.1516
B( 16-C , 75-H ) :   0.9992 B( 17-C , 18-C ) :   1.3170 B( 17-C , 55-C ) :   1.2799
B( 18-C , 19-C ) :   1.3897 B( 18-C , 54-C ) :   0.1014 B( 18-C , 76-H ) :   1.0000
B( 19-C , 20-S ) :   1.0436 B( 19-C , 53-C ) :   1.2799 B( 20-S , 21-C ) :   1.0730
B( 21-C , 22-C ) :   1.0892 B( 21-C , 52-C ) :   1.5993 B( 22-C , 23-C ) :   1.5914
B( 22-C , 51-S ) :   1.0777 B( 23-C , 24-C ) :   1.1575 B( 23-C , 77-H ) :   1.0015
B( 24-C , 25-C ) :   1.3221 B( 24-C , 50-C ) :   1.2628 B( 25-C , 26-C ) :   1.3770
B( 25-C , 49-C ) :   0.1004 B( 25-C , 78-H ) :   1.0017 B( 26-C , 27-S ) :   1.0585
B( 26-C , 48-C ) :   1.2761 B( 27-S , 28-C ) :   1.0673 B( 28-C , 29-C ) :   1.1273
B( 28-C , 47-C ) :   1.4958 B( 29-C , 30-C ) :   1.6756 B( 29-C , 79-H ) :   0.9248
B( 30-C , 31-C ) :   0.9456 B( 30-C , 41-C ) :   1.0404 B( 31-C , 32-O ) :   2.2718
B( 31-C , 33-C ) :   0.9184 B( 33-C , 34-C ) :   1.3768 B( 33-C , 40-C ) :   1.3294
B( 34-C , 35-C ) :   1.3552 B( 34-C , 80-H ) :   1.0068 B( 35-C , 36-Br) :   1.0348
B( 35-C , 37-C ) :   1.4218 B( 37-C , 38-Br) :   1.0535 B( 37-C , 39-C ) :   1.3689
B( 39-C , 40-C ) :   1.3716 B( 39-C , 81-H ) :   0.9816 B( 40-C , 41-C ) :   1.0003
B( 41-C , 42-C ) :   1.6579 B( 42-C , 43-C ) :   1.1662 B( 42-C , 45-C ) :   1.1234
B( 43-C , 44-N ) :   3.0054 B( 45-C , 46-N ) :   2.9904 B( 47-C , 48-C ) :   1.2074
B( 47-C , 82-H ) :   0.9906 B( 48-C , 49-C ) :   1.2953 B( 49-C , 50-C ) :   1.4122
B( 49-C , 83-H ) :   1.0010 B( 50-C , 51-S ) :   1.0402 B( 52-C , 53-C ) :   1.1516
B( 52-C , 84-H ) :   0.9997 B( 53-C , 54-C ) :   1.3168 B( 54-C , 55-C ) :   1.3897
B( 54-C , 85-H ) :   1.0000 B( 55-C , 56-S ) :   1.0436 B( 57-C , 58-C ) :   1.1563
B( 57-C , 86-H ) :   0.9997 B( 58-C , 59-C ) :   1.3159 B( 59-C , 60-C ) :   1.3929
B( 59-C , 87-H ) :   1.0007 B( 60-C , 61-S ) :   1.0494 B( 62-C , 63-O ) :   2.2778
B( 62-C , 64-C ) :   0.9205 B( 64-C , 65-C ) :   1.3757 B( 64-C , 71-C ) :   1.3292
B( 65-C , 66-C ) :   1.3557 B( 65-C , 88-H ) :   1.0078 B( 66-C , 67-Br) :   1.0339
B( 66-C , 68-C ) :   1.4218 B( 68-C , 69-Br) :   1.0523 B( 68-C , 70-C ) :   1.3674
B( 70-C , 71-C ) :   1.3702 B( 70-C , 89-H ) :   0.9843

-----------------------------------------------------------------------------
         ABSORPTION SPECTRUM VIA TRANSITION ELECTRIC DIPOLE MOMENTS
-----------------------------------------------------------------------------
State   Energy  Wavelength   fosc         T2         TX        TY        TZ
        (cm-1)    (nm)                  (au**2)     (au)      (au)      (au)
-----------------------------------------------------------------------------
   0   18489.2    540.9   1.692803538  30.14150  -5.39585   0.99655   0.18208
   1   19692.2    507.8   0.548868592   9.17592  -2.64744  -0.09133   1.46923
   2   23275.3    429.6   0.431449133   6.10253  -2.39285   0.53221  -0.30583
   3   23877.9    418.8   0.292154940   4.02803   1.73090  -0.31660   0.96528
   4   25072.3    398.8   0.240472807   3.15753   1.71018   0.35091  -0.33119
   5   26169.2    382.1   0.068112048   0.85686   0.42330   0.02837   0.82272
   6   26630.7    375.5   0.164231250   2.03024  -1.33322   0.45300  -0.21811
   7   27049.1    369.7   0.331744988   4.03763  -1.78438   0.00633   0.92389
   8   28910.7    345.9   0.901242430  10.26261   3.19290   0.20590  -0.16005
   9   29149.2    343.1   0.090325302   1.02013  -0.10625  -0.85721   0.52349
  10   29409.0    340.0   0.004519306   0.05059  -0.13102   0.15482   0.09723
  11   29624.3    337.6   0.046917541   0.52139   0.42951   0.46301   0.35005
  12   30578.5    327.0   0.010134268   0.10911   0.04558   0.01562  -0.32678
  13   31100.3    321.5   0.026124359   0.27654   0.18172  -0.28633   0.40191
  14   31185.2    320.7   0.039179283   0.41360   0.18087  -0.11249   0.60682
  15   31358.6    318.9   0.253679662   2.66321  -1.45298  -0.41862  -0.61384
  16   31535.7    317.1   0.031173766   0.32543   0.51362   0.03518  -0.24574
  17   32115.9    311.4   0.028379987   0.29092  -0.06804  -0.30939   0.43654
  18   32345.3    309.2   0.002569200   0.02615   0.08429   0.10787   0.08607
  19   32706.2    305.8   0.048598983   0.48918  -0.55283  -0.42728  -0.03155
  20   33192.0    301.3   0.088608765   0.87886  -0.84622  -0.19721  -0.35195
  21   33310.3    300.2   0.062267265   0.61540   0.54408   0.56396  -0.03645
  22   33416.3    299.3   0.013749764   0.13546   0.34947  -0.08927   0.07321
  23   33797.6    295.9   0.206409364   2.01057   1.30531   0.07439  -0.54881
  24   34237.2    292.1   0.024965233   0.24006  -0.24679  -0.35533   0.22998
  25   34264.0    291.9   0.175480317   1.68603   1.04809   0.62204  -0.44789
  26   34416.5    290.6   0.284562263   2.72199   1.46466   0.43948   0.61937
  27   34493.2    289.9   0.107559038   1.02657  -0.93985  -0.37586   0.04448
  28   35111.4    284.8   0.101080885   0.94776   0.83797   0.38636  -0.31032
  29   35552.8    281.3   0.518330884   4.79964   1.91293   1.06387   0.09235
  30   35739.7    279.8   0.060119934   0.55379   0.45161   0.30972   0.50389
  31   35832.3    279.1   0.040382320   0.37102  -0.44022  -0.32839  -0.26342
  32   36283.4    275.6   0.074640525   0.67724   0.37442  -0.12212   0.72259
  33   36677.3    272.6   0.095087505   0.85350  -0.03190   0.30819  -0.87034
  34   37330.5    267.9   0.009899181   0.08730  -0.03197   0.27592  -0.10073
  35   38029.6    263.0   0.004846720   0.04196  -0.05391  -0.02905   0.19547
  36   38223.9    261.6   0.007173937   0.06179   0.19024   0.13014   0.09306
  37   38279.0    261.2   0.029192950   0.25107   0.09487  -0.27537  -0.40772
  38   38738.2    258.1   0.001820466   0.01547  -0.09482  -0.08041  -0.00369
  39   38990.7    256.5   0.027988743   0.23632  -0.34113  -0.12621  -0.32252
  40   39152.3    255.4   0.012987938   0.10921   0.13059   0.19531  -0.23240
  41   39251.7    254.8   0.018141413   0.15216  -0.20622  -0.21537   0.25149
  42   39549.9    252.8   0.037196720   0.30962   0.20203   0.15748  -0.49397
  43   39695.6    251.9   0.026739475   0.22176   0.40884  -0.21560  -0.09014
  44   40172.8    248.9   0.096250607   0.78876   0.86780  -0.07713   0.17246

FINAL SINGLE POINT ENERGY    -15195.302320164947

DIPOLE MOMENT
-------------
                                X             Y             Z
Electronic contribution:     -7.30686      42.61606    -140.07095
Nuclear contribution   :      7.11777     -42.84995     141.28447
                        -----------------------------------------
Total Dipole Moment    :     -0.18909      -0.23389       1.21353
                        -----------------------------------------
Magnitude (a.u.)       :      1.25024
Magnitude (Debye)      :      3.17786

Rotational constants in cm-1:     0.001727     0.000074     0.000072
Rotational constants in MHz :    51.787749     2.210700     2.143644

                             ****ORCA TERMINATED NORMALLY****
TOTAL RUN TIME: 0 days 0 hours 9 minutes 46 seconds 518 msec
