                         Program Version 4.2.0 -  RELEASE  -
|  1> # ORCA input file
|  2> # SCF done       -197.917447377491          0.000456842401
|  3> ! CAM-B3LYP def2-SVP def2/J RIJCOSX Grid4 TightSCF
|  4> %maxcore 5000
|  5> %tddft
|  6>     Mode sTDDFT
|  7>     Ethresh 5.0
|  8>     maxcore 5000
|  9> end
| 10>
| 11> %pal
| 12>   nprocs 6
| 13>   end
| 14> * xyz 0 1
| 15>    C       -7.30580        -1.49666        -0.69751
| 16>    O       -7.47990        -2.69143        -0.75561
| 17>    C       -8.24319        -0.44590        -1.13392
| 18>    C       -7.66017         0.82298        -0.95938
| 19>    C       -8.37100         1.95804        -1.32901
| 20>    C       -9.64257         1.80681        -1.85769
| 21>    C      -10.20152         0.54306        -2.01686
| 22>    C       -9.50929        -0.60609        -1.66022
| 23>   Br      -11.94634         0.38770        -2.74526
| 24>    C       -6.33227         0.66171        -0.38191
| 25>    C       -5.51131         1.66420         0.04813
| 26>    C       -5.81818         3.03907        -0.06296
| 27>    N       -6.01371         4.16691        -0.13300
| 28>    C       -4.26711         1.46612         0.68905
| 29>    N       -3.25982         1.37809         1.23051
| 30>    C       -6.07329        -0.77073        -0.27064
| 31>    C       -4.88597        -1.36447        -0.02474
| 32>    C       -4.69266        -2.79301         0.12925
| 33>    C       -3.60410        -3.42116        -0.48832
| 34>    F       -2.75933        -2.67403        -1.20744
| 35>    C       -3.39838        -4.78515        -0.39106
| 36>    F       -2.31242        -5.31751        -0.95447
| 37>    C       -4.27115        -5.59823         0.34494
| 38>    C       -5.30196        -4.95611         1.03939
| 39>    C       -5.51621        -3.59299         0.92702
| 40>    F       -6.48703        -3.02871         1.65272
| 41>    F       -6.11070        -5.67342         1.83107
| 42>    C       -4.08552        -7.03256         0.39898
| 43>    S       -4.26176        -7.89105         1.89170
| 44>    C       -3.74452        -7.87503        -0.64121
| 45>    C       -3.81281        -7.48605        -2.07073
| 46>    O       -4.26280        -6.41536        -2.44316
| 47>    C       -3.39378        -8.55520        -2.95015
| 48>    C       -3.27615        -8.56172        -4.32451
| 49>    N       -2.90258        -9.79903        -4.71994
| 50>    C       -2.61297       -10.18435        -6.07801
| 51>    C       -1.14250        -9.94320        -6.41330
| 52>    C       -2.77093       -10.60139        -3.63734
| 53>    C       -3.06788        -9.87148        -2.50814
| 54>    C       -3.13089       -10.30731        -1.12516
| 55>    O       -2.85652       -11.43105        -0.74544
| 56>    C       -3.54669        -9.21639        -0.21462
| 57>    C       -3.81674        -9.39057         1.13187
| 58>    C       -3.93942       -10.62945         1.82959
| 59>    C       -4.81972       -10.76700         2.83969
| 60>    C       -5.22854       -11.99791         3.42863
| 61>    C       -6.51477       -12.25902         3.87670
| 62>    C       -6.61317       -13.55657         4.48222
| 63>    C       -7.72736       -14.17772         5.03967
| 64>    C       -7.59875       -15.46360         5.54530
| 65>    C       -6.37317       -16.14858         5.48876
| 66>    C       -5.26837       -15.54894         4.92863
| 67>    C       -5.39288       -14.25956         4.42919
| 68>    S       -4.13369       -13.32181         3.68440
| 69>    C       -8.71854       -16.10186         6.12857
| 70>    N       -9.62180       -16.61914         6.60816
| 71>    C       -7.61899       -11.35897         3.74174
| 72>    C       -7.88341       -10.45575         2.76502
| 73>    C       -8.87546        -9.36328         3.03268
| 74>    O       -9.64545        -9.31544         3.96345
| 75>    C       -8.66322        -8.38002         1.96059
| 76>    C       -7.72925        -8.88330         1.03567
| 77>    C       -7.36529        -8.10953        -0.05373
| 78>    C       -7.94452        -6.85762        -0.24073
| 79>    C       -8.90024        -6.37530         0.67028
| 80>    C       -9.24380        -7.14071         1.77991
| 81>    C       -9.55570        -5.05251         0.44735
| 82>    C       -7.56281        -6.04468        -1.43465
| 83>    C       -7.34574       -10.23096         1.43421
| 84>    C       -6.78290       -11.17073         0.61004
| 85>    C       -6.66075       -12.53248         0.95068
| 86>    N       -6.59106       -13.65534         1.17749
| 87>    C       -6.34110       -10.89815        -0.69880
| 88>    N       -5.94538       -10.71533        -1.76153
| 89>    H       -7.95576         2.94639        -1.21959
| 90>    H      -10.20726         2.67818        -2.15171
| 91>    H       -9.93549        -1.58959        -1.78355
| 92>    H       -3.98095        -0.77131         0.01674
| 93>    H       -3.43616        -7.76240        -5.02086
| 94>    H       -3.25001        -9.60150        -6.74799
| 95>    H       -2.85575       -11.24304        -6.19773
| 96>    H       -0.89468        -8.89084        -6.29693
| 97>    H       -0.94247       -10.23732        -7.43958
| 98>    H       -0.50315       -10.52373        -5.75272
| 99>    H       -2.49517       -11.63365        -3.72093
|100>    H       -3.42517       -11.48037         1.40395
|101>    H       -5.37461        -9.89337         3.17000
|102>    H       -8.67936       -13.67071         5.08113
|103>    H       -6.31085       -17.15055         5.88513
|104>    H       -4.32398       -16.06640         4.87087
|105>    H       -8.32972       -11.35805         4.56367
|106>    H       -6.63593        -8.46134        -0.76719
|107>    H       -9.96773        -6.78159         2.49585
|108>    H       -8.81477        -4.25474         0.41938
|109>    H      -10.26973        -4.83784         1.23770
|110>    H      -10.07542        -5.04590        -0.51026
|111>    H       -6.64958        -6.41612        -1.89239
|112>    H       -7.42172        -4.99865        -1.17503
|113>    H       -8.35918        -6.08986        -2.17841
|114> *
|115>
|116>                          ****END OF INPUT****

CARTESIAN COORDINATES (ANGSTROEM)
---------------------------------
  C     -7.305800   -1.496660   -0.697510
  O     -7.479900   -2.691430   -0.755610
  C     -8.243190   -0.445900   -1.133920
  C     -7.660170    0.822980   -0.959380
  C     -8.371000    1.958040   -1.329010
  C     -9.642570    1.806810   -1.857690
  C    -10.201520    0.543060   -2.016860
  C     -9.509290   -0.606090   -1.660220
  Br   -11.946340    0.387700   -2.745260
  C     -6.332270    0.661710   -0.381910
  C     -5.511310    1.664200    0.048130
  C     -5.818180    3.039070   -0.062960
  N     -6.013710    4.166910   -0.133000
  C     -4.267110    1.466120    0.689050
  N     -3.259820    1.378090    1.230510
  C     -6.073290   -0.770730   -0.270640
  C     -4.885970   -1.364470   -0.024740
  C     -4.692660   -2.793010    0.129250
  C     -3.604100   -3.421160   -0.488320
  F     -2.759330   -2.674030   -1.207440
  C     -3.398380   -4.785150   -0.391060
  F     -2.312420   -5.317510   -0.954470
  C     -4.271150   -5.598230    0.344940
  C     -5.301960   -4.956110    1.039390
  C     -5.516210   -3.592990    0.927020
  F     -6.487030   -3.028710    1.652720
  F     -6.110700   -5.673420    1.831070
  C     -4.085520   -7.032560    0.398980
  S     -4.261760   -7.891050    1.891700
  C     -3.744520   -7.875030   -0.641210
  C     -3.812810   -7.486050   -2.070730
  O     -4.262800   -6.415360   -2.443160
  C     -3.393780   -8.555200   -2.950150
  C     -3.276150   -8.561720   -4.324510
  N     -2.902580   -9.799030   -4.719940
  C     -2.612970  -10.184350   -6.078010
  C     -1.142500   -9.943200   -6.413300
  C     -2.770930  -10.601390   -3.637340
  C     -3.067880   -9.871480   -2.508140
  C     -3.130890  -10.307310   -1.125160
  O     -2.856520  -11.431050   -0.745440
  C     -3.546690   -9.216390   -0.214620
  C     -3.816740   -9.390570    1.131870
  C     -3.939420  -10.629450    1.829590
  C     -4.819720  -10.767000    2.839690
  C     -5.228540  -11.997910    3.428630
  C     -6.514770  -12.259020    3.876700
  C     -6.613170  -13.556570    4.482220
  C     -7.727360  -14.177720    5.039670
  C     -7.598750  -15.463600    5.545300
  C     -6.373170  -16.148580    5.488760
  C     -5.268370  -15.548940    4.928630
  C     -5.392880  -14.259560    4.429190
  S     -4.133690  -13.321810    3.684400
  C     -8.718540  -16.101860    6.128570
  N     -9.621800  -16.619140    6.608160
  C     -7.618990  -11.358970    3.741740
  C     -7.883410  -10.455750    2.765020
  C     -8.875460   -9.363280    3.032680
  O     -9.645450   -9.315440    3.963450
  C     -8.663220   -8.380020    1.960590
  C     -7.729250   -8.883300    1.035670
  C     -7.365290   -8.109530   -0.053730
  C     -7.944520   -6.857620   -0.240730
  C     -8.900240   -6.375300    0.670280
  C     -9.243800   -7.140710    1.779910
  C     -9.555700   -5.052510    0.447350
  C     -7.562810   -6.044680   -1.434650
  C     -7.345740  -10.230960    1.434210
  C     -6.782900  -11.170730    0.610040
  C     -6.660750  -12.532480    0.950680
  N     -6.591060  -13.655340    1.177490
  C     -6.341100  -10.898150   -0.698800
  N     -5.945380  -10.715330   -1.761530
  H     -7.955760    2.946390   -1.219590
  H    -10.207260    2.678180   -2.151710
  H     -9.935490   -1.589590   -1.783550
  H     -3.980950   -0.771310    0.016740
  H     -3.436160   -7.762400   -5.020860
  H     -3.250010   -9.601500   -6.747990
  H     -2.855750  -11.243040   -6.197730
  H     -0.894680   -8.890840   -6.296930
  H     -0.942470  -10.237320   -7.439580
  H     -0.503150  -10.523730   -5.752720
  H     -2.495170  -11.633650   -3.720930
  H     -3.425170  -11.480370    1.403950
  H     -5.374610   -9.893370    3.170000
  H     -8.679360  -13.670710    5.081130
  H     -6.310850  -17.150550    5.885130
  H     -4.323980  -16.066400    4.870870
  H     -8.329720  -11.358050    4.563670
  H     -6.635930   -8.461340   -0.767190
  H     -9.967730   -6.781590    2.495850
  H     -8.814770   -4.254740    0.419380
  H    -10.269730   -4.837840    1.237700
  H    -10.075420   -5.045900   -0.510260
  H     -6.649580   -6.416120   -1.892390
  H     -7.421720   -4.998650   -1.175030
  H     -8.359180   -6.089860   -2.178410

 Total Charge           Charge          ....    0
 Multiplicity           Mult            ....    1
 Number of Electrons    NEL             ....  544
 Basis Dimension        Dim             .... 1187

ORBITAL ENERGIES
----------------

  NO   OCC          E(Eh)            E(eV)
   0   2.0000    -482.885532    -13139.9833
   1   2.0000     -88.981516     -2421.3101
   2   2.0000     -88.967387     -2420.9257
   3   2.0000     -62.563249     -1702.4326
   4   2.0000     -56.397105     -1534.6433
   5   2.0000     -56.394553     -1534.5738
   6   2.0000     -56.394535     -1534.5733
   7   2.0000     -24.813820      -675.2184
   8   2.0000     -24.813344      -675.2054
   9   2.0000     -24.812388      -675.1794
  10   2.0000     -24.805416      -674.9897
  11   2.0000     -19.245364      -523.6930
  12   2.0000     -19.212641      -522.8025
  13   2.0000     -19.206295      -522.6298
  14   2.0000     -19.200951      -522.4844
  15   2.0000     -14.487488      -394.2246
  16   2.0000     -14.433530      -392.7563
  17   2.0000     -14.433422      -392.7534
  18   2.0000     -14.415895      -392.2764
  19   2.0000     -14.411652      -392.1610
  20   2.0000     -14.396950      -391.7609
  21   2.0000     -10.394659      -282.8531
  22   2.0000     -10.393938      -282.8334
  23   2.0000     -10.391451      -282.7658
  24   2.0000     -10.389979      -282.7257
  25   2.0000     -10.388922      -282.6969
  26   2.0000     -10.366329      -282.0821
  27   2.0000     -10.365908      -282.0707
  28   2.0000     -10.362404      -281.9753
  29   2.0000     -10.361296      -281.9452
  30   2.0000     -10.361174      -281.9419
  31   2.0000     -10.360956      -281.9359
  32   2.0000     -10.342549      -281.4351
  33   2.0000     -10.340160      -281.3700
  34   2.0000     -10.337119      -281.2873
  35   2.0000     -10.334925      -281.2276
  36   2.0000     -10.334685      -281.2211
  37   2.0000     -10.333724      -281.1949
  38   2.0000     -10.332914      -281.1729
  39   2.0000     -10.332901      -281.1725
  40   2.0000     -10.329189      -281.0715
  41   2.0000     -10.328776      -281.0603
  42   2.0000     -10.327431      -281.0237
  43   2.0000     -10.326660      -281.0027
  44   2.0000     -10.325596      -280.9737
  45   2.0000     -10.321536      -280.8633
  46   2.0000     -10.320223      -280.8276
  47   2.0000     -10.319534      -280.8088
  48   2.0000     -10.319210      -280.8000
  49   2.0000     -10.317869      -280.7635
  50   2.0000     -10.317092      -280.7423
  51   2.0000     -10.314935      -280.6836
  52   2.0000     -10.313298      -280.6391
  53   2.0000     -10.313171      -280.6357
  54   2.0000     -10.311786      -280.5980
  55   2.0000     -10.309850      -280.5453
  56   2.0000     -10.301234      -280.3108
  57   2.0000     -10.300936      -280.3027
  58   2.0000     -10.299817      -280.2723
  59   2.0000     -10.298135      -280.2265
  60   2.0000     -10.298056      -280.2244
  61   2.0000     -10.297237      -280.2021
  62   2.0000     -10.296997      -280.1955
  63   2.0000     -10.296464      -280.1810
  64   2.0000     -10.295843      -280.1641
  65   2.0000     -10.294198      -280.1194
  66   2.0000     -10.293487      -280.1000
  67   2.0000     -10.293434      -280.0986
  68   2.0000     -10.287485      -279.9367
  69   2.0000     -10.287032      -279.9244
  70   2.0000     -10.282028      -279.7882
  71   2.0000     -10.281645      -279.7778
  72   2.0000     -10.281047      -279.7615
  73   2.0000     -10.280862      -279.7565
  74   2.0000     -10.269095      -279.4363
  75   2.0000     -10.267511      -279.3932
  76   2.0000     -10.262920      -279.2683
  77   2.0000     -10.254574      -279.0412
  78   2.0000      -8.792550      -239.2575
  79   2.0000      -8.076455      -219.7715
  80   2.0000      -8.063215      -219.4112
  81   2.0000      -6.628493      -180.3705
  82   2.0000      -6.614639      -179.9935
  83   2.0000      -6.614139      -179.9799
  84   2.0000      -6.045596      -164.5090
  85   2.0000      -6.041462      -164.3966
  86   2.0000      -6.038852      -164.3255
  87   2.0000      -6.032644      -164.1566
  88   2.0000      -6.028634      -164.0475
  89   2.0000      -6.024746      -163.9417
  90   2.0000      -2.744381       -74.6784
  91   2.0000      -2.740633       -74.5764
  92   2.0000      -2.740273       -74.5666
  93   2.0000      -2.729257       -74.2668
  94   2.0000      -2.729242       -74.2664
  95   2.0000      -1.336824       -36.3768
  96   2.0000      -1.333603       -36.2892
  97   2.0000      -1.320832       -35.9417
  98   2.0000      -1.316958       -35.8362
  99   2.0000      -1.161215       -31.5983
 100   2.0000      -1.127358       -30.6770
 101   2.0000      -1.123996       -30.5855
 102   2.0000      -1.117873       -30.4189
 103   2.0000      -1.107636       -30.1403
 104   2.0000      -1.038680       -28.2639
 105   2.0000      -1.020148       -27.7596
 106   2.0000      -1.019512       -27.7423
 107   2.0000      -1.014346       -27.6018
 108   2.0000      -1.011601       -27.5271
 109   2.0000      -1.010128       -27.4870
 110   2.0000      -0.998388       -27.1675
 111   2.0000      -0.993031       -27.0217
 112   2.0000      -0.990740       -26.9594
 113   2.0000      -0.984215       -26.7819
 114   2.0000      -0.981570       -26.7099
 115   2.0000      -0.954604       -25.9761
 116   2.0000      -0.945972       -25.7412
 117   2.0000      -0.939211       -25.5572
 118   2.0000      -0.935963       -25.4688
 119   2.0000      -0.928537       -25.2668
 120   2.0000      -0.915744       -24.9187
 121   2.0000      -0.906965       -24.6798
 122   2.0000      -0.903813       -24.5940
 123   2.0000      -0.897945       -24.4343
 124   2.0000      -0.887822       -24.1589
 125   2.0000      -0.878548       -23.9065
 126   2.0000      -0.868242       -23.6261
 127   2.0000      -0.867712       -23.6116
 128   2.0000      -0.864453       -23.5230
 129   2.0000      -0.862400       -23.4671
 130   2.0000      -0.849694       -23.1214
 131   2.0000      -0.840771       -22.8785
 132   2.0000      -0.838910       -22.8279
 133   2.0000      -0.834897       -22.7187
 134   2.0000      -0.823878       -22.4189
 135   2.0000      -0.803181       -21.8557
 136   2.0000      -0.799054       -21.7434
 137   2.0000      -0.792683       -21.5700
 138   2.0000      -0.787945       -21.4411
 139   2.0000      -0.769605       -20.9420
 140   2.0000      -0.765882       -20.8407
 141   2.0000      -0.761815       -20.7300
 142   2.0000      -0.749679       -20.3998
 143   2.0000      -0.744995       -20.2723
 144   2.0000      -0.732712       -19.9381
 145   2.0000      -0.730584       -19.8802
 146   2.0000      -0.717307       -19.5189
 147   2.0000      -0.715485       -19.4693
 148   2.0000      -0.713138       -19.4055
 149   2.0000      -0.705697       -19.2030
 150   2.0000      -0.699027       -19.0215
 151   2.0000      -0.698462       -19.0061
 152   2.0000      -0.693522       -18.8717
 153   2.0000      -0.687408       -18.7053
 154   2.0000      -0.679991       -18.5035
 155   2.0000      -0.676069       -18.3968
 156   2.0000      -0.666532       -18.1372
 157   2.0000      -0.664128       -18.0719
 158   2.0000      -0.655310       -17.8319
 159   2.0000      -0.650414       -17.6987
 160   2.0000      -0.649166       -17.6647
 161   2.0000      -0.641711       -17.4618
 162   2.0000      -0.636298       -17.3145
 163   2.0000      -0.630339       -17.1524
 164   2.0000      -0.627139       -17.0653
 165   2.0000      -0.623827       -16.9752
 166   2.0000      -0.622216       -16.9313
 167   2.0000      -0.613756       -16.7012
 168   2.0000      -0.612045       -16.6546
 169   2.0000      -0.606737       -16.5102
 170   2.0000      -0.604677       -16.4541
 171   2.0000      -0.595377       -16.2010
 172   2.0000      -0.594003       -16.1636
 173   2.0000      -0.589116       -16.0307
 174   2.0000      -0.584712       -15.9108
 175   2.0000      -0.579580       -15.7712
 176   2.0000      -0.574794       -15.6409
 177   2.0000      -0.571589       -15.5537
 178   2.0000      -0.568315       -15.4646
 179   2.0000      -0.566480       -15.4147
 180   2.0000      -0.562966       -15.3191
 181   2.0000      -0.560331       -15.2474
 182   2.0000      -0.558081       -15.1862
 183   2.0000      -0.556494       -15.1430
 184   2.0000      -0.555762       -15.1231
 185   2.0000      -0.554848       -15.0982
 186   2.0000      -0.553088       -15.0503
 187   2.0000      -0.549254       -14.9460
 188   2.0000      -0.547259       -14.8917
 189   2.0000      -0.541049       -14.7227
 190   2.0000      -0.539216       -14.6728
 191   2.0000      -0.537442       -14.6245
 192   2.0000      -0.534055       -14.5324
 193   2.0000      -0.531837       -14.4720
 194   2.0000      -0.529829       -14.4174
 195   2.0000      -0.526028       -14.3139
 196   2.0000      -0.521167       -14.1817
 197   2.0000      -0.519360       -14.1325
 198   2.0000      -0.518901       -14.1200
 199   2.0000      -0.515912       -14.0387
 200   2.0000      -0.515189       -14.0190
 201   2.0000      -0.514046       -13.9879
 202   2.0000      -0.513410       -13.9706
 203   2.0000      -0.509759       -13.8712
 204   2.0000      -0.509625       -13.8676
 205   2.0000      -0.504417       -13.7259
 206   2.0000      -0.503643       -13.7048
 207   2.0000      -0.502214       -13.6659
 208   2.0000      -0.497932       -13.5494
 209   2.0000      -0.494439       -13.4544
 210   2.0000      -0.493983       -13.4420
 211   2.0000      -0.487050       -13.2533
 212   2.0000      -0.483899       -13.1676
 213   2.0000      -0.482281       -13.1235
 214   2.0000      -0.482124       -13.1193
 215   2.0000      -0.478126       -13.0105
 216   2.0000      -0.476253       -12.9595
 217   2.0000      -0.474408       -12.9093
 218   2.0000      -0.473078       -12.8731
 219   2.0000      -0.471271       -12.8239
 220   2.0000      -0.467915       -12.7326
 221   2.0000      -0.465776       -12.6744
 222   2.0000      -0.464321       -12.6348
 223   2.0000      -0.463219       -12.6048
 224   2.0000      -0.461327       -12.5533
 225   2.0000      -0.460060       -12.5189
 226   2.0000      -0.459175       -12.4948
 227   2.0000      -0.456469       -12.4212
 228   2.0000      -0.451577       -12.2880
 229   2.0000      -0.450867       -12.2687
 230   2.0000      -0.450468       -12.2579
 231   2.0000      -0.448093       -12.1932
 232   2.0000      -0.446131       -12.1398
 233   2.0000      -0.444003       -12.0819
 234   2.0000      -0.443793       -12.0762
 235   2.0000      -0.442164       -12.0319
 236   2.0000      -0.440805       -11.9949
 237   2.0000      -0.438273       -11.9260
 238   2.0000      -0.436070       -11.8661
 239   2.0000      -0.433669       -11.8007
 240   2.0000      -0.429767       -11.6946
 241   2.0000      -0.427998       -11.6464
 242   2.0000      -0.427114       -11.6224
 243   2.0000      -0.424862       -11.5611
 244   2.0000      -0.423711       -11.5298
 245   2.0000      -0.419656       -11.4194
 246   2.0000      -0.412625       -11.2281
 247   2.0000      -0.411423       -11.1954
 248   2.0000      -0.405152       -11.0248
 249   2.0000      -0.402853       -10.9622
 250   2.0000      -0.401123       -10.9151
 251   2.0000      -0.386494       -10.5170
 252   2.0000      -0.380367       -10.3503
 253   2.0000      -0.377588       -10.2747
 254   2.0000      -0.368493       -10.0272
 255   2.0000      -0.368363       -10.0237
 256   2.0000      -0.366680        -9.9779
 257   2.0000      -0.345086        -9.3903
 258   2.0000      -0.343029        -9.3343
 259   2.0000      -0.340888        -9.2760
 260   2.0000      -0.335808        -9.1378
 261   2.0000      -0.331206        -9.0126
 262   2.0000      -0.329435        -8.9644
 263   2.0000      -0.326372        -8.8810
 264   2.0000      -0.324161        -8.8209
 265   2.0000      -0.323879        -8.8132
 266   2.0000      -0.321497        -8.7484
 267   2.0000      -0.313978        -8.5438
 268   2.0000      -0.303293        -8.2530
 269   2.0000      -0.300991        -8.1904
 270   2.0000      -0.290650        -7.9090
 271   2.0000      -0.269535        -7.3344
 272   0.0000      -0.107184        -2.9166
 273   0.0000      -0.085853        -2.3362
 274   0.0000      -0.080224        -2.1830
 275   0.0000      -0.069489        -1.8909
 276   0.0000      -0.054102        -1.4722

MULLIKEN ATOMIC CHARGES
-----------------------
   0 C :    0.166709
   1 O :   -0.129801
   2 C :   -0.022145
   3 C :    0.038468
   4 C :   -0.025736
   5 C :    0.057448
   6 C :   -0.004691
   7 C :   -0.008359
   8 Br:   -0.005743
   9 C :    0.284136
  10 C :   -0.314697
  11 C :   -0.186460
  12 N :    0.164676
  13 C :   -0.201004
  14 N :    0.176467
  15 C :   -0.063644
  16 C :   -0.013185
  17 C :   -0.104222
  18 C :    0.190071
  19 F :   -0.159405
  20 C :    0.227262
  21 F :   -0.155812
  22 C :   -0.065256
  23 C :    0.187583
  24 C :    0.237332
  25 F :   -0.164028
  26 F :   -0.162139
  27 C :   -0.172113
  28 S :    0.190340
  29 C :    0.040931
  30 C :    0.126862
  31 O :   -0.185896
  32 C :    0.003896
  33 C :    0.015094
  34 N :   -0.132585
  35 C :    0.089029
  36 C :    0.002784
  37 C :    0.014955
  38 C :    0.006457
  39 C :    0.153471
  40 O :   -0.164493
  41 C :    0.012384
  42 C :   -0.191023
  43 C :    0.048183
  44 C :   -0.029870
  45 C :   -0.125458
  46 C :    0.104319
  47 C :    0.135184
  48 C :   -0.038958
  49 C :   -0.092720
  50 C :    0.044749
  51 C :    0.005024
  52 C :   -0.058132
  53 S :    0.186280
  54 C :   -0.145000
  55 N :    0.103870
  56 C :   -0.019725
  57 C :   -0.135422
  58 C :    0.131794
  59 O :   -0.138538
  60 C :    0.012527
  61 C :    0.049169
  62 C :   -0.083231
  63 C :   -0.086015
  64 C :   -0.081290
  65 C :   -0.086471
  66 C :    0.119166
  67 C :    0.102481
  68 C :    0.250448
  69 C :   -0.328272
  70 C :   -0.192853
  71 N :    0.176853
  72 C :   -0.147491
  73 N :    0.132825
  74 H :    0.012484
  75 H :    0.010871
  76 H :    0.003493
  77 H :    0.053323
  78 H :    0.005567
  79 H :    0.033769
  80 H :    0.036759
  81 H :    0.029111
  82 H :    0.030547
  83 H :    0.031439
  84 H :    0.007278
  85 H :    0.041100
  86 H :    0.031855
  87 H :   -0.004018
  88 H :    0.000427
  89 H :   -0.010757
  90 H :    0.029098
  91 H :   -0.021732
  92 H :   -0.020959
  93 H :    0.032394
  94 H :    0.006251
  95 H :    0.019723
  96 H :    0.023219
  97 H :    0.026425
  98 H :    0.024991
Sum of atomic charges:   -0.0000000

LOEWDIN ATOMIC CHARGES
----------------------
   0 C :    0.095811
   1 O :   -0.118374
   2 C :   -0.038906
   3 C :   -0.013804
   4 C :    0.011147
   5 C :   -0.005982
   6 C :   -0.096210
   7 C :    0.003812
   8 Br:    0.126524
   9 C :    0.070840
  10 C :   -0.118235
  11 C :   -0.018482
  12 N :   -0.036051
  13 C :   -0.023862
  14 N :   -0.031825
  15 C :   -0.069442
  16 C :    0.081907
  17 C :   -0.078745
  18 C :    0.074500
  19 F :   -0.040381
  20 C :    0.071954
  21 F :   -0.031325
  22 C :   -0.065213
  23 C :    0.056006
  24 C :    0.073335
  25 F :   -0.036595
  26 F :   -0.038544
  27 C :   -0.146546
  28 S :    0.493328
  29 C :   -0.072869
  30 C :    0.081883
  31 O :   -0.168016
  32 C :   -0.100647
  33 C :    0.035828
  34 N :    0.092992
  35 C :    0.044611
  36 C :   -0.057385
  37 C :    0.038844
  38 C :   -0.092242
  39 C :    0.083126
  40 O :   -0.160815
  41 C :   -0.080498
  42 C :   -0.135329
  43 C :   -0.023000
  44 C :   -0.038674
  45 C :   -0.132756
  46 C :   -0.061928
  47 C :   -0.030161
  48 C :    0.020423
  49 C :   -0.068848
  50 C :    0.009612
  51 C :   -0.027403
  52 C :   -0.133562
  53 S :    0.452833
  54 C :   -0.029430
  55 N :   -0.058133
  56 C :    0.057901
  57 C :   -0.077906
  58 C :    0.084499
  59 O :   -0.138978
  60 C :   -0.054706
  61 C :   -0.019924
  62 C :   -0.013897
  63 C :    0.001766
  64 C :   -0.003512
  65 C :    0.008358
  66 C :   -0.047492
  67 C :   -0.053213
  68 C :    0.063235
  69 C :   -0.133673
  70 C :   -0.015607
  71 N :   -0.046399
  72 C :   -0.004555
  73 N :   -0.056710
  74 H :    0.044590
  75 H :    0.042867
  76 H :    0.044879
  77 H :    0.051671
  78 H :    0.029215
  79 H :    0.033863
  80 H :    0.035107
  81 H :    0.030035
  82 H :    0.033140
  83 H :    0.030797
  84 H :    0.030640
  85 H :    0.041153
  86 H :    0.028951
  87 H :    0.040621
  88 H :    0.040987
  89 H :    0.036252
  90 H :    0.046135
  91 H :    0.032315
  92 H :    0.035150
  93 H :    0.034305
  94 H :    0.029127
  95 H :    0.036133
  96 H :    0.032021
  97 H :    0.031992
  98 H :    0.039768

  Mayer bond orders larger than 0.100000
B(  0-C ,  1-O ) :   2.1360 B(  0-C ,  2-C ) :   0.9592 B(  0-C , 15-C ) :   0.9366
B(  2-C ,  3-C ) :   1.3294 B(  2-C ,  7-C ) :   1.3710 B(  3-C ,  4-C ) :   1.3540
B(  3-C ,  9-C ) :   1.0074 B(  4-C ,  5-C ) :   1.3904 B(  4-C , 74-H ) :   0.9852
B(  5-C ,  6-C ) :   1.3796 B(  5-C , 75-H ) :   0.9847 B(  6-C ,  7-C ) :   1.3413
B(  6-C ,  8-Br) :   1.0012 B(  7-C , 76-H ) :   1.0086 B(  9-C , 10-C ) :   1.6850
B(  9-C , 15-C ) :   1.0316 B( 10-C , 11-C ) :   1.1319 B( 10-C , 13-C ) :   1.1343
B( 11-C , 12-N ) :   2.9823 B( 13-C , 14-N ) :   2.9945 B( 15-C , 16-C ) :   1.7363
B( 16-C , 17-C ) :   1.0261 B( 16-C , 77-H ) :   0.9427 B( 17-C , 18-C ) :   1.3040
B( 17-C , 22-C ) :   0.1280 B( 17-C , 24-C ) :   1.3121 B( 18-C , 19-F ) :   1.1820
B( 18-C , 20-C ) :   1.3043 B( 20-C , 21-F ) :   1.1748 B( 20-C , 22-C ) :   1.3077
B( 22-C , 23-C ) :   1.3175 B( 22-C , 27-C ) :   1.0167 B( 23-C , 24-C ) :   1.3031
B( 23-C , 26-F ) :   1.1441 B( 24-C , 25-F ) :   1.1488 B( 27-C , 28-S ) :   1.1538
B( 27-C , 29-C ) :   1.5501 B( 28-S , 42-C ) :   1.1439 B( 29-C , 30-C ) :   0.9294
B( 29-C , 41-C ) :   1.2148 B( 30-C , 31-O ) :   2.1367 B( 30-C , 32-C ) :   1.0035
B( 32-C , 33-C ) :   1.4098 B( 32-C , 38-C ) :   1.2911 B( 33-C , 34-N ) :   1.2422
B( 33-C , 78-H ) :   0.9931 B( 34-N , 35-C ) :   0.9524 B( 34-N , 37-C ) :   1.2298
B( 35-C , 36-C ) :   1.1107 B( 35-C , 79-H ) :   0.9511 B( 35-C , 80-H ) :   0.9510
B( 36-C , 81-H ) :   0.9673 B( 36-C , 82-H ) :   0.9684 B( 36-C , 83-H ) :   0.9672
B( 37-C , 38-C ) :   1.4351 B( 37-C , 84-H ) :   0.9925 B( 38-C , 39-C ) :   0.9941
B( 39-C , 40-O ) :   2.2070 B( 39-C , 41-C ) :   0.9260 B( 41-C , 42-C ) :   1.4942
B( 42-C , 43-C ) :   1.1430 B( 43-C , 44-C ) :   1.6533 B( 43-C , 85-H ) :   0.9594
B( 44-C , 45-C ) :   1.1826 B( 44-C , 86-H ) :   0.9311 B( 45-C , 46-C ) :   1.4798
B( 45-C , 53-S ) :   1.1126 B( 46-C , 47-C ) :   1.1225 B( 46-C , 56-C ) :   1.0618
B( 47-C , 48-C ) :   1.3114 B( 47-C , 52-C ) :   1.3226 B( 48-C , 49-C ) :   1.4175
B( 48-C , 87-H ) :   0.9907 B( 49-C , 50-C ) :   1.3304 B( 49-C , 54-C ) :   1.0572
B( 50-C , 51-C ) :   1.4301 B( 50-C , 88-H ) :   0.9906 B( 51-C , 52-C ) :   1.3403
B( 51-C , 89-H ) :   0.9939 B( 52-C , 53-S ) :   1.0607 B( 54-C , 55-N ) :   3.0541
B( 56-C , 57-C ) :   1.7152 B( 56-C , 90-H ) :   0.9291 B( 57-C , 58-C ) :   0.9172
B( 57-C , 68-C ) :   1.0226 B( 58-C , 59-O ) :   2.2699 B( 58-C , 60-C ) :   0.9277
B( 60-C , 61-C ) :   1.3266 B( 60-C , 65-C ) :   1.3471 B( 61-C , 62-C ) :   1.3431
B( 61-C , 68-C ) :   1.0105 B( 62-C , 63-C ) :   1.3729 B( 62-C , 91-H ) :   0.9873
B( 63-C , 64-C ) :   1.3672 B( 63-C , 67-C ) :   1.0899 B( 64-C , 65-C ) :   1.3515
B( 64-C , 66-C ) :   1.0979 B( 65-C , 92-H ) :   1.0117 B( 66-C , 93-H ) :   0.9308
B( 66-C , 94-H ) :   0.9463 B( 66-C , 95-H ) :   0.9352 B( 67-C , 96-H ) :   0.9385
B( 67-C , 97-H ) :   0.9281 B( 67-C , 98-H ) :   0.9293 B( 68-C , 69-C ) :   1.6465
B( 69-C , 70-C ) :   1.1656 B( 69-C , 72-C ) :   1.1424 B( 70-C , 71-N ) :   3.0154
B( 72-C , 73-N ) :   2.9158

-----------------------------------------------------------------------------
         ABSORPTION SPECTRUM VIA TRANSITION ELECTRIC DIPOLE MOMENTS
-----------------------------------------------------------------------------
State   Energy  Wavelength   fosc         T2         TX        TY        TZ
        (cm-1)    (nm)                  (au**2)     (au)      (au)      (au)
-----------------------------------------------------------------------------
   0   21108.7    473.7   0.128247209   2.00014   0.97589   1.02092  -0.07423
   1   22580.4    442.9   0.567523752   8.27422  -0.65459   2.71175  -0.70155
   2   25722.6    388.8   0.195195198   2.49822  -1.20764  -0.19901   1.00012
   3   26663.3    375.0   0.046425530   0.57322  -0.46276  -0.59829   0.03341
   4   26890.4    371.9   0.152278165   1.86430  -0.20547   0.94817  -0.96075
   5   27758.2    360.3   0.027152218   0.32203   0.13775   0.41382  -0.36305
   6   28377.5    352.4   0.193019841   2.23925   0.02497   1.14304  -0.96544
   7   29020.8    344.6   0.078844419   0.89441   0.44729  -0.71506  -0.42782
   8   29419.6    339.9   0.090483706   1.01253  -0.52890   0.52496   0.67617
   9   29598.3    337.9   0.060231504   0.66994   0.19759   0.68579  -0.40073
  10   30156.0    331.6   0.173089995   1.88962  -0.87292   0.91599  -0.53721
  11   30179.0    331.4   0.023919261   0.26093   0.05258   0.34372   0.37419
  12   30319.7    329.8   0.061232845   0.66487  -0.71208   0.37449  -0.13252
  13   30551.7    327.3   0.100344892   1.08127  -0.39468  -0.36460  -0.89026
  14   30737.6    325.3   0.076309411   0.81731   0.70098   0.55677  -0.12628
  15   30854.8    324.1   0.099568779   1.06237  -0.03591  -0.84852   0.58404
  16   30959.2    323.0   0.012204781   0.12978   0.34449  -0.04500  -0.09531
  17   31626.5    316.2   0.219872301   2.28873  -0.53609  -0.91161   1.08181
  18   31969.1    312.8   0.165848664   1.70788  -0.39954   1.24267  -0.06335
  19   32621.9    306.5   0.005883247   0.05937  -0.08126   0.22620   0.04006
  20   32787.7    305.0   0.042229212   0.42401  -0.05338   0.47600  -0.44112
  21   32798.6    304.9   0.169542691   1.70176  -0.18981   1.27487   0.20112
  22   32976.7    303.2   0.039985923   0.39919  -0.19692   0.54692   0.24757
  23   33633.1    297.3   0.034099778   0.33378   0.08194   0.22952   0.52382
  24   33736.7    296.4   0.161242851   1.57345   0.12364  -1.24822  -0.01052
  25   33859.3    295.3   0.466126680   4.53213   1.74731   1.02481   0.65485
  26   34059.1    293.6   0.090398985   0.87379   0.85723  -0.23647   0.28813
  27   34236.1    292.1   0.071321358   0.68582   0.64646  -0.37782  -0.35377
  28   34314.3    291.4   0.032756908   0.31427  -0.24521   0.18069  -0.47063
  29   34512.2    289.8   0.015487260   0.14773  -0.09752  -0.06256   0.36648
  30   34593.4    289.1   0.034579898   0.32908  -0.03490   0.23984   0.51995
  31   34684.7    288.3   0.105520856   1.00156   0.85030  -0.52689   0.03049
  32   35085.9    285.0   0.021928373   0.20575  -0.24671   0.09499  -0.36860
  33   35552.1    281.3   0.137087359   1.26943  -0.53067   0.96245  -0.24800
  34   35783.8    279.5   0.025505612   0.23465  -0.06097   0.17445  -0.44777
  35   35800.8    279.3   0.013815249   0.12704   0.10356   0.00355   0.34103
  36   35890.1    278.6   0.186560140   1.71128  -0.41387   1.23342   0.13667
  37   36088.0    277.1   0.102605457   0.93602   0.19012  -0.15314  -0.93617
  38   36310.4    275.4   0.028217732   0.25584   0.26331  -0.43168   0.01269
  39   36412.5    274.6   0.054635090   0.49397  -0.04190   0.62402  -0.32064
  40   36679.0    272.6   0.034984151   0.31400   0.35943   0.30251  -0.30545
  41   36954.7    270.6   0.023759327   0.21166  -0.16290   0.38655  -0.18895
  42   37300.6    268.1   0.090436509   0.79819  -0.25078  -0.81960   0.25209
  43   37363.7    267.6   0.116520420   1.02666   0.95026   0.29971   0.18395
  44   37527.1    266.5   0.047873978   0.41998   0.08874   0.02089   0.64162
  45   37619.5    265.8   0.052570781   0.46005  -0.47854  -0.42991   0.21501
  46   37784.1    264.7   0.055829345   0.48644  -0.02378   0.38697   0.57977
  47   38168.6    262.0   0.007314585   0.06309  -0.09134   0.11357  -0.20457
  48   38326.3    260.9   0.115758904   0.99434  -0.29322   0.95279  -0.02354
  49   38344.8    260.8   0.025008925   0.21472  -0.10279   0.45176   0.00775
  50   38505.9    259.7   0.021040019   0.17988   0.22694  -0.30320   0.19093
  51   38582.2    259.2   0.012494046   0.10661   0.22690   0.19658  -0.12838
  52   38695.2    258.4   0.164720293   1.40141  -0.01517  -0.57312   1.03572
  53   38869.6    257.3   0.018632912   0.15781  -0.16266   0.36218   0.01359
  54   39312.7    254.4   0.069631142   0.58310  -0.19304   0.73877   0.00812
  55   39478.3    253.3   0.024906966   0.20770  -0.16196   0.22406  -0.36231
  56   39764.3    251.5   0.097615288   0.80817   0.18043   0.16565  -0.86497
  57   40052.5    249.7   0.042529173   0.34957   0.16263  -0.35150  -0.44673
  58   40229.9    248.6   0.025559948   0.20916   0.11701  -0.34052  -0.28200

FINAL SINGLE POINT ENERGY     -6581.961542982043

DIPOLE MOMENT
-------------
                                X             Y             Z
Electronic contribution:    -49.74131     100.65004      -2.04158
Nuclear contribution   :     50.80262     -99.23575      -1.29028
                        -----------------------------------------
Total Dipole Moment    :      1.06131       1.41429      -3.33186
                        -----------------------------------------
Magnitude (a.u.)       :      3.77198
Magnitude (Debye)      :      9.58762

Rotational constants in cm-1:     0.001321     0.000440     0.000392
Rotational constants in MHz :    39.592193    13.198893    11.743840

                             ****ORCA TERMINATED NORMALLY****
TOTAL RUN TIME: 0 days 0 hours 11 minutes 9 seconds 394 msec
