                         Program Version 4.2.0 -  RELEASE  -
|  1> # ORCA input file
|  2> # SCF done       -200.269841966533          0.000703779460
|  3> ! CAM-B3LYP def2-SVP def2/J RIJCOSX Grid4 TightSCF
|  4> %maxcore 5000
|  5> %tddft
|  6>     Mode sTDDFT
|  7>     Ethresh 5.0
|  8>     maxcore 5000
|  9> end
| 10>
| 11> %pal
| 12>   nprocs 6
| 13>   end
| 14> * xyz 0 1
| 15>    C       -6.05372        -0.27806         0.23011
| 16>    O       -6.46359        -1.26816        -0.33152
| 17>    C       -6.71780         1.04485         0.25747
| 18>    C       -5.93439         1.96342         0.97751
| 19>    C       -6.37754         3.26996         1.13203
| 20>    C       -7.58795         3.63489         0.56383
| 21>    C       -8.34359         2.71168        -0.14889
| 22>    C       -7.92311         1.39903        -0.31343
| 23>   Br       -9.99289         3.26084        -0.91371
| 24>    C       -4.72899         1.28637         1.43914
| 25>    C       -3.63854         1.88222         2.00990
| 26>    C       -3.56213         3.25913         2.31046
| 27>    N       -3.45297         4.36968         2.57752
| 28>    C       -2.43046         1.21538         2.31300
| 29>    N       -1.40840         0.74820         2.54449
| 30>    C       -4.84476        -0.12032         1.08128
| 31>    C       -4.12348        -1.12413         1.64955
| 32>    C       -4.14272        -2.51789         1.33039
| 33>    C       -4.35982        -3.07042         0.07998
| 34>    C       -4.33676        -4.45116        -0.15907
| 35>    C       -4.10850        -5.40257         0.81792
| 36>    C       -3.86618        -4.87759         2.11861
| 37>    C       -3.85629        -3.45586         2.36071
| 38>    N       -3.58784        -3.27528         3.63769
| 39>    O       -3.43166        -4.48941         4.15907
| 40>    N       -3.59615        -5.46335         3.26987
| 41>    C       -4.12337        -6.83290         0.55932
| 42>    C       -4.47907        -7.72480         1.58130
| 43>    C       -4.53477        -9.07015         1.31275
| 44>    C       -4.22273        -9.55985         0.03340
| 45>    C       -3.84467        -8.68729        -0.97767
| 46>    C       -3.80483        -7.33442        -0.70974
| 47>    C       -4.36351       -10.99946         0.04704
| 48>    C       -4.77134       -11.39805         1.33299
| 49>    C       -4.95754       -10.19695         2.23031
| 50>    C       -4.08403       -10.27312         3.49163
| 51>    C       -2.59796       -10.36179         3.16397
| 52>    C       -6.44635        -9.96188         2.58086
| 53>    C       -7.13785       -11.08408         3.34371
| 54>    C       -4.93426       -12.73139         1.62095
| 55>    C       -4.73986       -13.68998         0.61763
| 56>    C       -4.34922       -13.27677        -0.66130
| 57>    C       -4.14998       -11.94146        -0.94868
| 58>    C       -4.98503       -15.08628         0.91073
| 59>    C       -4.58967       -16.18106         0.19895
| 60>    C       -5.04258       -17.42051         0.72868
| 61>    C       -5.82597       -17.20367         1.89301
| 62>    S       -5.94059       -15.52236         2.30899
| 63>    C       -6.46520       -18.18176         2.64090
| 64>    O       -7.14211       -17.71531         3.71944
| 65>    C       -7.55539       -18.57627         4.75323
| 66>    C       -6.34015       -19.50827         2.17825
| 67>    C       -5.51574       -19.73259         1.04116
| 68>    C       -4.85896       -18.75149         0.31031
| 69>    O       -4.14096       -19.24092        -0.73567
| 70>    C       -3.29337       -18.41898        -1.49795
| 71>    S       -5.43499       -21.40938         0.60460
| 72>    C       -6.50727       -21.82841         1.92705
| 73>    C       -6.89610       -20.71783         2.64231
| 74>    C       -6.92696       -23.16989         2.06544
| 75>    C       -7.58942       -23.79074         3.08419
| 76>    C       -8.30138       -25.06339         2.78666
| 77>    O       -8.18041       -25.75353         1.80289
| 78>    C       -9.22392       -25.26463         3.92773
| 79>    C       -8.99254       -24.27157         4.89659
| 80>    C       -7.87703       -23.43475         4.45479
| 81>    C       -7.11347       -22.65105         5.28220
| 82>    C       -7.42604       -22.38690         6.63063
| 83>    N       -7.65632       -22.10365         7.71915
| 84>    C       -5.89000       -22.06621         4.89988
| 85>    N       -4.87905       -21.58331         4.64985
| 86>    C       -9.76849       -24.23727         6.04543
| 87>    C      -10.75701       -25.19580         6.21072
| 88>    C      -10.95993       -26.17595         5.24798
| 89>    C      -10.19776       -26.22792         4.08797
| 90>   Br      -12.32024       -27.47269         5.52363
| 91>    H       -5.80891         3.99852         1.68631
| 92>    H       -7.94965         4.64548         0.67570
| 93>    H       -8.50679         0.67731        -0.86364
| 94>    H       -3.49436        -0.88221         2.49886
| 95>    H       -4.53530        -2.41797        -0.75896
| 96>    H       -4.53947        -4.77917        -1.16691
| 97>    H       -4.71413        -7.34261         2.56140
| 98>    H       -3.58548        -9.05722        -1.95821
| 99>    H       -3.48959        -6.65400        -1.48614
|100>    H       -4.37339       -11.14955         4.07255
|101>    H       -4.26738        -9.38579         4.10021
|102>    H       -2.39044       -11.23735         2.55209
|103>    H       -2.01779       -10.43723         4.08044
|104>    H       -2.26976        -9.47745         2.62254
|105>    H       -6.98783        -9.78858         1.64684
|106>    H       -6.50266        -9.04358         3.16929
|107>    H       -7.20666       -11.98420         2.73939
|108>    H       -8.14854       -10.77235         3.59846
|109>    H       -6.61607       -11.31720         4.26767
|110>    H       -5.20108       -13.06382         2.61238
|111>    H       -4.21407       -14.01065        -1.44057
|112>    H       -3.83956       -11.63739        -1.93701
|113>    H       -3.98329       -16.08669        -0.68035
|114>    H       -6.77292       -19.29164         5.01890
|115>    H       -8.47811       -19.10246         4.48871
|116>    H       -7.75549       -17.92910         5.60699
|117>    H       -3.86421       -17.72661        -2.12429
|118>    H       -2.73882       -19.10127        -2.14172
|119>    H       -2.59003       -17.86868        -0.86709
|120>    H       -7.62582       -20.78616         3.42635
|121>    H       -6.77225       -23.79497         1.19076
|122>    H       -9.62909       -23.48121         6.80107
|123>    H      -11.37500       -25.18165         7.09530
|124>    H      -10.35378       -26.98659         3.33690
|125> *
|126>
|127>                          ****END OF INPUT****

CARTESIAN COORDINATES (ANGSTROEM)
---------------------------------
  C     -6.053720   -0.278060    0.230110
  O     -6.463590   -1.268160   -0.331520
  C     -6.717800    1.044850    0.257470
  C     -5.934390    1.963420    0.977510
  C     -6.377540    3.269960    1.132030
  C     -7.587950    3.634890    0.563830
  C     -8.343590    2.711680   -0.148890
  C     -7.923110    1.399030   -0.313430
  Br    -9.992890    3.260840   -0.913710
  C     -4.728990    1.286370    1.439140
  C     -3.638540    1.882220    2.009900
  C     -3.562130    3.259130    2.310460
  N     -3.452970    4.369680    2.577520
  C     -2.430460    1.215380    2.313000
  N     -1.408400    0.748200    2.544490
  C     -4.844760   -0.120320    1.081280
  C     -4.123480   -1.124130    1.649550
  C     -4.142720   -2.517890    1.330390
  C     -4.359820   -3.070420    0.079980
  C     -4.336760   -4.451160   -0.159070
  C     -4.108500   -5.402570    0.817920
  C     -3.866180   -4.877590    2.118610
  C     -3.856290   -3.455860    2.360710
  N     -3.587840   -3.275280    3.637690
  O     -3.431660   -4.489410    4.159070
  N     -3.596150   -5.463350    3.269870
  C     -4.123370   -6.832900    0.559320
  C     -4.479070   -7.724800    1.581300
  C     -4.534770   -9.070150    1.312750
  C     -4.222730   -9.559850    0.033400
  C     -3.844670   -8.687290   -0.977670
  C     -3.804830   -7.334420   -0.709740
  C     -4.363510  -10.999460    0.047040
  C     -4.771340  -11.398050    1.332990
  C     -4.957540  -10.196950    2.230310
  C     -4.084030  -10.273120    3.491630
  C     -2.597960  -10.361790    3.163970
  C     -6.446350   -9.961880    2.580860
  C     -7.137850  -11.084080    3.343710
  C     -4.934260  -12.731390    1.620950
  C     -4.739860  -13.689980    0.617630
  C     -4.349220  -13.276770   -0.661300
  C     -4.149980  -11.941460   -0.948680
  C     -4.985030  -15.086280    0.910730
  C     -4.589670  -16.181060    0.198950
  C     -5.042580  -17.420510    0.728680
  C     -5.825970  -17.203670    1.893010
  S     -5.940590  -15.522360    2.308990
  C     -6.465200  -18.181760    2.640900
  O     -7.142110  -17.715310    3.719440
  C     -7.555390  -18.576270    4.753230
  C     -6.340150  -19.508270    2.178250
  C     -5.515740  -19.732590    1.041160
  C     -4.858960  -18.751490    0.310310
  O     -4.140960  -19.240920   -0.735670
  C     -3.293370  -18.418980   -1.497950
  S     -5.434990  -21.409380    0.604600
  C     -6.507270  -21.828410    1.927050
  C     -6.896100  -20.717830    2.642310
  C     -6.926960  -23.169890    2.065440
  C     -7.589420  -23.790740    3.084190
  C     -8.301380  -25.063390    2.786660
  O     -8.180410  -25.753530    1.802890
  C     -9.223920  -25.264630    3.927730
  C     -8.992540  -24.271570    4.896590
  C     -7.877030  -23.434750    4.454790
  C     -7.113470  -22.651050    5.282200
  C     -7.426040  -22.386900    6.630630
  N     -7.656320  -22.103650    7.719150
  C     -5.890000  -22.066210    4.899880
  N     -4.879050  -21.583310    4.649850
  C     -9.768490  -24.237270    6.045430
  C    -10.757010  -25.195800    6.210720
  C    -10.959930  -26.175950    5.247980
  C    -10.197760  -26.227920    4.087970
  Br   -12.320240  -27.472690    5.523630
  H     -5.808910    3.998520    1.686310
  H     -7.949650    4.645480    0.675700
  H     -8.506790    0.677310   -0.863640
  H     -3.494360   -0.882210    2.498860
  H     -4.535300   -2.417970   -0.758960
  H     -4.539470   -4.779170   -1.166910
  H     -4.714130   -7.342610    2.561400
  H     -3.585480   -9.057220   -1.958210
  H     -3.489590   -6.654000   -1.486140
  H     -4.373390  -11.149550    4.072550
  H     -4.267380   -9.385790    4.100210
  H     -2.390440  -11.237350    2.552090
  H     -2.017790  -10.437230    4.080440
  H     -2.269760   -9.477450    2.622540
  H     -6.987830   -9.788580    1.646840
  H     -6.502660   -9.043580    3.169290
  H     -7.206660  -11.984200    2.739390
  H     -8.148540  -10.772350    3.598460
  H     -6.616070  -11.317200    4.267670
  H     -5.201080  -13.063820    2.612380
  H     -4.214070  -14.010650   -1.440570
  H     -3.839560  -11.637390   -1.937010
  H     -3.983290  -16.086690   -0.680350
  H     -6.772920  -19.291640    5.018900
  H     -8.478110  -19.102460    4.488710
  H     -7.755490  -17.929100    5.606990
  H     -3.864210  -17.726610   -2.124290
  H     -2.738820  -19.101270   -2.141720
  H     -2.590030  -17.868680   -0.867090
  H     -7.625820  -20.786160    3.426350
  H     -6.772250  -23.794970    1.190760
  H     -9.629090  -23.481210    6.801070
  H    -11.375000  -25.181650    7.095300
  H    -10.353780  -26.986590    3.336900

 Total Charge           Charge          ....    0
 Multiplicity           Mult            ....    1
 Number of Electrons    NEL             ....  584
 Basis Dimension        Dim             .... 1278

ORBITAL ENERGIES
----------------

  NO   OCC          E(Eh)            E(eV)
   0   2.0000    -482.877459    -13139.7637
   1   2.0000    -482.874025    -13139.6702
   2   2.0000     -88.952255     -2420.5139
   3   2.0000     -88.949535     -2420.4399
   4   2.0000     -62.555170     -1702.2127
   5   2.0000     -62.551720     -1702.1188
   6   2.0000     -56.389014     -1534.4231
   7   2.0000     -56.386480     -1534.3541
   8   2.0000     -56.386468     -1534.3538
   9   2.0000     -56.385560     -1534.3291
  10   2.0000     -56.383031     -1534.2603
  11   2.0000     -56.383027     -1534.2602
  12   2.0000     -19.361540      -526.8543
  13   2.0000     -19.255986      -523.9820
  14   2.0000     -19.253226      -523.9069
  15   2.0000     -19.230515      -523.2889
  16   2.0000     -19.220328      -523.0117
  17   2.0000     -14.488223      -394.2446
  18   2.0000     -14.484408      -394.1408
  19   2.0000     -14.422114      -392.4457
  20   2.0000     -14.421715      -392.4348
  21   2.0000     -14.420353      -392.3977
  22   2.0000     -14.419990      -392.3879
  23   2.0000     -10.382064      -282.5103
  24   2.0000     -10.371083      -282.2115
  25   2.0000     -10.352216      -281.6981
  26   2.0000     -10.351225      -281.6712
  27   2.0000     -10.348527      -281.5977
  28   2.0000     -10.348416      -281.5947
  29   2.0000     -10.347888      -281.5803
  30   2.0000     -10.347200      -281.5616
  31   2.0000     -10.345822      -281.5241
  32   2.0000     -10.341086      -281.3953
  33   2.0000     -10.332901      -281.1725
  34   2.0000     -10.332037      -281.1490
  35   2.0000     -10.330660      -281.1116
  36   2.0000     -10.329416      -281.0777
  37   2.0000     -10.327249      -281.0187
  38   2.0000     -10.324566      -280.9457
  39   2.0000     -10.324119      -280.9336
  40   2.0000     -10.323319      -280.9118
  41   2.0000     -10.322083      -280.8781
  42   2.0000     -10.321887      -280.8728
  43   2.0000     -10.320903      -280.8461
  44   2.0000     -10.317502      -280.7535
  45   2.0000     -10.314047      -280.6595
  46   2.0000     -10.312380      -280.6141
  47   2.0000     -10.312004      -280.6039
  48   2.0000     -10.311098      -280.5792
  49   2.0000     -10.310308      -280.5577
  50   2.0000     -10.310161      -280.5537
  51   2.0000     -10.309946      -280.5479
  52   2.0000     -10.309104      -280.5250
  53   2.0000     -10.307555      -280.4828
  54   2.0000     -10.307040      -280.4688
  55   2.0000     -10.306724      -280.4602
  56   2.0000     -10.306651      -280.4582
  57   2.0000     -10.305982      -280.4400
  58   2.0000     -10.303089      -280.3613
  59   2.0000     -10.302188      -280.3368
  60   2.0000     -10.300426      -280.2889
  61   2.0000     -10.300121      -280.2805
  62   2.0000     -10.299955      -280.2760
  63   2.0000     -10.298378      -280.2331
  64   2.0000     -10.295477      -280.1542
  65   2.0000     -10.294802      -280.1358
  66   2.0000     -10.293581      -280.1026
  67   2.0000     -10.291882      -280.0564
  68   2.0000     -10.283779      -279.8359
  69   2.0000     -10.283705      -279.8338
  70   2.0000     -10.282104      -279.7903
  71   2.0000     -10.281455      -279.7726
  72   2.0000     -10.280749      -279.7534
  73   2.0000     -10.280034      -279.7339
  74   2.0000     -10.279411      -279.7170
  75   2.0000     -10.278913      -279.7034
  76   2.0000     -10.277865      -279.6749
  77   2.0000     -10.277670      -279.6696
  78   2.0000     -10.276984      -279.6509
  79   2.0000     -10.275666      -279.6151
  80   2.0000     -10.267465      -279.3919
  81   2.0000     -10.264608      -279.3142
  82   2.0000     -10.253833      -279.0210
  83   2.0000     -10.247446      -278.8472
  84   2.0000      -8.784457      -239.0372
  85   2.0000      -8.780988      -238.9428
  86   2.0000      -8.047586      -218.9859
  87   2.0000      -8.044678      -218.9068
  88   2.0000      -6.620318      -180.1480
  89   2.0000      -6.616839      -180.0533
  90   2.0000      -6.606562      -179.7737
  91   2.0000      -6.606121      -179.7617
  92   2.0000      -6.603097      -179.6794
  93   2.0000      -6.602660      -179.6675
  94   2.0000      -6.017202      -163.7364
  95   2.0000      -6.014248      -163.6560
  96   2.0000      -6.013180      -163.6269
  97   2.0000      -6.010203      -163.5459
  98   2.0000      -6.008855      -163.5093
  99   2.0000      -6.006110      -163.4346
 100   2.0000      -2.736266       -74.4576
 101   2.0000      -2.732802       -74.3633
 102   2.0000      -2.732481       -74.3546
 103   2.0000      -2.732142       -74.3454
 104   2.0000      -2.728985       -74.2595
 105   2.0000      -2.728676       -74.2510
 106   2.0000      -2.721216       -74.0480
 107   2.0000      -2.721196       -74.0475
 108   2.0000      -2.717761       -73.9540
 109   2.0000      -2.717749       -73.9537
 110   2.0000      -1.315405       -35.7940
 111   2.0000      -1.160028       -31.5660
 112   2.0000      -1.156975       -31.4829
 113   2.0000      -1.146257       -31.1912
 114   2.0000      -1.136090       -30.9146
 115   2.0000      -1.026888       -27.9430
 116   2.0000      -1.025075       -27.8937
 117   2.0000      -1.019187       -27.7335
 118   2.0000      -1.011056       -27.5122
 119   2.0000      -1.007658       -27.4198
 120   2.0000      -1.005473       -27.3603
 121   2.0000      -1.003074       -27.2950
 122   2.0000      -0.999317       -27.1928
 123   2.0000      -0.998961       -27.1831
 124   2.0000      -0.995001       -27.0753
 125   2.0000      -0.983395       -26.7595
 126   2.0000      -0.971516       -26.4363
 127   2.0000      -0.966845       -26.3092
 128   2.0000      -0.954196       -25.9650
 129   2.0000      -0.932436       -25.3729
 130   2.0000      -0.929920       -25.3044
 131   2.0000      -0.918327       -24.9889
 132   2.0000      -0.916880       -24.9496
 133   2.0000      -0.913860       -24.8674
 134   2.0000      -0.910369       -24.7724
 135   2.0000      -0.898624       -24.4528
 136   2.0000      -0.894779       -24.3482
 137   2.0000      -0.883328       -24.0366
 138   2.0000      -0.880323       -23.9548
 139   2.0000      -0.873304       -23.7638
 140   2.0000      -0.865139       -23.5416
 141   2.0000      -0.856236       -23.2994
 142   2.0000      -0.849628       -23.1195
 143   2.0000      -0.849105       -23.1053
 144   2.0000      -0.841951       -22.9107
 145   2.0000      -0.840580       -22.8733
 146   2.0000      -0.837078       -22.7780
 147   2.0000      -0.826155       -22.4808
 148   2.0000      -0.816512       -22.2184
 149   2.0000      -0.807985       -21.9864
 150   2.0000      -0.800397       -21.7799
 151   2.0000      -0.787297       -21.4234
 152   2.0000      -0.776038       -21.1171
 153   2.0000      -0.774350       -21.0711
 154   2.0000      -0.771396       -20.9907
 155   2.0000      -0.769917       -20.9505
 156   2.0000      -0.768294       -20.9063
 157   2.0000      -0.755214       -20.5504
 158   2.0000      -0.748473       -20.3670
 159   2.0000      -0.737396       -20.0656
 160   2.0000      -0.720027       -19.5929
 161   2.0000      -0.718090       -19.5402
 162   2.0000      -0.707564       -19.2538
 163   2.0000      -0.702439       -19.1143
 164   2.0000      -0.701240       -19.0817
 165   2.0000      -0.696170       -18.9438
 166   2.0000      -0.692098       -18.8329
 167   2.0000      -0.689101       -18.7514
 168   2.0000      -0.686259       -18.6741
 169   2.0000      -0.682147       -18.5622
 170   2.0000      -0.675193       -18.3729
 171   2.0000      -0.667298       -18.1581
 172   2.0000      -0.663850       -18.0643
 173   2.0000      -0.659930       -17.9576
 174   2.0000      -0.650127       -17.6909
 175   2.0000      -0.642475       -17.4826
 176   2.0000      -0.639521       -17.4023
 177   2.0000      -0.626718       -17.0539
 178   2.0000      -0.621654       -16.9161
 179   2.0000      -0.620778       -16.8922
 180   2.0000      -0.620091       -16.8735
 181   2.0000      -0.616056       -16.7637
 182   2.0000      -0.612701       -16.6724
 183   2.0000      -0.611717       -16.6457
 184   2.0000      -0.605439       -16.4748
 185   2.0000      -0.600694       -16.3457
 186   2.0000      -0.592804       -16.1310
 187   2.0000      -0.590537       -16.0693
 188   2.0000      -0.587525       -15.9874
 189   2.0000      -0.583231       -15.8705
 190   2.0000      -0.578445       -15.7403
 191   2.0000      -0.573317       -15.6008
 192   2.0000      -0.567377       -15.4391
 193   2.0000      -0.565346       -15.3838
 194   2.0000      -0.560254       -15.2453
 195   2.0000      -0.554943       -15.1008
 196   2.0000      -0.553770       -15.0688
 197   2.0000      -0.552550       -15.0356
 198   2.0000      -0.547617       -14.9014
 199   2.0000      -0.547550       -14.8996
 200   2.0000      -0.545900       -14.8547
 201   2.0000      -0.543514       -14.7898
 202   2.0000      -0.541918       -14.7463
 203   2.0000      -0.541434       -14.7332
 204   2.0000      -0.538242       -14.6463
 205   2.0000      -0.535849       -14.5812
 206   2.0000      -0.534612       -14.5475
 207   2.0000      -0.531389       -14.4598
 208   2.0000      -0.528044       -14.3688
 209   2.0000      -0.526384       -14.3236
 210   2.0000      -0.525029       -14.2868
 211   2.0000      -0.522875       -14.2282
 212   2.0000      -0.519649       -14.1404
 213   2.0000      -0.517881       -14.0923
 214   2.0000      -0.513376       -13.9697
 215   2.0000      -0.508155       -13.8276
 216   2.0000      -0.506832       -13.7916
 217   2.0000      -0.505336       -13.7509
 218   2.0000      -0.503029       -13.6881
 219   2.0000      -0.501308       -13.6413
 220   2.0000      -0.497654       -13.5418
 221   2.0000      -0.491122       -13.3641
 222   2.0000      -0.488292       -13.2871
 223   2.0000      -0.487065       -13.2537
 224   2.0000      -0.484540       -13.1850
 225   2.0000      -0.483129       -13.1466
 226   2.0000      -0.481007       -13.0889
 227   2.0000      -0.477370       -12.9899
 228   2.0000      -0.476916       -12.9775
 229   2.0000      -0.475474       -12.9383
 230   2.0000      -0.472238       -12.8502
 231   2.0000      -0.469470       -12.7749
 232   2.0000      -0.468263       -12.7421
 233   2.0000      -0.466224       -12.6866
 234   2.0000      -0.460267       -12.5245
 235   2.0000      -0.459121       -12.4933
 236   2.0000      -0.457994       -12.4627
 237   2.0000      -0.456544       -12.4232
 238   2.0000      -0.455496       -12.3947
 239   2.0000      -0.453193       -12.3320
 240   2.0000      -0.452360       -12.3094
 241   2.0000      -0.451501       -12.2860
 242   2.0000      -0.447885       -12.1876
 243   2.0000      -0.447332       -12.1725
 244   2.0000      -0.446184       -12.1413
 245   2.0000      -0.443849       -12.0777
 246   2.0000      -0.442727       -12.0472
 247   2.0000      -0.436837       -11.8869
 248   2.0000      -0.435614       -11.8536
 249   2.0000      -0.433052       -11.7840
 250   2.0000      -0.432691       -11.7741
 251   2.0000      -0.432008       -11.7555
 252   2.0000      -0.431346       -11.7375
 253   2.0000      -0.430275       -11.7084
 254   2.0000      -0.429137       -11.6774
 255   2.0000      -0.428501       -11.6601
 256   2.0000      -0.424038       -11.5387
 257   2.0000      -0.421072       -11.4580
 258   2.0000      -0.419691       -11.4204
 259   2.0000      -0.416214       -11.3258
 260   2.0000      -0.415008       -11.2929
 261   2.0000      -0.412616       -11.2278
 262   2.0000      -0.409198       -11.1348
 263   2.0000      -0.408301       -11.1104
 264   2.0000      -0.401236       -10.9182
 265   2.0000      -0.399471       -10.8702
 266   2.0000      -0.397010       -10.8032
 267   2.0000      -0.392232       -10.6732
 268   2.0000      -0.390100       -10.6152
 269   2.0000      -0.388943       -10.5837
 270   2.0000      -0.383830       -10.4446
 271   2.0000      -0.376911       -10.2563
 272   2.0000      -0.373494       -10.1633
 273   2.0000      -0.371028       -10.0962
 274   2.0000      -0.368924       -10.0389
 275   2.0000      -0.365159        -9.9365
 276   2.0000      -0.358165        -9.7462
 277   2.0000      -0.356056        -9.6888
 278   2.0000      -0.353867        -9.6292
 279   2.0000      -0.349992        -9.5238
 280   2.0000      -0.343315        -9.3421
 281   2.0000      -0.340075        -9.2539
 282   2.0000      -0.337078        -9.1723
 283   2.0000      -0.329565        -8.9679
 284   2.0000      -0.325672        -8.8620
 285   2.0000      -0.321903        -8.7594
 286   2.0000      -0.315237        -8.5780
 287   2.0000      -0.312665        -8.5081
 288   2.0000      -0.302210        -8.2236
 289   2.0000      -0.286164        -7.7869
 290   2.0000      -0.264619        -7.2007
 291   2.0000      -0.238791        -6.4978
 292   0.0000      -0.103423        -2.8143
 293   0.0000      -0.094006        -2.5580
 294   0.0000      -0.075884        -2.0649
 295   0.0000      -0.065868        -1.7924
 296   0.0000      -0.050160        -1.3649

MULLIKEN ATOMIC CHARGES
-----------------------
   0 C :    0.151915
   1 O :   -0.141625
   2 C :   -0.029569
   3 C :    0.040778
   4 C :   -0.025953
   5 C :    0.052317
   6 C :   -0.004019
   7 C :   -0.011547
   8 Br:   -0.015361
   9 C :    0.277111
  10 C :   -0.323320
  11 C :   -0.186887
  12 N :    0.159277
  13 C :   -0.207205
  14 N :    0.175518
  15 C :   -0.084544
  16 C :   -0.032833
  17 C :    0.037605
  18 C :    0.046572
  19 C :   -0.061033
  20 C :    0.118005
  21 C :   -0.042048
  22 C :   -0.033464
  23 N :    0.052925
  24 O :   -0.093252
  25 N :    0.042814
  26 C :    0.070671
  27 C :   -0.078734
  28 C :    0.007504
  29 C :    0.111757
  30 C :   -0.051425
  31 C :   -0.022844
  32 C :    0.100905
  33 C :    0.028702
  34 C :   -0.132227
  35 C :    0.048916
  36 C :    0.025840
  37 C :    0.073919
  38 C :    0.029627
  39 C :   -0.128493
  40 C :    0.148468
  41 C :   -0.024995
  42 C :   -0.047132
  43 C :   -0.027415
  44 C :   -0.100161
  45 C :    0.082886
  46 C :   -0.148726
  47 S :    0.131920
  48 C :    0.155175
  49 O :   -0.308890
  50 C :    0.178233
  51 C :    0.038797
  52 C :   -0.119357
  53 C :    0.129162
  54 O :   -0.314394
  55 C :    0.183718
  56 S :    0.161118
  57 C :   -0.067208
  58 C :   -0.051326
  59 C :    0.094789
  60 C :   -0.139558
  61 C :    0.138449
  62 O :   -0.134732
  63 C :   -0.007146
  64 C :    0.017366
  65 C :    0.268703
  66 C :   -0.349585
  67 C :   -0.178271
  68 N :    0.157458
  69 C :   -0.207810
  70 N :    0.181896
  71 C :   -0.027791
  72 C :    0.048383
  73 C :   -0.007286
  74 C :   -0.011244
  75 Br:   -0.018632
  76 H :    0.011919
  77 H :    0.008005
  78 H :    0.004125
  79 H :    0.049410
  80 H :    0.004158
  81 H :   -0.007098
  82 H :   -0.016493
  83 H :   -0.034038
  84 H :   -0.023422
  85 H :    0.009474
  86 H :    0.008919
  87 H :    0.017552
  88 H :    0.013176
  89 H :    0.022290
  90 H :    0.004258
  91 H :   -0.000082
  92 H :    0.021467
  93 H :    0.013617
  94 H :    0.006137
  95 H :   -0.016781
  96 H :   -0.031132
  97 H :   -0.034949
  98 H :   -0.042909
  99 H :    0.037944
 100 H :    0.030747
 101 H :    0.042367
 102 H :    0.029136
 103 H :    0.038839
 104 H :    0.033669
 105 H :   -0.017427
 106 H :    0.024180
 107 H :    0.009319
 108 H :    0.006495
 109 H :    0.005970
Sum of atomic charges:   -0.0000000

LOEWDIN ATOMIC CHARGES
----------------------
   0 C :    0.085183
   1 O :   -0.130609
   2 C :   -0.038479
   3 C :   -0.015291
   4 C :    0.009322
   5 C :   -0.010525
   6 C :   -0.097630
   7 C :    0.000841
   8 Br:    0.118774
   9 C :    0.072156
  10 C :   -0.127500
  11 C :   -0.018443
  12 N :   -0.044388
  13 C :   -0.027172
  14 N :   -0.037642
  15 C :   -0.087580
  16 C :    0.084132
  17 C :   -0.056743
  18 C :    0.051370
  19 C :   -0.017866
  20 C :    0.015856
  21 C :   -0.050819
  22 C :   -0.044515
  23 N :   -0.025838
  24 O :    0.079899
  25 N :   -0.018235
  26 C :   -0.028315
  27 C :   -0.003599
  28 C :    0.007174
  29 C :   -0.006143
  30 C :   -0.018933
  31 C :   -0.010194
  32 C :   -0.017596
  33 C :    0.009387
  34 C :   -0.034706
  35 C :   -0.014177
  36 C :   -0.055682
  37 C :   -0.009245
  38 C :   -0.058541
  39 C :   -0.025486
  40 C :   -0.034331
  41 C :   -0.013609
  42 C :   -0.015060
  43 C :   -0.137050
  44 C :   -0.070215
  45 C :   -0.060590
  46 C :   -0.176561
  47 S :    0.423307
  48 C :    0.034492
  49 O :   -0.102431
  50 C :    0.080101
  51 C :   -0.076108
  52 C :   -0.161650
  53 C :    0.018687
  54 O :   -0.108168
  55 C :    0.079289
  56 S :    0.431490
  57 C :   -0.180189
  58 C :   -0.003310
  59 C :    0.059846
  60 C :   -0.100372
  61 C :    0.084400
  62 O :   -0.134750
  63 C :   -0.038760
  64 C :   -0.014377
  65 C :    0.067105
  66 C :   -0.146079
  67 C :   -0.023444
  68 N :   -0.052732
  69 C :   -0.022209
  70 N :   -0.035634
  71 C :    0.004034
  72 C :   -0.012809
  73 C :   -0.098967
  74 C :    0.001039
  75 Br:    0.116231
  76 H :    0.043837
  77 H :    0.041376
  78 H :    0.044221
  79 H :    0.051905
  80 H :    0.039685
  81 H :    0.036573
  82 H :    0.027091
  83 H :    0.027907
  84 H :    0.027552
  85 H :    0.020899
  86 H :    0.024569
  87 H :    0.024184
  88 H :    0.026085
  89 H :    0.025636
  90 H :    0.025904
  91 H :    0.021480
  92 H :    0.023854
  93 H :    0.028577
  94 H :    0.021229
  95 H :    0.019295
  96 H :    0.026198
  97 H :    0.027565
  98 H :    0.022841
  99 H :    0.021972
 100 H :    0.014899
 101 H :    0.033181
 102 H :    0.015151
 103 H :    0.031568
 104 H :    0.018950
 105 H :    0.028459
 106 H :    0.047014
 107 H :    0.042155
 108 H :    0.040402
 109 H :    0.044966

  Mayer bond orders larger than 0.100000
B(  0-C ,  1-O ) :   2.2185 B(  0-C ,  2-C ) :   0.9477 B(  0-C , 15-C ) :   0.9397
B(  2-C ,  3-C ) :   1.3280 B(  2-C ,  7-C ) :   1.3787 B(  3-C ,  4-C ) :   1.3609
B(  3-C ,  9-C ) :   1.0024 B(  4-C ,  5-C ) :   1.3859 B(  4-C , 76-H ) :   0.9848
B(  5-C ,  6-C ) :   1.3831 B(  5-C , 77-H ) :   0.9849 B(  6-C ,  7-C ) :   1.3405
B(  6-C ,  8-Br) :   0.9959 B(  7-C , 78-H ) :   1.0072 B(  9-C , 10-C ) :   1.6714
B(  9-C , 15-C ) :   1.0392 B( 10-C , 11-C ) :   1.1356 B( 10-C , 13-C ) :   1.1345
B( 11-C , 12-N ) :   2.9838 B( 13-C , 14-N ) :   3.0076 B( 15-C , 16-C ) :   1.6243
B( 16-C , 17-C ) :   1.1286 B( 16-C , 79-H ) :   0.9501 B( 17-C , 18-C ) :   1.4619
B( 17-C , 20-C ) :   0.1033 B( 17-C , 22-C ) :   1.1264 B( 18-C , 19-C ) :   1.2186
B( 18-C , 80-H ) :   0.9801 B( 19-C , 20-C ) :   1.4974 B( 19-C , 81-H ) :   0.9928
B( 20-C , 21-C ) :   1.1418 B( 20-C , 26-C ) :   1.0093 B( 21-C , 22-C ) :   1.1434
B( 21-C , 25-N ) :   1.5817 B( 22-C , 23-N ) :   1.6248 B( 23-N , 24-O ) :   1.0583
B( 23-N , 25-N ) :   0.1810 B( 24-O , 25-N ) :   1.0729 B( 26-C , 27-C ) :   1.3213
B( 26-C , 31-C ) :   1.3459 B( 27-C , 28-C ) :   1.3941 B( 27-C , 82-H ) :   0.9901
B( 28-C , 29-C ) :   1.3751 B( 28-C , 34-C ) :   0.9220 B( 29-C , 30-C ) :   1.3345
B( 29-C , 32-C ) :   0.9949 B( 30-C , 31-C ) :   1.3953 B( 30-C , 83-H ) :   0.9902
B( 31-C , 84-H ) :   0.9850 B( 32-C , 33-C ) :   1.3831 B( 32-C , 42-C ) :   1.3357
B( 33-C , 34-C ) :   0.9183 B( 33-C , 39-C ) :   1.4044 B( 34-C , 35-C ) :   1.0282
B( 34-C , 37-C ) :   1.0161 B( 35-C , 36-C ) :   1.1047 B( 35-C , 85-H ) :   0.9395
B( 35-C , 86-H ) :   0.9399 B( 36-C , 87-H ) :   0.9656 B( 36-C , 88-H ) :   0.9643
B( 36-C , 89-H ) :   0.9626 B( 37-C , 38-C ) :   1.1166 B( 37-C , 90-H ) :   0.9390
B( 37-C , 91-H ) :   0.9363 B( 38-C , 92-H ) :   0.9597 B( 38-C , 93-H ) :   0.9589
B( 38-C , 94-H ) :   0.9632 B( 39-C , 40-C ) :   1.2913 B( 39-C , 95-H ) :   0.9886
B( 40-C , 41-C ) :   1.3655 B( 40-C , 43-C ) :   1.0297 B( 41-C , 42-C ) :   1.3872
B( 41-C , 96-H ) :   0.9877 B( 42-C , 97-H ) :   0.9897 B( 43-C , 44-C ) :   1.6065
B( 43-C , 47-S ) :   1.0744 B( 44-C , 45-C ) :   1.1432 B( 44-C , 98-H ) :   0.9934
B( 45-C , 46-C ) :   1.3185 B( 45-C , 53-C ) :   1.2125 B( 46-C , 47-S ) :   1.0375
B( 46-C , 48-C ) :   1.4207 B( 48-C , 49-O ) :   1.2724 B( 48-C , 51-C ) :   1.1903
B( 49-O , 50-C ) :   0.9397 B( 50-C , 99-H ) :   0.9686 B( 50-C ,100-H ) :   0.9668
B( 50-C ,101-H ) :   0.9730 B( 51-C , 52-C ) :   1.3147 B( 51-C , 58-C ) :   1.2276
B( 52-C , 53-C ) :   1.4098 B( 52-C , 56-S ) :   1.0573 B( 53-C , 54-O ) :   1.2515
B( 54-O , 55-C ) :   0.9522 B( 55-C ,102-H ) :   0.9688 B( 55-C ,103-H ) :   0.9741
B( 55-C ,104-H ) :   0.9683 B( 56-S , 57-C ) :   1.0547 B( 57-C , 58-C ) :   1.4884
B( 57-C , 59-C ) :   1.1438 B( 58-C ,105-H ) :   0.9818 B( 59-C , 60-C ) :   1.6468
B( 59-C ,106-H ) :   0.9282 B( 60-C , 61-C ) :   0.9504 B( 60-C , 65-C ) :   1.0470
B( 61-C , 62-O ) :   2.2684 B( 61-C , 63-C ) :   0.9166 B( 63-C , 64-C ) :   1.3351
B( 63-C , 74-C ) :   1.3867 B( 64-C , 65-C ) :   1.0049 B( 64-C , 71-C ) :   1.3685
B( 65-C , 66-C ) :   1.6328 B( 66-C , 67-C ) :   1.1285 B( 66-C , 69-C ) :   1.1778
B( 67-C , 68-N ) :   2.9913 B( 69-C , 70-N ) :   2.9638 B( 71-C , 72-C ) :   1.3797
B( 71-C ,107-H ) :   0.9867 B( 72-C , 73-C ) :   1.3932 B( 72-C ,108-H ) :   0.9849
B( 73-C , 74-C ) :   1.3383 B( 73-C , 75-Br) :   0.9934 B( 74-C ,109-H ) :   1.0067

-----------------------------------------------------------------------------
         ABSORPTION SPECTRUM VIA TRANSITION ELECTRIC DIPOLE MOMENTS
-----------------------------------------------------------------------------
State   Energy  Wavelength   fosc         T2         TX        TY        TZ
        (cm-1)    (nm)                  (au**2)     (au)      (au)      (au)
-----------------------------------------------------------------------------
   0   14928.4    669.9   0.300826313   6.63403   0.31887   2.50650  -0.49983
   1   19968.2    500.8   1.442187822  23.77714   0.06084   4.87437   0.11812
   2   22300.7    448.4   0.251530892   3.71321   0.67116   1.11412  -1.42179
   3   23027.7    434.3   0.102181158   1.46082  -0.65208   0.10938   1.01175
   4   23192.0    431.2   0.461889238   6.55655   0.51784   2.44665  -0.54981
   5   26716.8    374.3   0.003509981   0.04325   0.19345  -0.07155   0.02664
   6   26903.3    371.7   0.005068417   0.06202  -0.11911   0.21864   0.00571
   7   28425.6    351.8   0.031004098   0.35908  -0.21603  -0.33503  -0.44739
   8   28891.9    346.1   0.198932483   2.26676  -0.12455   1.37519   0.60009
   9   29308.4    341.2   0.038947470   0.43748   0.40197  -0.45943   0.25460
  10   29815.5    335.4   0.123882354   1.36787   1.06419  -0.00840   0.48508
  11   30223.4    330.9   0.051856629   0.56485  -0.54152   0.42683   0.29904
  12   30633.2    326.4   0.098419720   1.05771   1.02201   0.11225  -0.02471
  13   30939.5    323.2   0.670823215   7.13789   0.66981   2.55303  -0.41385
  14   31595.1    316.5   0.167249563   1.74269  -0.96090  -0.89010   0.16462
  15   31744.4    315.0   0.011117151   0.11529  -0.11727  -0.30380   0.09614
  16   31823.2    314.2   0.023934582   0.24760   0.17241   0.29513  -0.36163
  17   32591.4    306.8   0.189788776   1.91709   0.84733   1.07485   0.20934
  18   32932.3    303.7   0.026233797   0.26225  -0.30077  -0.37346  -0.17975
  19   33458.2    298.9   0.030085079   0.29602   0.43291  -0.31064   0.11006
  20   34143.2    292.9   0.155664174   1.50093  -0.12879   1.21454  -0.09606
  21   34252.8    291.9   0.359572604   3.45594   1.54215  -0.57884   0.86177
  22   34384.0    290.8   0.513755859   4.91899   1.72815   1.29745   0.49910
  23   34834.3    287.1   0.005769874   0.05453  -0.19771   0.01070   0.12380
  24   35077.8    285.1   0.091860099   0.86213   0.77211  -0.21294   0.46971
  25   35631.2    280.7   0.025012244   0.23110  -0.41921  -0.12444  -0.19969
  26   35911.5    278.5   0.039658017   0.36356  -0.42806  -0.35280   0.23635
  27   36091.8    277.1   0.115421114   1.05282  -0.33609  -0.89483   0.37302
  28   36350.7    275.1   0.152849517   1.38429   0.38942   1.10023   0.14877
  29   37221.6    268.7   0.131332562   1.16159  -0.36279  -0.97559  -0.27965
  30   37337.1    267.8   0.136120923   1.20022  -0.97202   0.12678  -0.48920
  31   37733.5    265.0   0.147990260   1.29117  -0.61383  -0.90424  -0.31100
  32   37867.4    264.1   0.022843258   0.19859   0.02279   0.29604  -0.33232
  33   37947.9    263.5   0.081873183   0.71028  -0.09879  -0.68333  -0.48330
  34   38960.1    256.7   0.038681235   0.32686  -0.16709  -0.53913   0.09095
  35   39032.0    256.2   0.024454471   0.20626  -0.29215  -0.29320   0.18692
  36   39650.8    252.2   0.140726576   1.16842  -0.40050  -0.96678  -0.27083
  37   40061.2    249.6   0.017362783   0.14268  -0.08235   0.10848  -0.35233
  38   40297.7    248.2   0.167098168   1.36511  -0.16972   0.41030  -1.08072

FINAL SINGLE POINT ENERGY     -8989.667039015194

DIPOLE MOMENT
-------------
                                X             Y             Z
Electronic contribution:   -113.94822       1.28377       7.54958
Nuclear contribution   :    111.96102      -1.67595      -9.98009
                        -----------------------------------------
Total Dipole Moment    :     -1.98720      -0.39218      -2.43051
                        -----------------------------------------
Magnitude (a.u.)       :      3.16389
Magnitude (Debye)      :      8.04196

Rotational constants in cm-1:     0.001614     0.000127     0.000124
Rotational constants in MHz :    48.372579     3.820461     3.714271

                             ****ORCA TERMINATED NORMALLY****
TOTAL RUN TIME: 0 days 0 hours 11 minutes 26 seconds 354 msec
