                         Program Version 4.2.0 -  RELEASE  -
|  1> # ORCA input file
|  2> # SCF done       -186.325543564650          0.000764454911
|  3> ! CAM-B3LYP def2-SVP def2/J RIJCOSX Grid4 TightSCF
|  4> %maxcore 5000
|  5> %tddft
|  6>     Mode sTDDFT
|  7>     Ethresh 5.0
|  8>     maxcore 5000
|  9> end
| 10>
| 11> %pal
| 12>   nprocs 6
| 13>   end
| 14> * xyz 0 1
| 15>    C       -1.07205        -1.21312         0.28845
| 16>    O       -0.68424        -2.31757        -0.02124
| 17>    C       -0.21263        -0.04460         0.58097
| 18>    C       -1.00852         1.08650         0.82918
| 19>    C       -0.39975         2.30161         1.11370
| 20>    C        0.98447         2.36264         1.14995
| 21>    C        1.75086         1.22987         0.90480
| 22>    C        1.16583         0.00586         0.61177
| 23>   Br        3.64475         1.36227         0.97227
| 24>    C       -2.41246         0.70347         0.72676
| 25>    C       -3.47993         1.51178         1.01036
| 26>    C       -3.36622         2.86735         1.38729
| 27>    N       -3.33842         3.97288         1.69392
| 28>    C       -4.83389         1.11068         0.99754
| 29>    N       -5.95454         0.86367         1.02659
| 30>    C       -2.46440        -0.70335         0.35503
| 31>    C       -3.57674        -1.36384        -0.06800
| 32>    C       -3.72949        -2.76414        -0.34700
| 33>    C       -3.05260        -3.75690         0.38160
| 34>    C       -3.27736        -5.07984         0.08808
| 35>    C       -4.19300        -5.43829        -0.92009
| 36>    C       -4.87722        -4.46545        -1.63883
| 37>    C       -4.65334        -3.14110        -1.33688
| 38>    C       -4.30045        -6.87912        -0.96019
| 39>    C       -3.46211        -7.41405         0.03143
| 40>    C       -2.70163        -6.31568         0.74293
| 41>    C       -1.20423        -6.50974         0.40585
| 42>    C       -0.25133        -5.46166         0.96353
| 43>    C       -2.95119        -6.33112         2.25890
| 44>    C       -4.43537        -6.29420         2.60583
| 45>    C       -3.39827        -8.77177         0.23325
| 46>    C       -4.18439        -9.62469        -0.55317
| 47>    C       -5.01785        -9.07827        -1.53615
| 48>    C       -5.07879        -7.71583        -1.74770
| 49>    C       -4.13978       -11.06664        -0.34246
| 50>    C       -3.03762       -11.72618         0.16226
| 51>    C       -2.99692       -13.10852         0.39629
| 52>    C       -4.05915       -13.95438         0.14655
| 53>    C       -5.21514       -13.32701        -0.39382
| 54>    C       -5.24937       -11.90318        -0.64106
| 55>    N       -6.44299       -11.62734        -1.13102
| 56>    O       -7.10444       -12.77754        -1.19087
| 57>    N       -6.38723       -13.81293        -0.75341
| 58>    C       -4.02410       -15.36309         0.41503
| 59>    C       -5.02803       -16.26043         0.17283
| 60>    C       -4.72165       -17.58745         0.56357
| 61>    C       -3.41967       -17.65657         1.12536
| 62>    S       -2.62122       -16.11203         1.14076
| 63>    C       -2.80636       -18.79526         1.63365
| 64>    O       -1.55926       -18.58622         2.10781
| 65>    C       -0.79106       -19.62265         2.67485
| 66>    C       -3.56128       -19.98924         1.58731
| 67>    C       -4.86070       -19.92037         1.01367
| 68>    C       -5.46703       -18.78290         0.49949
| 69>    O       -6.71267       -18.99613         0.00927
| 70>    C       -7.46037       -17.96798        -0.59475
| 71>    S       -5.67274       -21.45710         1.02116
| 72>    C       -4.29002       -22.19900         1.80021
| 73>    C       -3.27354       -21.30101         2.02263
| 74>    C       -4.29947       -23.57430         2.14123
| 75>    C       -5.41973       -24.47876         1.86008
| 76>    N       -5.24424       -25.70093         2.26011
| 77>    C       -4.00758       -25.72019         2.83739
| 78>    C       -3.37652       -24.38403         2.77528
| 79>    C       -2.08074       -24.43450         3.39339
| 80>    S       -0.96262       -23.24549         3.59496
| 81>    C       -1.94044       -25.80816         3.83401
| 82>    C       -3.15396       -26.57877         3.47148
| 83>    N       -3.03618       -27.86856         3.88486
| 84>    C       -1.86477       -27.93807         4.46243
| 85>    C       -1.12545       -26.68799         4.46891
| 86>    H       -0.97424         3.19380         1.30061
| 87>    H        1.47365         3.29921         1.36937
| 88>    H        1.75478        -0.87699         0.41682
| 89>    H       -4.46458        -0.77065        -0.25586
| 90>    H       -2.41091        -3.47023         1.19767
| 91>    H       -5.58698        -4.74290        -2.40318
| 92>    H       -5.18168        -2.36884        -1.87710
| 93>    H       -1.10797        -6.52850        -0.68286
| 94>    H       -0.90908        -7.49367         0.77937
| 95>    H       -0.45596        -4.48186         0.54441
| 96>    H        0.76822        -5.73264         0.69724
| 97>    H       -0.30985        -5.40778         2.04762
| 98>    H       -2.46009        -5.46786         2.70881
| 99>    H       -2.50109        -7.23230         2.68057
|100>    H       -4.90177        -5.39758         2.20305
|101>    H       -4.56727        -6.29410         3.68537
|102>    H       -4.95083        -7.16043         2.19684
|103>    H       -2.77920        -9.17831         1.01875
|104>    H       -5.62126        -9.74031        -2.13557
|105>    H       -5.72536        -7.31188        -2.51165
|106>    H       -2.14328       -11.16188         0.37781
|107>    H       -2.08767       -13.53410         0.79522
|108>    H       -5.94791       -15.93089        -0.26831
|109>    H       -0.59153       -20.41797         1.95296
|110>    H       -1.26804       -20.03685         3.56606
|111>    H        0.15044       -19.15450         2.95923
|112>    H       -8.37762       -18.44843        -0.93373
|113>    H       -6.93784       -17.54251        -1.45545
|114>    H       -7.71193       -17.17995         0.12002
|115>    H       -2.36366       -21.62124         2.49368
|116>    H       -6.32746       -24.18155         1.36307
|117>    H       -1.52049       -28.86665         4.88372
|118>    H       -0.15205       -26.54008         4.89362
|119> *
|120>
|121>                          ****END OF INPUT****

CARTESIAN COORDINATES (ANGSTROEM)
---------------------------------
  C     -1.072050   -1.213120    0.288450
  O     -0.684240   -2.317570   -0.021240
  C     -0.212630   -0.044600    0.580970
  C     -1.008520    1.086500    0.829180
  C     -0.399750    2.301610    1.113700
  C      0.984470    2.362640    1.149950
  C      1.750860    1.229870    0.904800
  C      1.165830    0.005860    0.611770
  Br     3.644750    1.362270    0.972270
  C     -2.412460    0.703470    0.726760
  C     -3.479930    1.511780    1.010360
  C     -3.366220    2.867350    1.387290
  N     -3.338420    3.972880    1.693920
  C     -4.833890    1.110680    0.997540
  N     -5.954540    0.863670    1.026590
  C     -2.464400   -0.703350    0.355030
  C     -3.576740   -1.363840   -0.068000
  C     -3.729490   -2.764140   -0.347000
  C     -3.052600   -3.756900    0.381600
  C     -3.277360   -5.079840    0.088080
  C     -4.193000   -5.438290   -0.920090
  C     -4.877220   -4.465450   -1.638830
  C     -4.653340   -3.141100   -1.336880
  C     -4.300450   -6.879120   -0.960190
  C     -3.462110   -7.414050    0.031430
  C     -2.701630   -6.315680    0.742930
  C     -1.204230   -6.509740    0.405850
  C     -0.251330   -5.461660    0.963530
  C     -2.951190   -6.331120    2.258900
  C     -4.435370   -6.294200    2.605830
  C     -3.398270   -8.771770    0.233250
  C     -4.184390   -9.624690   -0.553170
  C     -5.017850   -9.078270   -1.536150
  C     -5.078790   -7.715830   -1.747700
  C     -4.139780  -11.066640   -0.342460
  C     -3.037620  -11.726180    0.162260
  C     -2.996920  -13.108520    0.396290
  C     -4.059150  -13.954380    0.146550
  C     -5.215140  -13.327010   -0.393820
  C     -5.249370  -11.903180   -0.641060
  N     -6.442990  -11.627340   -1.131020
  O     -7.104440  -12.777540   -1.190870
  N     -6.387230  -13.812930   -0.753410
  C     -4.024100  -15.363090    0.415030
  C     -5.028030  -16.260430    0.172830
  C     -4.721650  -17.587450    0.563570
  C     -3.419670  -17.656570    1.125360
  S     -2.621220  -16.112030    1.140760
  C     -2.806360  -18.795260    1.633650
  O     -1.559260  -18.586220    2.107810
  C     -0.791060  -19.622650    2.674850
  C     -3.561280  -19.989240    1.587310
  C     -4.860700  -19.920370    1.013670
  C     -5.467030  -18.782900    0.499490
  O     -6.712670  -18.996130    0.009270
  C     -7.460370  -17.967980   -0.594750
  S     -5.672740  -21.457100    1.021160
  C     -4.290020  -22.199000    1.800210
  C     -3.273540  -21.301010    2.022630
  C     -4.299470  -23.574300    2.141230
  C     -5.419730  -24.478760    1.860080
  N     -5.244240  -25.700930    2.260110
  C     -4.007580  -25.720190    2.837390
  C     -3.376520  -24.384030    2.775280
  C     -2.080740  -24.434500    3.393390
  S     -0.962620  -23.245490    3.594960
  C     -1.940440  -25.808160    3.834010
  C     -3.153960  -26.578770    3.471480
  N     -3.036180  -27.868560    3.884860
  C     -1.864770  -27.938070    4.462430
  C     -1.125450  -26.687990    4.468910
  H     -0.974240    3.193800    1.300610
  H      1.473650    3.299210    1.369370
  H      1.754780   -0.876990    0.416820
  H     -4.464580   -0.770650   -0.255860
  H     -2.410910   -3.470230    1.197670
  H     -5.586980   -4.742900   -2.403180
  H     -5.181680   -2.368840   -1.877100
  H     -1.107970   -6.528500   -0.682860
  H     -0.909080   -7.493670    0.779370
  H     -0.455960   -4.481860    0.544410
  H      0.768220   -5.732640    0.697240
  H     -0.309850   -5.407780    2.047620
  H     -2.460090   -5.467860    2.708810
  H     -2.501090   -7.232300    2.680570
  H     -4.901770   -5.397580    2.203050
  H     -4.567270   -6.294100    3.685370
  H     -4.950830   -7.160430    2.196840
  H     -2.779200   -9.178310    1.018750
  H     -5.621260   -9.740310   -2.135570
  H     -5.725360   -7.311880   -2.511650
  H     -2.143280  -11.161880    0.377810
  H     -2.087670  -13.534100    0.795220
  H     -5.947910  -15.930890   -0.268310
  H     -0.591530  -20.417970    1.952960
  H     -1.268040  -20.036850    3.566060
  H      0.150440  -19.154500    2.959230
  H     -8.377620  -18.448430   -0.933730
  H     -6.937840  -17.542510   -1.455450
  H     -7.711930  -17.179950    0.120020
  H     -2.363660  -21.621240    2.493680
  H     -6.327460  -24.181550    1.363070
  H     -1.520490  -28.866650    4.883720
  H     -0.152050  -26.540080    4.893620

 Total Charge           Charge          ....    0
 Multiplicity           Mult            ....    1
 Number of Electrons    NEL             ....  532
 Basis Dimension        Dim             .... 1189

ORBITAL ENERGIES
----------------

  NO   OCC          E(Eh)            E(eV)
   0   2.0000    -482.876243    -13139.7306
   1   2.0000     -88.949509     -2420.4392
   2   2.0000     -88.947437     -2420.3828
   3   2.0000     -88.902632     -2419.1636
   4   2.0000     -62.553940     -1702.1793
   5   2.0000     -56.387783     -1534.3896
   6   2.0000     -56.385254     -1534.3208
   7   2.0000     -56.385240     -1534.3204
   8   2.0000     -19.358699      -526.7770
   9   2.0000     -19.250899      -523.8436
  10   2.0000     -19.250233      -523.8255
  11   2.0000     -19.226643      -523.1836
  12   2.0000     -14.484305      -394.1380
  13   2.0000     -14.483649      -394.1201
  14   2.0000     -14.420555      -392.4033
  15   2.0000     -14.420098      -392.3908
  16   2.0000     -14.419566      -392.3764
  17   2.0000     -14.410239      -392.1225
  18   2.0000     -10.378182      -282.4047
  19   2.0000     -10.349650      -281.6283
  20   2.0000     -10.349411      -281.6218
  21   2.0000     -10.347075      -281.5582
  22   2.0000     -10.345863      -281.5253
  23   2.0000     -10.340898      -281.3901
  24   2.0000     -10.338788      -281.3327
  25   2.0000     -10.338666      -281.3294
  26   2.0000     -10.334614      -281.2191
  27   2.0000     -10.330213      -281.0994
  28   2.0000     -10.329976      -281.0929
  29   2.0000     -10.328646      -281.0568
  30   2.0000     -10.326339      -280.9940
  31   2.0000     -10.323799      -280.9248
  32   2.0000     -10.322982      -280.9026
  33   2.0000     -10.322606      -280.8924
  34   2.0000     -10.322190      -280.8811
  35   2.0000     -10.321612      -280.8653
  36   2.0000     -10.315334      -280.6945
  37   2.0000     -10.313221      -280.6370
  38   2.0000     -10.312156      -280.6080
  39   2.0000     -10.309129      -280.5257
  40   2.0000     -10.308442      -280.5070
  41   2.0000     -10.308008      -280.4952
  42   2.0000     -10.307519      -280.4819
  43   2.0000     -10.307167      -280.4723
  44   2.0000     -10.306743      -280.4607
  45   2.0000     -10.304075      -280.3881
  46   2.0000     -10.303596      -280.3751
  47   2.0000     -10.298164      -280.2273
  48   2.0000     -10.298050      -280.2242
  49   2.0000     -10.297451      -280.2079
  50   2.0000     -10.297189      -280.2008
  51   2.0000     -10.296581      -280.1842
  52   2.0000     -10.296247      -280.1751
  53   2.0000     -10.295058      -280.1428
  54   2.0000     -10.292349      -280.0690
  55   2.0000     -10.291149      -280.0364
  56   2.0000     -10.290338      -280.0143
  57   2.0000     -10.289885      -280.0020
  58   2.0000     -10.287757      -279.9441
  59   2.0000     -10.287418      -279.9349
  60   2.0000     -10.284504      -279.8556
  61   2.0000     -10.284468      -279.8546
  62   2.0000     -10.281265      -279.7675
  63   2.0000     -10.278842      -279.7015
  64   2.0000     -10.278734      -279.6986
  65   2.0000     -10.278600      -279.6949
  66   2.0000     -10.278257      -279.6856
  67   2.0000     -10.277835      -279.6741
  68   2.0000     -10.276869      -279.6478
  69   2.0000     -10.276488      -279.6375
  70   2.0000     -10.273435      -279.5544
  71   2.0000     -10.267503      -279.3930
  72   2.0000     -10.265023      -279.3255
  73   2.0000     -10.250620      -278.9335
  74   2.0000     -10.244838      -278.7762
  75   2.0000      -8.783214      -239.0034
  76   2.0000      -8.044657      -218.9063
  77   2.0000      -8.042617      -218.8507
  78   2.0000      -7.998183      -217.6416
  79   2.0000      -6.619075      -180.1142
  80   2.0000      -6.605324      -179.7400
  81   2.0000      -6.604877      -179.7278
  82   2.0000      -6.014315      -163.6578
  83   2.0000      -6.012267      -163.6021
  84   2.0000      -6.010240      -163.5469
  85   2.0000      -6.008216      -163.4919
  86   2.0000      -6.005963      -163.4306
  87   2.0000      -6.003913      -163.3748
  88   2.0000      -5.966957      -162.3691
  89   2.0000      -5.966513      -162.3571
  90   2.0000      -5.957787      -162.1196
  91   2.0000      -2.734990       -74.4229
  92   2.0000      -2.731249       -74.3211
  93   2.0000      -2.730908       -74.3118
  94   2.0000      -2.719988       -74.0146
  95   2.0000      -2.719957       -74.0138
  96   2.0000      -1.312098       -35.7040
  97   2.0000      -1.155910       -31.4539
  98   2.0000      -1.154100       -31.4046
  99   2.0000      -1.142482       -31.0885
 100   2.0000      -1.084359       -29.5069
 101   2.0000      -1.063510       -28.9396
 102   2.0000      -1.024987       -27.8913
 103   2.0000      -1.016680       -27.6653
 104   2.0000      -1.008032       -27.4300
 105   2.0000      -1.006568       -27.3901
 106   2.0000      -0.998818       -27.1792
 107   2.0000      -0.996521       -27.1167
 108   2.0000      -0.994173       -27.0528
 109   2.0000      -0.976659       -26.5762
 110   2.0000      -0.970460       -26.4076
 111   2.0000      -0.962643       -26.1948
 112   2.0000      -0.955552       -26.0019
 113   2.0000      -0.930849       -25.3297
 114   2.0000      -0.925465       -25.1832
 115   2.0000      -0.915500       -24.9120
 116   2.0000      -0.912687       -24.8355
 117   2.0000      -0.904952       -24.6250
 118   2.0000      -0.894435       -24.3388
 119   2.0000      -0.885111       -24.0851
 120   2.0000      -0.876194       -23.8424
 121   2.0000      -0.871607       -23.7176
 122   2.0000      -0.869068       -23.6486
 123   2.0000      -0.862406       -23.4673
 124   2.0000      -0.851363       -23.1668
 125   2.0000      -0.846713       -23.0402
 126   2.0000      -0.842394       -22.9227
 127   2.0000      -0.842265       -22.9192
 128   2.0000      -0.837995       -22.8030
 129   2.0000      -0.836708       -22.7680
 130   2.0000      -0.821316       -22.3491
 131   2.0000      -0.813267       -22.1301
 132   2.0000      -0.798717       -21.7342
 133   2.0000      -0.797388       -21.6980
 134   2.0000      -0.781169       -21.2567
 135   2.0000      -0.774651       -21.0793
 136   2.0000      -0.772755       -21.0277
 137   2.0000      -0.770230       -20.9590
 138   2.0000      -0.765452       -20.8290
 139   2.0000      -0.753471       -20.5030
 140   2.0000      -0.743611       -20.2347
 141   2.0000      -0.740431       -20.1481
 142   2.0000      -0.736784       -20.0489
 143   2.0000      -0.718156       -19.5420
 144   2.0000      -0.709806       -19.3148
 145   2.0000      -0.702637       -19.1197
 146   2.0000      -0.700263       -19.0551
 147   2.0000      -0.696682       -18.9577
 148   2.0000      -0.693710       -18.8768
 149   2.0000      -0.685731       -18.6597
 150   2.0000      -0.680775       -18.5248
 151   2.0000      -0.674473       -18.3534
 152   2.0000      -0.671279       -18.2664
 153   2.0000      -0.666967       -18.1491
 154   2.0000      -0.663967       -18.0674
 155   2.0000      -0.648205       -17.6385
 156   2.0000      -0.642595       -17.4859
 157   2.0000      -0.641153       -17.4467
 158   2.0000      -0.634559       -17.2672
 159   2.0000      -0.629259       -17.1230
 160   2.0000      -0.627010       -17.0618
 161   2.0000      -0.621334       -16.9074
 162   2.0000      -0.620784       -16.8924
 163   2.0000      -0.610531       -16.6134
 164   2.0000      -0.606051       -16.4915
 165   2.0000      -0.603629       -16.4256
 166   2.0000      -0.598466       -16.2851
 167   2.0000      -0.590220       -16.0607
 168   2.0000      -0.588040       -16.0014
 169   2.0000      -0.583167       -15.8688
 170   2.0000      -0.576841       -15.6966
 171   2.0000      -0.574655       -15.6372
 172   2.0000      -0.568479       -15.4691
 173   2.0000      -0.565116       -15.3776
 174   2.0000      -0.561782       -15.2869
 175   2.0000      -0.560071       -15.2403
 176   2.0000      -0.554078       -15.0772
 177   2.0000      -0.552445       -15.0328
 178   2.0000      -0.551372       -15.0036
 179   2.0000      -0.546832       -14.8800
 180   2.0000      -0.544945       -14.8287
 181   2.0000      -0.543473       -14.7886
 182   2.0000      -0.543364       -14.7857
 183   2.0000      -0.538340       -14.6490
 184   2.0000      -0.535708       -14.5774
 185   2.0000      -0.532443       -14.4885
 186   2.0000      -0.531738       -14.4693
 187   2.0000      -0.530556       -14.4372
 188   2.0000      -0.530089       -14.4245
 189   2.0000      -0.524216       -14.2646
 190   2.0000      -0.523390       -14.2422
 191   2.0000      -0.520878       -14.1738
 192   2.0000      -0.514003       -13.9867
 193   2.0000      -0.509403       -13.8616
 194   2.0000      -0.507722       -13.8158
 195   2.0000      -0.503742       -13.7075
 196   2.0000      -0.501562       -13.6482
 197   2.0000      -0.498720       -13.5709
 198   2.0000      -0.496649       -13.5145
 199   2.0000      -0.496063       -13.4986
 200   2.0000      -0.493387       -13.4257
 201   2.0000      -0.492620       -13.4049
 202   2.0000      -0.489597       -13.3226
 203   2.0000      -0.485207       -13.2032
 204   2.0000      -0.481668       -13.1068
 205   2.0000      -0.479295       -13.0423
 206   2.0000      -0.478795       -13.0287
 207   2.0000      -0.474814       -12.9203
 208   2.0000      -0.473042       -12.8721
 209   2.0000      -0.471891       -12.8408
 210   2.0000      -0.469959       -12.7882
 211   2.0000      -0.462974       -12.5982
 212   2.0000      -0.461938       -12.5700
 213   2.0000      -0.460548       -12.5322
 214   2.0000      -0.460066       -12.5190
 215   2.0000      -0.456115       -12.4115
 216   2.0000      -0.452836       -12.3223
 217   2.0000      -0.451721       -12.2920
 218   2.0000      -0.449460       -12.2304
 219   2.0000      -0.447216       -12.1694
 220   2.0000      -0.444923       -12.1070
 221   2.0000      -0.441147       -12.0042
 222   2.0000      -0.438276       -11.9261
 223   2.0000      -0.437286       -11.8992
 224   2.0000      -0.436315       -11.8727
 225   2.0000      -0.432034       -11.7562
 226   2.0000      -0.431312       -11.7366
 227   2.0000      -0.429608       -11.6902
 228   2.0000      -0.428227       -11.6526
 229   2.0000      -0.428135       -11.6501
 230   2.0000      -0.426142       -11.5959
 231   2.0000      -0.424607       -11.5541
 232   2.0000      -0.422821       -11.5055
 233   2.0000      -0.414097       -11.2682
 234   2.0000      -0.413645       -11.2558
 235   2.0000      -0.410729       -11.1765
 236   2.0000      -0.408500       -11.1159
 237   2.0000      -0.402519       -10.9531
 238   2.0000      -0.399028       -10.8581
 239   2.0000      -0.397090       -10.8054
 240   2.0000      -0.393846       -10.7171
 241   2.0000      -0.392161       -10.6713
 242   2.0000      -0.389623       -10.6022
 243   2.0000      -0.383558       -10.4372
 244   2.0000      -0.374049       -10.1784
 245   2.0000      -0.371753       -10.1159
 246   2.0000      -0.370742       -10.0884
 247   2.0000      -0.366738        -9.9794
 248   2.0000      -0.357741        -9.7346
 249   2.0000      -0.356068        -9.6891
 250   2.0000      -0.352896        -9.6028
 251   2.0000      -0.351139        -9.5550
 252   2.0000      -0.350677        -9.5424
 253   2.0000      -0.339348        -9.2341
 254   2.0000      -0.336719        -9.1626
 255   2.0000      -0.334858        -9.1119
 256   2.0000      -0.327703        -8.9172
 257   2.0000      -0.324688        -8.8352
 258   2.0000      -0.320433        -8.7194
 259   2.0000      -0.313876        -8.5410
 260   2.0000      -0.312694        -8.5088
 261   2.0000      -0.297068        -8.0836
 262   2.0000      -0.290568        -7.9067
 263   2.0000      -0.279787        -7.6134
 264   2.0000      -0.262239        -7.1359
 265   2.0000      -0.233509        -6.3541
 266   0.0000      -0.110516        -3.0073
 267   0.0000      -0.093050        -2.5320
 268   0.0000      -0.082150        -2.2354
 269   0.0000      -0.073056        -1.9880
 270   0.0000      -0.066355        -1.8056

MULLIKEN ATOMIC CHARGES
-----------------------
   0 C :    0.149891
   1 O :   -0.129744
   2 C :   -0.030166
   3 C :    0.035873
   4 C :   -0.022061
   5 C :    0.050903
   6 C :   -0.004866
   7 C :   -0.009460
   8 Br:   -0.017055
   9 C :    0.292886
  10 C :   -0.336197
  11 C :   -0.187029
  12 N :    0.157990
  13 C :   -0.203083
  14 N :    0.162785
  15 C :   -0.080701
  16 C :   -0.031993
  17 C :    0.081129
  18 C :   -0.006265
  19 C :   -0.005726
  20 C :    0.114580
  21 C :   -0.051127
  22 C :    0.003818
  23 C :    0.101827
  24 C :    0.018267
  25 C :   -0.135046
  26 C :    0.078784
  27 C :    0.023437
  28 C :    0.049207
  29 C :    0.022698
  30 C :   -0.107152
  31 C :    0.083082
  32 C :   -0.009478
  33 C :   -0.047972
  34 C :    0.097300
  35 C :   -0.049265
  36 C :   -0.068215
  37 C :    0.157571
  38 C :   -0.035148
  39 C :   -0.041277
  40 N :    0.044314
  41 O :   -0.091155
  42 N :    0.028476
  43 C :   -0.066051
  44 C :   -0.131338
  45 C :    0.079369
  46 C :   -0.133741
  47 S :    0.123625
  48 C :    0.140352
  49 O :   -0.305100
  50 C :    0.189940
  51 C :    0.065682
  52 C :   -0.134404
  53 C :    0.140853
  54 O :   -0.310604
  55 C :    0.186552
  56 S :    0.128891
  57 C :   -0.053152
  58 C :   -0.070998
  59 C :    0.043788
  60 C :    0.048073
  61 N :   -0.022965
  62 C :    0.016096
  63 C :   -0.024192
  64 C :    0.010994
  65 S :   -0.140707
  66 C :    0.062557
  67 C :   -0.007262
  68 N :   -0.049384
  69 C :    0.090306
  70 C :   -0.083449
  71 H :    0.009269
  72 H :    0.006530
  73 H :    0.002377
  74 H :    0.032888
  75 H :   -0.028524
  76 H :   -0.026395
  77 H :   -0.014326
  78 H :    0.004168
  79 H :   -0.011624
  80 H :    0.034280
  81 H :    0.006142
  82 H :   -0.001181
  83 H :    0.010230
  84 H :   -0.001548
  85 H :    0.019446
  86 H :    0.012903
  87 H :    0.021772
  88 H :   -0.036572
  89 H :   -0.008240
  90 H :   -0.030738
  91 H :   -0.011686
  92 H :   -0.001703
  93 H :   -0.019546
  94 H :    0.034735
  95 H :    0.035695
  96 H :    0.032363
  97 H :    0.035152
  98 H :    0.035245
  99 H :    0.038203
 100 H :   -0.057897
 101 H :    0.021320
 102 H :    0.012864
 103 H :   -0.003971
Sum of atomic charges:   -0.0000000

LOEWDIN ATOMIC CHARGES
----------------------
   0 C :    0.088333
   1 O :   -0.127615
   2 C :   -0.038239
   3 C :   -0.016130
   4 C :    0.009035
   5 C :   -0.011659
   6 C :   -0.097731
   7 C :    0.000457
   8 Br:    0.117195
   9 C :    0.074897
  10 C :   -0.134002
  11 C :   -0.018811
  12 N :   -0.047979
  13 C :   -0.024947
  14 N :   -0.044832
  15 C :   -0.101197
  16 C :    0.090355
  17 C :   -0.044811
  18 C :    0.021284
  19 C :    0.000009
  20 C :    0.009813
  21 C :   -0.023306
  22 C :    0.007229
  23 C :   -0.019389
  24 C :    0.011637
  25 C :   -0.034443
  26 C :   -0.009476
  27 C :   -0.064904
  28 C :   -0.014625
  29 C :   -0.056619
  30 C :   -0.017553
  31 C :   -0.016522
  32 C :   -0.008680
  33 C :   -0.010496
  34 C :   -0.017107
  35 C :   -0.006924
  36 C :   -0.012720
  37 C :   -0.035901
  38 C :   -0.039621
  39 C :   -0.044458
  40 N :   -0.018888
  41 O :    0.074607
  42 N :   -0.030233
  43 C :   -0.157618
  44 C :   -0.049110
  45 C :   -0.069411
  46 C :   -0.172198
  47 S :    0.411483
  48 C :    0.027940
  49 O :   -0.101692
  50 C :    0.080193
  51 C :   -0.075867
  52 C :   -0.168699
  53 C :    0.022474
  54 O :   -0.105892
  55 C :    0.081368
  56 S :    0.409228
  57 C :   -0.170716
  58 C :   -0.026282
  59 C :   -0.039410
  60 C :    0.087309
  61 N :   -0.073218
  62 C :    0.048434
  63 C :   -0.048550
  64 C :   -0.134606
  65 S :    0.054029
  66 C :   -0.023684
  67 C :    0.026626
  68 N :   -0.091374
  69 C :    0.078717
  70 C :   -0.029489
  71 H :    0.043323
  72 H :    0.040887
  73 H :    0.043813
  74 H :    0.046644
  75 H :    0.028350
  76 H :    0.030405
  77 H :    0.032061
  78 H :    0.026317
  79 H :    0.016558
  80 H :    0.025802
  81 H :    0.026659
  82 H :    0.017896
  83 H :    0.021218
  84 H :    0.020344
  85 H :    0.025052
  86 H :    0.025420
  87 H :    0.025159
  88 H :    0.023972
  89 H :    0.029382
  90 H :    0.029197
  91 H :    0.034564
  92 H :    0.029911
  93 H :    0.025272
  94 H :    0.018179
  95 H :    0.017793
  96 H :    0.029946
  97 H :    0.030650
  98 H :    0.020013
  99 H :    0.020394
 100 H :    0.005208
 101 H :    0.024726
 102 H :    0.025009
 103 H :    0.034858

  Mayer bond orders larger than 0.100000
B(  0-C ,  1-O ) :   2.1777 B(  0-C ,  2-C ) :   0.9437 B(  0-C , 15-C ) :   0.9474
B(  2-C ,  3-C ) :   1.3302 B(  2-C ,  7-C ) :   1.3789 B(  3-C ,  4-C ) :   1.3583
B(  3-C ,  9-C ) :   1.0003 B(  4-C ,  5-C ) :   1.3879 B(  4-C , 71-H ) :   0.9837
B(  5-C ,  6-C ) :   1.3853 B(  5-C , 72-H ) :   0.9843 B(  6-C ,  7-C ) :   1.3394
B(  6-C ,  8-Br) :   0.9938 B(  7-C , 73-H ) :   1.0071 B(  9-C , 10-C ) :   1.6558
B(  9-C , 15-C ) :   1.0512 B( 10-C , 11-C ) :   1.1364 B( 10-C , 13-C ) :   1.1377
B( 11-C , 12-N ) :   2.9790 B( 13-C , 14-N ) :   2.9910 B( 15-C , 16-C ) :   1.6152
B( 16-C , 17-C ) :   1.0903 B( 16-C , 74-H ) :   0.9509 B( 17-C , 18-C ) :   1.2942
B( 17-C , 22-C ) :   1.3015 B( 18-C , 19-C ) :   1.4382 B( 18-C , 75-H ) :   0.9872
B( 19-C , 20-C ) :   1.3660 B( 19-C , 25-C ) :   0.9150 B( 20-C , 21-C ) :   1.3282
B( 20-C , 23-C ) :   1.0038 B( 21-C , 22-C ) :   1.3923 B( 21-C , 76-H ) :   0.9944
B( 22-C , 77-H ) :   0.9946 B( 23-C , 24-C ) :   1.3742 B( 23-C , 33-C ) :   1.3311
B( 24-C , 25-C ) :   0.9249 B( 24-C , 30-C ) :   1.3980 B( 25-C , 26-C ) :   1.0145
B( 25-C , 28-C ) :   1.0321 B( 26-C , 27-C ) :   1.1113 B( 26-C , 78-H ) :   0.9382
B( 26-C , 79-H ) :   0.9361 B( 27-C , 80-H ) :   0.9530 B( 27-C , 81-H ) :   0.9547
B( 27-C , 82-H ) :   0.9591 B( 28-C , 29-C ) :   1.1031 B( 28-C , 83-H ) :   0.9384
B( 28-C , 84-H ) :   0.9395 B( 29-C , 85-H ) :   0.9656 B( 29-C , 86-H ) :   0.9646
B( 29-C , 87-H ) :   0.9630 B( 30-C , 31-C ) :   1.3141 B( 30-C , 88-H ) :   0.9962
B( 31-C , 32-C ) :   1.3679 B( 31-C , 34-C ) :   0.9945 B( 32-C , 33-C ) :   1.3881
B( 32-C , 89-H ) :   0.9779 B( 33-C , 90-H ) :   0.9933 B( 34-C , 35-C ) :   1.5156
B( 34-C , 37-C ) :   0.1139 B( 34-C , 39-C ) :   1.1479 B( 35-C , 36-C ) :   1.2002
B( 35-C , 91-H ) :   0.9881 B( 36-C , 37-C ) :   1.4898 B( 36-C , 92-H ) :   0.9888
B( 37-C , 38-C ) :   1.1421 B( 37-C , 43-C ) :   1.1107 B( 38-C , 39-C ) :   1.1425
B( 38-C , 42-N ) :   1.5914 B( 39-C , 40-N ) :   1.5910 B( 40-N , 41-O ) :   1.0688
B( 40-N , 42-N ) :   0.1806 B( 41-O , 42-N ) :   1.0549 B( 43-C , 44-C ) :   1.6020
B( 43-C , 47-S ) :   1.0564 B( 44-C , 45-C ) :   1.1238 B( 44-C , 93-H ) :   0.9775
B( 45-C , 46-C ) :   1.3258 B( 45-C , 53-C ) :   1.2041 B( 46-C , 47-S ) :   1.0364
B( 46-C , 48-C ) :   1.4129 B( 48-C , 49-O ) :   1.2792 B( 48-C , 51-C ) :   1.1872
B( 49-O , 50-C ) :   0.9381 B( 50-C , 94-H ) :   0.9686 B( 50-C , 95-H ) :   0.9685
B( 50-C , 96-H ) :   0.9730 B( 51-C , 52-C ) :   1.3078 B( 51-C , 58-C ) :   1.1710
B( 52-C , 53-C ) :   1.4107 B( 52-C , 56-S ) :   1.0428 B( 53-C , 54-O ) :   1.2667
B( 54-O , 55-C ) :   0.9446 B( 55-C , 97-H ) :   0.9728 B( 55-C , 98-H ) :   0.9687
B( 55-C , 99-H ) :   0.9690 B( 56-S , 57-C ) :   1.0452 B( 57-C , 58-C ) :   1.5477
B( 57-C , 59-C ) :   1.1288 B( 58-C ,100-H ) :   0.9712 B( 59-C , 60-C ) :   1.0291
B( 59-C , 63-C ) :   1.5033 B( 60-C , 61-N ) :   1.7290 B( 60-C ,101-H ) :   0.9852
B( 61-N , 62-C ) :   1.2639 B( 62-C , 63-C ) :   1.0604 B( 62-C , 67-C ) :   1.5319
B( 63-C , 64-C ) :   1.0704 B( 64-C , 65-S ) :   1.6734 B( 64-C , 66-C ) :   0.9901
B( 65-S ,100-H ) :   0.1045 B( 66-C , 67-C ) :   1.0577 B( 66-C , 70-C ) :   1.6037
B( 67-C , 68-N ) :   1.2742 B( 68-N , 69-C ) :   1.6841 B( 69-C , 70-C ) :   1.0488
B( 69-C ,102-H ) :   0.9884 B( 70-C ,103-H ) :   1.0072

-----------------------------------------------------------------------------
         ABSORPTION SPECTRUM VIA TRANSITION ELECTRIC DIPOLE MOMENTS
-----------------------------------------------------------------------------
State   Energy  Wavelength   fosc         T2         TX        TY        TZ
        (cm-1)    (nm)                  (au**2)     (au)      (au)      (au)
-----------------------------------------------------------------------------
   0   11981.1    834.6   0.154420426   4.24311  -0.01519   2.00919  -0.45389
   1   16729.7    597.7   0.175147449   3.44659   0.31869   1.81965  -0.18414
   2   17376.6    575.5   0.000200675   0.00380   0.01118   0.04674  -0.03863
   3   18836.2    530.9   0.810232211  14.16092   0.11316  -3.70916   0.62469
   4   19537.2    511.8   0.000138962   0.00234   0.04310  -0.02181   0.00282
   5   19966.9    500.8   0.050888571   0.83904  -0.71785   0.19742  -0.53363
   6   22038.7    453.7   1.174850832  17.54977   0.01035   4.18582  -0.16898
   7   22682.4    440.9   0.195161077   2.83256  -0.61660  -1.46271  -0.55932
   8   23961.4    417.3   0.123219294   1.69294  -0.56877   0.84706  -0.80742
   9   25130.1    397.9   0.102723586   1.34571  -0.53747  -0.96737  -0.34789
  10   25453.9    392.9   0.044187670   0.57151  -0.44783   0.50237  -0.34435
  11   25782.3    387.9   0.001673536   0.02137   0.04888  -0.02453  -0.13557
  12   26212.8    381.5   0.009336033   0.11725  -0.00792  -0.00748   0.34225
  13   26773.4    373.5   0.001733884   0.02132   0.06844  -0.04045  -0.12248
  14   27005.0    370.3   0.018858765   0.22990   0.47798   0.02115   0.03148
  15   29104.9    343.6   0.053213218   0.60191  -0.01977  -0.74683   0.20918
  16   29401.0    340.1   0.148920078   1.66750  -0.77048   0.79435  -0.66548
  17   30072.4    332.5   0.220929729   2.41859   0.13720   1.53347  -0.21965
  18   30120.6    332.0   0.032543763   0.35570  -0.56864   0.11233  -0.14044
  19   30752.9    325.2   0.025395926   0.27187  -0.41273  -0.31843  -0.01110
  20   31210.3    320.4   0.110393691   1.16445  -0.70123   0.81280   0.10996
  21   31319.0    319.3   0.223425343   2.34855   0.78811   1.27037  -0.33703
  22   31522.0    317.2   0.066698892   0.69660  -0.81250   0.19006   0.01759
  23   32108.9    311.4   0.020878804   0.21407  -0.30971  -0.33701   0.06766
  24   32513.3    307.6   0.129026800   1.30646   0.88312   0.57786   0.43891
  25   33133.6    301.8   0.051872460   0.51540  -0.55194  -0.37618  -0.26315
  26   33646.4    297.2   0.027083185   0.26499  -0.31325   0.31770  -0.25678
  27   34262.9    291.9   0.065737682   0.63163  -0.29208   0.73631   0.06461
  28   34623.1    288.8   0.028413713   0.27017  -0.28642   0.41921   0.11134
  29   35124.8    284.7   0.557125098   5.22173   2.22662  -0.45640  -0.23579
  30   35297.1    283.3   0.010184425   0.09499   0.25976  -0.05619   0.15607
  31   35973.3    278.0   0.001611203   0.01475  -0.03874   0.03113   0.11079
  32   36121.0    276.8   0.006182136   0.05634  -0.10782  -0.21109   0.01266
  33   36272.1    275.7   0.005596659   0.05080   0.03087   0.13038  -0.18123
  34   36314.9    275.4   0.000044091   0.00040   0.00499  -0.01162   0.01548
  35   36647.9    272.9   0.210722311   1.89294   1.03286  -0.78444   0.45913
  36   36887.8    271.1   0.001566724   0.01398   0.04352  -0.03851  -0.10298
  37   37208.0    268.8   0.132277319   1.17037  -0.47322  -0.95139  -0.20318
  38   37452.6    267.0   0.148190538   1.30261  -0.41357  -1.06375  -0.00199
  39   37529.7    266.5   0.061999789   0.54386   0.60082   0.39972   0.15199
  40   38413.3    260.3   0.213381367   1.82873  -1.18380   0.37230  -0.53736
  41   38572.5    259.3   0.025493382   0.21758  -0.02313   0.40585  -0.22876
  42   38617.9    258.9   0.073794587   0.62909   0.13170  -0.75116   0.21796
  43   39074.0    255.9   0.370782738   3.12397  -0.22793  -1.72045   0.33479
  44   39275.7    254.6   0.143103788   1.19951  -0.71658  -0.82714  -0.04298
  45   39348.0    254.1   0.001622491   0.01357   0.07942   0.08524  -0.00079
  46   39457.3    253.4   0.269788453   2.25098   0.02249   1.46663  -0.31540
  47   39683.7    252.0   0.002035193   0.01688  -0.08656   0.08484  -0.04683
  48   40024.6    249.8   0.037305596   0.30685   0.47188  -0.28833   0.03226
  49   40048.5    249.7   0.077519638   0.63724   0.52913  -0.52267  -0.28996

FINAL SINGLE POINT ENERGY     -6585.777160179703

DIPOLE MOMENT
-------------
                                X             Y             Z
Electronic contribution:     64.69853      96.95292      -1.70598
Nuclear contribution   :    -62.55913     -97.33844       1.49475
                        -----------------------------------------
Total Dipole Moment    :      2.13940      -0.38553      -0.21123
                        -----------------------------------------
Magnitude (a.u.)       :      2.18409
Magnitude (Debye)      :      5.55152

Rotational constants in cm-1:     0.002163     0.000166     0.000156
Rotational constants in MHz :    64.855644     4.973977     4.691643

                             ****ORCA TERMINATED NORMALLY****
TOTAL RUN TIME: 0 days 0 hours 11 minutes 34 seconds 656 msec
