                         Program Version 4.2.0 -  RELEASE  -
|  1> # ORCA input file
|  2> # SCF done       -160.604135871884          0.000382822196
|  3> ! CAM-B3LYP def2-SVP def2/J RIJCOSX Grid4 TightSCF
|  4> %maxcore 5000
|  5> %tddft
|  6>     Mode sTDDFT
|  7>     Ethresh 5.0
|  8>     maxcore 5000
|  9> end
| 10>
| 11> %pal
| 12>   nprocs 6
| 13>   end
| 14> * xyz 0 1
| 15>    C       -0.82774        -2.15206        -5.56668
| 16>    S       -1.73005        -3.49351        -5.03842
| 17>    C       -1.32418        -3.21594        -3.37806
| 18>    C       -0.46676        -2.12178        -3.25566
| 19>    C       -0.20161        -1.49942        -4.52463
| 20>    C        0.62848        -0.35886        -4.58984
| 21>    C        1.19778         0.12191        -3.44006
| 22>    C        2.02857         1.26624        -3.48354
| 23>    N        2.70072         2.19225        -3.53976
| 24>    C        0.99112        -0.54437        -2.18673
| 25>    C        1.64818        -0.06217        -1.03157
| 26>    N        2.18034         0.30964        -0.08731
| 27>    C        0.18366        -1.65009        -2.10020
| 28>    C       -1.88604        -4.01396        -2.34320
| 29>    C       -2.28608        -3.65164        -1.08078
| 30>    C       -2.44573        -2.40328        -0.31810
| 31>    O       -2.20545        -1.26023        -0.62368
| 32>    N       -2.99458        -2.79911         0.89387
| 33>    C       -3.30335        -1.86884         1.95155
| 34>    C       -3.24500        -4.16448         0.98523
| 35>    O       -3.71954        -4.70400         1.95701
| 36>    C       -2.81688        -4.71523        -0.30568
| 37>    C       -2.84853        -5.92673        -0.96284
| 38>    S       -2.19427        -5.72718        -2.57858
| 39>    C       -3.32061        -7.18895        -0.52951
| 40>    C       -3.86641        -7.51481         0.69549
| 41>    C       -4.23255        -8.85980         0.80337
| 42>    C       -4.92423        -9.44707         1.96981
| 43>    C       -6.33266        -9.43286         1.88102
| 44>    C       -7.11305        -9.94531         2.90180
| 45>    C       -6.49436       -10.47712         4.02362
| 46>    C       -5.12532       -10.49610         4.12796
| 47>    C       -4.31846        -9.98137         3.10610
| 48>    O       -2.99000       -10.08868         3.36575
| 49>    C       -2.01384        -9.66166         2.44878
| 50>    O       -6.81817        -8.89281         0.72696
| 51>    C       -8.21259        -8.84133         0.54594
| 52>    C       -3.98953        -9.57576        -0.36003
| 53>    S       -3.26793        -8.57715        -1.58515
| 54>    C       -4.24132       -10.94396        -0.62517
| 55>    S       -4.95186       -12.02334         0.58597
| 56>    C       -4.91259       -13.45026        -0.47937
| 57>    C       -4.36926       -13.04162        -1.67351
| 58>    C       -4.00374       -11.68332        -1.74563
| 59>    C       -3.51185       -11.92605        -3.15294
| 60>    N       -4.02826       -13.30973        -3.00960
| 61>    C       -5.37613       -14.69346         0.00444
| 62>    S       -5.65595       -14.92304         1.69601
| 63>    C       -6.12415       -16.58003         1.49511
| 64>    C       -6.07302       -16.94224         0.14775
| 65>    C       -5.66168       -15.86510        -0.70943
| 66>    C       -5.62357       -16.04960        -2.10048
| 67>    C       -5.93616       -17.27795        -2.63292
| 68>    C       -5.89037       -17.46953        -4.03085
| 69>    N       -5.83475       -17.59980        -5.16870
| 70>    C       -6.30654       -18.36626        -1.77920
| 71>    C       -6.60680       -19.62326        -2.35080
| 72>    N       -6.85029       -20.65103        -2.79578
| 73>    C       -6.38152       -18.19426        -0.41936
| 74>    C       -6.50219       -17.39473         2.60771
| 75>    C       -6.54809       -16.97918         3.87447
| 76>    H       -0.79955        -1.89993        -6.60804
| 77>    H        0.81187         0.12136        -5.53915
| 78>    H        0.06798        -2.16148        -1.15919
| 79>    H       -2.39227        -1.37886         2.29736
| 80>    H       -3.75740        -2.43060         2.76572
| 81>    H       -3.99465        -1.10808         1.58746
| 82>    H       -3.99928        -6.79359         1.48256
| 83>    H       -8.18840        -9.93754         2.83992
| 84>    H       -7.09942       -10.87954         4.82138
| 85>    H       -4.63175       -10.90580         4.99374
| 86>    H       -2.08539       -10.20061         1.49984
| 87>    H       -1.05942        -9.89664         2.92015
| 88>    H       -2.06798        -8.58530         2.26566
| 89>    H       -8.36423        -8.37868        -0.42814
| 90>    H       -8.69523        -8.23056         1.31498
| 91>    H       -8.65387        -9.84297         0.54370
| 92>    H       -2.43148       -11.84838        -3.27847
| 93>    H       -4.02563       -11.37379        -3.93895
| 94>    H       -3.45686       -14.10206        -3.26941
| 95>    H       -5.37352       -15.22691        -2.75084
| 96>    H       -6.67884       -19.02080         0.20778
| 97>    H       -6.76532       -18.41601         2.36740
| 98>    H       -6.29367       -15.96754         4.14487
| 99>    H       -6.84201       -17.63718         4.67190
|100> *
|101>
|102>                          ****END OF INPUT****

CARTESIAN COORDINATES (ANGSTROEM)
---------------------------------
  C     -0.827740   -2.152060   -5.566680
  S     -1.730050   -3.493510   -5.038420
  C     -1.324180   -3.215940   -3.378060
  C     -0.466760   -2.121780   -3.255660
  C     -0.201610   -1.499420   -4.524630
  C      0.628480   -0.358860   -4.589840
  C      1.197780    0.121910   -3.440060
  C      2.028570    1.266240   -3.483540
  N      2.700720    2.192250   -3.539760
  C      0.991120   -0.544370   -2.186730
  C      1.648180   -0.062170   -1.031570
  N      2.180340    0.309640   -0.087310
  C      0.183660   -1.650090   -2.100200
  C     -1.886040   -4.013960   -2.343200
  C     -2.286080   -3.651640   -1.080780
  C     -2.445730   -2.403280   -0.318100
  O     -2.205450   -1.260230   -0.623680
  N     -2.994580   -2.799110    0.893870
  C     -3.303350   -1.868840    1.951550
  C     -3.245000   -4.164480    0.985230
  O     -3.719540   -4.704000    1.957010
  C     -2.816880   -4.715230   -0.305680
  C     -2.848530   -5.926730   -0.962840
  S     -2.194270   -5.727180   -2.578580
  C     -3.320610   -7.188950   -0.529510
  C     -3.866410   -7.514810    0.695490
  C     -4.232550   -8.859800    0.803370
  C     -4.924230   -9.447070    1.969810
  C     -6.332660   -9.432860    1.881020
  C     -7.113050   -9.945310    2.901800
  C     -6.494360  -10.477120    4.023620
  C     -5.125320  -10.496100    4.127960
  C     -4.318460   -9.981370    3.106100
  O     -2.990000  -10.088680    3.365750
  C     -2.013840   -9.661660    2.448780
  O     -6.818170   -8.892810    0.726960
  C     -8.212590   -8.841330    0.545940
  C     -3.989530   -9.575760   -0.360030
  S     -3.267930   -8.577150   -1.585150
  C     -4.241320  -10.943960   -0.625170
  S     -4.951860  -12.023340    0.585970
  C     -4.912590  -13.450260   -0.479370
  C     -4.369260  -13.041620   -1.673510
  C     -4.003740  -11.683320   -1.745630
  C     -3.511850  -11.926050   -3.152940
  N     -4.028260  -13.309730   -3.009600
  C     -5.376130  -14.693460    0.004440
  S     -5.655950  -14.923040    1.696010
  C     -6.124150  -16.580030    1.495110
  C     -6.073020  -16.942240    0.147750
  C     -5.661680  -15.865100   -0.709430
  C     -5.623570  -16.049600   -2.100480
  C     -5.936160  -17.277950   -2.632920
  C     -5.890370  -17.469530   -4.030850
  N     -5.834750  -17.599800   -5.168700
  C     -6.306540  -18.366260   -1.779200
  C     -6.606800  -19.623260   -2.350800
  N     -6.850290  -20.651030   -2.795780
  C     -6.381520  -18.194260   -0.419360
  C     -6.502190  -17.394730    2.607710
  C     -6.548090  -16.979180    3.874470
  H     -0.799550   -1.899930   -6.608040
  H      0.811870    0.121360   -5.539150
  H      0.067980   -2.161480   -1.159190
  H     -2.392270   -1.378860    2.297360
  H     -3.757400   -2.430600    2.765720
  H     -3.994650   -1.108080    1.587460
  H     -3.999280   -6.793590    1.482560
  H     -8.188400   -9.937540    2.839920
  H     -7.099420  -10.879540    4.821380
  H     -4.631750  -10.905800    4.993740
  H     -2.085390  -10.200610    1.499840
  H     -1.059420   -9.896640    2.920150
  H     -2.067980   -8.585300    2.265660
  H     -8.364230   -8.378680   -0.428140
  H     -8.695230   -8.230560    1.314980
  H     -8.653870   -9.842970    0.543700
  H     -2.431480  -11.848380   -3.278470
  H     -4.025630  -11.373790   -3.938950
  H     -3.456860  -14.102060   -3.269410
  H     -5.373520  -15.226910   -2.750840
  H     -6.678840  -19.020800    0.207780
  H     -6.765320  -18.416010    2.367400
  H     -6.293670  -15.967540    4.144870
  H     -6.842010  -17.637180    4.671900

 Total Charge           Charge          ....    0
 Multiplicity           Mult            ....    1
 Number of Electrons    NEL             ....  454
 Basis Dimension        Dim             ....  994

ORBITAL ENERGIES
----------------

  NO   OCC          E(Eh)            E(eV)
   0   2.0000     -89.002027     -2421.8683
   1   2.0000     -88.992199     -2421.6008
   2   2.0000     -88.982584     -2421.3392
   3   2.0000     -88.977191     -2421.1925
   4   2.0000     -88.965364     -2420.8706
   5   2.0000     -19.251091      -523.8488
   6   2.0000     -19.245774      -523.7041
   7   2.0000     -19.222516      -523.0712
   8   2.0000     -19.220821      -523.0251
   9   2.0000     -14.466753      -393.6604
  10   2.0000     -14.444267      -393.0485
  11   2.0000     -14.409462      -392.1014
  12   2.0000     -14.407207      -392.0400
  13   2.0000     -14.405840      -392.0028
  14   2.0000     -14.404848      -391.9758
  15   2.0000     -10.405925      -283.1596
  16   2.0000     -10.403794      -283.1016
  17   2.0000     -10.351471      -281.6778
  18   2.0000     -10.350750      -281.6582
  19   2.0000     -10.340483      -281.3788
  20   2.0000     -10.339373      -281.3486
  21   2.0000     -10.339110      -281.3415
  22   2.0000     -10.336526      -281.2712
  23   2.0000     -10.333468      -281.1880
  24   2.0000     -10.331958      -281.1469
  25   2.0000     -10.330873      -281.1173
  26   2.0000     -10.330844      -281.1165
  27   2.0000     -10.329159      -281.0707
  28   2.0000     -10.327608      -281.0285
  29   2.0000     -10.326506      -280.9985
  30   2.0000     -10.325564      -280.9729
  31   2.0000     -10.325495      -280.9710
  32   2.0000     -10.325182      -280.9625
  33   2.0000     -10.324147      -280.9343
  34   2.0000     -10.319551      -280.8093
  35   2.0000     -10.318414      -280.7783
  36   2.0000     -10.317482      -280.7530
  37   2.0000     -10.317026      -280.7405
  38   2.0000     -10.315074      -280.6874
  39   2.0000     -10.314637      -280.6755
  40   2.0000     -10.314063      -280.6599
  41   2.0000     -10.311230      -280.5828
  42   2.0000     -10.309819      -280.5445
  43   2.0000     -10.309771      -280.5431
  44   2.0000     -10.308778      -280.5161
  45   2.0000     -10.307859      -280.4911
  46   2.0000     -10.305837      -280.4361
  47   2.0000     -10.305250      -280.4201
  48   2.0000     -10.304522      -280.4003
  49   2.0000     -10.304122      -280.3894
  50   2.0000     -10.304028      -280.3869
  51   2.0000     -10.303088      -280.3613
  52   2.0000     -10.298306      -280.2311
  53   2.0000     -10.294889      -280.1382
  54   2.0000     -10.289921      -280.0030
  55   2.0000     -10.287825      -279.9459
  56   2.0000     -10.282142      -279.7913
  57   2.0000     -10.278631      -279.6958
  58   2.0000     -10.277349      -279.6609
  59   2.0000     -10.264557      -279.3128
  60   2.0000     -10.259769      -279.1825
  61   2.0000      -8.097347      -220.3400
  62   2.0000      -8.087704      -220.0776
  63   2.0000      -8.077703      -219.8055
  64   2.0000      -8.072709      -219.6696
  65   2.0000      -8.058565      -219.2847
  66   2.0000      -6.066202      -165.0698
  67   2.0000      -6.061839      -164.9510
  68   2.0000      -6.060606      -164.9175
  69   2.0000      -6.057224      -164.8254
  70   2.0000      -6.052867      -164.7069
  71   2.0000      -6.049472      -164.6145
  72   2.0000      -6.046671      -164.5383
  73   2.0000      -6.042501      -164.4248
  74   2.0000      -6.042111      -164.4142
  75   2.0000      -6.040536      -164.3713
  76   2.0000      -6.038051      -164.3037
  77   2.0000      -6.034541      -164.2082
  78   2.0000      -6.028594      -164.0464
  79   2.0000      -6.024183      -163.9264
  80   2.0000      -6.019724      -163.8050
  81   2.0000      -1.168413       -31.7941
  82   2.0000      -1.155118       -31.4324
  83   2.0000      -1.149819       -31.2882
  84   2.0000      -1.144470       -31.1426
  85   2.0000      -1.081298       -29.4236
  86   2.0000      -1.060057       -28.8456
  87   2.0000      -1.034780       -28.1578
  88   2.0000      -1.021094       -27.7854
  89   2.0000      -1.019205       -27.7340
  90   2.0000      -1.005280       -27.3551
  91   2.0000      -0.999493       -27.1976
  92   2.0000      -0.997719       -27.1493
  93   2.0000      -0.988732       -26.9048
  94   2.0000      -0.986041       -26.8316
  95   2.0000      -0.970243       -26.4017
  96   2.0000      -0.963328       -26.2135
  97   2.0000      -0.955862       -26.0103
  98   2.0000      -0.950265       -25.8580
  99   2.0000      -0.918492       -24.9934
 100   2.0000      -0.911086       -24.7919
 101   2.0000      -0.905895       -24.6506
 102   2.0000      -0.890962       -24.2443
 103   2.0000      -0.879872       -23.9425
 104   2.0000      -0.877821       -23.8867
 105   2.0000      -0.877652       -23.8821
 106   2.0000      -0.871314       -23.7096
 107   2.0000      -0.862651       -23.4739
 108   2.0000      -0.849705       -23.1216
 109   2.0000      -0.841863       -22.9082
 110   2.0000      -0.830521       -22.5996
 111   2.0000      -0.823168       -22.3995
 112   2.0000      -0.814500       -22.1637
 113   2.0000      -0.808548       -22.0017
 114   2.0000      -0.796162       -21.6647
 115   2.0000      -0.786718       -21.4077
 116   2.0000      -0.777012       -21.1436
 117   2.0000      -0.775140       -21.0926
 118   2.0000      -0.763967       -20.7886
 119   2.0000      -0.762916       -20.7600
 120   2.0000      -0.755971       -20.5710
 121   2.0000      -0.746094       -20.3023
 122   2.0000      -0.733103       -19.9487
 123   2.0000      -0.729274       -19.8445
 124   2.0000      -0.721826       -19.6419
 125   2.0000      -0.704065       -19.1586
 126   2.0000      -0.696227       -18.9453
 127   2.0000      -0.690742       -18.7960
 128   2.0000      -0.684973       -18.6391
 129   2.0000      -0.678732       -18.4692
 130   2.0000      -0.677139       -18.4259
 131   2.0000      -0.670321       -18.2404
 132   2.0000      -0.657252       -17.8847
 133   2.0000      -0.640950       -17.4411
 134   2.0000      -0.634851       -17.2752
 135   2.0000      -0.632203       -17.2031
 136   2.0000      -0.624391       -16.9905
 137   2.0000      -0.616611       -16.7788
 138   2.0000      -0.614429       -16.7195
 139   2.0000      -0.607652       -16.5350
 140   2.0000      -0.607184       -16.5223
 141   2.0000      -0.596902       -16.2425
 142   2.0000      -0.595613       -16.2075
 143   2.0000      -0.590105       -16.0576
 144   2.0000      -0.582102       -15.8398
 145   2.0000      -0.579906       -15.7800
 146   2.0000      -0.573561       -15.6074
 147   2.0000      -0.570869       -15.5341
 148   2.0000      -0.567010       -15.4291
 149   2.0000      -0.562059       -15.2944
 150   2.0000      -0.560197       -15.2437
 151   2.0000      -0.556032       -15.1304
 152   2.0000      -0.554535       -15.0897
 153   2.0000      -0.551915       -15.0184
 154   2.0000      -0.551181       -14.9984
 155   2.0000      -0.546550       -14.8724
 156   2.0000      -0.543012       -14.7761
 157   2.0000      -0.537771       -14.6335
 158   2.0000      -0.535691       -14.5769
 159   2.0000      -0.530089       -14.4245
 160   2.0000      -0.528280       -14.3752
 161   2.0000      -0.528089       -14.3700
 162   2.0000      -0.525798       -14.3077
 163   2.0000      -0.523267       -14.2388
 164   2.0000      -0.522436       -14.2162
 165   2.0000      -0.518233       -14.1018
 166   2.0000      -0.514710       -14.0060
 167   2.0000      -0.508377       -13.8336
 168   2.0000      -0.503119       -13.6906
 169   2.0000      -0.497850       -13.5472
 170   2.0000      -0.496864       -13.5204
 171   2.0000      -0.495550       -13.4846
 172   2.0000      -0.492407       -13.3991
 173   2.0000      -0.490093       -13.3361
 174   2.0000      -0.488472       -13.2920
 175   2.0000      -0.486819       -13.2470
 176   2.0000      -0.483065       -13.1449
 177   2.0000      -0.478271       -13.0144
 178   2.0000      -0.475976       -12.9520
 179   2.0000      -0.474943       -12.9239
 180   2.0000      -0.472900       -12.8683
 181   2.0000      -0.468134       -12.7386
 182   2.0000      -0.463085       -12.6012
 183   2.0000      -0.460327       -12.5261
 184   2.0000      -0.457491       -12.4490
 185   2.0000      -0.455597       -12.3974
 186   2.0000      -0.454174       -12.3587
 187   2.0000      -0.446234       -12.1426
 188   2.0000      -0.443810       -12.0767
 189   2.0000      -0.441657       -12.0181
 190   2.0000      -0.438682       -11.9371
 191   2.0000      -0.437235       -11.8978
 192   2.0000      -0.436631       -11.8813
 193   2.0000      -0.434848       -11.8328
 194   2.0000      -0.433322       -11.7913
 195   2.0000      -0.432756       -11.7759
 196   2.0000      -0.428321       -11.6552
 197   2.0000      -0.426082       -11.5943
 198   2.0000      -0.420350       -11.4383
 199   2.0000      -0.415982       -11.3194
 200   2.0000      -0.413515       -11.2523
 201   2.0000      -0.412571       -11.2266
 202   2.0000      -0.410217       -11.1626
 203   2.0000      -0.409660       -11.1474
 204   2.0000      -0.407860       -11.0984
 205   2.0000      -0.407676       -11.0934
 206   2.0000      -0.407187       -11.0801
 207   2.0000      -0.405066       -11.0224
 208   2.0000      -0.397371       -10.8130
 209   2.0000      -0.391745       -10.6599
 210   2.0000      -0.381840       -10.3904
 211   2.0000      -0.374575       -10.1927
 212   2.0000      -0.366417        -9.9707
 213   2.0000      -0.365960        -9.9583
 214   2.0000      -0.353566        -9.6210
 215   2.0000      -0.352815        -9.6006
 216   2.0000      -0.346714        -9.4346
 217   2.0000      -0.337005        -9.1704
 218   2.0000      -0.336352        -9.1526
 219   2.0000      -0.333060        -9.0630
 220   2.0000      -0.329340        -8.9618
 221   2.0000      -0.305243        -8.3061
 222   2.0000      -0.303285        -8.2528
 223   2.0000      -0.299458        -8.1487
 224   2.0000      -0.282019        -7.6741
 225   2.0000      -0.272845        -7.4245
 226   2.0000      -0.238482        -6.4894
 227   0.0000      -0.089867        -2.4454
 228   0.0000      -0.078288        -2.1303
 229   0.0000      -0.058696        -1.5972
 230   0.0000      -0.037326        -1.0157
 231   0.0000      -0.023012        -0.6262

MULLIKEN ATOMIC CHARGES
-----------------------
   0 C :   -0.117654
   1 S :    0.202634
   2 C :   -0.169253
   3 C :    0.168370
   4 C :    0.096434
   5 C :   -0.020262
   6 C :   -0.067188
   7 C :   -0.175851
   8 N :    0.170730
   9 C :   -0.080983
  10 C :   -0.176895
  11 N :    0.170820
  12 C :    0.009804
  13 C :   -0.173518
  14 C :    0.037225
  15 C :    0.163819
  16 O :   -0.160782
  17 N :   -0.304051
  18 C :    0.137260
  19 C :    0.197100
  20 O :   -0.167337
  21 C :   -0.043759
  22 C :   -0.066170
  23 S :    0.161114
  24 C :   -0.058047
  25 C :   -0.032287
  26 C :    0.021571
  27 C :   -0.193675
  28 C :    0.265574
  29 C :   -0.128060
  30 C :    0.059953
  31 C :   -0.044256
  32 C :    0.227437
  33 O :   -0.305748
  34 C :    0.229158
  35 O :   -0.308156
  36 C :    0.185064
  37 C :   -0.045877
  38 S :    0.120552
  39 C :   -0.152494
  40 S :    0.117968
  41 C :   -0.253625
  42 C :    0.163337
  43 C :   -0.094936
  44 C :    0.251399
  45 N :   -0.193870
  46 C :   -0.064459
  47 S :    0.179409
  48 C :   -0.122928
  49 C :    0.127652
  50 C :    0.096065
  51 C :   -0.073098
  52 C :   -0.073890
  53 C :   -0.178521
  54 N :    0.165420
  55 C :   -0.068848
  56 C :   -0.180750
  57 N :    0.169304
  58 C :   -0.051659
  59 C :   -0.000611
  60 C :   -0.024095
  61 H :    0.035040
  62 H :   -0.005214
  63 H :   -0.008727
  64 H :    0.044962
  65 H :    0.054276
  66 H :    0.042533
  67 H :    0.005791
  68 H :   -0.035069
  69 H :   -0.011966
  70 H :   -0.025184
  71 H :    0.014940
  72 H :    0.030949
  73 H :    0.016861
  74 H :    0.035336
  75 H :    0.025095
  76 H :    0.025125
  77 H :    0.037240
  78 H :    0.036179
  79 H :    0.137800
  80 H :   -0.021841
  81 H :   -0.008315
  82 H :   -0.002610
  83 H :    0.023877
  84 H :    0.031336
Sum of atomic charges:   -0.0000000

LOEWDIN ATOMIC CHARGES
----------------------
   0 C :   -0.177507
   1 S :    0.515320
   2 C :   -0.202799
   3 C :   -0.032707
   4 C :   -0.048767
   5 C :    0.032515
   6 C :   -0.051592
   7 C :   -0.031440
   8 N :   -0.035369
   9 C :   -0.052074
  10 C :   -0.029647
  11 N :   -0.038023
  12 C :    0.050206
  13 C :   -0.158972
  14 C :   -0.092843
  15 C :    0.083132
  16 O :   -0.156414
  17 N :   -0.033899
  18 C :    0.037596
  19 C :    0.094066
  20 O :   -0.161480
  21 C :   -0.102360
  22 C :   -0.135376
  23 S :    0.435911
  24 C :   -0.199052
  25 C :   -0.013386
  26 C :   -0.044000
  27 C :   -0.124858
  28 C :    0.072004
  29 C :   -0.100669
  30 C :    0.002592
  31 C :   -0.064644
  32 C :    0.072982
  33 O :   -0.097475
  34 C :    0.076647
  35 O :   -0.098445
  36 C :    0.078031
  37 C :   -0.168023
  38 S :    0.423704
  39 C :   -0.169649
  40 S :    0.429514
  41 C :   -0.229954
  42 C :   -0.004275
  43 C :   -0.088253
  44 C :    0.075008
  45 N :   -0.058948
  46 C :   -0.173700
  47 S :    0.496736
  48 C :   -0.179520
  49 C :   -0.043081
  50 C :   -0.054563
  51 C :    0.030297
  52 C :   -0.064709
  53 C :   -0.033281
  54 N :   -0.046363
  55 C :   -0.056257
  56 C :   -0.032301
  57 N :   -0.040570
  58 C :    0.031741
  59 C :   -0.041145
  60 C :   -0.044216
  61 H :    0.031803
  62 H :    0.044955
  63 H :    0.041380
  64 H :    0.035156
  65 H :    0.038330
  66 H :    0.034687
  67 H :    0.036566
  68 H :    0.026559
  69 H :    0.031601
  70 H :    0.030861
  71 H :    0.016052
  72 H :    0.026889
  73 H :    0.018060
  74 H :    0.028637
  75 H :    0.016091
  76 H :    0.016377
  77 H :    0.031433
  78 H :    0.033797
  79 H :    0.071663
  80 H :    0.038639
  81 H :    0.041278
  82 H :    0.035792
  83 H :    0.018203
  84 H :    0.029796

  Mayer bond orders larger than 0.100000
B(  0-C ,  1-S ) :   1.2152 B(  0-C ,  2-C ) :   0.1172 B(  0-C ,  4-C ) :   1.4031
B(  0-C , 61-H ) :   0.9711 B(  1-S ,  2-C ) :   1.1901 B(  2-C ,  3-C ) :   1.3694
B(  2-C , 13-C ) :   1.1096 B(  3-C ,  4-C ) :   1.1963 B(  3-C , 12-C ) :   1.1905
B(  4-C ,  5-C ) :   1.1495 B(  5-C ,  6-C ) :   1.5841 B(  5-C , 62-H ) :   1.0064
B(  6-C ,  7-C ) :   1.0799 B(  6-C ,  9-C ) :   1.2174 B(  7-C ,  8-N ) :   3.0469
B(  9-C , 10-C ) :   1.0833 B(  9-C , 12-C ) :   1.5937 B( 10-C , 11-N ) :   3.0440
B( 12-C , 63-H ) :   0.9839 B( 13-C , 14-C ) :   1.5684 B( 13-C , 23-S ) :   1.1159
B( 14-C , 15-C ) :   0.8866 B( 14-C , 21-C ) :   1.2314 B( 15-C , 16-O ) :   2.1869
B( 15-C , 17-N ) :   1.0774 B( 17-N , 18-C ) :   0.9369 B( 17-N , 19-C ) :   1.0841
B( 18-C , 64-H ) :   0.9767 B( 18-C , 65-H ) :   0.9604 B( 18-C , 66-H ) :   0.9737
B( 19-C , 20-O ) :   2.1150 B( 19-C , 21-C ) :   0.9091 B( 21-C , 22-C ) :   1.5609
B( 22-C , 23-S ) :   1.1142 B( 22-C , 24-C ) :   1.1456 B( 24-C , 25-C ) :   1.4831
B( 24-C , 37-C ) :   0.1050 B( 24-C , 38-S ) :   1.0890 B( 25-C , 26-C ) :   1.2837
B( 25-C , 67-H ) :   0.9846 B( 26-C , 27-C ) :   0.9126 B( 26-C , 37-C ) :   1.5020
B( 27-C , 28-C ) :   1.3406 B( 27-C , 32-C ) :   1.3801 B( 28-C , 29-C ) :   1.3489
B( 28-C , 35-O ) :   1.1940 B( 29-C , 30-C ) :   1.2973 B( 29-C , 68-H ) :   1.0062
B( 30-C , 31-C ) :   1.4109 B( 30-C , 69-H ) :   0.9923 B( 31-C , 32-C ) :   1.3253
B( 31-C , 70-H ) :   0.9941 B( 32-C , 33-O ) :   1.1919 B( 33-O , 34-C ) :   0.9485
B( 34-C , 71-H ) :   0.9641 B( 34-C , 72-H ) :   0.9738 B( 34-C , 73-H ) :   0.9637
B( 35-O , 36-C ) :   0.9599 B( 36-C , 74-H ) :   0.9793 B( 36-C , 75-H ) :   0.9693
B( 36-C , 76-H ) :   0.9687 B( 37-C , 38-S ) :   1.1218 B( 37-C , 39-C ) :   1.1764
B( 39-C , 40-S ) :   1.0995 B( 39-C , 41-C ) :   0.1032 B( 39-C , 43-C ) :   1.5324
B( 40-S , 41-C ) :   1.0495 B( 41-C , 42-C ) :   1.5218 B( 41-C , 46-C ) :   1.1686
B( 42-C , 43-C ) :   1.2395 B( 42-C , 45-N ) :   1.0992 B( 43-C , 44-C ) :   1.0219
B( 44-C , 45-N ) :   1.0293 B( 44-C , 77-H ) :   0.9281 B( 44-C , 78-H ) :   0.9176
B( 45-N , 79-H ) :   0.9153 B( 46-C , 47-S ) :   1.1868 B( 46-C , 48-C ) :   0.1088
B( 46-C , 50-C ) :   1.3631 B( 47-S , 48-C ) :   1.1186 B( 48-C , 49-C ) :   1.3631
B( 48-C , 59-C ) :   1.1429 B( 49-C , 50-C ) :   1.1792 B( 49-C , 58-C ) :   1.1760
B( 50-C , 51-C ) :   1.2047 B( 51-C , 52-C ) :   1.5560 B( 51-C , 80-H ) :   0.9864
B( 52-C , 53-C ) :   1.0794 B( 52-C , 55-C ) :   1.2267 B( 53-C , 54-N ) :   3.0422
B( 55-C , 56-C ) :   1.0780 B( 55-C , 58-C ) :   1.5855 B( 56-C , 57-N ) :   3.0443
B( 58-C , 81-H ) :   0.9955 B( 59-C , 60-C ) :   1.9066 B( 59-C , 82-H ) :   0.9581
B( 60-C , 83-H ) :   0.9579 B( 60-C , 84-H ) :   0.9479

-----------------------------------------------------------------------------
         ABSORPTION SPECTRUM VIA TRANSITION ELECTRIC DIPOLE MOMENTS
-----------------------------------------------------------------------------
State   Energy  Wavelength   fosc         T2         TX        TY        TZ
        (cm-1)    (nm)                  (au**2)     (au)      (au)      (au)
-----------------------------------------------------------------------------
   0   17803.3    561.7   1.418001859  26.22109   1.63378   4.70487  -1.18998
   1   21784.5    459.0   0.111359435   1.68289   0.64978   1.04183  -0.41864
   2   24252.2    412.3   0.150472102   2.04258  -0.20466   0.88384   1.10432
   3   25576.9    391.0   0.163609004   2.10588  -0.43850  -1.38294  -0.03292
   4   25918.1    385.8   0.174899086   2.22157  -0.61168  -1.28338   0.44762
   5   28374.0    352.4   0.121141581   1.40556   0.48228  -0.05570  -1.08160
   6   28913.8    345.9   0.012920636   0.14711  -0.12925   0.19765   0.30223
   7   29749.6    336.1   0.047623477   0.52701  -0.10634   0.35669   0.62327
   8   30637.3    326.4   0.015510745   0.16667   0.37400   0.13229   0.09642
   9   30861.6    324.0   0.115778513   1.23505  -0.07903   0.53653   0.97002
  10   31264.7    319.8   0.035810325   0.37708   0.26664   0.53301  -0.14792
  11   32125.5    311.3   0.007376149   0.07559  -0.07410  -0.14807  -0.21948
  12   32383.3    308.8   0.032094796   0.32628   0.05232   0.08370   0.56262
  13   33128.0    301.9   0.027403129   0.27232   0.07950  -0.07782  -0.50985
  14   34300.9    291.5   0.013911994   0.13352  -0.10522  -0.32474   0.13038
  15   34510.8    289.8   0.001923015   0.01834  -0.01578  -0.10517   0.08388
  16   35010.5    285.6   0.116847190   1.09874   0.27439   0.94148  -0.37023
  17   35669.5    280.4   0.021733951   0.20059   0.10452   0.29714  -0.31840
  18   35840.3    279.0   0.008541327   0.07846  -0.09451  -0.20341  -0.16777
  19   36084.2    277.1   0.007584618   0.06920  -0.01694   0.18552   0.18572
  20   36442.4    274.4   0.013763575   0.12434   0.12777   0.12886   0.30234
  21   36577.4    273.4   0.068581587   0.61726  -0.27636  -0.72622   0.11613
  22   36951.3    270.6   0.070165114   0.62513   0.63598   0.46837   0.03576
  23   38011.0    263.1   0.069266699   0.59992   0.03367   0.27488   0.72334
  24   38117.6    262.3   0.050681405   0.43772   0.01821  -0.06397  -0.65825
  25   38501.1    259.7   0.025580791   0.21873   0.37593   0.17182   0.21883
  26   38761.5    258.0   0.510889518   4.33912  -0.19027   0.75101   1.93362
  27   39173.9    255.3   0.036556320   0.30721  -0.35198  -0.38264  -0.19212
  28   39539.6    252.9   0.144554998   1.20358  -0.30185  -0.76412  -0.72704
  29   39906.0    250.6   0.069492311   0.57329   0.52877   0.51162  -0.17872
  30   40303.2    248.1   0.123284719   1.00704   0.75421   0.49119   0.44377

FINAL SINGLE POINT ENERGY     -4383.978082376922

DIPOLE MOMENT
-------------
                                X             Y             Z
Electronic contribution:     18.16756      14.18932     -29.02219
Nuclear contribution   :    -19.58034     -14.24604      29.46631
                        -----------------------------------------
Total Dipole Moment    :     -1.41277      -0.05672       0.44412
                        -----------------------------------------
Magnitude (a.u.)       :      1.48202
Magnitude (Debye)      :      3.76700

Rotational constants in cm-1:     0.002627     0.000442     0.000397
Rotational constants in MHz :    78.755227    13.262362    11.908923

                             ****ORCA TERMINATED NORMALLY****
TOTAL RUN TIME: 0 days 0 hours 7 minutes 48 seconds 987 msec
