                         Program Version 4.2.0 -  RELEASE  -
|  1> # ORCA input file
|  2> # SCF done       -167.076713316388          0.000535690399
|  3> ! CAM-B3LYP def2-SVP def2/J RIJCOSX Grid4 TightSCF
|  4> %maxcore 5000
|  5> %tddft
|  6>     Mode sTDDFT
|  7>     Ethresh 5.0
|  8>     maxcore 5000
|  9> end
| 10>
| 11> %pal
| 12>   nprocs 6
| 13>   end
| 14> * xyz 0 1
| 15>    C       -1.59200         0.27823        -5.18252
| 16>    S       -1.73266        -0.54640        -3.69994
| 17>    C       -2.38061        -1.96901        -4.45241
| 18>    C       -2.51351        -1.76936        -5.83023
| 19>    C       -2.03875        -0.47811        -6.24545
| 20>    C       -2.07084        -0.12168        -7.61165
| 21>    C       -2.58549        -1.00713        -8.52198
| 22>    C       -2.61307        -0.67303        -9.89624
| 23>    N       -2.62724        -0.37977       -11.00388
| 24>    C       -3.13341        -2.26172        -8.09470
| 25>    C       -3.72621        -3.11683        -9.05092
| 26>    N       -4.22244        -3.81372        -9.81342
| 27>    C       -3.10881        -2.62761        -6.77206
| 28>    C       -2.58199        -3.19848        -3.76512
| 29>    N       -2.99051        -3.34064        -2.45880
| 30>    C       -3.45409        -2.30089        -1.57357
| 31>    C       -4.77152        -1.69228        -2.04471
| 32>    C       -3.05494        -4.69703        -2.07796
| 33>    O       -3.40472        -5.05872        -0.97000
| 34>    C       -2.61631        -5.41795        -3.24414
| 35>    C       -2.34162        -4.46939        -4.26842
| 36>    C       -1.78690        -5.18187        -5.40002
| 37>    O       -1.36441        -4.80445        -6.47497
| 38>    N       -1.81274        -6.52872        -5.00342
| 39>    C       -1.30768        -7.56765        -5.86766
| 40>    C        0.10285        -7.99941        -5.47400
| 41>    C       -2.29095        -6.68556        -3.72041
| 42>    C       -2.40966        -7.94077        -3.07696
| 43>    C       -2.85694        -8.07402        -1.80154
| 44>    C       -2.96269        -9.32361        -1.14421
| 45>    O       -2.63172       -10.48530        -1.76559
| 46>    C       -2.80633       -11.48038        -0.88659
| 47>    C       -3.25220       -11.01279         0.31086
| 48>    C       -3.34851        -9.60859         0.15982
| 49>    S       -3.96690        -8.46570         1.33212
| 50>    C       -3.03696        -8.90416         2.74627
| 51>    C       -1.70572        -9.34978         2.69264
| 52>    C       -0.99503        -9.67443         3.89656
| 53>    N        0.30892       -10.01049         3.82028
| 54>    C        0.88459       -10.05270         2.65262
| 55>    C        0.17265        -9.77035         1.46816
| 56>    N       -1.08262        -9.42900         1.49912
| 57>    C       -1.61188        -9.56225         5.16625
| 58>    C       -2.90589        -8.98785         5.20113
| 59>    C       -3.62112        -8.68118         4.00349
| 60>    N       -4.86899        -8.17661         4.06471
| 61>    C       -5.38335        -7.94577         5.23881
| 62>    C       -4.67145        -8.22130         6.42636
| 63>    N       -3.47571        -8.73917         6.39503
| 64>    C       -0.97207        -9.90774         6.39572
| 65>    S       -1.38878        -9.03526         7.82817
| 66>    C       -0.19250        -9.83180         8.78441
| 67>    C        0.44004       -10.83865         8.04807
| 68>    C       -0.00756       -10.88465         6.68245
| 69>    C        0.45282       -11.91328         5.84362
| 70>    C        1.37259       -12.82242         6.30879
| 71>    C        1.83981       -13.84280         5.45125
| 72>    N        2.20841       -14.65663         4.73283
| 73>    C        1.83670       -12.76171         7.65893
| 74>    C        2.76438       -13.72120         8.12244
| 75>    N        3.52129       -14.48557         8.51835
| 76>    C        1.35685       -11.79907         8.51380
| 77>    C       -0.01555        -9.40681        10.14473
| 78>    C        1.09695        -9.50551        10.87210
| 79>    H       -1.18730         1.27034        -5.20486
| 80>    H       -1.69383         0.83930        -7.92792
| 81>    H       -3.55914        -3.55444        -6.45834
| 82>    H       -2.68694        -1.52767        -1.46940
| 83>    H       -3.59533        -2.78758        -0.60393
| 84>    H       -4.65696        -1.21305        -3.01469
| 85>    H       -5.10866        -0.94862        -1.32832
| 86>    H       -5.53119        -2.46584        -2.12773
| 87>    H       -1.29203        -7.14136        -6.87478
| 88>    H       -1.99391        -8.41898        -5.85572
| 89>    H        0.77826        -7.14901        -5.52730
| 90>    H        0.45649        -8.76675        -6.15703
| 91>    H        0.12206        -8.39447        -4.46064
| 92>    H       -2.13446        -8.82683        -3.63032
| 93>    H       -3.13987        -7.20673        -1.22058
| 94>    H       -2.59244       -12.47574        -1.22427
| 95>    H       -3.47942       -11.58113         1.18903
| 96>    H        1.93328       -10.31558         2.63868
| 97>    H        0.64043        -9.81763         0.49465
| 98>    H       -6.38541        -7.54144         5.26189
| 99>    H       -5.09324        -8.02725         7.40255
|100>    H        0.07803       -12.00741         4.83846
|101>    H        1.65897       -11.80653         9.54873
|102>    H       -0.87901        -8.90894        10.56888
|103>    H        2.01247        -9.91652        10.48539
|104>    H        1.12852        -9.13825        11.88277
|105> *
|106>
|107>                          ****END OF INPUT****

CARTESIAN COORDINATES (ANGSTROEM)
---------------------------------
  C     -1.592000    0.278230   -5.182520
  S     -1.732660   -0.546400   -3.699940
  C     -2.380610   -1.969010   -4.452410
  C     -2.513510   -1.769360   -5.830230
  C     -2.038750   -0.478110   -6.245450
  C     -2.070840   -0.121680   -7.611650
  C     -2.585490   -1.007130   -8.521980
  C     -2.613070   -0.673030   -9.896240
  N     -2.627240   -0.379770  -11.003880
  C     -3.133410   -2.261720   -8.094700
  C     -3.726210   -3.116830   -9.050920
  N     -4.222440   -3.813720   -9.813420
  C     -3.108810   -2.627610   -6.772060
  C     -2.581990   -3.198480   -3.765120
  N     -2.990510   -3.340640   -2.458800
  C     -3.454090   -2.300890   -1.573570
  C     -4.771520   -1.692280   -2.044710
  C     -3.054940   -4.697030   -2.077960
  O     -3.404720   -5.058720   -0.970000
  C     -2.616310   -5.417950   -3.244140
  C     -2.341620   -4.469390   -4.268420
  C     -1.786900   -5.181870   -5.400020
  O     -1.364410   -4.804450   -6.474970
  N     -1.812740   -6.528720   -5.003420
  C     -1.307680   -7.567650   -5.867660
  C      0.102850   -7.999410   -5.474000
  C     -2.290950   -6.685560   -3.720410
  C     -2.409660   -7.940770   -3.076960
  C     -2.856940   -8.074020   -1.801540
  C     -2.962690   -9.323610   -1.144210
  O     -2.631720  -10.485300   -1.765590
  C     -2.806330  -11.480380   -0.886590
  C     -3.252200  -11.012790    0.310860
  C     -3.348510   -9.608590    0.159820
  S     -3.966900   -8.465700    1.332120
  C     -3.036960   -8.904160    2.746270
  C     -1.705720   -9.349780    2.692640
  C     -0.995030   -9.674430    3.896560
  N      0.308920  -10.010490    3.820280
  C      0.884590  -10.052700    2.652620
  C      0.172650   -9.770350    1.468160
  N     -1.082620   -9.429000    1.499120
  C     -1.611880   -9.562250    5.166250
  C     -2.905890   -8.987850    5.201130
  C     -3.621120   -8.681180    4.003490
  N     -4.868990   -8.176610    4.064710
  C     -5.383350   -7.945770    5.238810
  C     -4.671450   -8.221300    6.426360
  N     -3.475710   -8.739170    6.395030
  C     -0.972070   -9.907740    6.395720
  S     -1.388780   -9.035260    7.828170
  C     -0.192500   -9.831800    8.784410
  C      0.440040  -10.838650    8.048070
  C     -0.007560  -10.884650    6.682450
  C      0.452820  -11.913280    5.843620
  C      1.372590  -12.822420    6.308790
  C      1.839810  -13.842800    5.451250
  N      2.208410  -14.656630    4.732830
  C      1.836700  -12.761710    7.658930
  C      2.764380  -13.721200    8.122440
  N      3.521290  -14.485570    8.518350
  C      1.356850  -11.799070    8.513800
  C     -0.015550   -9.406810   10.144730
  C      1.096950   -9.505510   10.872100
  H     -1.187300    1.270340   -5.204860
  H     -1.693830    0.839300   -7.927920
  H     -3.559140   -3.554440   -6.458340
  H     -2.686940   -1.527670   -1.469400
  H     -3.595330   -2.787580   -0.603930
  H     -4.656960   -1.213050   -3.014690
  H     -5.108660   -0.948620   -1.328320
  H     -5.531190   -2.465840   -2.127730
  H     -1.292030   -7.141360   -6.874780
  H     -1.993910   -8.418980   -5.855720
  H      0.778260   -7.149010   -5.527300
  H      0.456490   -8.766750   -6.157030
  H      0.122060   -8.394470   -4.460640
  H     -2.134460   -8.826830   -3.630320
  H     -3.139870   -7.206730   -1.220580
  H     -2.592440  -12.475740   -1.224270
  H     -3.479420  -11.581130    1.189030
  H      1.933280  -10.315580    2.638680
  H      0.640430   -9.817630    0.494650
  H     -6.385410   -7.541440    5.261890
  H     -5.093240   -8.027250    7.402550
  H      0.078030  -12.007410    4.838460
  H      1.658970  -11.806530    9.548730
  H     -0.879010   -8.908940   10.568880
  H      2.012470   -9.916520   10.485390
  H      1.128520   -9.138250   11.882770

 Total Charge           Charge          ....    0
 Multiplicity           Mult            ....    1
 Number of Electrons    NEL             ....  456
 Basis Dimension        Dim             .... 1038

ORBITAL ENERGIES
----------------

  NO   OCC          E(Eh)            E(eV)
   0   2.0000     -88.994698     -2421.6688
   1   2.0000     -88.981689     -2421.3149
   2   2.0000     -88.954899     -2420.5859
   3   2.0000     -19.301280      -525.2145
   4   2.0000     -19.193441      -522.2801
   5   2.0000     -19.188028      -522.1328
   6   2.0000     -14.456347      -393.3772
   7   2.0000     -14.454612      -393.3300
   8   2.0000     -14.451676      -393.2501
   9   2.0000     -14.447381      -393.1332
  10   2.0000     -14.443520      -393.0282
  11   2.0000     -14.441963      -392.9858
  12   2.0000     -14.404639      -391.9702
  13   2.0000     -14.403148      -391.9296
  14   2.0000     -14.403125      -391.9290
  15   2.0000     -14.398551      -391.8045
  16   2.0000     -10.376980      -282.3720
  17   2.0000     -10.372315      -282.2450
  18   2.0000     -10.346743      -281.5492
  19   2.0000     -10.345445      -281.5139
  20   2.0000     -10.343891      -281.4716
  21   2.0000     -10.343796      -281.4690
  22   2.0000     -10.342658      -281.4380
  23   2.0000     -10.342202      -281.4256
  24   2.0000     -10.341986      -281.4197
  25   2.0000     -10.341880      -281.4169
  26   2.0000     -10.341365      -281.4028
  27   2.0000     -10.339424      -281.3500
  28   2.0000     -10.338962      -281.3375
  29   2.0000     -10.336053      -281.2583
  30   2.0000     -10.329790      -281.0879
  31   2.0000     -10.328965      -281.0654
  32   2.0000     -10.325856      -280.9808
  33   2.0000     -10.323282      -280.9108
  34   2.0000     -10.322934      -280.9013
  35   2.0000     -10.321798      -280.8704
  36   2.0000     -10.321495      -280.8621
  37   2.0000     -10.321276      -280.8562
  38   2.0000     -10.319786      -280.8156
  39   2.0000     -10.317039      -280.7409
  40   2.0000     -10.311407      -280.5877
  41   2.0000     -10.311073      -280.5786
  42   2.0000     -10.309240      -280.5287
  43   2.0000     -10.308311      -280.5034
  44   2.0000     -10.306607      -280.4570
  45   2.0000     -10.306212      -280.4463
  46   2.0000     -10.305783      -280.4346
  47   2.0000     -10.305208      -280.4190
  48   2.0000     -10.305117      -280.4165
  49   2.0000     -10.303897      -280.3833
  50   2.0000     -10.303561      -280.3742
  51   2.0000     -10.302158      -280.3360
  52   2.0000     -10.301701      -280.3235
  53   2.0000     -10.300388      -280.2878
  54   2.0000     -10.297491      -280.2090
  55   2.0000     -10.297393      -280.2063
  56   2.0000     -10.297324      -280.2044
  57   2.0000     -10.286978      -279.9229
  58   2.0000     -10.283144      -279.8186
  59   2.0000     -10.283016      -279.8151
  60   2.0000     -10.267819      -279.4016
  61   2.0000     -10.266868      -279.3757
  62   2.0000     -10.264372      -279.3078
  63   2.0000     -10.258777      -279.1555
  64   2.0000      -8.089411      -220.1241
  65   2.0000      -8.075343      -219.7412
  66   2.0000      -8.048903      -219.0218
  67   2.0000      -6.058355      -164.8562
  68   2.0000      -6.053917      -164.7354
  69   2.0000      -6.052684      -164.7019
  70   2.0000      -6.044326      -164.4745
  71   2.0000      -6.039817      -164.3518
  72   2.0000      -6.038581      -164.3181
  73   2.0000      -6.019315      -163.7939
  74   2.0000      -6.015071      -163.6784
  75   2.0000      -6.008843      -163.5089
  76   2.0000      -1.220433       -33.2097
  77   2.0000      -1.134874       -30.8815
  78   2.0000      -1.127160       -30.6716
  79   2.0000      -1.109871       -30.2011
  80   2.0000      -1.100136       -29.9362
  81   2.0000      -1.065513       -28.9941
  82   2.0000      -1.057971       -28.7889
  83   2.0000      -1.035750       -28.1842
  84   2.0000      -1.024175       -27.8692
  85   2.0000      -1.019573       -27.7440
  86   2.0000      -1.015516       -27.6336
  87   2.0000      -0.996327       -27.1114
  88   2.0000      -0.994808       -27.0701
  89   2.0000      -0.984701       -26.7951
  90   2.0000      -0.981073       -26.6964
  91   2.0000      -0.975979       -26.5577
  92   2.0000      -0.954933       -25.9851
  93   2.0000      -0.954928       -25.9849
  94   2.0000      -0.938782       -25.5455
  95   2.0000      -0.931186       -25.3389
  96   2.0000      -0.917300       -24.9610
  97   2.0000      -0.911175       -24.7943
  98   2.0000      -0.897426       -24.4202
  99   2.0000      -0.888247       -24.1704
 100   2.0000      -0.887297       -24.1446
 101   2.0000      -0.876910       -23.8619
 102   2.0000      -0.873302       -23.7638
 103   2.0000      -0.870278       -23.6815
 104   2.0000      -0.865338       -23.5471
 105   2.0000      -0.856933       -23.3183
 106   2.0000      -0.851796       -23.1785
 107   2.0000      -0.837215       -22.7818
 108   2.0000      -0.822395       -22.3785
 109   2.0000      -0.810825       -22.0637
 110   2.0000      -0.802319       -21.8322
 111   2.0000      -0.792002       -21.5515
 112   2.0000      -0.786168       -21.3927
 113   2.0000      -0.774308       -21.0700
 114   2.0000      -0.763112       -20.7653
 115   2.0000      -0.755463       -20.5572
 116   2.0000      -0.751732       -20.4557
 117   2.0000      -0.746748       -20.3201
 118   2.0000      -0.743834       -20.2408
 119   2.0000      -0.730566       -19.8797
 120   2.0000      -0.728711       -19.8292
 121   2.0000      -0.715153       -19.4603
 122   2.0000      -0.712579       -19.3903
 123   2.0000      -0.704817       -19.1790
 124   2.0000      -0.691524       -18.8173
 125   2.0000      -0.687741       -18.7144
 126   2.0000      -0.682139       -18.5620
 127   2.0000      -0.677664       -18.4402
 128   2.0000      -0.672760       -18.3067
 129   2.0000      -0.659702       -17.9514
 130   2.0000      -0.656205       -17.8562
 131   2.0000      -0.649386       -17.6707
 132   2.0000      -0.645990       -17.5783
 133   2.0000      -0.631775       -17.1915
 134   2.0000      -0.621938       -16.9238
 135   2.0000      -0.618466       -16.8293
 136   2.0000      -0.613946       -16.7063
 137   2.0000      -0.612514       -16.6674
 138   2.0000      -0.606329       -16.4991
 139   2.0000      -0.604734       -16.4556
 140   2.0000      -0.600507       -16.3406
 141   2.0000      -0.595378       -16.2011
 142   2.0000      -0.591766       -16.1028
 143   2.0000      -0.587560       -15.9883
 144   2.0000      -0.583299       -15.8724
 145   2.0000      -0.575421       -15.6580
 146   2.0000      -0.570649       -15.5282
 147   2.0000      -0.569579       -15.4990
 148   2.0000      -0.565052       -15.3759
 149   2.0000      -0.563542       -15.3348
 150   2.0000      -0.555145       -15.1063
 151   2.0000      -0.548492       -14.9252
 152   2.0000      -0.546497       -14.8709
 153   2.0000      -0.543477       -14.7888
 154   2.0000      -0.543038       -14.7768
 155   2.0000      -0.538518       -14.6538
 156   2.0000      -0.538058       -14.6413
 157   2.0000      -0.535293       -14.5661
 158   2.0000      -0.531873       -14.4730
 159   2.0000      -0.531320       -14.4579
 160   2.0000      -0.529216       -14.4007
 161   2.0000      -0.527082       -14.3426
 162   2.0000      -0.522265       -14.2116
 163   2.0000      -0.520984       -14.1767
 164   2.0000      -0.518002       -14.0956
 165   2.0000      -0.513425       -13.9710
 166   2.0000      -0.511426       -13.9166
 167   2.0000      -0.506028       -13.7697
 168   2.0000      -0.503454       -13.6997
 169   2.0000      -0.498412       -13.5625
 170   2.0000      -0.494909       -13.4671
 171   2.0000      -0.492898       -13.4124
 172   2.0000      -0.486139       -13.2285
 173   2.0000      -0.484192       -13.1755
 174   2.0000      -0.480696       -13.0804
 175   2.0000      -0.478548       -13.0219
 176   2.0000      -0.475131       -12.9290
 177   2.0000      -0.473049       -12.8723
 178   2.0000      -0.469346       -12.7716
 179   2.0000      -0.468389       -12.7455
 180   2.0000      -0.462663       -12.5897
 181   2.0000      -0.457608       -12.4522
 182   2.0000      -0.456597       -12.4246
 183   2.0000      -0.455514       -12.3952
 184   2.0000      -0.455222       -12.3872
 185   2.0000      -0.451405       -12.2834
 186   2.0000      -0.446008       -12.1365
 187   2.0000      -0.444140       -12.0857
 188   2.0000      -0.440897       -11.9974
 189   2.0000      -0.439408       -11.9569
 190   2.0000      -0.438132       -11.9222
 191   2.0000      -0.437598       -11.9077
 192   2.0000      -0.436366       -11.8741
 193   2.0000      -0.433677       -11.8010
 194   2.0000      -0.432665       -11.7734
 195   2.0000      -0.431607       -11.7446
 196   2.0000      -0.430286       -11.7087
 197   2.0000      -0.430023       -11.7015
 198   2.0000      -0.426987       -11.6189
 199   2.0000      -0.424020       -11.5382
 200   2.0000      -0.416004       -11.3201
 201   2.0000      -0.413678       -11.2567
 202   2.0000      -0.410590       -11.1727
 203   2.0000      -0.408550       -11.1172
 204   2.0000      -0.406585       -11.0637
 205   2.0000      -0.404610       -11.0100
 206   2.0000      -0.402019       -10.9395
 207   2.0000      -0.400031       -10.8854
 208   2.0000      -0.398651       -10.8478
 209   2.0000      -0.384768       -10.4701
 210   2.0000      -0.383247       -10.4287
 211   2.0000      -0.375681       -10.2228
 212   2.0000      -0.371072       -10.0974
 213   2.0000      -0.358474        -9.7546
 214   2.0000      -0.352233        -9.5847
 215   2.0000      -0.347211        -9.4481
 216   2.0000      -0.344289        -9.3686
 217   2.0000      -0.340387        -9.2624
 218   2.0000      -0.332564        -9.0495
 219   2.0000      -0.331507        -9.0208
 220   2.0000      -0.328948        -8.9511
 221   2.0000      -0.319507        -8.6942
 222   2.0000      -0.317807        -8.6480
 223   2.0000      -0.309380        -8.4187
 224   2.0000      -0.294616        -8.0169
 225   2.0000      -0.287420        -7.8211
 226   2.0000      -0.252633        -6.8745
 227   2.0000      -0.236641        -6.4393
 228   0.0000      -0.105451        -2.8695
 229   0.0000      -0.086778        -2.3614
 230   0.0000      -0.060306        -1.6410
 231   0.0000      -0.051137        -1.3915
 232   0.0000      -0.029088        -0.7915

MULLIKEN ATOMIC CHARGES
-----------------------
   0 C :   -0.107970
   1 S :    0.188377
   2 C :   -0.221398
   3 C :    0.159792
   4 C :    0.097394
   5 C :   -0.026689
   6 C :   -0.063284
   7 C :   -0.176654
   8 N :    0.166598
   9 C :   -0.078883
  10 C :   -0.174485
  11 N :    0.165567
  12 C :    0.012408
  13 C :    0.095948
  14 N :   -0.257315
  15 C :    0.090247
  16 C :   -0.000103
  17 C :    0.155631
  18 O :   -0.213536
  19 C :   -0.086201
  20 C :   -0.041271
  21 C :    0.129102
  22 O :   -0.193107
  23 N :   -0.260040
  24 C :    0.097846
  25 C :    0.002927
  26 C :    0.161486
  27 C :   -0.051756
  28 C :   -0.007432
  29 C :    0.110741
  30 O :   -0.195937
  31 C :    0.156754
  32 C :   -0.023686
  33 C :   -0.020967
  34 S :    0.209365
  35 C :   -0.072468
  36 C :   -0.040107
  37 C :   -0.073295
  38 N :   -0.027591
  39 C :    0.037416
  40 C :    0.034354
  41 N :   -0.014810
  42 C :    0.137561
  43 C :   -0.035458
  44 C :   -0.082560
  45 N :   -0.004506
  46 C :    0.028016
  47 C :    0.044347
  48 N :   -0.060213
  49 C :   -0.236342
  50 S :    0.225793
  51 C :   -0.127967
  52 C :    0.105064
  53 C :    0.171769
  54 C :   -0.017460
  55 C :   -0.091928
  56 C :   -0.177906
  57 N :    0.162792
  58 C :   -0.067732
  59 C :   -0.181041
  60 N :    0.163496
  61 C :   -0.059921
  62 C :    0.017157
  63 C :   -0.021308
  64 H :    0.030480
  65 H :   -0.007871
  66 H :   -0.001237
  67 H :    0.022784
  68 H :    0.047317
  69 H :    0.023144
  70 H :    0.023427
  71 H :    0.028880
  72 H :    0.047847
  73 H :    0.027306
  74 H :    0.029611
  75 H :    0.025564
  76 H :    0.012925
  77 H :   -0.017951
  78 H :    0.026938
  79 H :    0.018634
  80 H :   -0.005972
  81 H :    0.027334
  82 H :    0.021175
  83 H :    0.025006
  84 H :    0.020405
  85 H :   -0.018415
  86 H :   -0.010097
  87 H :    0.000629
  88 H :    0.033086
  89 H :    0.034429
Sum of atomic charges:   -0.0000000

LOEWDIN ATOMIC CHARGES
----------------------
   0 C :   -0.178640
   1 S :    0.520373
   2 C :   -0.190016
   3 C :   -0.031025
   4 C :   -0.049165
   5 C :    0.029251
   6 C :   -0.050928
   7 C :   -0.030485
   8 N :   -0.038962
   9 C :   -0.053413
  10 C :   -0.027944
  11 N :   -0.042465
  12 C :    0.055737
  13 C :    0.038871
  14 N :   -0.004002
  15 C :    0.027819
  16 C :   -0.062879
  17 C :    0.076188
  18 O :   -0.208215
  19 C :   -0.136943
  20 C :   -0.116240
  21 C :    0.076748
  22 O :   -0.190052
  23 N :   -0.001289
  24 C :    0.037098
  25 C :   -0.061411
  26 C :    0.089088
  27 C :   -0.062795
  28 C :    0.029102
  29 C :   -0.001146
  30 O :    0.016038
  31 C :    0.059272
  32 C :   -0.081302
  33 C :   -0.177967
  34 S :    0.426590
  35 C :   -0.158975
  36 C :   -0.030787
  37 C :   -0.009218
  38 N :   -0.028068
  39 C :    0.017196
  40 C :    0.016922
  41 N :   -0.018474
  42 C :   -0.042305
  43 C :   -0.010740
  44 C :   -0.033385
  45 N :   -0.029606
  46 C :    0.014354
  47 C :    0.021670
  48 N :   -0.052331
  49 C :   -0.173273
  50 S :    0.552312
  51 C :   -0.173600
  52 C :   -0.049774
  53 C :   -0.030735
  54 C :    0.041975
  55 C :   -0.063038
  56 C :   -0.031102
  57 N :   -0.048524
  58 C :   -0.061035
  59 C :   -0.032387
  60 N :   -0.044630
  61 C :    0.030601
  62 C :   -0.044966
  63 C :   -0.031639
  64 H :    0.030286
  65 H :    0.043575
  66 H :    0.044506
  67 H :    0.009291
  68 H :    0.038537
  69 H :    0.020135
  70 H :    0.031082
  71 H :    0.031740
  72 H :    0.039417
  73 H :    0.024799
  74 H :    0.032038
  75 H :    0.031442
  76 H :    0.021243
  77 H :    0.029543
  78 H :    0.041507
  79 H :    0.027014
  80 H :    0.032420
  81 H :    0.032481
  82 H :    0.030556
  83 H :    0.031902
  84 H :    0.030570
  85 H :    0.036107
  86 H :    0.041182
  87 H :    0.031660
  88 H :    0.024983
  89 H :    0.030657

  Mayer bond orders larger than 0.100000
B(  0-C ,  1-S ) :   1.2052 B(  0-C ,  2-C ) :   0.1176 B(  0-C ,  4-C ) :   1.4071
B(  0-C , 64-H ) :   0.9688 B(  1-S ,  2-C ) :   1.1780 B(  2-C ,  3-C ) :   1.3490
B(  2-C , 13-C ) :   1.0925 B(  3-C ,  4-C ) :   1.1910 B(  3-C , 12-C ) :   1.2014
B(  4-C ,  5-C ) :   1.1468 B(  5-C ,  6-C ) :   1.5845 B(  5-C , 65-H ) :   1.0053
B(  6-C ,  7-C ) :   1.0784 B(  6-C ,  9-C ) :   1.2191 B(  7-C ,  8-N ) :   3.0471
B(  9-C , 10-C ) :   1.0876 B(  9-C , 12-C ) :   1.5783 B( 10-C , 11-N ) :   3.0412
B( 12-C , 66-H ) :   0.9833 B( 13-C , 14-N ) :   1.1916 B( 13-C , 20-C ) :   1.4178
B( 14-N , 15-C ) :   0.9479 B( 14-N , 17-C ) :   1.0446 B( 15-C , 16-C ) :   1.1150
B( 15-C , 67-H ) :   0.9472 B( 15-C , 68-H ) :   0.9241 B( 16-C , 69-H ) :   0.9677
B( 16-C , 70-H ) :   0.9667 B( 16-C , 71-H ) :   0.9642 B( 17-C , 18-O ) :   2.0228
B( 17-C , 19-C ) :   1.0129 B( 18-O , 78-H ) :   0.1091 B( 19-C , 20-C ) :   1.2187
B( 19-C , 26-C ) :   1.3320 B( 20-C , 21-C ) :   0.9589 B( 21-C , 22-O ) :   2.1142
B( 21-C , 23-N ) :   1.0476 B( 23-N , 24-C ) :   0.9444 B( 23-N , 26-C ) :   1.1577
B( 24-C , 25-C ) :   1.1222 B( 24-C , 72-H ) :   0.9288 B( 24-C , 73-H ) :   0.9493
B( 25-C , 74-H ) :   0.9636 B( 25-C , 75-H ) :   0.9679 B( 25-C , 76-H ) :   0.9682
B( 26-C , 27-C ) :   1.1506 B( 27-C , 28-C ) :   1.5711 B( 27-C , 77-H ) :   0.9748
B( 28-C , 29-C ) :   1.1937 B( 28-C , 78-H ) :   0.9316 B( 29-C , 30-O ) :   1.1413
B( 29-C , 33-C ) :   1.4579 B( 30-O , 31-C ) :   1.1485 B( 31-C , 32-C ) :   1.5420
B( 31-C , 79-H ) :   1.0043 B( 32-C , 33-C ) :   1.2386 B( 32-C , 80-H ) :   1.0070
B( 33-C , 34-S ) :   1.0002 B( 34-S , 35-C ) :   1.0441 B( 35-C , 36-C ) :   1.3373
B( 35-C , 44-C ) :   1.3519 B( 36-C , 37-C ) :   1.1733 B( 36-C , 41-N ) :   1.4226
B( 37-C , 38-N ) :   1.4546 B( 37-C , 42-C ) :   1.2719 B( 38-N , 39-C ) :   1.6748
B( 39-C , 40-C ) :   1.1820 B( 39-C , 81-H ) :   0.9736 B( 40-C , 41-N ) :   1.6948
B( 40-C , 82-H ) :   0.9755 B( 42-C , 43-C ) :   1.2564 B( 42-C , 49-C ) :   1.1099
B( 43-C , 44-C ) :   1.1841 B( 43-C , 48-N ) :   1.4073 B( 44-C , 45-N ) :   1.4912
B( 45-N , 46-C ) :   1.6944 B( 46-C , 47-C ) :   1.1988 B( 46-C , 83-H ) :   0.9752
B( 47-C , 48-N ) :   1.6640 B( 47-C , 84-H ) :   0.9737 B( 49-C , 50-S ) :   1.1894
B( 49-C , 51-C ) :   0.1089 B( 49-C , 53-C ) :   1.3362 B( 50-S , 51-C ) :   1.1717
B( 51-C , 52-C ) :   1.3401 B( 51-C , 62-C ) :   1.0942 B( 52-C , 53-C ) :   1.1929
B( 52-C , 61-C ) :   1.1872 B( 53-C , 54-C ) :   1.2021 B( 54-C , 55-C ) :   1.5737
B( 54-C , 85-H ) :   0.9814 B( 55-C , 56-C ) :   1.0783 B( 55-C , 58-C ) :   1.2322
B( 56-C , 57-N ) :   3.0445 B( 58-C , 59-C ) :   1.0754 B( 58-C , 61-C ) :   1.5624
B( 59-C , 60-N ) :   3.0436 B( 61-C , 86-H ) :   0.9958 B( 62-C , 63-C ) :   1.9312
B( 62-C , 87-H ) :   0.9464 B( 63-C , 88-H ) :   0.9608 B( 63-C , 89-H ) :   0.9478

-----------------------------------------------------------------------------
         ABSORPTION SPECTRUM VIA TRANSITION ELECTRIC DIPOLE MOMENTS
-----------------------------------------------------------------------------
State   Energy  Wavelength   fosc         T2         TX        TY        TZ
        (cm-1)    (nm)                  (au**2)     (au)      (au)      (au)
-----------------------------------------------------------------------------
   0   13814.7    723.9   0.504952294  12.03331  -1.12221   1.73294  -2.78763
   1   16229.8    616.2   0.164104216   3.32876  -0.70700  -1.67770  -0.11924
   2   16485.4    606.6   0.388160423   7.75151   0.33439  -2.39472   1.38022
   3   22679.1    440.9   0.030202441   0.43842  -0.06074  -0.19460   0.62997
   4   23047.6    433.9   0.190488587   2.72094  -0.11949   0.98818  -1.31535
   5   23922.5    418.0   0.154602149   2.12757  -0.47562  -0.53191  -1.27218
   6   24499.1    408.2   0.026577400   0.35714   0.43851  -0.39044  -0.11137
   7   25169.6    397.3   0.007299897   0.09548  -0.00346  -0.30286  -0.06118
   8   25985.5    384.8   0.000511533   0.00648   0.03544   0.05868   0.04221
   9   27417.3    364.7   0.174373521   2.09379  -0.25301  -0.83973   1.15093
  10   27847.4    359.1   0.020073118   0.23730   0.09638   0.20132  -0.43300
  11   28207.8    354.5   0.025432618   0.29682   0.05359   0.39206  -0.37449
  12   28390.2    352.2   0.002599562   0.03014   0.04011  -0.00250  -0.16891
  13   28777.4    347.5   0.005723634   0.06548   0.13045   0.21900  -0.02239
  14   29027.7    344.5   0.093519589   1.06063  -0.11428  -0.60530   0.82534
  15   29267.3    341.7   0.074816497   0.84157   0.27685   0.69812  -0.52683
  16   30083.1    332.4   0.013005233   0.14232  -0.15508  -0.19389   0.28404
  17   30343.9    329.6   0.002294275   0.02489   0.04980   0.02335  -0.14787
  18   31710.0    315.4   0.047548247   0.49364   0.34740   0.30842  -0.52710
  19   32166.4    310.9   0.001222835   0.01252  -0.02744   0.10829   0.00593
  20   32237.0    310.2   0.010073283   0.10287  -0.24140   0.07186   0.19857
  21   32707.7    305.7   0.063232707   0.63645   0.39302  -0.54105   0.43503
  22   33031.6    302.7   0.057858434   0.57665  -0.31221   0.67753   0.14189
  23   33209.5    301.1   0.002673225   0.02650  -0.01127  -0.01625  -0.16158
  24   33347.1    299.9   0.004633211   0.04574   0.02975   0.21051  -0.02330
  25   33630.2    297.4   0.058594155   0.57359  -0.32997   0.29159   0.61618
  26   34525.2    289.6   0.013099502   0.12491   0.28909   0.20111   0.02986
  27   34760.8    287.7   0.018352246   0.17381  -0.25289   0.32096  -0.08269
  28   35116.3    284.8   0.001421968   0.01333  -0.01854  -0.05883   0.09760
  29   35316.8    283.2   0.337842511   3.14926   1.32068   0.40400  -1.11439
  30   35636.5    280.6   0.332569470   3.07230  -1.19849   1.16214   0.53418
  31   35988.8    277.9   0.016417031   0.15018   0.04063   0.25488   0.28907
  32   36407.0    274.7   0.015702396   0.14199   0.05861  -0.28445   0.24009
  33   36607.9    273.2   0.001161593   0.01045   0.00349  -0.04572   0.09134
  34   37192.3    268.9   0.077320153   0.68441  -0.12917   0.19762   0.79289
  35   37358.7    267.7   0.458804703   4.04307   0.32152  -0.00805   1.98485
  36   37750.6    264.9   0.203256478   1.77254  -0.45394  -0.27954  -1.21997
  37   38001.5    263.1   0.056543292   0.48984  -0.52109   0.21673   0.41393
  38   38252.1    261.4   0.115809907   0.99670  -0.67207   0.18645  -0.71433
  39   38471.4    259.9   0.087556077   0.74925  -0.24662   0.52676   0.64105
  40   38718.9    258.3   0.036385561   0.30937   0.21242   0.48871   0.15942
  41   39015.5    256.3   0.006049521   0.05105   0.08760  -0.20764  -0.01606
  42   39435.6    253.6   0.163860877   1.36793  -0.52513   1.00453  -0.28823
  43   39656.5    252.2   0.420870253   3.49389  -1.42554   1.20510   0.09726
  44   39849.7    250.9   0.096212351   0.79484  -0.42853   0.34090   0.70356
  45   40290.9    248.2   0.004274762   0.03493   0.02153  -0.18363   0.02731

FINAL SINGLE POINT ENERGY     -3808.784563744676

DIPOLE MOMENT
-------------
                                X             Y             Z
Electronic contribution:     -1.09562      -6.55020       9.93320
Nuclear contribution   :     -0.17037       8.68723      -5.77356
                        -----------------------------------------
Total Dipole Moment    :     -1.26599       2.13703       4.15964
                        -----------------------------------------
Magnitude (a.u.)       :      4.84481
Magnitude (Debye)      :     12.31453

Rotational constants in cm-1:     0.002576     0.000391     0.000372
Rotational constants in MHz :    77.228828    11.729546    11.164988

                             ****ORCA TERMINATED NORMALLY****
TOTAL RUN TIME: 0 days 0 hours 8 minutes 5 seconds 138 msec
