                         Program Version 4.2.0 -  RELEASE  -
|  1> # ORCA input file
|  2> # SCF done       -138.672942348185          0.000442843259
|  3> ! CAM-B3LYP def2-SVP def2/J RIJCOSX Grid4 TightSCF
|  4> %maxcore 5000
|  5> %tddft
|  6>     Mode sTDDFT
|  7>     Ethresh 5.0
|  8>     maxcore 5000
|  9> end
| 10>
| 11> %pal
| 12>   nprocs 6
| 13>   end
| 14> * xyz 0 1
| 15>    C       -3.16486        -9.29297         1.62666
| 16>    C       -3.79201        -8.79329         0.49071
| 17>    N       -3.30196        -7.77040        -0.18309
| 18>    C       -2.16703        -7.22154         0.26938
| 19>    C       -1.54617        -7.73112         1.42008
| 20>    N       -2.04304        -8.75401         2.08486
| 21>    C       -1.63345        -6.11306        -0.47538
| 22>    S       -0.14703        -5.30447        -0.00380
| 23>    C       -0.23406        -4.21227        -1.34132
| 24>    C       -1.32956        -4.45078        -2.09828
| 25>    C       -2.13612        -5.53078        -1.61237
| 26>    C       -3.26094        -5.69987        -2.48175
| 27>    C       -3.19476        -4.78013        -3.49376
| 28>    C       -1.96782        -3.92434        -3.32327
| 29>    O       -1.61478        -3.01851        -4.03639
| 30>    C       -4.05796        -4.55637        -4.60004
| 31>    C       -5.24658        -5.17507        -4.80364
| 32>    C       -6.09015        -4.95438        -5.92107
| 33>    S       -7.73934        -5.58370        -5.87389
| 34>    C       -8.11197        -4.94661        -7.43493
| 35>    C       -7.04625        -4.30533        -7.96631
| 36>    C       -5.88562        -4.30501        -7.12315
| 37>    C       -4.82937        -3.65381        -7.83059
| 38>    C       -5.27368        -3.22833        -9.05788
| 39>    C       -6.71635        -3.59967        -9.22394
| 40>    O       -7.44395        -3.38274       -10.16452
| 41>    C       -4.47751        -2.55845       -10.02671
| 42>    C       -4.93124        -2.11360       -11.22312
| 43>    C       -4.07542        -1.45914       -12.15360
| 44>    O       -2.77183        -1.27401       -11.84924
| 45>    C       -2.15979        -0.65654       -12.86633
| 46>    C       -3.10781        -0.42114       -13.87625
| 47>    C       -4.33117        -0.93581       -13.40676
| 48>    N       -2.96098         0.17332       -15.15796
| 49>    O       -1.84777         0.32795       -15.61419
| 50>    O       -3.98797         0.47547       -15.73029
| 51>    C       -0.78118        -0.32972       -12.74267
| 52>    O       -0.20977         0.42081       -13.68316
| 53>    C        1.09056         0.60436       -13.37167
| 54>    C        1.37872        -0.03704       -12.19356
| 55>    C        0.17659        -0.65849       -11.75861
| 56>    C        0.00853        -1.47092       -10.58031
| 57>    O       -0.99654        -1.99088       -10.15987
| 58>    C        1.33006        -1.68733        -9.77782
| 59>    F        1.84137        -0.53222        -9.31879
| 60>    F        1.13011        -2.47487        -8.72451
| 61>    F        2.28893        -2.26360       -10.52401
| 62>    C        1.92609         1.37371       -14.25808
| 63>    C        1.49806         1.82369       -15.43488
| 64>    H       -3.55691       -10.13341         2.18084
| 65>    H       -4.70763        -9.22172         0.10592
| 66>    H       -0.63150        -7.29905         1.80431
| 67>    H        0.53385        -3.47491        -1.46996
| 68>    H       -4.01237        -6.45232        -2.33093
| 69>    H       -3.71131        -3.80590        -5.29621
| 70>    H       -5.61730        -5.87091        -4.06323
| 71>    H       -9.08936        -5.09534        -7.85030
| 72>    H       -3.82318        -3.52293        -7.47452
| 73>    H       -3.43466        -2.40839        -9.77433
| 74>    H       -5.96137        -2.24167       -11.51665
| 75>    H       -5.26144        -0.92340       -13.93567
| 76>    H        2.33286        -0.05793       -11.71009
| 77>    H        2.93085         1.55080       -13.90317
| 78>    H        0.49587         1.61924       -15.77388
| 79>    H        2.13628         2.39509       -16.08503
| 80> *
| 81>
| 82>                          ****END OF INPUT****

CARTESIAN COORDINATES (ANGSTROEM)
---------------------------------
  C     -3.164860   -9.292970    1.626660
  C     -3.792010   -8.793290    0.490710
  N     -3.301960   -7.770400   -0.183090
  C     -2.167030   -7.221540    0.269380
  C     -1.546170   -7.731120    1.420080
  N     -2.043040   -8.754010    2.084860
  C     -1.633450   -6.113060   -0.475380
  S     -0.147030   -5.304470   -0.003800
  C     -0.234060   -4.212270   -1.341320
  C     -1.329560   -4.450780   -2.098280
  C     -2.136120   -5.530780   -1.612370
  C     -3.260940   -5.699870   -2.481750
  C     -3.194760   -4.780130   -3.493760
  C     -1.967820   -3.924340   -3.323270
  O     -1.614780   -3.018510   -4.036390
  C     -4.057960   -4.556370   -4.600040
  C     -5.246580   -5.175070   -4.803640
  C     -6.090150   -4.954380   -5.921070
  S     -7.739340   -5.583700   -5.873890
  C     -8.111970   -4.946610   -7.434930
  C     -7.046250   -4.305330   -7.966310
  C     -5.885620   -4.305010   -7.123150
  C     -4.829370   -3.653810   -7.830590
  C     -5.273680   -3.228330   -9.057880
  C     -6.716350   -3.599670   -9.223940
  O     -7.443950   -3.382740  -10.164520
  C     -4.477510   -2.558450  -10.026710
  C     -4.931240   -2.113600  -11.223120
  C     -4.075420   -1.459140  -12.153600
  O     -2.771830   -1.274010  -11.849240
  C     -2.159790   -0.656540  -12.866330
  C     -3.107810   -0.421140  -13.876250
  C     -4.331170   -0.935810  -13.406760
  N     -2.960980    0.173320  -15.157960
  O     -1.847770    0.327950  -15.614190
  O     -3.987970    0.475470  -15.730290
  C     -0.781180   -0.329720  -12.742670
  O     -0.209770    0.420810  -13.683160
  C      1.090560    0.604360  -13.371670
  C      1.378720   -0.037040  -12.193560
  C      0.176590   -0.658490  -11.758610
  C      0.008530   -1.470920  -10.580310
  O     -0.996540   -1.990880  -10.159870
  C      1.330060   -1.687330   -9.777820
  F      1.841370   -0.532220   -9.318790
  F      1.130110   -2.474870   -8.724510
  F      2.288930   -2.263600  -10.524010
  C      1.926090    1.373710  -14.258080
  C      1.498060    1.823690  -15.434880
  H     -3.556910  -10.133410    2.180840
  H     -4.707630   -9.221720    0.105920
  H     -0.631500   -7.299050    1.804310
  H      0.533850   -3.474910   -1.469960
  H     -4.012370   -6.452320   -2.330930
  H     -3.711310   -3.805900   -5.296210
  H     -5.617300   -5.870910   -4.063230
  H     -9.089360   -5.095340   -7.850300
  H     -3.823180   -3.522930   -7.474520
  H     -3.434660   -2.408390   -9.774330
  H     -5.961370   -2.241670  -11.516650
  H     -5.261440   -0.923400  -13.935670
  H      2.332860   -0.057930  -11.710090
  H      2.930850    1.550800  -13.903170
  H      0.495870    1.619240  -15.773880
  H      2.136280    2.395090  -16.085030

 Total Charge           Charge          ....    0
 Multiplicity           Mult            ....    1
 Number of Electrons    NEL             ....  356
 Basis Dimension        Dim             ....  774

ORBITAL ENERGIES
----------------

  NO   OCC          E(Eh)            E(eV)
   0   2.0000     -88.970624     -2421.0138
   1   2.0000     -88.963658     -2420.8242
   2   2.0000     -24.805273      -674.9858
   3   2.0000     -24.804583      -674.9670
   4   2.0000     -24.799119      -674.8183
   5   2.0000     -19.310467      -525.4645
   6   2.0000     -19.310183      -525.4568
   7   2.0000     -19.237214      -523.4712
   8   2.0000     -19.236869      -523.4618
   9   2.0000     -19.232324      -523.3381
  10   2.0000     -19.219246      -522.9823
  11   2.0000     -19.216556      -522.9091
  12   2.0000     -14.649542      -398.6343
  13   2.0000     -14.432159      -392.7190
  14   2.0000     -14.429562      -392.6483
  15   2.0000     -10.513903      -286.0978
  16   2.0000     -10.387578      -282.6604
  17   2.0000     -10.372945      -282.2622
  18   2.0000     -10.371954      -282.2352
  19   2.0000     -10.365704      -282.0651
  20   2.0000     -10.364341      -282.0281
  21   2.0000     -10.347585      -281.5721
  22   2.0000     -10.344320      -281.4833
  23   2.0000     -10.337270      -281.2914
  24   2.0000     -10.334758      -281.2231
  25   2.0000     -10.323189      -280.9082
  26   2.0000     -10.322376      -280.8861
  27   2.0000     -10.320950      -280.8473
  28   2.0000     -10.318298      -280.7752
  29   2.0000     -10.316527      -280.7270
  30   2.0000     -10.316417      -280.7240
  31   2.0000     -10.314844      -280.6812
  32   2.0000     -10.303246      -280.3656
  33   2.0000     -10.298587      -280.2388
  34   2.0000     -10.296941      -280.1940
  35   2.0000     -10.293760      -280.1075
  36   2.0000     -10.293225      -280.0929
  37   2.0000     -10.290491      -280.0185
  38   2.0000     -10.288710      -279.9700
  39   2.0000     -10.288003      -279.9508
  40   2.0000     -10.287075      -279.9255
  41   2.0000     -10.285505      -279.8828
  42   2.0000     -10.285359      -279.8788
  43   2.0000     -10.284565      -279.8572
  44   2.0000     -10.281629      -279.7773
  45   2.0000     -10.280688      -279.7517
  46   2.0000     -10.279826      -279.7283
  47   2.0000     -10.277211      -279.6571
  48   2.0000     -10.272060      -279.5170
  49   2.0000      -8.066066      -219.4888
  50   2.0000      -8.059528      -219.3109
  51   2.0000      -6.035607      -164.2372
  52   2.0000      -6.031112      -164.1149
  53   2.0000      -6.029066      -164.0592
  54   2.0000      -6.028049      -164.0316
  55   2.0000      -6.024577      -163.9371
  56   2.0000      -6.021440      -163.8517
  57   2.0000      -1.392747       -37.8986
  58   2.0000      -1.320669       -35.9372
  59   2.0000      -1.295799       -35.2605
  60   2.0000      -1.294552       -35.2266
  61   2.0000      -1.240462       -33.7547
  62   2.0000      -1.233462       -33.5642
  63   2.0000      -1.149030       -31.2667
  64   2.0000      -1.137562       -30.9546
  65   2.0000      -1.132451       -30.8156
  66   2.0000      -1.129119       -30.7249
  67   2.0000      -1.086906       -29.5762
  68   2.0000      -1.012539       -27.5526
  69   2.0000      -1.001888       -27.2628
  70   2.0000      -0.999620       -27.2010
  71   2.0000      -0.950174       -25.8555
  72   2.0000      -0.945420       -25.7262
  73   2.0000      -0.940550       -25.5937
  74   2.0000      -0.932672       -25.3793
  75   2.0000      -0.923482       -25.1292
  76   2.0000      -0.902568       -24.5601
  77   2.0000      -0.898660       -24.4538
  78   2.0000      -0.891879       -24.2693
  79   2.0000      -0.864591       -23.5267
  80   2.0000      -0.839900       -22.8549
  81   2.0000      -0.836887       -22.7728
  82   2.0000      -0.831997       -22.6398
  83   2.0000      -0.827424       -22.5153
  84   2.0000      -0.815285       -22.1850
  85   2.0000      -0.795870       -21.6567
  86   2.0000      -0.786180       -21.3930
  87   2.0000      -0.766472       -20.8568
  88   2.0000      -0.757359       -20.6088
  89   2.0000      -0.754138       -20.5212
  90   2.0000      -0.747614       -20.3436
  91   2.0000      -0.733090       -19.9484
  92   2.0000      -0.732981       -19.9454
  93   2.0000      -0.725375       -19.7384
  94   2.0000      -0.715866       -19.4797
  95   2.0000      -0.698085       -18.9959
  96   2.0000      -0.691310       -18.8115
  97   2.0000      -0.680659       -18.5217
  98   2.0000      -0.676158       -18.3992
  99   2.0000      -0.659974       -17.9588
 100   2.0000      -0.655172       -17.8281
 101   2.0000      -0.651902       -17.7392
 102   2.0000      -0.647480       -17.6188
 103   2.0000      -0.642991       -17.4967
 104   2.0000      -0.640229       -17.4215
 105   2.0000      -0.631113       -17.1734
 106   2.0000      -0.629691       -17.1348
 107   2.0000      -0.621143       -16.9022
 108   2.0000      -0.615796       -16.7567
 109   2.0000      -0.605612       -16.4795
 110   2.0000      -0.601812       -16.3761
 111   2.0000      -0.591509       -16.0958
 112   2.0000      -0.590036       -16.0557
 113   2.0000      -0.588163       -16.0047
 114   2.0000      -0.578302       -15.7364
 115   2.0000      -0.574917       -15.6443
 116   2.0000      -0.572070       -15.5668
 117   2.0000      -0.564583       -15.3631
 118   2.0000      -0.563610       -15.3366
 119   2.0000      -0.557908       -15.1814
 120   2.0000      -0.554270       -15.0825
 121   2.0000      -0.551061       -14.9951
 122   2.0000      -0.549575       -14.9547
 123   2.0000      -0.542125       -14.7520
 124   2.0000      -0.539839       -14.6898
 125   2.0000      -0.536251       -14.5921
 126   2.0000      -0.535979       -14.5847
 127   2.0000      -0.533399       -14.5145
 128   2.0000      -0.523792       -14.2531
 129   2.0000      -0.521670       -14.1954
 130   2.0000      -0.520257       -14.1569
 131   2.0000      -0.517891       -14.0925
 132   2.0000      -0.516578       -14.0568
 133   2.0000      -0.510007       -13.8780
 134   2.0000      -0.508603       -13.8398
 135   2.0000      -0.501681       -13.6514
 136   2.0000      -0.498863       -13.5748
 137   2.0000      -0.497763       -13.5448
 138   2.0000      -0.495171       -13.4743
 139   2.0000      -0.490716       -13.3530
 140   2.0000      -0.489995       -13.3334
 141   2.0000      -0.486836       -13.2475
 142   2.0000      -0.480468       -13.0742
 143   2.0000      -0.476235       -12.9590
 144   2.0000      -0.474523       -12.9124
 145   2.0000      -0.470151       -12.7934
 146   2.0000      -0.468947       -12.7607
 147   2.0000      -0.466841       -12.7034
 148   2.0000      -0.465280       -12.6609
 149   2.0000      -0.463995       -12.6259
 150   2.0000      -0.457314       -12.4442
 151   2.0000      -0.447451       -12.1758
 152   2.0000      -0.444072       -12.0838
 153   2.0000      -0.429960       -11.6998
 154   2.0000      -0.425517       -11.5789
 155   2.0000      -0.422512       -11.4971
 156   2.0000      -0.418164       -11.3788
 157   2.0000      -0.415031       -11.2936
 158   2.0000      -0.403941       -10.9918
 159   2.0000      -0.392968       -10.6932
 160   2.0000      -0.388992       -10.5850
 161   2.0000      -0.385143       -10.4803
 162   2.0000      -0.381798       -10.3893
 163   2.0000      -0.377916       -10.2836
 164   2.0000      -0.375768       -10.2252
 165   2.0000      -0.374662       -10.1951
 166   2.0000      -0.369706       -10.0602
 167   2.0000      -0.357967        -9.7408
 168   2.0000      -0.352583        -9.5943
 169   2.0000      -0.336795        -9.1647
 170   2.0000      -0.332389        -9.0448
 171   2.0000      -0.329311        -8.9610
 172   2.0000      -0.328210        -8.9310
 173   2.0000      -0.325707        -8.8629
 174   2.0000      -0.306405        -8.3377
 175   2.0000      -0.292514        -7.9597
 176   2.0000      -0.266259        -7.2453
 177   2.0000      -0.242754        -6.6057
 178   0.0000      -0.088445        -2.4067
 179   0.0000      -0.071686        -1.9507
 180   0.0000      -0.053464        -1.4548
 181   0.0000      -0.031999        -0.8707
 182   0.0000      -0.024194        -0.6583

MULLIKEN ATOMIC CHARGES
-----------------------
   0 C :    0.019475
   1 C :    0.042266
   2 N :   -0.058687
   3 C :   -0.020197
   4 C :   -0.024450
   5 N :   -0.040840
   6 C :   -0.098562
   7 S :    0.119501
   8 C :   -0.119209
   9 C :    0.030185
  10 C :    0.074211
  11 C :   -0.006009
  12 C :   -0.027908
  13 C :    0.154423
  14 O :   -0.126196
  15 C :    0.002983
  16 C :    0.063862
  17 C :   -0.137543
  18 S :    0.117853
  19 C :   -0.117507
  20 C :    0.013755
  21 C :    0.107442
  22 C :   -0.023872
  23 C :   -0.006172
  24 C :    0.163160
  25 O :   -0.138062
  26 C :   -0.025791
  27 C :   -0.029089
  28 C :    0.220288
  29 O :   -0.163764
  30 C :    0.100671
  31 C :    0.134666
  32 C :   -0.088012
  33 N :    0.262745
  34 O :   -0.236818
  35 O :   -0.241941
  36 C :    0.088459
  37 O :   -0.153858
  38 C :    0.176182
  39 C :   -0.031041
  40 C :   -0.043194
  41 C :    0.011638
  42 O :   -0.119981
  43 C :    0.460915
  44 F :   -0.169054
  45 F :   -0.136128
  46 F :   -0.168648
  47 C :   -0.035192
  48 C :    0.008919
  49 H :    0.016124
  50 H :    0.011158
  51 H :    0.012271
  52 H :    0.038711
  53 H :   -0.004345
  54 H :   -0.008674
  55 H :   -0.018705
  56 H :    0.034670
  57 H :    0.012612
  58 H :    0.007419
  59 H :    0.021720
  60 H :    0.004405
  61 H :    0.006365
  62 H :   -0.000466
  63 H :    0.051787
  64 H :    0.029075
Sum of atomic charges:   -0.0000000

LOEWDIN ATOMIC CHARGES
----------------------
   0 C :   -0.004045
   1 C :    0.006576
   2 N :   -0.050820
   3 C :   -0.020238
   4 C :   -0.001543
   5 N :   -0.035879
   6 C :   -0.177911
   7 S :    0.433190
   8 C :   -0.121473
   9 C :   -0.097613
  10 C :   -0.032939
  11 C :    0.037325
  12 C :   -0.060886
  13 C :    0.088639
  14 O :   -0.120364
  15 C :   -0.010221
  16 C :   -0.027414
  17 C :   -0.153772
  18 S :    0.426122
  19 C :   -0.127472
  20 C :   -0.095445
  21 C :   -0.056530
  22 C :    0.036189
  23 C :   -0.060664
  24 C :    0.092977
  25 O :   -0.125833
  26 C :    0.000627
  27 C :   -0.036466
  28 C :    0.050354
  29 O :    0.056302
  30 C :    0.032386
  31 C :   -0.059776
  32 C :   -0.041564
  33 N :    0.283507
  34 O :   -0.203983
  35 O :   -0.206142
  36 C :    0.054146
  37 O :    0.059823
  38 C :    0.042726
  39 C :   -0.047219
  40 C :   -0.108628
  41 C :    0.033208
  42 O :   -0.105641
  43 C :    0.141334
  44 F :   -0.061512
  45 F :   -0.036728
  46 F :   -0.062276
  47 C :   -0.046469
  48 C :   -0.009475
  49 H :    0.027251
  50 H :    0.026939
  51 H :    0.020652
  52 H :    0.035681
  53 H :    0.029593
  54 H :    0.032975
  55 H :    0.028100
  56 H :    0.034090
  57 H :    0.036156
  58 H :    0.038198
  59 H :    0.041482
  60 H :    0.045083
  61 H :    0.033608
  62 H :    0.038314
  63 H :    0.034017
  64 H :    0.029367

  Mayer bond orders larger than 0.100000
B(  0-C ,  1-C ) :   1.3528 B(  0-C ,  5-N ) :   1.5338 B(  0-C , 49-H ) :   0.9789
B(  1-C ,  2-N ) :   1.5457 B(  1-C , 50-H ) :   0.9753 B(  2-N ,  3-C ) :   1.5628
B(  3-C ,  4-C ) :   1.3128 B(  3-C ,  6-C ) :   1.0581 B(  4-C ,  5-N ) :   1.5962
B(  4-C , 51-H ) :   0.9772 B(  6-C ,  7-S ) :   1.1016 B(  6-C , 10-C ) :   1.4991
B(  7-S ,  8-C ) :   1.1519 B(  8-C ,  9-C ) :   1.5942 B(  8-C , 52-H ) :   0.9709
B(  9-C , 10-C ) :   1.1970 B(  9-C , 13-C ) :   0.9029 B( 10-C , 11-C ) :   1.0762
B( 11-C , 12-C ) :   1.5635 B( 11-C , 53-H ) :   1.0109 B( 12-C , 13-C ) :   0.9368
B( 12-C , 15-C ) :   1.1331 B( 13-C , 14-O ) :   2.2539 B( 15-C , 16-C ) :   1.6437
B( 15-C , 54-H ) :   0.9709 B( 16-C , 17-C ) :   1.1291 B( 16-C , 55-H ) :   0.9594
B( 17-C , 18-S ) :   1.0962 B( 17-C , 21-C ) :   1.4566 B( 18-S , 19-C ) :   1.1446
B( 19-C , 20-C ) :   1.5986 B( 19-C , 56-H ) :   0.9693 B( 20-C , 21-C ) :   1.2140
B( 20-C , 24-C ) :   0.9217 B( 21-C , 22-C ) :   1.0419 B( 22-C , 23-C ) :   1.5854
B( 22-C , 57-H ) :   1.0158 B( 23-C , 24-C ) :   0.9423 B( 23-C , 26-C ) :   1.1114
B( 24-C , 25-O ) :   2.2109 B( 26-C , 27-C ) :   1.6434 B( 26-C , 58-H ) :   0.9813
B( 27-C , 28-C ) :   1.1140 B( 27-C , 59-H ) :   0.9614 B( 28-C , 29-O ) :   1.1332
B( 28-C , 30-C ) :   0.1053 B( 28-C , 32-C ) :   1.3654 B( 29-O , 30-C ) :   1.2280
B( 30-C , 31-C ) :   1.3581 B( 30-C , 36-C ) :   1.0893 B( 31-C , 32-C ) :   1.2365
B( 31-C , 33-N ) :   0.9244 B( 32-C , 60-H ) :   1.0318 B( 33-N , 34-O ) :   1.5175
B( 33-N , 35-O ) :   1.5413 B( 34-O , 35-O ) :   0.2715 B( 36-C , 37-O ) :   1.2615
B( 36-C , 40-C ) :   1.3742 B( 37-O , 38-C ) :   1.1264 B( 38-C , 39-C ) :   1.4639
B( 38-C , 47-C ) :   1.1067 B( 39-C , 40-C ) :   1.2151 B( 39-C , 61-H ) :   0.9852
B( 40-C , 41-C ) :   0.9582 B( 41-C , 42-O ) :   2.1842 B( 41-C , 43-C ) :   0.8858
B( 43-C , 44-F ) :   1.1207 B( 43-C , 45-F ) :   1.1876 B( 43-C , 46-F ) :   1.1263
B( 47-C , 48-C ) :   1.9207 B( 47-C , 62-H ) :   0.9601 B( 48-C , 63-H ) :   0.9517
B( 48-C , 64-H ) :   0.9476

-----------------------------------------------------------------------------
         ABSORPTION SPECTRUM VIA TRANSITION ELECTRIC DIPOLE MOMENTS
-----------------------------------------------------------------------------
State   Energy  Wavelength   fosc         T2         TX        TY        TZ
        (cm-1)    (nm)                  (au**2)     (au)      (au)      (au)
-----------------------------------------------------------------------------
   0   17857.6    560.0   0.875405906  16.13843   0.81043   1.82578  -3.48542
   1   21320.5    469.0   0.601374719   9.28590   2.46172  -0.24696   1.77900
   2   23325.4    428.7   0.090230329   1.27350   1.00217  -0.05742   0.51562
   3   24204.1    413.2   0.098472480   1.33937  -0.85447   0.09789  -0.77438
   4   27770.7    360.1   0.129659526   1.53707   0.68131  -0.19961   1.01639
   5   27952.8    357.7   0.001357117   0.01598  -0.03347   0.04149  -0.11464
   6   28518.8    350.6   0.243361926   2.80929   0.13998  -0.62113   1.55045
   7   28732.5    348.0   0.000797989   0.00914  -0.02714   0.03562  -0.08448
   8   29727.9    336.4   0.152991737   1.69425  -0.81842  -0.74624   0.68380
   9   30670.5    326.0   0.018407172   0.19758  -0.14335  -0.02014   0.42027
  10   30976.4    322.8   0.299345317   3.18139  -0.06454   1.02912  -1.45538
  11   31974.5    312.7   0.042866230   0.44135   0.53158  -0.31225   0.24753
  12   32439.5    308.3   0.014794016   0.15014  -0.16152   0.32643  -0.13226
  13   32479.7    307.9   0.001067713   0.01082  -0.08825  -0.04128   0.03648
  14   32674.3    306.1   0.004163255   0.04195  -0.11367   0.12172   0.11921
  15   33425.5    299.2   0.036762200   0.36208  -0.32353  -0.03366  -0.50623
  16   34174.4    292.6   0.254794827   2.45451   0.22902   0.70842  -1.37848
  17   35545.8    281.3   0.306187968   2.83580   1.49112   0.75446  -0.20769
  18   36428.8    274.5   0.020373534   0.18412  -0.07842  -0.19601   0.37356
  19   36845.0    271.4   0.007315335   0.06536   0.08862  -0.14898   0.18792
  20   37186.0    268.9   0.029834343   0.26413   0.50231   0.02627   0.10547
  21   37558.1    266.3   0.155089683   1.35942  -0.83064  -0.66170   0.48126
  22   38160.2    262.1   0.001746519   0.01507   0.06067   0.04228  -0.09797
  23   38514.3    259.6   0.051748448   0.44233  -0.50342  -0.34357   0.26620
  24   38767.0    258.0   0.000580513   0.00493  -0.06323   0.01717   0.02523
  25   39124.4    255.6   0.005710428   0.04805  -0.06244  -0.18464   0.10030
  26   39575.0    252.7   0.151068780   1.25669   0.13264   0.74757  -0.82477
  27   40001.0    250.0   0.254254719   2.09254  -0.73827  -0.86525   0.89378

FINAL SINGLE POINT ENERGY     -3088.801830956953

DIPOLE MOMENT
-------------
                                X             Y             Z
Electronic contribution:     13.37647       5.94025      -6.93613
Nuclear contribution   :    -13.15231      -7.02761       9.00954
                        -----------------------------------------
Total Dipole Moment    :      0.22416      -1.08736       2.07341
                        -----------------------------------------
Magnitude (a.u.)       :      2.35194
Magnitude (Debye)      :      5.97816

Rotational constants in cm-1:     0.002756     0.000672     0.000549
Rotational constants in MHz :    82.632649    20.154804    16.457842

                             ****ORCA TERMINATED NORMALLY****
TOTAL RUN TIME: 0 days 0 hours 4 minutes 2 seconds 837 msec
