                         Program Version 4.2.0 -  RELEASE  -
|  1> # ORCA input file
|  2> # SCF done       -123.539137441781          0.000492427860
|  3> ! CAM-B3LYP def2-SVP def2/J RIJCOSX Grid4 TightSCF
|  4> %maxcore 5000
|  5> %tddft
|  6>     Mode sTDDFT
|  7>     Ethresh 5.0
|  8>     maxcore 5000
|  9> end
| 10>
| 11> %pal
| 12>   nprocs 6
| 13>   end
| 14> * xyz 0 1
| 15>    C       -2.93062        -6.90066        -4.66819
| 16>    C       -3.31892        -5.56728        -4.74637
| 17>    N       -3.10748        -4.73723        -3.74389
| 18>    C       -2.45986        -5.19343        -2.67163
| 19>    C       -2.00183        -6.52327        -2.63977
| 20>    N       -2.26190        -7.36093        -3.61991
| 21>    C       -2.23220        -4.30078        -1.56340
| 22>    N       -1.87525        -4.77428        -0.38598
| 23>    C       -1.76107        -3.70095         0.42828
| 24>    C       -2.03644        -2.45670        -0.29312
| 25>    C       -2.05017        -1.31202         0.63707
| 26>    O       -2.38062        -0.16541         0.43609
| 27>    C       -1.65143        -1.93888         1.91488
| 28>    C       -1.50696        -3.40124         1.74631
| 29>    N       -1.18384        -3.99001         2.92214
| 30>    C       -1.11375        -3.00822         3.78852
| 31>    C       -1.40017        -1.70119         3.22680
| 32>    C       -2.32714        -2.82911        -1.58918
| 33>    C       -2.56601        -1.95601        -2.67845
| 34>    C       -2.04722        -0.64527        -2.72935
| 35>    C       -2.54949         0.11929        -3.82270
| 36>    N       -2.17707         1.39983        -3.98290
| 37>    C       -1.35002         1.88080        -3.09537
| 38>    C       -0.77802         1.09783        -2.05478
| 39>    C        0.23806         1.67195        -1.13071
| 40>    N       -1.11982        -0.15681        -1.89837
| 41>    C       -3.43847        -0.61929        -4.62992
| 42>    S       -3.58322        -2.25184        -4.02930
| 43>    C       -4.16668        -0.21734        -5.75350
| 44>    C       -4.13759         1.04735        -6.28379
| 45>    C       -4.92974         1.38209        -7.39425
| 46>    N       -5.78815         0.51104        -7.94271
| 47>    C       -6.39776         1.15778        -8.93211
| 48>    C       -5.91499         2.55090        -9.05133
| 49>    C       -6.62222         3.24012       -10.15504
| 50>    O       -6.49061         4.38670       -10.53024
| 51>    C       -7.51640         2.20058       -10.66816
| 52>    C       -7.35581         0.94950        -9.90494
| 53>    N       -8.17832        -0.00918       -10.37773
| 54>    C       -8.83169         0.55857       -11.37183
| 55>    C       -8.46775         1.93148       -11.60708
| 56>    C       -4.96756         2.69944        -8.07823
| 57>    C       -4.15179         3.85159        -7.76406
| 58>    C       -4.31238         5.07825        -8.43936
| 59>    N       -3.55839         6.11781        -8.15626
| 60>    C       -2.63499         5.99370        -7.21656
| 61>    C       -2.46812         4.78885        -6.54414
| 62>    N       -3.21731         3.74210        -6.82011
| 63>    H       -3.15891        -7.61413        -5.44675
| 64>    H       -3.83204        -5.15904        -5.60543
| 65>    H       -1.42665        -6.88713        -1.80163
| 66>    H       -0.86627        -3.20768         4.81662
| 67>    H       -1.40226        -0.77711         3.77023
| 68>    H       -1.06899         2.91856        -3.21447
| 69>    H        0.95741         2.28383        -1.67069
| 70>    H        0.74795         0.87089        -0.60361
| 71>    H       -0.26600         2.30025        -0.39681
| 72>    H       -4.80146        -0.95309        -6.23044
| 73>    H       -3.50457         1.80815        -5.85338
| 74>    H       -9.56380        -0.00227       -11.92648
| 75>    H       -8.87889         2.56887       -12.36458
| 76>    H       -5.05362         5.21034        -9.21565
| 77>    H       -2.03013         6.86442        -7.00819
| 78>    H       -1.72200         4.65302        -5.77349
| 79> *
| 80>
| 81>                          ****END OF INPUT****

CARTESIAN COORDINATES (ANGSTROEM)
---------------------------------
  C     -2.930620   -6.900660   -4.668190
  C     -3.318920   -5.567280   -4.746370
  N     -3.107480   -4.737230   -3.743890
  C     -2.459860   -5.193430   -2.671630
  C     -2.001830   -6.523270   -2.639770
  N     -2.261900   -7.360930   -3.619910
  C     -2.232200   -4.300780   -1.563400
  N     -1.875250   -4.774280   -0.385980
  C     -1.761070   -3.700950    0.428280
  C     -2.036440   -2.456700   -0.293120
  C     -2.050170   -1.312020    0.637070
  O     -2.380620   -0.165410    0.436090
  C     -1.651430   -1.938880    1.914880
  C     -1.506960   -3.401240    1.746310
  N     -1.183840   -3.990010    2.922140
  C     -1.113750   -3.008220    3.788520
  C     -1.400170   -1.701190    3.226800
  C     -2.327140   -2.829110   -1.589180
  C     -2.566010   -1.956010   -2.678450
  C     -2.047220   -0.645270   -2.729350
  C     -2.549490    0.119290   -3.822700
  N     -2.177070    1.399830   -3.982900
  C     -1.350020    1.880800   -3.095370
  C     -0.778020    1.097830   -2.054780
  C      0.238060    1.671950   -1.130710
  N     -1.119820   -0.156810   -1.898370
  C     -3.438470   -0.619290   -4.629920
  S     -3.583220   -2.251840   -4.029300
  C     -4.166680   -0.217340   -5.753500
  C     -4.137590    1.047350   -6.283790
  C     -4.929740    1.382090   -7.394250
  N     -5.788150    0.511040   -7.942710
  C     -6.397760    1.157780   -8.932110
  C     -5.914990    2.550900   -9.051330
  C     -6.622220    3.240120  -10.155040
  O     -6.490610    4.386700  -10.530240
  C     -7.516400    2.200580  -10.668160
  C     -7.355810    0.949500   -9.904940
  N     -8.178320   -0.009180  -10.377730
  C     -8.831690    0.558570  -11.371830
  C     -8.467750    1.931480  -11.607080
  C     -4.967560    2.699440   -8.078230
  C     -4.151790    3.851590   -7.764060
  C     -4.312380    5.078250   -8.439360
  N     -3.558390    6.117810   -8.156260
  C     -2.634990    5.993700   -7.216560
  C     -2.468120    4.788850   -6.544140
  N     -3.217310    3.742100   -6.820110
  H     -3.158910   -7.614130   -5.446750
  H     -3.832040   -5.159040   -5.605430
  H     -1.426650   -6.887130   -1.801630
  H     -0.866270   -3.207680    4.816620
  H     -1.402260   -0.777110    3.770230
  H     -1.068990    2.918560   -3.214470
  H      0.957410    2.283830   -1.670690
  H      0.747950    0.870890   -0.603610
  H     -0.266000    2.300250   -0.396810
  H     -4.801460   -0.953090   -6.230440
  H     -3.504570    1.808150   -5.853380
  H     -9.563800   -0.002270  -11.926480
  H     -8.878890    2.568870  -12.364580
  H     -5.053620    5.210340   -9.215650
  H     -2.030130    6.864420   -7.008190
  H     -1.722000    4.653020   -5.773490

 Total Charge           Charge          ....    0
 Multiplicity           Mult            ....    1
 Number of Electrons    NEL             ....  328
 Basis Dimension        Dim             ....  756

ORBITAL ENERGIES
----------------

  NO   OCC          E(Eh)            E(eV)
   0   2.0000     -88.986705     -2421.4513
   1   2.0000     -19.212992      -522.8121
   2   2.0000     -19.201676      -522.5042
   3   2.0000     -14.454327      -393.3222
   4   2.0000     -14.441912      -392.9844
   5   2.0000     -14.430454      -392.6726
   6   2.0000     -14.426029      -392.5522
   7   2.0000     -14.422877      -392.4664
   8   2.0000     -14.416998      -392.3065
   9   2.0000     -14.415105      -392.2550
  10   2.0000     -14.410469      -392.1288
  11   2.0000     -14.392256      -391.6332
  12   2.0000     -14.389475      -391.5575
  13   2.0000     -10.374645      -282.3084
  14   2.0000     -10.362790      -281.9858
  15   2.0000     -10.356510      -281.8150
  16   2.0000     -10.346225      -281.5351
  17   2.0000     -10.341866      -281.4165
  18   2.0000     -10.339377      -281.3487
  19   2.0000     -10.338339      -281.3205
  20   2.0000     -10.337061      -281.2857
  21   2.0000     -10.336591      -281.2729
  22   2.0000     -10.336240      -281.2634
  23   2.0000     -10.329242      -281.0730
  24   2.0000     -10.327790      -281.0335
  25   2.0000     -10.325350      -280.9671
  26   2.0000     -10.323427      -280.9147
  27   2.0000     -10.320417      -280.8328
  28   2.0000     -10.320371      -280.8316
  29   2.0000     -10.319901      -280.8188
  30   2.0000     -10.319701      -280.8133
  31   2.0000     -10.319314      -280.8028
  32   2.0000     -10.311606      -280.5931
  33   2.0000     -10.308923      -280.5200
  34   2.0000     -10.306574      -280.4561
  35   2.0000     -10.306439      -280.4525
  36   2.0000     -10.305281      -280.4210
  37   2.0000     -10.299564      -280.2654
  38   2.0000     -10.299412      -280.2613
  39   2.0000     -10.299384      -280.2605
  40   2.0000     -10.299094      -280.2526
  41   2.0000     -10.297472      -280.2085
  42   2.0000     -10.296002      -280.1685
  43   2.0000     -10.286861      -279.9197
  44   2.0000     -10.273462      -279.5551
  45   2.0000     -10.272904      -279.5399
  46   2.0000     -10.271823      -279.5105
  47   2.0000     -10.265694      -279.3437
  48   2.0000      -8.079294      -219.8488
  49   2.0000      -6.048275      -164.5819
  50   2.0000      -6.043931      -164.4637
  51   2.0000      -6.042504      -164.4249
  52   2.0000      -1.128101       -30.6972
  53   2.0000      -1.116666       -30.3860
  54   2.0000      -1.107552       -30.1380
  55   2.0000      -1.088872       -29.6297
  56   2.0000      -1.086476       -29.5645
  57   2.0000      -1.073480       -29.2109
  58   2.0000      -1.070597       -29.1324
  59   2.0000      -1.062922       -28.9236
  60   2.0000      -1.042925       -28.3794
  61   2.0000      -1.024382       -27.8749
  62   2.0000      -1.009671       -27.4745
  63   2.0000      -0.991612       -26.9831
  64   2.0000      -0.991057       -26.9680
  65   2.0000      -0.946504       -25.7557
  66   2.0000      -0.926206       -25.2033
  67   2.0000      -0.912256       -24.8238
  68   2.0000      -0.901655       -24.5353
  69   2.0000      -0.895056       -24.3557
  70   2.0000      -0.881825       -23.9957
  71   2.0000      -0.876239       -23.8437
  72   2.0000      -0.867361       -23.6021
  73   2.0000      -0.844718       -22.9859
  74   2.0000      -0.836185       -22.7538
  75   2.0000      -0.822232       -22.3741
  76   2.0000      -0.808867       -22.0104
  77   2.0000      -0.806502       -21.9460
  78   2.0000      -0.777116       -21.1464
  79   2.0000      -0.772239       -21.0137
  80   2.0000      -0.760788       -20.7021
  81   2.0000      -0.755873       -20.5684
  82   2.0000      -0.746937       -20.3252
  83   2.0000      -0.741025       -20.1643
  84   2.0000      -0.735528       -20.0147
  85   2.0000      -0.727984       -19.8095
  86   2.0000      -0.716333       -19.4924
  87   2.0000      -0.701861       -19.0986
  88   2.0000      -0.698998       -19.0207
  89   2.0000      -0.668727       -18.1970
  90   2.0000      -0.660485       -17.9727
  91   2.0000      -0.648432       -17.6447
  92   2.0000      -0.643835       -17.5196
  93   2.0000      -0.641168       -17.4471
  94   2.0000      -0.631656       -17.1882
  95   2.0000      -0.628369       -17.0988
  96   2.0000      -0.625410       -17.0183
  97   2.0000      -0.622358       -16.9352
  98   2.0000      -0.611510       -16.6400
  99   2.0000      -0.601906       -16.3787
 100   2.0000      -0.596289       -16.2259
 101   2.0000      -0.591007       -16.0821
 102   2.0000      -0.583242       -15.8708
 103   2.0000      -0.579927       -15.7806
 104   2.0000      -0.567635       -15.4461
 105   2.0000      -0.566157       -15.4059
 106   2.0000      -0.559891       -15.2354
 107   2.0000      -0.553396       -15.0587
 108   2.0000      -0.547065       -14.8864
 109   2.0000      -0.546402       -14.8684
 110   2.0000      -0.542189       -14.7537
 111   2.0000      -0.540091       -14.6966
 112   2.0000      -0.537002       -14.6126
 113   2.0000      -0.536344       -14.5947
 114   2.0000      -0.528695       -14.3865
 115   2.0000      -0.526331       -14.3222
 116   2.0000      -0.521724       -14.1968
 117   2.0000      -0.515007       -14.0141
 118   2.0000      -0.513197       -13.9648
 119   2.0000      -0.511406       -13.9161
 120   2.0000      -0.504978       -13.7411
 121   2.0000      -0.501257       -13.6399
 122   2.0000      -0.496595       -13.5130
 123   2.0000      -0.493069       -13.4171
 124   2.0000      -0.487218       -13.2579
 125   2.0000      -0.484953       -13.1962
 126   2.0000      -0.481743       -13.1089
 127   2.0000      -0.477677       -12.9982
 128   2.0000      -0.476735       -12.9726
 129   2.0000      -0.475598       -12.9417
 130   2.0000      -0.471932       -12.8419
 131   2.0000      -0.469276       -12.7697
 132   2.0000      -0.461601       -12.5608
 133   2.0000      -0.461045       -12.5457
 134   2.0000      -0.460205       -12.5228
 135   2.0000      -0.453678       -12.3452
 136   2.0000      -0.446495       -12.1497
 137   2.0000      -0.445719       -12.1286
 138   2.0000      -0.432720       -11.7749
 139   2.0000      -0.430938       -11.7264
 140   2.0000      -0.404143       -10.9973
 141   2.0000      -0.392375       -10.6771
 142   2.0000      -0.390270       -10.6198
 143   2.0000      -0.385078       -10.4785
 144   2.0000      -0.383872       -10.4457
 145   2.0000      -0.373565       -10.1652
 146   2.0000      -0.370996       -10.0953
 147   2.0000      -0.367380        -9.9969
 148   2.0000      -0.362565        -9.8659
 149   2.0000      -0.355397        -9.6708
 150   2.0000      -0.348454        -9.4819
 151   2.0000      -0.342741        -9.3265
 152   2.0000      -0.340951        -9.2777
 153   2.0000      -0.339715        -9.2441
 154   2.0000      -0.333907        -9.0861
 155   2.0000      -0.327324        -8.9069
 156   2.0000      -0.323648        -8.8069
 157   2.0000      -0.321231        -8.7411
 158   2.0000      -0.320022        -8.7082
 159   2.0000      -0.319390        -8.6910
 160   2.0000      -0.309341        -8.4176
 161   2.0000      -0.305667        -8.3176
 162   2.0000      -0.296311        -8.0630
 163   2.0000      -0.250050        -6.8042
 164   0.0000      -0.129134        -3.5139
 165   0.0000      -0.108521        -2.9530
 166   0.0000      -0.067204        -1.8287
 167   0.0000      -0.040999        -1.1156
 168   0.0000      -0.036965        -1.0059

MULLIKEN ATOMIC CHARGES
-----------------------
   0 C :    0.036767
   1 C :    0.068737
   2 N :   -0.091182
   3 C :   -0.059946
   4 C :    0.046911
   5 N :   -0.038571
   6 C :    0.042831
   7 N :   -0.031628
   8 C :    0.060326
   9 C :   -0.166265
  10 C :    0.208967
  11 O :   -0.126629
  12 C :   -0.025243
  13 C :   -0.006787
  14 N :   -0.052400
  15 C :    0.096148
  16 C :   -0.095151
  17 C :    0.081577
  18 C :   -0.209089
  19 C :    0.052036
  20 C :    0.031971
  21 N :    0.016764
  22 C :    0.035081
  23 C :   -0.138151
  24 C :    0.106217
  25 N :    0.017140
  26 C :   -0.125247
  27 S :    0.242495
  28 C :    0.066816
  29 C :   -0.058838
  30 C :    0.021593
  31 N :   -0.047595
  32 C :    0.057713
  33 C :   -0.166655
  34 C :    0.214092
  35 O :   -0.145247
  36 C :   -0.014410
  37 C :   -0.044923
  38 N :   -0.061878
  39 C :    0.083050
  40 C :   -0.095885
  41 C :    0.116627
  42 C :   -0.109343
  43 C :    0.007470
  44 N :   -0.041183
  45 C :    0.025770
  46 C :    0.038454
  47 N :   -0.043376
  48 H :    0.030011
  49 H :    0.017717
  50 H :    0.027171
  51 H :    0.015289
  52 H :   -0.002067
  53 H :   -0.004578
  54 H :    0.023368
  55 H :    0.028852
  56 H :    0.046758
  57 H :    0.002149
  58 H :    0.022596
  59 H :    0.000564
  60 H :   -0.012872
  61 H :    0.015651
  62 H :    0.009996
  63 H :   -0.000535
Sum of atomic charges:   -0.0000000

LOEWDIN ATOMIC CHARGES
----------------------
   0 C :    0.024231
   1 C :    0.012614
   2 N :   -0.053780
   3 C :   -0.028824
   4 C :    0.051287
   5 N :   -0.033907
   6 C :    0.061318
   7 N :   -0.089487
   8 C :    0.042836
   9 C :   -0.035969
  10 C :    0.066435
  11 O :   -0.132928
  12 C :   -0.033032
  13 C :    0.036558
  14 N :   -0.096909
  15 C :    0.086038
  16 C :   -0.033758
  17 C :   -0.039012
  18 C :   -0.186194
  19 C :   -0.030734
  20 C :   -0.037420
  21 N :   -0.025014
  22 C :    0.016779
  23 C :    0.004829
  24 C :   -0.051186
  25 N :   -0.030808
  26 C :   -0.188518
  27 S :    0.565191
  28 C :    0.034834
  29 C :   -0.040695
  30 C :    0.081027
  31 N :   -0.118541
  32 C :    0.043892
  33 C :   -0.030381
  34 C :    0.067085
  35 O :   -0.143690
  36 C :   -0.047785
  37 C :    0.006649
  38 N :   -0.102800
  39 C :    0.059740
  40 C :   -0.045656
  41 C :   -0.033110
  42 C :   -0.014428
  43 C :    0.025984
  44 N :   -0.040652
  45 C :    0.000580
  46 C :   -0.001539
  47 N :   -0.036669
  48 H :    0.033243
  49 H :    0.028883
  50 H :    0.036674
  51 H :    0.026064
  52 H :    0.035537
  53 H :    0.023340
  54 H :    0.034325
  55 H :    0.039522
  56 H :    0.048246
  57 H :    0.036119
  58 H :    0.029978
  59 H :    0.019915
  60 H :    0.031487
  61 H :    0.025468
  62 H :    0.024689
  63 H :    0.022024

  Mayer bond orders larger than 0.100000
B(  0-C ,  1-C ) :   1.3610 B(  0-C ,  3-C ) :   0.1022 B(  0-C ,  5-N ) :   1.5311
B(  0-C , 48-H ) :   0.9798 B(  1-C ,  2-N ) :   1.4958 B(  1-C , 49-H ) :   0.9689
B(  2-N ,  3-C ) :   1.5326 B(  3-C ,  4-C ) :   1.3359 B(  3-C ,  6-C ) :   0.9788
B(  4-C ,  5-N ) :   1.5664 B(  4-C , 50-H ) :   0.9754 B(  6-C ,  7-N ) :   1.6909
B(  6-C ,  8-C ) :   0.1077 B(  6-C , 17-C ) :   1.0492 B(  7-N ,  8-C ) :   1.3036
B(  8-C ,  9-C ) :   1.0662 B(  8-C , 13-C ) :   1.4433 B(  9-C , 10-C ) :   0.8924
B(  9-C , 17-C ) :   1.5630 B( 10-C , 11-O ) :   2.2706 B( 10-C , 12-C ) :   0.8997
B( 12-C , 13-C ) :   1.0489 B( 12-C , 16-C ) :   1.6266 B( 13-C , 14-N ) :   1.3046
B( 14-N , 15-C ) :   1.6628 B( 15-C , 16-C ) :   1.0557 B( 15-C , 51-H ) :   0.9892
B( 16-C , 52-H ) :   1.0114 B( 17-C , 18-C ) :   1.0901 B( 18-C , 19-C ) :   1.3159
B( 18-C , 26-C ) :   0.1314 B( 18-C , 27-S ) :   1.2117 B( 19-C , 20-C ) :   1.2408
B( 19-C , 25-N ) :   1.4265 B( 20-C , 21-N ) :   1.4256 B( 20-C , 26-C ) :   1.2663
B( 21-N , 22-C ) :   1.6963 B( 22-C , 23-C ) :   1.1723 B( 22-C , 53-H ) :   0.9775
B( 23-C , 24-C ) :   1.0537 B( 23-C , 25-N ) :   1.6687 B( 24-C , 54-H ) :   0.9563
B( 24-C , 55-H ) :   0.9520 B( 24-C , 56-H ) :   0.9453 B( 26-C , 27-S ) :   1.1206
B( 26-C , 28-C ) :   1.1770 B( 28-C , 29-C ) :   1.5237 B( 28-C , 57-H ) :   0.9624
B( 29-C , 30-C ) :   1.2129 B( 29-C , 58-H ) :   0.9329 B( 30-C , 31-N ) :   1.5085
B( 30-C , 32-C ) :   0.1087 B( 30-C , 41-C ) :   0.9958 B( 31-N , 32-C ) :   1.4365
B( 32-C , 33-C ) :   1.0435 B( 32-C , 37-C ) :   1.3466 B( 33-C , 34-C ) :   0.8684
B( 33-C , 41-C ) :   1.6149 B( 34-C , 35-O ) :   2.1792 B( 34-C , 36-C ) :   0.9484
B( 35-O , 61-H ) :   0.1032 B( 36-C , 37-C ) :   1.0901 B( 36-C , 40-C ) :   1.5502
B( 37-C , 38-N ) :   1.3522 B( 38-N , 39-C ) :   1.6120 B( 39-C , 40-C ) :   1.1119
B( 39-C , 59-H ) :   0.9904 B( 40-C , 60-H ) :   1.0114 B( 41-C , 42-C ) :   0.9944
B( 42-C , 43-C ) :   1.3395 B( 42-C , 47-N ) :   1.5653 B( 43-C , 44-N ) :   1.5752
B( 43-C , 61-H ) :   0.9508 B( 44-N , 45-C ) :   1.5357 B( 45-C , 46-C ) :   1.3553
B( 45-C , 62-H ) :   0.9784 B( 46-C , 47-N ) :   1.5303 B( 46-C , 63-H ) :   0.9751

-----------------------------------------------------------------------------
         ABSORPTION SPECTRUM VIA TRANSITION ELECTRIC DIPOLE MOMENTS
-----------------------------------------------------------------------------
State   Energy  Wavelength   fosc         T2         TX        TY        TZ
        (cm-1)    (nm)                  (au**2)     (au)      (au)      (au)
-----------------------------------------------------------------------------
   0   11536.9    866.8   0.321725803   9.18066  -1.12935   0.94356  -2.64857
   1   15868.8    630.2   1.048636975  21.75493   2.35392  -1.49996   3.73686
   2   20055.0    498.6   0.006333174   0.10396   0.06580  -0.06381   0.30913
   3   20961.3    477.1   0.115760299   1.81810  -0.68988   0.32713  -1.11137
   4   21459.1    466.0   0.000346414   0.00531  -0.06861  -0.00553   0.02402
   5   22662.7    441.3   0.020148837   0.29269  -0.22335   0.27337  -0.40997
   6   23219.8    430.7   0.033465126   0.47447  -0.29639  -0.49015   0.38259
   7   23606.1    423.6   0.020965382   0.29238  -0.19599  -0.46075  -0.20416
   8   24117.8    414.6   0.007127128   0.09729  -0.23321  -0.18099  -0.10072
   9   24363.0    410.5   0.020043999   0.27085   0.28414   0.36093   0.24463
  10   24777.6    403.6   0.007619378   0.10124   0.18329   0.24514  -0.08688
  11   25284.7    395.5   0.001557542   0.02028  -0.12351  -0.05187  -0.04831
  12   25394.4    393.8   0.034569063   0.44815   0.47125   0.41572   0.23077
  13   25770.7    388.0   0.002114332   0.02701  -0.08562  -0.03732  -0.13522
  14   26008.9    384.5   0.012023464   0.15219  -0.12481  -0.27933   0.24205
  15   26880.2    372.0   0.191902184   2.35029  -0.25362  -0.51612  -1.42112
  16   27425.4    364.6   0.176864795   2.12307  -0.13204  -0.46539  -1.37443
  17   27645.8    361.7   0.005897802   0.07023   0.22137   0.14072  -0.03780
  18   28080.4    356.1   0.048470507   0.56826  -0.01532  -0.27236   0.70274
  19   28425.6    351.8   0.076177884   0.88226   0.58512   0.71741  -0.15880
  20   28792.5    347.3   0.025745210   0.29437  -0.12164  -0.23669   0.47281
  21   29125.8    343.3   0.128776265   1.45557   0.57505  -0.90307   0.55620
  22   29281.3    341.5   0.046897445   0.52727   0.14719   0.19442   0.68396
  23   29321.6    341.0   0.030492293   0.34236   0.23124   0.41159   0.34566
  24   29341.0    340.8   0.150412808   1.68766  -0.32085  -0.36448  -1.20494
  25   30630.0    326.5   0.017555801   0.18869   0.12103   0.38621   0.15774
  26   31360.2    318.9   0.067729166   0.71101   0.19806   0.81779  -0.05476
  27   31618.7    316.3   0.000759293   0.00791   0.04393   0.07726  -0.00279
  28   32410.8    308.5   0.031829303   0.32330   0.27519   0.19995   0.45563
  29   32549.5    307.2   0.002318017   0.02344   0.06344  -0.04429  -0.13213
  30   33362.4    299.7   0.013769408   0.13587  -0.15426  -0.17513  -0.28532
  31   33459.3    298.9   0.227485371   2.23827   0.01989   0.77337   1.28054
  32   33992.4    294.2   0.058344703   0.56506  -0.24246  -0.30337  -0.64362
  33   34181.0    292.6   0.000873778   0.00842  -0.09145  -0.00311   0.00655
  34   34338.9    291.2   0.077099045   0.73916   0.00789  -0.52422  -0.68139
  35   34693.3    288.2   0.053370189   0.50644  -0.11035   0.27217  -0.64822
  36   34900.8    286.5   0.433765906   4.09162   1.29413   0.97290   1.21256
  37   35441.0    282.2   0.127528006   1.18461   0.83914   0.48844   0.49182
  38   35800.1    279.3   0.011812011   0.10862   0.31398   0.09419   0.03415
  39   35969.9    278.0   0.026689312   0.24427   0.44098   0.21486   0.06038
  40   36258.8    275.8   0.046268662   0.42010   0.32396   0.50058   0.25410
  41   36565.2    273.5   0.013441261   0.12102  -0.08907  -0.05653   0.33149
  42   36784.0    271.9   0.006147884   0.05502  -0.15259  -0.15851  -0.08131
  43   37091.4    269.6   0.006598821   0.05857   0.13430   0.04563   0.19609
  44   37112.5    269.5   0.015452833   0.13708   0.34034   0.14140  -0.03536
  45   37656.1    265.6   0.011841011   0.10352   0.18773   0.05068   0.25634
  46   37942.4    263.6   0.009411275   0.08166   0.03930   0.16361   0.23097
  47   38083.1    262.6   0.009081381   0.07850  -0.15360  -0.17666   0.15396
  48   38324.0    260.9   0.117547360   1.00976   0.59138   0.57246   0.57648
  49   38810.8    257.7   0.139216531   1.18090  -0.47675  -0.51772  -0.82799
  50   38974.5    256.6   0.043720757   0.36930   0.21500  -0.21725   0.52525
  51   39053.3    256.1   0.241492327   2.03573   1.06982   0.40673   0.85193
  52   39097.5    255.8   0.009058289   0.07627  -0.26338  -0.04463  -0.07010
  53   39286.8    254.5   0.046429637   0.38907  -0.45551  -0.26756  -0.33164
  54   39486.8    253.2   0.046998819   0.39184  -0.19222   0.16947  -0.57112
  55   40186.1    248.8   0.001145711   0.00939  -0.01984   0.00251   0.09479

FINAL SINGLE POINT ENERGY     -2436.667250720989

DIPOLE MOMENT
-------------
                                X             Y             Z
Electronic contribution:     -7.45788     -11.35858      -0.59281
Nuclear contribution   :      9.08781      10.54141       2.38450
                        -----------------------------------------
Total Dipole Moment    :      1.62993      -0.81717       1.79169
                        -----------------------------------------
Magnitude (a.u.)       :      2.55629
Magnitude (Debye)      :      6.49756

Rotational constants in cm-1:     0.003509     0.000981     0.000804
Rotational constants in MHz :   105.204092    29.409242    24.099166

                             ****ORCA TERMINATED NORMALLY****
TOTAL RUN TIME: 0 days 0 hours 4 minutes 26 seconds 669 msec
