                         Program Version 4.2.0 -  RELEASE  -
|  1> # ORCA input file
|  2> # SCF done       -181.912530396068          0.000827629878
|  3> ! CAM-B3LYP def2-SVP def2/J RIJCOSX Grid4 TightSCF
|  4> %maxcore 5000
|  5> %tddft
|  6>     Mode sTDDFT
|  7>     Ethresh 5.0
|  8>     maxcore 5000
|  9> end
| 10>
| 11> %pal
| 12>   nprocs 6
| 13>   end
| 14> * xyz 0 1
| 15>    C       -3.79025       -23.30775       -10.05543
| 16>    O       -3.59389       -23.13364        -8.72216
| 17>    C       -4.01039       -21.90091        -8.45182
| 18>    C       -4.48179       -21.25963        -9.60353
| 19>    C       -4.32948       -22.19915       -10.64721
| 20>    C       -4.92922       -19.91553        -9.28036
| 21>    S       -5.55441       -18.78891       -10.27545
| 22>    C       -4.68583       -19.80432        -7.83823
| 23>    C       -4.13698       -20.99862        -7.35535
| 24>    O       -3.90310       -20.92979        -6.04810
| 25>    C       -4.29687       -19.67967        -5.64989
| 26>    C       -4.78818       -18.95308        -6.73468
| 27>    C       -4.14715       -19.35091        -4.27632
| 28>    C       -4.47631       -18.15782        -3.72807
| 29>    C       -4.32577       -17.83643        -2.35375
| 30>    O       -4.69655       -16.57691        -1.94805
| 31>    C       -4.46762       -16.52063        -0.64102
| 32>    C       -3.94521       -17.73427        -0.16220
| 33>    C       -3.85572       -18.57857        -1.27227
| 34>    C       -3.70903       -17.64206         1.27432
| 35>    S       -3.11536       -18.78329         2.27092
| 36>    C       -4.13115       -16.28453         1.60798
| 37>    C       -4.58102       -15.62440         0.45448
| 38>    O       -4.97050       -14.38288         0.73261
| 39>    C       -4.78413       -14.20846         2.07887
| 40>    C       -4.26519       -15.36577         2.65415
| 41>    C       -5.12583       -12.94010         2.63392
| 42>    C       -5.04464       -12.64813         3.94710
| 43>    C       -5.37256       -11.39210         4.58221
| 44>    C       -5.43415       -10.16222         3.89063
| 45>    O       -5.06151       -10.17520         2.58409
| 46>    C       -4.38055        -9.07168         2.01742
| 47>    C       -3.31870        -9.61967         1.07094
| 48>    C       -5.84051        -9.01292         4.58722
| 49>    C       -6.07595        -9.08088         5.95240
| 50>    C       -5.94853       -10.27436         6.65991
| 51>    C       -5.62067       -11.42163         5.95976
| 52>    O       -6.17022       -10.18625         8.00249
| 53>    C       -6.14774       -11.35495         8.79517
| 54>    C       -7.42709       -12.17823         8.66998
| 55>    C       -6.14054        -7.73150         3.91437
| 56>    C       -7.03194        -7.71226         2.83495
| 57>    O       -7.59231        -8.89495         2.38181
| 58>    C       -8.71940        -9.31739         3.13022
| 59>    C       -9.06072       -10.73979         2.72028
| 60>    C       -7.35565        -6.50037         2.22154
| 61>    C       -6.80744        -5.31504         2.69766
| 62>    C       -5.94402        -5.32310         3.78508
| 63>    C       -5.61281        -6.53931         4.38091
| 64>    O       -5.37425        -4.22468         4.35338
| 65>    C       -5.62174        -2.94461         3.80801
| 66>    C       -4.78177        -2.66215         2.56539
| 67>    C       -8.25672        -6.50574         1.05573
| 68>    C       -9.38886        -5.68203         0.99588
| 69>    O       -9.58073        -4.82911         2.05171
| 70>    C      -10.83617        -4.20891         2.22653
| 71>    C      -11.92584        -5.18796         2.65321
| 72>    C      -10.22171        -5.77797        -0.11375
| 73>    C       -9.94777        -6.67041        -1.13173
| 74>    C       -8.82347        -7.49060        -1.08001
| 75>    C       -7.97973        -7.38396         0.01607
| 76>    O       -8.64169        -8.33233        -2.13756
| 77>    C       -7.55988        -9.24283        -2.12421
| 78>    C       -7.76361       -10.41521        -1.16769
| 79>    H       -3.50711       -24.25853       -10.46046
| 80>    H       -4.57842       -22.08075       -11.68120
| 81>    H       -5.16338       -17.95143        -6.70973
| 82>    H       -3.73621       -20.13738        -3.66083
| 83>    H       -4.88379       -17.36949        -4.34348
| 84>    H       -3.50275       -19.58810        -1.30185
| 85>    H       -4.01929       -15.50856         3.68555
| 86>    H       -5.47457       -12.20604         1.92606
| 87>    H       -4.73804       -13.43194         4.62821
| 88>    H       -3.91583        -8.46190         2.79990
| 89>    H       -5.08740        -8.44170         1.46446
| 90>    H       -3.78514       -10.23983         0.31041
| 91>    H       -2.60392       -10.22682         1.62044
| 92>    H       -2.79474        -8.79856         0.58971
| 93>    H       -6.38813        -8.19669         6.48551
| 94>    H       -5.54908       -12.37634         6.45644
| 95>    H       -6.04643       -10.98480         9.81947
| 96>    H       -5.26583       -11.96457         8.56230
| 97>    H       -8.28425       -11.56821         8.94346
| 98>    H       -7.37732       -13.03618         9.33484
| 99>    H       -7.56745       -12.52785         7.65013
|100>    H       -9.56447        -8.64070         2.92956
|101>    H       -8.49220        -9.27782         4.20487
|102>    H       -9.89989       -11.10140         3.30801
|103>    H       -8.20104       -11.38400         2.88734
|104>    H       -9.32374       -10.77296         1.66665
|105>    H       -7.08273        -4.40150         2.19846
|106>    H       -4.92671        -6.53674         5.21350
|107>    H       -5.34279        -2.25141         4.60708
|108>    H       -6.68976        -2.81565         3.59547
|109>    H       -3.72619        -2.76650         2.80357
|110>    H       -4.96764        -1.64879         2.22011
|111>    H       -5.02399        -3.35814         1.76615
|112>    H      -11.13506        -3.66481         1.32131
|113>    H      -10.66256        -3.47748         3.02124
|114>    H      -12.09082        -5.93990         1.88514
|115>    H      -12.85433        -4.65134         2.82816
|116>    H      -11.62890        -5.69150         3.57005
|117>    H      -11.09992        -5.15761        -0.20001
|118>    H      -10.60376        -6.74367        -1.98458
|119>    H       -7.08880        -7.98336         0.09665
|120>    H       -6.62013        -8.72047        -1.90255
|121>    H       -7.51287        -9.60998        -3.15388
|122>    H       -7.76951       -10.08519        -0.13207
|123>    H       -6.95977       -11.13459        -1.30093
|124>    H       -8.71102       -10.90351        -1.38433
|125> *
|126>
|127>                          ****END OF INPUT****

CARTESIAN COORDINATES (ANGSTROEM)
---------------------------------
  C     -3.790250  -23.307750  -10.055430
  O     -3.593890  -23.133640   -8.722160
  C     -4.010390  -21.900910   -8.451820
  C     -4.481790  -21.259630   -9.603530
  C     -4.329480  -22.199150  -10.647210
  C     -4.929220  -19.915530   -9.280360
  S     -5.554410  -18.788910  -10.275450
  C     -4.685830  -19.804320   -7.838230
  C     -4.136980  -20.998620   -7.355350
  O     -3.903100  -20.929790   -6.048100
  C     -4.296870  -19.679670   -5.649890
  C     -4.788180  -18.953080   -6.734680
  C     -4.147150  -19.350910   -4.276320
  C     -4.476310  -18.157820   -3.728070
  C     -4.325770  -17.836430   -2.353750
  O     -4.696550  -16.576910   -1.948050
  C     -4.467620  -16.520630   -0.641020
  C     -3.945210  -17.734270   -0.162200
  C     -3.855720  -18.578570   -1.272270
  C     -3.709030  -17.642060    1.274320
  S     -3.115360  -18.783290    2.270920
  C     -4.131150  -16.284530    1.607980
  C     -4.581020  -15.624400    0.454480
  O     -4.970500  -14.382880    0.732610
  C     -4.784130  -14.208460    2.078870
  C     -4.265190  -15.365770    2.654150
  C     -5.125830  -12.940100    2.633920
  C     -5.044640  -12.648130    3.947100
  C     -5.372560  -11.392100    4.582210
  C     -5.434150  -10.162220    3.890630
  O     -5.061510  -10.175200    2.584090
  C     -4.380550   -9.071680    2.017420
  C     -3.318700   -9.619670    1.070940
  C     -5.840510   -9.012920    4.587220
  C     -6.075950   -9.080880    5.952400
  C     -5.948530  -10.274360    6.659910
  C     -5.620670  -11.421630    5.959760
  O     -6.170220  -10.186250    8.002490
  C     -6.147740  -11.354950    8.795170
  C     -7.427090  -12.178230    8.669980
  C     -6.140540   -7.731500    3.914370
  C     -7.031940   -7.712260    2.834950
  O     -7.592310   -8.894950    2.381810
  C     -8.719400   -9.317390    3.130220
  C     -9.060720  -10.739790    2.720280
  C     -7.355650   -6.500370    2.221540
  C     -6.807440   -5.315040    2.697660
  C     -5.944020   -5.323100    3.785080
  C     -5.612810   -6.539310    4.380910
  O     -5.374250   -4.224680    4.353380
  C     -5.621740   -2.944610    3.808010
  C     -4.781770   -2.662150    2.565390
  C     -8.256720   -6.505740    1.055730
  C     -9.388860   -5.682030    0.995880
  O     -9.580730   -4.829110    2.051710
  C    -10.836170   -4.208910    2.226530
  C    -11.925840   -5.187960    2.653210
  C    -10.221710   -5.777970   -0.113750
  C     -9.947770   -6.670410   -1.131730
  C     -8.823470   -7.490600   -1.080010
  C     -7.979730   -7.383960    0.016070
  O     -8.641690   -8.332330   -2.137560
  C     -7.559880   -9.242830   -2.124210
  C     -7.763610  -10.415210   -1.167690
  H     -3.507110  -24.258530  -10.460460
  H     -4.578420  -22.080750  -11.681200
  H     -5.163380  -17.951430   -6.709730
  H     -3.736210  -20.137380   -3.660830
  H     -4.883790  -17.369490   -4.343480
  H     -3.502750  -19.588100   -1.301850
  H     -4.019290  -15.508560    3.685550
  H     -5.474570  -12.206040    1.926060
  H     -4.738040  -13.431940    4.628210
  H     -3.915830   -8.461900    2.799900
  H     -5.087400   -8.441700    1.464460
  H     -3.785140  -10.239830    0.310410
  H     -2.603920  -10.226820    1.620440
  H     -2.794740   -8.798560    0.589710
  H     -6.388130   -8.196690    6.485510
  H     -5.549080  -12.376340    6.456440
  H     -6.046430  -10.984800    9.819470
  H     -5.265830  -11.964570    8.562300
  H     -8.284250  -11.568210    8.943460
  H     -7.377320  -13.036180    9.334840
  H     -7.567450  -12.527850    7.650130
  H     -9.564470   -8.640700    2.929560
  H     -8.492200   -9.277820    4.204870
  H     -9.899890  -11.101400    3.308010
  H     -8.201040  -11.384000    2.887340
  H     -9.323740  -10.772960    1.666650
  H     -7.082730   -4.401500    2.198460
  H     -4.926710   -6.536740    5.213500
  H     -5.342790   -2.251410    4.607080
  H     -6.689760   -2.815650    3.595470
  H     -3.726190   -2.766500    2.803570
  H     -4.967640   -1.648790    2.220110
  H     -5.023990   -3.358140    1.766150
  H    -11.135060   -3.664810    1.321310
  H    -10.662560   -3.477480    3.021240
  H    -12.090820   -5.939900    1.885140
  H    -12.854330   -4.651340    2.828160
  H    -11.628900   -5.691500    3.570050
  H    -11.099920   -5.157610   -0.200010
  H    -10.603760   -6.743670   -1.984580
  H     -7.088800   -7.983360    0.096650
  H     -6.620130   -8.720470   -1.902550
  H     -7.512870   -9.609980   -3.153880
  H     -7.769510  -10.085190   -0.132070
  H     -6.959770  -11.134590   -1.300930
  H     -8.711020  -10.903510   -1.384330

 Total Charge           Charge          ....    0
 Multiplicity           Mult            ....    1
 Number of Electrons    NEL             ....  470
 Basis Dimension        Dim             .... 1134

ORBITAL ENERGIES
----------------

  NO   OCC          E(Eh)            E(eV)
   0   2.0000     -88.906646     -2419.2728
   1   2.0000     -88.906416     -2419.2666
   2   2.0000     -19.307098      -525.3729
   3   2.0000     -19.305779      -525.3370
   4   2.0000     -19.305168      -525.3203
   5   2.0000     -19.301824      -525.2293
   6   2.0000     -19.228816      -523.2427
   7   2.0000     -19.228479      -523.2335
   8   2.0000     -19.228272      -523.2279
   9   2.0000     -19.225582      -523.1547
  10   2.0000     -19.221768      -523.0509
  11   2.0000     -19.213912      -522.8371
  12   2.0000     -10.344464      -281.4872
  13   2.0000     -10.344063      -281.4763
  14   2.0000     -10.341803      -281.4148
  15   2.0000     -10.339694      -281.3574
  16   2.0000     -10.338565      -281.3266
  17   2.0000     -10.337900      -281.3086
  18   2.0000     -10.332608      -281.1646
  19   2.0000     -10.331101      -281.1235
  20   2.0000     -10.326667      -281.0029
  21   2.0000     -10.325104      -280.9604
  22   2.0000     -10.317253      -280.7467
  23   2.0000     -10.317132      -280.7434
  24   2.0000     -10.316475      -280.7256
  25   2.0000     -10.315892      -280.7097
  26   2.0000     -10.315641      -280.7029
  27   2.0000     -10.314121      -280.6615
  28   2.0000     -10.313177      -280.6358
  29   2.0000     -10.308971      -280.5214
  30   2.0000     -10.308478      -280.5079
  31   2.0000     -10.307419      -280.4791
  32   2.0000     -10.304154      -280.3903
  33   2.0000     -10.301127      -280.3079
  34   2.0000     -10.283256      -279.8216
  35   2.0000     -10.281997      -279.7874
  36   2.0000     -10.280004      -279.7331
  37   2.0000     -10.279958      -279.7319
  38   2.0000     -10.279782      -279.7271
  39   2.0000     -10.275165      -279.6015
  40   2.0000     -10.274586      -279.5857
  41   2.0000     -10.273081      -279.5447
  42   2.0000     -10.272243      -279.5219
  43   2.0000     -10.271666      -279.5062
  44   2.0000     -10.270001      -279.4609
  45   2.0000     -10.269275      -279.4412
  46   2.0000     -10.269041      -279.4348
  47   2.0000     -10.267269      -279.3866
  48   2.0000     -10.266771      -279.3730
  49   2.0000     -10.264194      -279.3029
  50   2.0000     -10.262718      -279.2627
  51   2.0000     -10.259853      -279.1848
  52   2.0000     -10.258675      -279.1527
  53   2.0000     -10.256591      -279.0960
  54   2.0000     -10.256078      -279.0821
  55   2.0000     -10.255542      -279.0675
  56   2.0000     -10.254905      -279.0501
  57   2.0000     -10.254649      -279.0432
  58   2.0000     -10.253515      -279.0123
  59   2.0000     -10.253378      -279.0086
  60   2.0000     -10.253285      -279.0061
  61   2.0000     -10.249536      -278.9041
  62   2.0000     -10.245764      -278.8014
  63   2.0000     -10.243769      -278.7471
  64   2.0000      -8.002601      -217.7619
  65   2.0000      -8.002392      -217.7562
  66   2.0000      -5.972293      -162.5144
  67   2.0000      -5.972073      -162.5084
  68   2.0000      -5.970775      -162.4730
  69   2.0000      -5.970560      -162.4672
  70   2.0000      -5.961311      -162.2155
  71   2.0000      -5.961104      -162.2099
  72   2.0000      -1.223327       -33.2884
  73   2.0000      -1.219764       -33.1915
  74   2.0000      -1.217130       -33.1198
  75   2.0000      -1.213006       -33.0076
  76   2.0000      -1.133956       -30.8565
  77   2.0000      -1.133496       -30.8440
  78   2.0000      -1.132728       -30.8231
  79   2.0000      -1.132500       -30.8169
  80   2.0000      -1.126217       -30.6459
  81   2.0000      -1.117235       -30.4015
  82   2.0000      -0.979231       -26.6462
  83   2.0000      -0.978583       -26.6286
  84   2.0000      -0.949891       -25.8479
  85   2.0000      -0.940648       -25.5963
  86   2.0000      -0.925961       -25.1967
  87   2.0000      -0.919323       -25.0161
  88   2.0000      -0.901822       -24.5398
  89   2.0000      -0.891880       -24.2693
  90   2.0000      -0.887556       -24.1516
  91   2.0000      -0.879088       -23.9212
  92   2.0000      -0.869357       -23.6564
  93   2.0000      -0.862889       -23.4804
  94   2.0000      -0.858631       -23.3646
  95   2.0000      -0.858555       -23.3625
  96   2.0000      -0.858144       -23.3513
  97   2.0000      -0.850602       -23.1460
  98   2.0000      -0.844660       -22.9844
  99   2.0000      -0.838590       -22.8192
 100   2.0000      -0.834601       -22.7106
 101   2.0000      -0.831680       -22.6312
 102   2.0000      -0.828737       -22.5511
 103   2.0000      -0.817907       -22.2564
 104   2.0000      -0.804035       -21.8789
 105   2.0000      -0.796989       -21.6872
 106   2.0000      -0.786734       -21.4081
 107   2.0000      -0.781139       -21.2559
 108   2.0000      -0.776938       -21.1415
 109   2.0000      -0.761838       -20.7307
 110   2.0000      -0.753354       -20.4998
 111   2.0000      -0.732673       -19.9370
 112   2.0000      -0.728817       -19.8321
 113   2.0000      -0.723371       -19.6839
 114   2.0000      -0.719548       -19.5799
 115   2.0000      -0.712674       -19.3929
 116   2.0000      -0.703513       -19.1435
 117   2.0000      -0.699151       -19.0249
 118   2.0000      -0.692411       -18.8415
 119   2.0000      -0.686862       -18.6905
 120   2.0000      -0.681755       -18.5515
 121   2.0000      -0.680232       -18.5100
 122   2.0000      -0.676628       -18.4120
 123   2.0000      -0.674418       -18.3518
 124   2.0000      -0.660257       -17.9665
 125   2.0000      -0.659702       -17.9514
 126   2.0000      -0.646789       -17.6000
 127   2.0000      -0.642189       -17.4749
 128   2.0000      -0.641550       -17.4575
 129   2.0000      -0.637676       -17.3520
 130   2.0000      -0.636460       -17.3189
 131   2.0000      -0.631280       -17.1780
 132   2.0000      -0.626768       -17.0552
 133   2.0000      -0.610962       -16.6251
 134   2.0000      -0.601219       -16.3600
 135   2.0000      -0.597557       -16.2604
 136   2.0000      -0.593915       -16.1612
 137   2.0000      -0.591960       -16.1080
 138   2.0000      -0.588077       -16.0024
 139   2.0000      -0.584231       -15.8977
 140   2.0000      -0.582975       -15.8636
 141   2.0000      -0.582260       -15.8441
 142   2.0000      -0.578423       -15.7397
 143   2.0000      -0.577940       -15.7265
 144   2.0000      -0.576289       -15.6816
 145   2.0000      -0.573790       -15.6136
 146   2.0000      -0.570199       -15.5159
 147   2.0000      -0.554084       -15.0774
 148   2.0000      -0.552185       -15.0257
 149   2.0000      -0.548738       -14.9319
 150   2.0000      -0.546518       -14.8715
 151   2.0000      -0.538091       -14.6422
 152   2.0000      -0.536461       -14.5978
 153   2.0000      -0.529228       -14.4010
 154   2.0000      -0.525703       -14.3051
 155   2.0000      -0.524896       -14.2832
 156   2.0000      -0.522996       -14.2314
 157   2.0000      -0.521611       -14.1938
 158   2.0000      -0.520048       -14.1512
 159   2.0000      -0.519022       -14.1233
 160   2.0000      -0.513642       -13.9769
 161   2.0000      -0.512047       -13.9335
 162   2.0000      -0.506323       -13.7778
 163   2.0000      -0.505952       -13.7676
 164   2.0000      -0.502218       -13.6660
 165   2.0000      -0.501464       -13.6455
 166   2.0000      -0.499234       -13.5849
 167   2.0000      -0.496530       -13.5113
 168   2.0000      -0.492884       -13.4121
 169   2.0000      -0.491971       -13.3872
 170   2.0000      -0.490126       -13.3370
 171   2.0000      -0.489449       -13.3186
 172   2.0000      -0.487907       -13.2766
 173   2.0000      -0.486103       -13.2275
 174   2.0000      -0.482945       -13.1416
 175   2.0000      -0.482131       -13.1195
 176   2.0000      -0.479026       -13.0349
 177   2.0000      -0.478355       -13.0167
 178   2.0000      -0.476093       -12.9551
 179   2.0000      -0.467252       -12.7146
 180   2.0000      -0.464853       -12.6493
 181   2.0000      -0.463453       -12.6112
 182   2.0000      -0.462144       -12.5756
 183   2.0000      -0.458330       -12.4718
 184   2.0000      -0.457543       -12.4504
 185   2.0000      -0.456866       -12.4320
 186   2.0000      -0.453977       -12.3533
 187   2.0000      -0.451434       -12.2841
 188   2.0000      -0.449790       -12.2394
 189   2.0000      -0.447991       -12.1905
 190   2.0000      -0.447865       -12.1870
 191   2.0000      -0.446153       -12.1404
 192   2.0000      -0.445040       -12.1102
 193   2.0000      -0.443112       -12.0577
 194   2.0000      -0.441669       -12.0184
 195   2.0000      -0.438767       -11.9395
 196   2.0000      -0.436029       -11.8649
 197   2.0000      -0.435518       -11.8511
 198   2.0000      -0.431853       -11.7513
 199   2.0000      -0.428989       -11.6734
 200   2.0000      -0.425415       -11.5761
 201   2.0000      -0.424972       -11.5641
 202   2.0000      -0.423754       -11.5309
 203   2.0000      -0.416865       -11.3435
 204   2.0000      -0.411811       -11.2059
 205   2.0000      -0.410169       -11.1613
 206   2.0000      -0.405324       -11.0294
 207   2.0000      -0.404142       -10.9973
 208   2.0000      -0.399068       -10.8592
 209   2.0000      -0.392118       -10.6701
 210   2.0000      -0.390046       -10.6137
 211   2.0000      -0.387499       -10.5444
 212   2.0000      -0.385650       -10.4941
 213   2.0000      -0.381813       -10.3897
 214   2.0000      -0.374500       -10.1907
 215   2.0000      -0.367092        -9.9891
 216   2.0000      -0.364910        -9.9297
 217   2.0000      -0.360239        -9.8026
 218   2.0000      -0.353113        -9.6087
 219   2.0000      -0.349914        -9.5216
 220   2.0000      -0.345742        -9.4081
 221   2.0000      -0.331070        -9.0089
 222   2.0000      -0.328796        -8.9470
 223   2.0000      -0.328182        -8.9303
 224   2.0000      -0.328013        -8.9257
 225   2.0000      -0.315598        -8.5879
 226   2.0000      -0.298271        -8.1164
 227   2.0000      -0.290189        -7.8964
 228   2.0000      -0.289906        -7.8887
 229   2.0000      -0.285735        -7.7752
 230   2.0000      -0.266677        -7.2566
 231   2.0000      -0.262464        -7.1420
 232   2.0000      -0.249555        -6.7907
 233   2.0000      -0.245722        -6.6864
 234   2.0000      -0.211956        -5.7676
 235   0.0000      -0.079761        -2.1704
 236   0.0000      -0.076532        -2.0825
 237   0.0000      -0.036072        -0.9816
 238   0.0000      -0.008116        -0.2208
 239   0.0000       0.014151         0.3851

MULLIKEN ATOMIC CHARGES
-----------------------
   0 C :    0.137485
   1 O :   -0.157836
   2 C :    0.096283
   3 C :   -0.002158
   4 C :   -0.034485
   5 C :    0.003605
   6 S :   -0.090665
   7 C :    0.026875
   8 C :    0.109950
   9 O :   -0.168733
  10 C :    0.181013
  11 C :   -0.092131
  12 C :   -0.011853
  13 C :   -0.008018
  14 C :    0.179871
  15 O :   -0.171654
  16 C :    0.105787
  17 C :    0.024521
  18 C :   -0.088403
  19 C :    0.006792
  20 S :   -0.090970
  21 C :    0.025176
  22 C :    0.106911
  23 O :   -0.168321
  24 C :    0.179742
  25 C :   -0.094669
  26 C :    0.019120
  27 C :   -0.046487
  28 C :    0.084726
  29 C :    0.162162
  30 O :   -0.331596
  31 C :    0.168851
  32 C :    0.028344
  33 C :   -0.022512
  34 C :   -0.075374
  35 C :    0.270435
  36 C :   -0.162358
  37 O :   -0.311224
  38 C :    0.162045
  39 C :   -0.017190
  40 C :    0.046048
  41 C :    0.055682
  42 O :   -0.353000
  43 C :    0.201942
  44 C :    0.004505
  45 C :    0.060305
  46 C :   -0.114654
  47 C :    0.269731
  48 C :   -0.103111
  49 O :   -0.310946
  50 C :    0.160948
  51 C :   -0.018508
  52 C :   -0.006467
  53 C :    0.200699
  54 O :   -0.317347
  55 C :    0.168948
  56 C :   -0.023414
  57 C :   -0.079387
  58 C :   -0.030341
  59 C :    0.247699
  60 C :   -0.089788
  61 O :   -0.313425
  62 C :    0.165957
  63 C :   -0.039885
  64 H :    0.008988
  65 H :   -0.003059
  66 H :   -0.009014
  67 H :   -0.005425
  68 H :   -0.005425
  69 H :   -0.008932
  70 H :   -0.011493
  71 H :    0.015269
  72 H :   -0.026492
  73 H :    0.016485
  74 H :    0.022819
  75 H :    0.019255
  76 H :    0.020696
  77 H :    0.011052
  78 H :   -0.028317
  79 H :   -0.041355
  80 H :    0.019048
  81 H :    0.010144
  82 H :    0.025538
  83 H :    0.018466
  84 H :    0.022495
  85 H :    0.000334
  86 H :    0.009705
  87 H :    0.009727
  88 H :    0.027599
  89 H :    0.025105
  90 H :   -0.033576
  91 H :   -0.031923
  92 H :    0.018243
  93 H :    0.015588
  94 H :    0.025483
  95 H :    0.017072
  96 H :    0.024633
  97 H :    0.007700
  98 H :    0.017010
  99 H :    0.025484
 100 H :    0.017545
 101 H :    0.027824
 102 H :   -0.030426
 103 H :   -0.025560
 104 H :   -0.037697
 105 H :    0.005528
 106 H :    0.014046
 107 H :    0.044695
 108 H :    0.018696
 109 H :    0.021174
Sum of atomic charges:   -0.0000000

LOEWDIN ATOMIC CHARGES
----------------------
   0 C :    0.031476
   1 O :    0.037221
   2 C :    0.025427
   3 C :   -0.099982
   4 C :   -0.041333
   5 C :   -0.124994
   6 S :    0.105482
   7 C :   -0.084836
   8 C :    0.017996
   9 O :    0.033673
  10 C :    0.027574
  11 C :   -0.033048
  12 C :   -0.038424
  13 C :   -0.033992
  14 C :    0.023962
  15 O :    0.031112
  16 C :    0.027666
  17 C :   -0.091165
  18 C :   -0.029776
  19 C :   -0.125029
  20 S :    0.105843
  21 C :   -0.086091
  22 C :    0.017099
  23 O :    0.033401
  24 C :    0.032922
  25 C :   -0.037182
  26 C :   -0.038354
  27 C :   -0.015391
  28 C :   -0.039284
  29 C :    0.048786
  30 O :   -0.093197
  31 C :    0.085289
  32 C :   -0.063094
  33 C :   -0.044933
  34 C :   -0.033040
  35 C :    0.041804
  36 C :   -0.067205
  37 O :   -0.107907
  38 C :    0.077517
  39 C :   -0.072263
  40 C :   -0.028560
  41 C :    0.026313
  42 O :   -0.130484
  43 C :    0.085294
  44 C :   -0.064167
  45 C :   -0.018624
  46 C :   -0.057393
  47 C :    0.052243
  48 C :   -0.043439
  49 O :   -0.105742
  50 C :    0.077907
  51 C :   -0.072102
  52 C :   -0.035379
  53 C :    0.039940
  54 O :   -0.109222
  55 C :    0.077058
  56 C :   -0.072940
  57 C :   -0.065198
  58 C :   -0.039055
  59 C :    0.039167
  60 C :   -0.045899
  61 O :   -0.110887
  62 C :    0.077194
  63 C :   -0.075788
  64 H :    0.023534
  65 H :    0.037953
  66 H :    0.035207
  67 H :    0.036205
  68 H :    0.036478
  69 H :    0.035512
  70 H :    0.034062
  71 H :    0.035850
  72 H :    0.023712
  73 H :    0.018743
  74 H :    0.014521
  75 H :    0.026152
  76 H :    0.027284
  77 H :    0.027551
  78 H :    0.032859
  79 H :    0.023537
  80 H :    0.024961
  81 H :    0.009713
  82 H :    0.029698
  83 H :    0.030275
  84 H :    0.025309
  85 H :    0.008600
  86 H :    0.011978
  87 H :    0.028264
  88 H :    0.030159
  89 H :    0.027010
  90 H :    0.027106
  91 H :    0.031530
  92 H :    0.024174
  93 H :    0.012511
  94 H :    0.029275
  95 H :    0.030069
  96 H :    0.026178
  97 H :    0.008159
  98 H :    0.023924
  99 H :    0.026850
 100 H :    0.030130
 101 H :    0.029859
 102 H :    0.026439
 103 H :    0.030559
 104 H :    0.026487
 105 H :    0.008595
 106 H :    0.023259
 107 H :    0.027184
 108 H :    0.030860
 109 H :    0.027759

  Mayer bond orders larger than 0.100000
B(  0-C ,  1-O ) :   1.0895 B(  0-C ,  4-C ) :   1.5405 B(  0-C , 64-H ) :   1.0066
B(  1-O ,  2-C ) :   1.2273 B(  2-C ,  3-C ) :   1.4554 B(  2-C ,  8-C ) :   1.0918
B(  3-C ,  4-C ) :   1.2359 B(  3-C ,  5-C ) :   1.0188 B(  4-C , 65-H ) :   1.0096
B(  5-C ,  6-S ) :   1.7636 B(  5-C ,  7-C ) :   0.9867 B(  7-C ,  8-C ) :   1.4414
B(  7-C , 11-C ) :   1.2653 B(  8-C ,  9-O ) :   1.2118 B(  8-C , 10-C ) :   0.1062
B(  9-O , 10-C ) :   1.0864 B( 10-C , 11-C ) :   1.4319 B( 10-C , 12-C ) :   1.1345
B( 11-C , 66-H ) :   1.0120 B( 12-C , 13-C ) :   1.6502 B( 12-C , 67-H ) :   0.9631
B( 13-C , 14-C ) :   1.1388 B( 13-C , 68-H ) :   0.9636 B( 14-C , 15-O ) :   1.0733
B( 14-C , 16-C ) :   0.1015 B( 14-C , 18-C ) :   1.4337 B( 15-O , 16-C ) :   1.2194
B( 16-C , 17-C ) :   1.4220 B( 16-C , 22-C ) :   1.0948 B( 17-C , 18-C ) :   1.2622
B( 17-C , 19-C ) :   0.9943 B( 18-C , 69-H ) :   1.0107 B( 19-C , 20-S ) :   1.7669
B( 19-C , 21-C ) :   0.9935 B( 21-C , 22-C ) :   1.4267 B( 21-C , 25-C ) :   1.2540
B( 22-C , 23-O ) :   1.2149 B( 22-C , 24-C ) :   0.1045 B( 23-O , 24-C ) :   1.0830
B( 24-C , 25-C ) :   1.4421 B( 24-C , 26-C ) :   1.1002 B( 25-C , 70-H ) :   1.0133
B( 26-C , 27-C ) :   1.6964 B( 26-C , 71-H ) :   0.9605 B( 27-C , 28-C ) :   1.0749
B( 27-C , 72-H ) :   0.9705 B( 28-C , 29-C ) :   1.3294 B( 28-C , 36-C ) :   1.3033
B( 29-C , 30-O ) :   1.1499 B( 29-C , 33-C ) :   1.3180 B( 30-O , 31-C ) :   0.9285
B( 31-C , 32-C ) :   1.1005 B( 31-C , 73-H ) :   0.9385 B( 31-C , 74-H ) :   0.9472
B( 32-C , 75-H ) :   0.9671 B( 32-C , 76-H ) :   0.9669 B( 32-C , 77-H ) :   0.9612
B( 33-C , 34-C ) :   1.3760 B( 33-C , 40-C ) :   0.9150 B( 34-C , 35-C ) :   1.3251
B( 34-C , 78-H ) :   1.0068 B( 35-C , 36-C ) :   1.2880 B( 35-C , 37-O ) :   1.1230
B( 36-C , 79-H ) :   1.0034 B( 37-O , 38-C ) :   0.9679 B( 38-C , 39-C ) :   1.1079
B( 38-C , 80-H ) :   0.9572 B( 38-C , 81-H ) :   0.9486 B( 39-C , 82-H ) :   0.9636
B( 39-C , 83-H ) :   0.9625 B( 39-C , 84-H ) :   0.9672 B( 40-C , 41-C ) :   1.3625
B( 40-C , 48-C ) :   1.3681 B( 41-C , 42-O ) :   1.1061 B( 41-C , 45-C ) :   1.4228
B( 42-O , 43-C ) :   0.9225 B( 43-C , 44-C ) :   1.1096 B( 43-C , 85-H ) :   0.9455
B( 43-C , 86-H ) :   0.9428 B( 44-C , 87-H ) :   0.9587 B( 44-C , 88-H ) :   0.9681
B( 44-C , 89-H ) :   0.9677 B( 45-C , 46-C ) :   1.3473 B( 45-C , 52-C ) :   0.9126
B( 46-C , 47-C ) :   1.2836 B( 46-C , 90-H ) :   0.9926 B( 47-C , 48-C ) :   1.3131
B( 47-C , 49-O ) :   1.1227 B( 48-C , 91-H ) :   1.0144 B( 49-O , 50-C ) :   0.9644
B( 50-C , 51-C ) :   1.1087 B( 50-C , 92-H ) :   0.9573 B( 50-C , 93-H ) :   0.9491
B( 51-C , 94-H ) :   0.9634 B( 51-C , 95-H ) :   0.9628 B( 51-C , 96-H ) :   0.9673
B( 52-C , 53-C ) :   1.4098 B( 52-C , 60-C ) :   1.3827 B( 53-C , 54-O ) :   1.1372
B( 53-C , 57-C ) :   1.2955 B( 54-O , 55-C ) :   0.9690 B( 55-C , 56-C ) :   1.1053
B( 55-C , 97-H ) :   0.9493 B( 55-C , 98-H ) :   0.9573 B( 56-C , 99-H ) :   0.9669
B( 56-C ,100-H ) :   0.9620 B( 56-C ,101-H ) :   0.9644 B( 57-C , 58-C ) :   1.3610
B( 57-C ,102-H ) :   0.9938 B( 58-C , 59-C ) :   1.3710 B( 58-C ,103-H ) :   0.9982
B( 59-C , 60-C ) :   1.2923 B( 59-C , 61-O ) :   1.1184 B( 60-C ,104-H ) :   0.9967
B( 61-O , 62-C ) :   0.9714 B( 62-C , 63-C ) :   1.1039 B( 62-C ,105-H ) :   0.9478
B( 62-C ,106-H ) :   0.9567 B( 63-C ,107-H ) :   0.9623 B( 63-C ,108-H ) :   0.9580
B( 63-C ,109-H ) :   0.9608

-----------------------------------------------------------------------------
         ABSORPTION SPECTRUM VIA TRANSITION ELECTRIC DIPOLE MOMENTS
-----------------------------------------------------------------------------
State   Energy  Wavelength   fosc         T2         TX        TY        TZ
        (cm-1)    (nm)                  (au**2)     (au)      (au)      (au)
-----------------------------------------------------------------------------
   0   10232.8    977.3   0.088809715   2.85721  -0.12583   1.03920   1.32719
   1   11986.3    834.3   0.066219895   1.81878   0.03847  -0.70452  -1.14932
   2   18764.9    532.9   0.000000037   0.00000  -0.00006  -0.00050  -0.00062
   3   18798.6    532.0   0.000000234   0.00000  -0.00023   0.00164   0.00116
   4   21803.3    458.6   0.365939813   5.52540  -0.15451   1.43257   1.85722
   5   22338.5    447.7   0.855565307  12.60885   0.16658  -1.99329  -2.93392
   6   23373.2    427.8   1.073388592  15.11870   0.20590  -2.25794  -3.15880
   7   26652.6    375.2   0.024625281   0.30417  -0.07319   0.09836  -0.53772
   8   28070.2    356.2   0.000081229   0.00095  -0.00319   0.01820  -0.02473
   9   29608.3    337.7   0.266030655   2.95797   0.58585  -1.50554   0.59001
  10   30626.3    326.5   0.007282694   0.07828  -0.02230  -0.00741  -0.27880
  11   30732.7    325.4   0.056308555   0.60318   0.28040  -0.72426   0.00226
  12   31040.8    322.2   0.014977401   0.15885   0.01442  -0.12228  -0.37906
  13   31854.4    313.9   0.042050936   0.43459   0.03539  -0.02443   0.65783
  14   32059.4    311.9   0.031713618   0.32566  -0.20821   0.53125  -0.00907
  15   33720.1    296.6   0.007650122   0.07469   0.13464   0.21192   0.10795
  16   34314.3    291.4   0.009500353   0.09115   0.05030  -0.08018   0.28669
  17   35148.8    284.5   0.008221432   0.07700  -0.05268  -0.03917  -0.26962
  18   35790.7    279.4   0.000002152   0.00002  -0.00416   0.00063   0.00145
  19   36109.3    276.9   0.009157937   0.08349   0.01888  -0.22375  -0.18186
  20   36257.8    275.8   0.000283791   0.00258  -0.04083  -0.02059  -0.02203
  21   36258.5    275.8   0.001849125   0.01679   0.10155   0.04739   0.06504
  22   36838.0    271.5   0.127104105   1.13590  -0.48475   0.49705  -0.80861
  23   37154.2    269.1   0.157068054   1.39173   0.97647  -0.19027   0.63405
  24   37677.9    265.4   0.164459218   1.43697   0.12032  -0.70712  -0.96045
  25   38614.0    259.0   0.015939482   0.13590  -0.14787   0.27339   0.19821
  26   38799.9    257.7   0.017652059   0.14978   0.11446  -0.36333  -0.06831
  27   38875.3    257.2   0.000017788   0.00015   0.00357  -0.01168   0.00122
  28   39574.7    252.7   0.006564607   0.05461  -0.05914   0.21707  -0.06320
  29   39671.5    252.1   0.051405876   0.42659   0.03483  -0.41814  -0.50054
  30   39969.7    250.2   0.000009023   0.00007   0.00552   0.00662  -0.00006
  31   40169.1    248.9   0.121372946   0.99473   0.12621  -0.98934  -0.00378

FINAL SINGLE POINT ENERGY     -3553.998855479737

DIPOLE MOMENT
-------------
                                X             Y             Z
Electronic contribution:     37.50960    -113.48735     -71.82081
Nuclear contribution   :    -38.01206     114.25019      72.38155
                        -----------------------------------------
Total Dipole Moment    :     -0.50246       0.76285       0.56074
                        -----------------------------------------
Magnitude (a.u.)       :      1.07184
Magnitude (Debye)      :      2.72439

Rotational constants in cm-1:     0.001584     0.000350     0.000303
Rotational constants in MHz :    47.482313    10.502960     9.081952

                             ****ORCA TERMINATED NORMALLY****
TOTAL RUN TIME: 0 days 0 hours 10 minutes 30 seconds 749 msec
