                         Program Version 4.2.0 -  RELEASE  -
|  1> # ORCA input file
|  2> # SCF done       -150.294696482028          0.000539299705
|  3> ! CAM-B3LYP def2-SVP def2/J RIJCOSX Grid4 TightSCF
|  4> %maxcore 5000
|  5> %tddft
|  6>     Mode sTDDFT
|  7>     Ethresh 5.0
|  8>     maxcore 5000
|  9> end
| 10>
| 11> %pal
| 12>   nprocs 6
| 13>   end
| 14> * xyz 0 1
| 15>    C        3.65257        -4.14465        -1.18064
| 16>    O        4.48822        -3.20362        -0.75228
| 17>    C        4.72461        -2.34689        -1.77994
| 18>    C        4.01680        -2.75891        -2.88929
| 19>    C        3.31829        -3.93062        -2.49844
| 20>    C        2.46486        -4.70791        -3.29698
| 21>    N        1.77121        -5.33018        -3.96423
| 22>    C        5.60489        -1.24722        -1.55284
| 23>    C        5.92601        -0.33136        -2.49612
| 24>    C        6.81190         0.75033        -2.25202
| 25>    N        7.14113         1.69630        -3.20397
| 26>    C        6.61038         1.79419        -4.54013
| 27>    C        5.20249         2.38617        -4.55277
| 28>    C        8.04528         2.64585        -2.71167
| 29>    O        8.48058         3.57326        -3.38479
| 30>    C        8.28750         2.24315        -1.35639
| 31>    C        7.51751         1.07624        -1.10018
| 32>    C        7.75369         0.68225         0.26878
| 33>    O        7.32693        -0.23639         0.94286
| 34>    N        8.64788         1.64740         0.76157
| 35>    C        9.17237         1.56700         2.10139
| 36>    C       10.59066         1.00127         2.12453
| 37>    C        8.98238         2.58391        -0.19250
| 38>    C        9.84405         3.67250         0.03528
| 39>    C       10.16115         4.52694        -0.98156
| 40>    N       10.94100         5.60328        -0.85805
| 41>    C       11.23232         6.42913        -1.99500
| 42>    C        9.95416         6.97741        -2.65377
| 43>    S       10.22327         8.74898        -2.95592
| 44>    C       11.17948         8.85140        -1.42442
| 45>    C       12.07002         7.60413        -1.45465
| 46>    N       12.54821         7.25173        -0.15119
| 47>    S       11.64723         6.09823         0.71557
| 48>    C       13.44537         8.00813         0.54074
| 49>    C       13.51476         7.69029         1.89500
| 50>    C       14.41153         8.28320         2.83843
| 51>    N       14.35349         7.84365         4.11232
| 52>    C       13.48318         6.90909         4.42763
| 53>    C       12.59297         6.33971         3.51774
| 54>    N       12.62908         6.74911         2.25753
| 55>    C       15.29976         9.28213         2.37912
| 56>    C       15.21480         9.62658         0.99688
| 57>    C       14.30639         9.01954         0.06449
| 58>    N       14.27872         9.41046        -1.22028
| 59>    C       15.11398        10.34292        -1.60798
| 60>    C       16.01486        10.93412        -0.71023
| 61>    N       16.04256        10.57910         0.54699
| 62>    C       16.26048         9.94862         3.19668
| 63>    S       17.33291        11.16681         2.52201
| 64>    C       18.12440        11.46628         4.01858
| 65>    C       17.60845        10.68257         5.01659
| 66>    C       16.55723         9.82637         4.54784
| 67>    N       16.15171         9.12050         5.62688
| 68>    N       16.84700         9.45069         6.72751
| 69>    C       17.71548        10.37068         6.40170
| 70>    H        3.35464        -4.91277        -0.49407
| 71>    H        3.98773        -2.30087        -3.85609
| 72>    H        6.02108        -1.17512        -0.55742
| 73>    H        5.50345        -0.41591        -3.48669
| 74>    H        6.62271         0.80891        -5.01550
| 75>    H        7.28986         2.45611        -5.08505
| 76>    H        4.51663         1.77229        -3.97297
| 77>    H        4.83786         2.45239        -5.57436
| 78>    H        5.21832         3.38480        -4.12297
| 79>    H        8.50150         0.89856         2.64867
| 80>    H        9.14189         2.55717         2.56613
| 81>    H       10.59638         0.00322         1.69352
| 82>    H       10.94900         0.93973         3.14868
| 83>    H       11.26803         1.62988         1.55060
| 84>    H       10.25042         3.83359         1.02160
| 85>    H        9.75982         4.33986        -1.97102
| 86>    H       11.80899         5.85520        -2.73171
| 87>    H        9.10403         6.86986        -1.97787
| 88>    H        9.72118         6.48741        -3.59496
| 89>    H       10.49806         8.82887        -0.57065
| 90>    H       11.76020         9.76964        -1.41711
| 91>    H       12.93306         7.81089        -2.09552
| 92>    H       13.47778         6.59303         5.46148
| 93>    H       11.87061         5.58566         3.78145
| 94>    H       15.06222        10.63445        -2.64727
| 95>    H       16.70780        11.70585        -1.01282
| 96>    H       18.90873        12.19400         4.07498
| 97>    H       15.41780         8.42658         5.62379
| 98>    H       18.38092        10.78309         7.13261
| 99> *
|100>
|101>                          ****END OF INPUT****

CARTESIAN COORDINATES (ANGSTROEM)
---------------------------------
  C      3.652570   -4.144650   -1.180640
  O      4.488220   -3.203620   -0.752280
  C      4.724610   -2.346890   -1.779940
  C      4.016800   -2.758910   -2.889290
  C      3.318290   -3.930620   -2.498440
  C      2.464860   -4.707910   -3.296980
  N      1.771210   -5.330180   -3.964230
  C      5.604890   -1.247220   -1.552840
  C      5.926010   -0.331360   -2.496120
  C      6.811900    0.750330   -2.252020
  N      7.141130    1.696300   -3.203970
  C      6.610380    1.794190   -4.540130
  C      5.202490    2.386170   -4.552770
  C      8.045280    2.645850   -2.711670
  O      8.480580    3.573260   -3.384790
  C      8.287500    2.243150   -1.356390
  C      7.517510    1.076240   -1.100180
  C      7.753690    0.682250    0.268780
  O      7.326930   -0.236390    0.942860
  N      8.647880    1.647400    0.761570
  C      9.172370    1.567000    2.101390
  C     10.590660    1.001270    2.124530
  C      8.982380    2.583910   -0.192500
  C      9.844050    3.672500    0.035280
  C     10.161150    4.526940   -0.981560
  N     10.941000    5.603280   -0.858050
  C     11.232320    6.429130   -1.995000
  C      9.954160    6.977410   -2.653770
  S     10.223270    8.748980   -2.955920
  C     11.179480    8.851400   -1.424420
  C     12.070020    7.604130   -1.454650
  N     12.548210    7.251730   -0.151190
  S     11.647230    6.098230    0.715570
  C     13.445370    8.008130    0.540740
  C     13.514760    7.690290    1.895000
  C     14.411530    8.283200    2.838430
  N     14.353490    7.843650    4.112320
  C     13.483180    6.909090    4.427630
  C     12.592970    6.339710    3.517740
  N     12.629080    6.749110    2.257530
  C     15.299760    9.282130    2.379120
  C     15.214800    9.626580    0.996880
  C     14.306390    9.019540    0.064490
  N     14.278720    9.410460   -1.220280
  C     15.113980   10.342920   -1.607980
  C     16.014860   10.934120   -0.710230
  N     16.042560   10.579100    0.546990
  C     16.260480    9.948620    3.196680
  S     17.332910   11.166810    2.522010
  C     18.124400   11.466280    4.018580
  C     17.608450   10.682570    5.016590
  C     16.557230    9.826370    4.547840
  N     16.151710    9.120500    5.626880
  N     16.847000    9.450690    6.727510
  C     17.715480   10.370680    6.401700
  H      3.354640   -4.912770   -0.494070
  H      3.987730   -2.300870   -3.856090
  H      6.021080   -1.175120   -0.557420
  H      5.503450   -0.415910   -3.486690
  H      6.622710    0.808910   -5.015500
  H      7.289860    2.456110   -5.085050
  H      4.516630    1.772290   -3.972970
  H      4.837860    2.452390   -5.574360
  H      5.218320    3.384800   -4.122970
  H      8.501500    0.898560    2.648670
  H      9.141890    2.557170    2.566130
  H     10.596380    0.003220    1.693520
  H     10.949000    0.939730    3.148680
  H     11.268030    1.629880    1.550600
  H     10.250420    3.833590    1.021600
  H      9.759820    4.339860   -1.971020
  H     11.808990    5.855200   -2.731710
  H      9.104030    6.869860   -1.977870
  H      9.721180    6.487410   -3.594960
  H     10.498060    8.828870   -0.570650
  H     11.760200    9.769640   -1.417110
  H     12.933060    7.810890   -2.095520
  H     13.477780    6.593030    5.461480
  H     11.870610    5.585660    3.781450
  H     15.062220   10.634450   -2.647270
  H     16.707800   11.705850   -1.012820
  H     18.908730   12.194000    4.074980
  H     15.417800    8.426580    5.623790
  H     18.380920   10.783090    7.132610

 Total Charge           Charge          ....    0
 Multiplicity           Mult            ....    1
 Number of Electrons    NEL             ....  406
 Basis Dimension        Dim             ....  927

ORBITAL ENERGIES
----------------

  NO   OCC          E(Eh)            E(eV)
   0   2.0000     -89.022288     -2422.4196
   1   2.0000     -88.946351     -2420.3533
   2   2.0000     -88.916884     -2419.5514
   3   2.0000     -19.299845      -525.1755
   4   2.0000     -19.180566      -521.9297
   5   2.0000     -19.163690      -521.4705
   6   2.0000     -14.501987      -394.6191
   7   2.0000     -14.494954      -394.4277
   8   2.0000     -14.452071      -393.2608
   9   2.0000     -14.451126      -393.2351
  10   2.0000     -14.450856      -393.2278
  11   2.0000     -14.442949      -393.0126
  12   2.0000     -14.440044      -392.9336
  13   2.0000     -14.438795      -392.8996
  14   2.0000     -14.433817      -392.7641
  15   2.0000     -14.418162      -392.3381
  16   2.0000     -14.396009      -391.7353
  17   2.0000     -10.361722      -281.9568
  18   2.0000     -10.358290      -281.8634
  19   2.0000     -10.353907      -281.7441
  20   2.0000     -10.352329      -281.7012
  21   2.0000     -10.351935      -281.6905
  22   2.0000     -10.349183      -281.6156
  23   2.0000     -10.347992      -281.5832
  24   2.0000     -10.345478      -281.5148
  25   2.0000     -10.341613      -281.4096
  26   2.0000     -10.340799      -281.3874
  27   2.0000     -10.340444      -281.3778
  28   2.0000     -10.337382      -281.2945
  29   2.0000     -10.334134      -281.2061
  30   2.0000     -10.332244      -281.1547
  31   2.0000     -10.327977      -281.0385
  32   2.0000     -10.326378      -280.9950
  33   2.0000     -10.317832      -280.7625
  34   2.0000     -10.310783      -280.5707
  35   2.0000     -10.304012      -280.3864
  36   2.0000     -10.302666      -280.3498
  37   2.0000     -10.301615      -280.3212
  38   2.0000     -10.300730      -280.2971
  39   2.0000     -10.298807      -280.2448
  40   2.0000     -10.297788      -280.2171
  41   2.0000     -10.295762      -280.1619
  42   2.0000     -10.295568      -280.1566
  43   2.0000     -10.292589      -280.0756
  44   2.0000     -10.280902      -279.7576
  45   2.0000     -10.279846      -279.7288
  46   2.0000     -10.278600      -279.6949
  47   2.0000     -10.277151      -279.6555
  48   2.0000     -10.274663      -279.5878
  49   2.0000     -10.259641      -279.1790
  50   2.0000     -10.258557      -279.1495
  51   2.0000     -10.258517      -279.1484
  52   2.0000     -10.254350      -279.0350
  53   2.0000     -10.243127      -278.7296
  54   2.0000     -10.232509      -278.4407
  55   2.0000      -8.105827      -220.5708
  56   2.0000      -8.038886      -218.7492
  57   2.0000      -8.013362      -218.0547
  58   2.0000      -6.079158      -165.4223
  59   2.0000      -6.072513      -165.2415
  60   2.0000      -6.063293      -164.9906
  61   2.0000      -6.008593      -163.5021
  62   2.0000      -6.003545      -163.3648
  63   2.0000      -6.001390      -163.3061
  64   2.0000      -5.984056      -162.8344
  65   2.0000      -5.979967      -162.7232
  66   2.0000      -5.972367      -162.5164
  67   2.0000      -1.219840       -33.1935
  68   2.0000      -1.149185       -31.2709
  69   2.0000      -1.120635       -30.4940
  70   2.0000      -1.118789       -30.4438
  71   2.0000      -1.107991       -30.1500
  72   2.0000      -1.103675       -30.0325
  73   2.0000      -1.102558       -30.0021
  74   2.0000      -1.052560       -28.6416
  75   2.0000      -1.046762       -28.4838
  76   2.0000      -1.037501       -28.2318
  77   2.0000      -1.034354       -28.1462
  78   2.0000      -1.025840       -27.9145
  79   2.0000      -0.981715       -26.7138
  80   2.0000      -0.974197       -26.5092
  81   2.0000      -0.958206       -26.0741
  82   2.0000      -0.948066       -25.7982
  83   2.0000      -0.914577       -24.8869
  84   2.0000      -0.911377       -24.7998
  85   2.0000      -0.902595       -24.5609
  86   2.0000      -0.901092       -24.5200
  87   2.0000      -0.899007       -24.4632
  88   2.0000      -0.891255       -24.2523
  89   2.0000      -0.875957       -23.8360
  90   2.0000      -0.860382       -23.4122
  91   2.0000      -0.859893       -23.3989
  92   2.0000      -0.844172       -22.9711
  93   2.0000      -0.834062       -22.6960
  94   2.0000      -0.827337       -22.5130
  95   2.0000      -0.821213       -22.3463
  96   2.0000      -0.808372       -21.9969
  97   2.0000      -0.808072       -21.9888
  98   2.0000      -0.793861       -21.6021
  99   2.0000      -0.784078       -21.3358
 100   2.0000      -0.771339       -20.9892
 101   2.0000      -0.758926       -20.6514
 102   2.0000      -0.749529       -20.3957
 103   2.0000      -0.745407       -20.2835
 104   2.0000      -0.739195       -20.1145
 105   2.0000      -0.729100       -19.8398
 106   2.0000      -0.715658       -19.4741
 107   2.0000      -0.700015       -19.0484
 108   2.0000      -0.697870       -18.9900
 109   2.0000      -0.693559       -18.8727
 110   2.0000      -0.686881       -18.6910
 111   2.0000      -0.681719       -18.5505
 112   2.0000      -0.678553       -18.4644
 113   2.0000      -0.675208       -18.3734
 114   2.0000      -0.669398       -18.2152
 115   2.0000      -0.662446       -18.0261
 116   2.0000      -0.661185       -17.9918
 117   2.0000      -0.642753       -17.4902
 118   2.0000      -0.637553       -17.3487
 119   2.0000      -0.632195       -17.2029
 120   2.0000      -0.628471       -17.1016
 121   2.0000      -0.621043       -16.8994
 122   2.0000      -0.616830       -16.7848
 123   2.0000      -0.610390       -16.6095
 124   2.0000      -0.600793       -16.3484
 125   2.0000      -0.595724       -16.2105
 126   2.0000      -0.591902       -16.1065
 127   2.0000      -0.587418       -15.9845
 128   2.0000      -0.579752       -15.7759
 129   2.0000      -0.577034       -15.7019
 130   2.0000      -0.571874       -15.5615
 131   2.0000      -0.563367       -15.3300
 132   2.0000      -0.561403       -15.2766
 133   2.0000      -0.560452       -15.2507
 134   2.0000      -0.554694       -15.0940
 135   2.0000      -0.552718       -15.0402
 136   2.0000      -0.550076       -14.9683
 137   2.0000      -0.545514       -14.8442
 138   2.0000      -0.541157       -14.7256
 139   2.0000      -0.538730       -14.6596
 140   2.0000      -0.535811       -14.5802
 141   2.0000      -0.529820       -14.4171
 142   2.0000      -0.522258       -14.2114
 143   2.0000      -0.520907       -14.1746
 144   2.0000      -0.519450       -14.1350
 145   2.0000      -0.517431       -14.0800
 146   2.0000      -0.516125       -14.0445
 147   2.0000      -0.514728       -14.0065
 148   2.0000      -0.508868       -13.8470
 149   2.0000      -0.507091       -13.7986
 150   2.0000      -0.503798       -13.7091
 151   2.0000      -0.502559       -13.6753
 152   2.0000      -0.496532       -13.5113
 153   2.0000      -0.491625       -13.3778
 154   2.0000      -0.488505       -13.2929
 155   2.0000      -0.484266       -13.1775
 156   2.0000      -0.483475       -13.1560
 157   2.0000      -0.478013       -13.0074
 158   2.0000      -0.473158       -12.8753
 159   2.0000      -0.470083       -12.7916
 160   2.0000      -0.465519       -12.6674
 161   2.0000      -0.459964       -12.5163
 162   2.0000      -0.455370       -12.3913
 163   2.0000      -0.454165       -12.3584
 164   2.0000      -0.450614       -12.2618
 165   2.0000      -0.448495       -12.2042
 166   2.0000      -0.446158       -12.1406
 167   2.0000      -0.445484       -12.1222
 168   2.0000      -0.443060       -12.0563
 169   2.0000      -0.440069       -11.9749
 170   2.0000      -0.438388       -11.9292
 171   2.0000      -0.437433       -11.9032
 172   2.0000      -0.436195       -11.8695
 173   2.0000      -0.432121       -11.7586
 174   2.0000      -0.426524       -11.6063
 175   2.0000      -0.425680       -11.5833
 176   2.0000      -0.424719       -11.5572
 177   2.0000      -0.420447       -11.4410
 178   2.0000      -0.414213       -11.2713
 179   2.0000      -0.408219       -11.1082
 180   2.0000      -0.398314       -10.8387
 181   2.0000      -0.394767       -10.7422
 182   2.0000      -0.389415       -10.5965
 183   2.0000      -0.385954       -10.5023
 184   2.0000      -0.382356       -10.4044
 185   2.0000      -0.371278       -10.1030
 186   2.0000      -0.364592        -9.9211
 187   2.0000      -0.360473        -9.8090
 188   2.0000      -0.351017        -9.5516
 189   2.0000      -0.347186        -9.4474
 190   2.0000      -0.344993        -9.3877
 191   2.0000      -0.337867        -9.1938
 192   2.0000      -0.331717        -9.0265
 193   2.0000      -0.322978        -8.7887
 194   2.0000      -0.313171        -8.5218
 195   2.0000      -0.299358        -8.1459
 196   2.0000      -0.298076        -8.1111
 197   2.0000      -0.295519        -8.0415
 198   2.0000      -0.295082        -8.0296
 199   2.0000      -0.289093        -7.8666
 200   2.0000      -0.274697        -7.4749
 201   2.0000      -0.223900        -6.0926
 202   2.0000      -0.210762        -5.7351
 203   0.0000      -0.098231        -2.6730
 204   0.0000      -0.051867        -1.4114
 205   0.0000      -0.040824        -1.1109
 206   0.0000      -0.033295        -0.9060
 207   0.0000      -0.004645        -0.1264

MULLIKEN ATOMIC CHARGES
-----------------------
   0 C :    0.126612
   1 O :   -0.161519
   2 C :    0.170801
   3 C :   -0.057400
   4 C :   -0.131537
   5 C :   -0.127679
   6 N :    0.129010
   7 C :    0.009440
   8 C :   -0.016928
   9 C :    0.110577
  10 N :   -0.255526
  11 C :    0.106006
  12 C :    0.004872
  13 C :    0.150247
  14 O :   -0.269678
  15 C :   -0.089418
  16 C :   -0.055375
  17 C :    0.158878
  18 O :   -0.210725
  19 N :   -0.266931
  20 C :    0.110136
  21 C :    0.002659
  22 C :    0.160091
  23 C :   -0.109019
  24 C :    0.143012
  25 N :   -0.418364
  26 C :    0.128166
  27 C :   -0.004545
  28 S :   -0.068816
  29 C :   -0.015539
  30 C :    0.082996
  31 N :   -0.374015
  32 S :    0.503291
  33 C :    0.217135
  34 C :    0.033695
  35 C :   -0.018365
  36 N :   -0.089979
  37 C :    0.054324
  38 C :    0.081181
  39 N :   -0.222194
  40 C :    0.149923
  41 C :   -0.041921
  42 C :   -0.114678
  43 N :   -0.032483
  44 C :    0.025746
  45 C :    0.058227
  46 N :   -0.068651
  47 C :   -0.346218
  48 S :    0.152951
  49 C :   -0.117467
  50 C :    0.019777
  51 C :    0.166648
  52 N :   -0.037046
  53 N :   -0.057753
  54 C :   -0.004399
  55 H :    0.020546
  56 H :   -0.006586
  57 H :    0.016994
  58 H :   -0.036293
  59 H :    0.016528
  60 H :    0.036292
  61 H :    0.013760
  62 H :    0.017881
  63 H :    0.025750
  64 H :    0.040056
  65 H :    0.010599
  66 H :    0.028476
  67 H :    0.013798
  68 H :    0.014397
  69 H :   -0.045491
  70 H :    0.038594
  71 H :    0.029610
  72 H :    0.054833
  73 H :    0.076056
  74 H :    0.041724
  75 H :    0.055150
  76 H :    0.048107
  77 H :    0.028823
  78 H :    0.022637
  79 H :    0.020288
  80 H :    0.019651
  81 H :    0.013590
  82 H :    0.126066
  83 H :   -0.014071
Sum of atomic charges:   -0.0000000

LOEWDIN ATOMIC CHARGES
----------------------
   0 C :    0.073286
   1 O :    0.041829
   2 C :    0.029449
   3 C :   -0.041605
   4 C :   -0.117041
   5 C :   -0.031263
   6 N :   -0.058591
   7 C :   -0.009966
   8 C :   -0.034787
   9 C :    0.043898
  10 N :    0.001869
  11 C :    0.035284
  12 C :   -0.062103
  13 C :    0.066447
  14 O :   -0.257087
  15 C :   -0.160003
  16 C :   -0.112509
  17 C :    0.084880
  18 O :   -0.201436
  19 N :   -0.007671
  20 C :    0.036428
  21 C :   -0.062994
  22 C :    0.099082
  23 C :   -0.161500
  24 C :    0.077530
  25 N :   -0.185663
  26 C :    0.011889
  27 C :   -0.127442
  28 S :    0.223619
  29 C :   -0.135037
  30 C :    0.000542
  31 N :   -0.118461
  32 S :    0.517486
  33 C :    0.004701
  34 C :   -0.012120
  35 C :    0.000885
  36 N :   -0.047954
  37 C :    0.024125
  38 C :   -0.004776
  39 N :   -0.033233
  40 C :   -0.065280
  41 C :    0.000335
  42 C :   -0.038982
  43 N :   -0.028334
  44 C :   -0.000795
  45 C :    0.026666
  46 N :   -0.045960
  47 C :   -0.226970
  48 S :    0.480231
  49 C :   -0.191983
  50 C :   -0.106199
  51 C :   -0.014274
  52 N :    0.084378
  53 N :   -0.061871
  54 C :   -0.046551
  55 H :    0.032276
  56 H :    0.034685
  57 H :    0.042456
  58 H :    0.025604
  59 H :    0.019908
  60 H :    0.034879
  61 H :    0.021328
  62 H :    0.027860
  63 H :    0.031069
  64 H :    0.035674
  65 H :    0.018496
  66 H :    0.032068
  67 H :    0.026080
  68 H :    0.021390
  69 H :    0.008471
  70 H :    0.035024
  71 H :    0.030432
  72 H :    0.027257
  73 H :    0.037276
  74 H :    0.017835
  75 H :    0.025225
  76 H :    0.035549
  77 H :    0.032912
  78 H :    0.032666
  79 H :    0.029650
  80 H :    0.031199
  81 H :    0.021475
  82 H :    0.058352
  83 H :    0.018504

  Mayer bond orders larger than 0.100000
B(  0-C ,  1-O ) :   1.2008 B(  0-C ,  4-C ) :   1.5017 B(  0-C , 55-H ) :   1.0114
B(  1-O ,  2-C ) :   1.1313 B(  2-C ,  3-C ) :   1.4984 B(  2-C ,  7-C ) :   1.0944
B(  3-C ,  4-C ) :   1.2526 B(  3-C , 56-H ) :   1.0104 B(  4-C ,  5-C ) :   1.0811
B(  5-C ,  6-N ) :   3.0544 B(  7-C ,  8-C ) :   1.6329 B(  7-C , 57-H ) :   0.9424
B(  8-C ,  9-C ) :   1.1562 B(  8-C , 58-H ) :   0.9584 B(  9-C , 10-N ) :   1.1355
B(  9-C , 16-C ) :   1.3714 B( 10-N , 11-C ) :   0.9554 B( 10-N , 13-C ) :   1.0834
B( 11-C , 12-C ) :   1.1215 B( 11-C , 59-H ) :   0.9493 B( 11-C , 60-H ) :   0.9264
B( 12-C , 61-H ) :   0.9685 B( 12-C , 62-H ) :   0.9677 B( 12-C , 63-H ) :   0.9634
B( 13-C , 14-O ) :   1.9325 B( 13-C , 15-C ) :   1.0436 B( 14-O , 70-H ) :   0.1424
B( 15-C , 16-C ) :   1.2455 B( 15-C , 22-C ) :   1.2608 B( 16-C , 17-C ) :   0.9782
B( 17-C , 18-O ) :   2.0422 B( 17-C , 19-N ) :   1.0530 B( 19-N , 20-C ) :   0.9547
B( 19-N , 22-C ) :   1.1512 B( 20-C , 21-C ) :   1.1222 B( 20-C , 64-H ) :   0.9286
B( 20-C , 65-H ) :   0.9482 B( 21-C , 66-H ) :   0.9637 B( 21-C , 67-H ) :   0.9676
B( 21-C , 68-H ) :   0.9676 B( 22-C , 23-C ) :   1.2638 B( 23-C , 24-C ) :   1.4492
B( 23-C , 69-H ) :   0.9467 B( 24-C , 25-N ) :   1.2724 B( 24-C , 70-H ) :   0.9286
B( 25-N , 26-C ) :   0.9257 B( 25-N , 32-S ) :   0.6962 B( 26-C , 27-C ) :   1.0661
B( 26-C , 30-C ) :   1.0165 B( 26-C , 71-H ) :   0.9129 B( 27-C , 28-S ) :   1.0169
B( 27-C , 72-H ) :   0.9264 B( 27-C , 73-H ) :   0.9436 B( 28-S , 29-C ) :   1.0229
B( 29-C , 30-C ) :   1.0461 B( 29-C , 74-H ) :   0.9308 B( 29-C , 75-H ) :   0.9405
B( 30-C , 31-N ) :   0.9157 B( 30-C , 76-H ) :   0.8925 B( 31-N , 32-S ) :   0.9153
B( 31-N , 33-C ) :   1.1728 B( 32-S , 39-N ) :   0.4449 B( 33-C , 34-C ) :   1.2989
B( 33-C , 42-C ) :   1.2365 B( 34-C , 35-C ) :   1.1542 B( 34-C , 39-N ) :   1.2497
B( 35-C , 36-N ) :   1.4374 B( 35-C , 40-C ) :   1.2277 B( 36-N , 37-C ) :   1.5803
B( 37-C , 38-C ) :   1.2984 B( 37-C , 77-H ) :   0.9735 B( 38-C , 39-N ) :   1.4016
B( 38-C , 78-H ) :   0.9684 B( 40-C , 41-C ) :   1.2056 B( 40-C , 47-C ) :   1.1983
B( 41-C , 42-C ) :   1.1699 B( 41-C , 46-N ) :   1.4362 B( 42-C , 43-N ) :   1.4561
B( 43-N , 44-C ) :   1.6114 B( 44-C , 45-C ) :   1.2282 B( 44-C , 79-H ) :   0.9765
B( 45-C , 46-N ) :   1.6248 B( 45-C , 80-H ) :   0.9742 B( 47-C , 48-S ) :   1.1172
B( 47-C , 49-C ) :   0.1192 B( 47-C , 51-C ) :   1.3942 B( 48-S , 49-C ) :   1.1634
B( 49-C , 50-C ) :   1.4112 B( 49-C , 81-H ) :   0.9764 B( 50-C , 51-C ) :   1.2340
B( 50-C , 54-C ) :   1.1132 B( 51-C , 52-N ) :   1.1881 B( 52-N , 53-N ) :   1.1157
B( 52-N , 82-H ) :   0.9158 B( 53-N , 54-C ) :   1.7503 B( 54-C , 83-H ) :   1.0008

-----------------------------------------------------------------------------
         ABSORPTION SPECTRUM VIA TRANSITION ELECTRIC DIPOLE MOMENTS
-----------------------------------------------------------------------------
State   Energy  Wavelength   fosc         T2         TX        TY        TZ
        (cm-1)    (nm)                  (au**2)     (au)      (au)      (au)
-----------------------------------------------------------------------------
   0    9312.3   1073.9   0.240059379   8.48669   1.90396   1.50506   1.61134
   1   12144.6    823.4   0.094139735   2.55190   1.02956   1.14795   0.41726
   2   18275.2    547.2   0.671192874  12.09096  -2.22394  -2.35131  -1.27138
   3   18962.9    527.3   0.134392259   2.33316  -1.03605  -0.95479  -0.59003
   4   22137.0    451.7   0.098237942   1.46095   0.66174   0.81508  -0.59891
   5   22714.1    440.3   0.019054554   0.27617  -0.34350  -0.33250  -0.21823
   6   24943.8    400.9   0.007205768   0.09510   0.05591  -0.01725   0.30279
   7   25318.0    395.0   0.013636105   0.17731   0.08925  -0.01020   0.41139
   8   25976.0    385.0   0.007703477   0.09763   0.30846   0.01391   0.04783
   9   26346.9    379.6   0.023590007   0.29476   0.28106   0.45076  -0.11219
  10   26871.5    372.1   0.009508804   0.11650   0.15417   0.02790   0.30323
  11   27126.1    368.6   0.005765855   0.06998   0.06803   0.21657  -0.13581
  12   27281.6    366.5   0.003863113   0.04662   0.05812   0.08997  -0.18747
  13   29075.5    343.9   0.018302004   0.20723  -0.01276  -0.40319  -0.21095
  14   29627.6    337.5   0.137814804   1.53135  -0.80891  -0.51493  -0.78221
  15   29970.3    333.7   0.424611148   4.66419  -1.43862  -0.97185  -1.28455
  16   30470.8    328.2   0.004470015   0.04829   0.13780   0.16812  -0.03227
  17   32215.8    310.4   0.007014413   0.07168  -0.08424  -0.21281   0.13891
  18   32437.6    308.3   0.030001759   0.30449   0.34381   0.42994  -0.03787
  19   32803.9    304.8   0.118678826   1.19103  -0.56443  -0.92730   0.11210
  20   33040.6    302.7   0.031229267   0.31116  -0.24785  -0.26628  -0.42288
  21   34177.7    292.6   0.388862598   3.74567  -0.94707  -1.54546   0.67845
  22   34527.7    289.6   0.026127955   0.24912  -0.23033  -0.44158   0.03279
  23   34697.2    288.2   0.044162403   0.41902   0.38954   0.48901  -0.16776
  24   34899.1    286.5   0.041491412   0.39140  -0.37451  -0.49985  -0.03589
  25   35060.8    285.2   0.025722324   0.24153  -0.38855  -0.29470  -0.06090
  26   35761.2    279.6   0.022736186   0.20931   0.33195   0.27403  -0.15499
  27   35785.5    279.4   0.003515231   0.03234   0.06609  -0.11108  -0.12503
  28   36448.6    274.4   0.003469997   0.03134  -0.03044   0.02846  -0.17206
  29   36492.1    274.0   0.002501217   0.02256   0.06693   0.02070   0.13288
  30   36688.5    272.6   0.074135749   0.66523  -0.22004  -0.71147   0.33261
  31   36912.3    270.9   0.013503669   0.12044   0.12495   0.20967  -0.24670
  32   37564.7    266.2   0.478938583   4.19735   0.66904   1.11653  -1.58211
  33   37818.6    264.4   0.000286992   0.00250   0.01598   0.00846  -0.04660
  34   38566.7    259.3   0.075838815   0.64737   0.20985   0.46558  -0.62175
  35   38730.2    258.2   0.012743765   0.10832   0.20027   0.13679   0.22250
  36   39050.5    256.1   0.008427376   0.07105  -0.04480   0.19888  -0.17171
  37   39119.7    255.6   0.006273718   0.05280  -0.08191  -0.15323   0.15036
  38   39335.1    254.2   0.006826397   0.05713  -0.14044  -0.14783  -0.12472
  39   39665.2    252.1   0.000181100   0.00150   0.01574   0.03535  -0.00242
  40   40010.3    249.9   0.184222712   1.51582  -0.88435  -0.80510  -0.29250
  41   40201.2    248.7   0.087966191   0.72036  -0.49752  -0.60961   0.31814

FINAL SINGLE POINT ENERGY     -3484.710608962282

DIPOLE MOMENT
-------------
                                X             Y             Z
Electronic contribution:     24.35830      20.64612      15.00636
Nuclear contribution   :    -21.90567     -17.74898     -14.55522
                        -----------------------------------------
Total Dipole Moment    :      2.45262       2.89714       0.45113
                        -----------------------------------------
Magnitude (a.u.)       :      3.82261
Magnitude (Debye)      :      9.71629

Rotational constants in cm-1:     0.003870     0.000481     0.000433
Rotational constants in MHz :   116.019435    14.406529    12.970503

                             ****ORCA TERMINATED NORMALLY****
TOTAL RUN TIME: 0 days 0 hours 7 minutes 27 seconds 993 msec
