                         Program Version 4.2.0 -  RELEASE  -
|  1> # ORCA input file
|  2> # SCF done       -163.122235773835          0.000987521603
|  3> ! CAM-B3LYP def2-SVP def2/J RIJCOSX Grid4 TightSCF
|  4> %maxcore 5000
|  5> %tddft
|  6>     Mode sTDDFT
|  7>     Ethresh 5.0
|  8>     maxcore 5000
|  9> end
| 10>
| 11> %pal
| 12>   nprocs 6
| 13>   end
| 14> * xyz 0 1
| 15>    C       11.06538         0.03335         3.06789
| 16>    C       10.37052         1.16869         3.04726
| 17>    C        8.97106         1.25610         3.36857
| 18>    C        8.13481         2.34833         3.38571
| 19>    C        6.85676         1.87388         3.76548
| 20>    C        5.74619         2.69652         3.99713
| 21>    N        4.87683         3.41383         4.20954
| 22>    C        6.99480         0.49727         3.95263
| 23>    C        6.13929        -0.55374         4.37661
| 24>    S        6.92597        -1.97419         4.97259
| 25>    C        5.43506        -2.79958         5.30004
| 26>    C        5.41194        -4.07319         5.91212
| 27>    S        3.99217        -4.65171         6.72832
| 28>    C        4.72994        -6.13349         7.23730
| 29>    C        3.94419        -6.99961         8.03359
| 30>    C        4.35984        -8.07295         8.75290
| 31>    C        3.48988        -8.88989         9.52183
| 32>    C        2.13005        -8.83157         9.77695
| 33>    C        1.84021        -9.92497        10.61314
| 34>    C        0.59764       -10.29187        11.15014
| 35>    N       -0.41181       -10.60202        11.59579
| 36>    C        3.04881       -10.59974        10.81892
| 37>    C        3.28722       -11.78610        11.56763
| 38>    C        4.49689       -12.37605        11.65828
| 39>    C        4.78301       -13.58544        12.38118
| 40>    C        3.88346       -14.33090        13.12281
| 41>    S        4.55958       -15.71558        13.84073
| 42>    C        6.09650       -15.31976        13.14847
| 43>    N        7.18925       -16.17700        13.39929
| 44>    O        8.25762       -15.87920        12.90938
| 45>    O        6.97015       -17.15104        14.09124
| 46>    C        6.07168       -14.17320        12.40517
| 47>    O        4.02918        -9.96140        10.16052
| 48>    C        6.04626        -6.20571         6.75009
| 49>    C        6.93582        -7.28917         6.83016
| 50>    C        8.19726        -7.19473         6.30197
| 51>    N        9.00441        -8.39719         6.27310
| 52>    O        8.86382        -9.16796         7.19401
| 53>    O        9.69576        -8.56673         5.29796
| 54>    C        8.61834        -5.99936         5.67007
| 55>    N        9.99910        -5.78175         5.28867
| 56>    O       10.84094        -6.27692         5.99862
| 57>    O       10.19826        -5.05636         4.34244
| 58>    C        7.74593        -4.95429         5.50924
| 59>    C        6.44244        -5.02783         6.02627
| 60>    C        4.34835        -1.98760         4.91489
| 61>    C        2.98615        -2.32383         4.90792
| 62>    C        2.05631        -1.43260         4.43783
| 63>    N        0.68968        -1.89262         4.30916
| 64>    O        0.32327        -2.74077         5.08942
| 65>    O        0.04687        -1.44414         3.39017
| 66>    C        2.45154        -0.16084         3.95650
| 67>    N        1.46876         0.85040         3.59011
| 68>    O        0.55876         1.00726         4.36610
| 69>    O        1.68411         1.48012         2.58723
| 70>    C        3.77424         0.18456         3.91199
| 71>    C        4.75022        -0.71230         4.38699
| 72>    O        8.28021         0.14959         3.71980
| 73>    H       12.11080         0.01114         2.81830
| 74>    H       10.60629        -0.90498         3.33006
| 75>    H       10.83050         2.10878         2.77963
| 76>    H        8.38874         3.36424         3.16289
| 77>    H        2.89781        -6.72850         8.08730
| 78>    H        5.39832        -8.35912         8.80240
| 79>    H        1.43097        -8.10390         9.41983
| 80>    H        2.41612       -12.19687        12.05621
| 81>    H        5.33623       -11.92660        11.14565
| 82>    H        2.84378       -14.11936        13.27772
| 83>    H        6.93650       -13.77922        11.90255
| 84>    H        6.63227        -8.23027         7.25750
| 85>    H        8.10004        -4.08001         4.98810
| 86>    H        2.64104        -3.29565         5.22290
| 87>    H        4.05244         1.14914         3.52069
| 88> *
| 89>
| 90>                          ****END OF INPUT****

CARTESIAN COORDINATES (ANGSTROEM)
---------------------------------
  C     11.065380    0.033350    3.067890
  C     10.370520    1.168690    3.047260
  C      8.971060    1.256100    3.368570
  C      8.134810    2.348330    3.385710
  C      6.856760    1.873880    3.765480
  C      5.746190    2.696520    3.997130
  N      4.876830    3.413830    4.209540
  C      6.994800    0.497270    3.952630
  C      6.139290   -0.553740    4.376610
  S      6.925970   -1.974190    4.972590
  C      5.435060   -2.799580    5.300040
  C      5.411940   -4.073190    5.912120
  S      3.992170   -4.651710    6.728320
  C      4.729940   -6.133490    7.237300
  C      3.944190   -6.999610    8.033590
  C      4.359840   -8.072950    8.752900
  C      3.489880   -8.889890    9.521830
  C      2.130050   -8.831570    9.776950
  C      1.840210   -9.924970   10.613140
  C      0.597640  -10.291870   11.150140
  N     -0.411810  -10.602020   11.595790
  C      3.048810  -10.599740   10.818920
  C      3.287220  -11.786100   11.567630
  C      4.496890  -12.376050   11.658280
  C      4.783010  -13.585440   12.381180
  C      3.883460  -14.330900   13.122810
  S      4.559580  -15.715580   13.840730
  C      6.096500  -15.319760   13.148470
  N      7.189250  -16.177000   13.399290
  O      8.257620  -15.879200   12.909380
  O      6.970150  -17.151040   14.091240
  C      6.071680  -14.173200   12.405170
  O      4.029180   -9.961400   10.160520
  C      6.046260   -6.205710    6.750090
  C      6.935820   -7.289170    6.830160
  C      8.197260   -7.194730    6.301970
  N      9.004410   -8.397190    6.273100
  O      8.863820   -9.167960    7.194010
  O      9.695760   -8.566730    5.297960
  C      8.618340   -5.999360    5.670070
  N      9.999100   -5.781750    5.288670
  O     10.840940   -6.276920    5.998620
  O     10.198260   -5.056360    4.342440
  C      7.745930   -4.954290    5.509240
  C      6.442440   -5.027830    6.026270
  C      4.348350   -1.987600    4.914890
  C      2.986150   -2.323830    4.907920
  C      2.056310   -1.432600    4.437830
  N      0.689680   -1.892620    4.309160
  O      0.323270   -2.740770    5.089420
  O      0.046870   -1.444140    3.390170
  C      2.451540   -0.160840    3.956500
  N      1.468760    0.850400    3.590110
  O      0.558760    1.007260    4.366100
  O      1.684110    1.480120    2.587230
  C      3.774240    0.184560    3.911990
  C      4.750220   -0.712300    4.386990
  O      8.280210    0.149590    3.719800
  H     12.110800    0.011140    2.818300
  H     10.606290   -0.904980    3.330060
  H     10.830500    2.108780    2.779630
  H      8.388740    3.364240    3.162890
  H      2.897810   -6.728500    8.087300
  H      5.398320   -8.359120    8.802400
  H      1.430970   -8.103900    9.419830
  H      2.416120  -12.196870   12.056210
  H      5.336230  -11.926600   11.145650
  H      2.843780  -14.119360   13.277720
  H      6.936500  -13.779220   11.902550
  H      6.632270   -8.230270    7.257500
  H      8.100040   -4.080010    4.988100
  H      2.641040   -3.295650    5.222900
  H      4.052440    1.149140    3.520690

 Total Charge           Charge          ....    0
 Multiplicity           Mult            ....    1
 Number of Electrons    NEL             ....  424
 Basis Dimension        Dim             ....  899

ORBITAL ENERGIES
----------------

  NO   OCC          E(Eh)            E(eV)
   0   2.0000     -89.016370     -2422.2586
   1   2.0000     -89.015732     -2422.2412
   2   2.0000     -88.997443     -2421.7435
   3   2.0000     -19.333838      -526.1005
   4   2.0000     -19.330905      -526.0207
   5   2.0000     -19.264588      -524.2161
   6   2.0000     -19.263528      -524.1872
   7   2.0000     -19.263275      -524.1804
   8   2.0000     -19.262114      -524.1488
   9   2.0000     -19.260834      -524.1139
  10   2.0000     -19.259087      -524.0664
  11   2.0000     -19.254121      -523.9313
  12   2.0000     -19.253062      -523.9024
  13   2.0000     -19.249590      -523.8080
  14   2.0000     -19.249550      -523.8069
  15   2.0000     -14.671047      -399.2195
  16   2.0000     -14.669770      -399.1847
  17   2.0000     -14.666959      -399.1082
  18   2.0000     -14.660995      -398.9460
  19   2.0000     -14.660393      -398.9296
  20   2.0000     -14.428980      -392.6325
  21   2.0000     -14.421998      -392.4425
  22   2.0000     -10.390793      -282.7478
  23   2.0000     -10.378662      -282.4178
  24   2.0000     -10.370084      -282.1843
  25   2.0000     -10.368789      -282.1491
  26   2.0000     -10.368268      -282.1349
  27   2.0000     -10.367107      -282.1033
  28   2.0000     -10.364737      -282.0388
  29   2.0000     -10.363301      -281.9998
  30   2.0000     -10.362799      -281.9861
  31   2.0000     -10.362222      -281.9704
  32   2.0000     -10.357659      -281.8462
  33   2.0000     -10.357001      -281.8283
  34   2.0000     -10.356204      -281.8066
  35   2.0000     -10.340346      -281.3751
  36   2.0000     -10.340159      -281.3700
  37   2.0000     -10.339354      -281.3481
  38   2.0000     -10.338722      -281.3309
  39   2.0000     -10.338341      -281.3205
  40   2.0000     -10.337042      -281.2852
  41   2.0000     -10.336999      -281.2840
  42   2.0000     -10.335418      -281.2410
  43   2.0000     -10.332687      -281.1667
  44   2.0000     -10.331946      -281.1465
  45   2.0000     -10.330362      -281.1035
  46   2.0000     -10.329786      -281.0878
  47   2.0000     -10.327752      -281.0324
  48   2.0000     -10.326733      -281.0047
  49   2.0000     -10.323520      -280.9173
  50   2.0000     -10.317525      -280.7541
  51   2.0000     -10.316039      -280.7137
  52   2.0000     -10.315945      -280.7111
  53   2.0000     -10.315690      -280.7042
  54   2.0000     -10.312493      -280.6172
  55   2.0000     -10.311582      -280.5924
  56   2.0000     -10.305810      -280.4354
  57   2.0000     -10.293563      -280.1021
  58   2.0000      -8.110687      -220.7030
  59   2.0000      -8.110447      -220.6965
  60   2.0000      -8.093006      -220.2219
  61   2.0000      -6.079872      -165.4417
  62   2.0000      -6.079520      -165.4322
  63   2.0000      -6.075421      -165.3206
  64   2.0000      -6.075176      -165.3140
  65   2.0000      -6.073395      -165.2655
  66   2.0000      -6.073255      -165.2617
  67   2.0000      -6.062273      -164.9628
  68   2.0000      -6.057638      -164.8367
  69   2.0000      -6.055512      -164.7789
  70   2.0000      -1.349615       -36.7249
  71   2.0000      -1.344535       -36.5867
  72   2.0000      -1.342837       -36.5404
  73   2.0000      -1.335626       -36.3442
  74   2.0000      -1.332730       -36.2654
  75   2.0000      -1.254941       -34.1487
  76   2.0000      -1.250359       -34.0240
  77   2.0000      -1.169979       -31.8367
  78   2.0000      -1.164919       -31.6991
  79   2.0000      -1.164384       -31.6845
  80   2.0000      -1.158151       -31.5149
  81   2.0000      -1.152162       -31.3519
  82   2.0000      -1.058332       -28.7987
  83   2.0000      -1.043259       -28.3885
  84   2.0000      -1.025947       -27.9174
  85   2.0000      -1.015682       -27.6381
  86   2.0000      -1.009856       -27.4796
  87   2.0000      -1.008116       -27.4322
  88   2.0000      -1.004204       -27.3258
  89   2.0000      -0.962489       -26.1907
  90   2.0000      -0.951010       -25.8783
  91   2.0000      -0.947062       -25.7709
  92   2.0000      -0.944680       -25.7060
  93   2.0000      -0.937782       -25.5184
  94   2.0000      -0.928433       -25.2639
  95   2.0000      -0.927481       -25.2381
  96   2.0000      -0.918894       -25.0044
  97   2.0000      -0.912119       -24.8200
  98   2.0000      -0.908939       -24.7335
  99   2.0000      -0.897502       -24.4223
 100   2.0000      -0.883233       -24.0340
 101   2.0000      -0.868001       -23.6195
 102   2.0000      -0.847999       -23.0752
 103   2.0000      -0.841798       -22.9065
 104   2.0000      -0.822746       -22.3880
 105   2.0000      -0.812478       -22.1087
 106   2.0000      -0.806400       -21.9433
 107   2.0000      -0.804060       -21.8796
 108   2.0000      -0.787026       -21.4161
 109   2.0000      -0.780516       -21.2389
 110   2.0000      -0.766786       -20.8653
 111   2.0000      -0.756856       -20.5951
 112   2.0000      -0.744311       -20.2537
 113   2.0000      -0.740177       -20.1412
 114   2.0000      -0.733361       -19.9558
 115   2.0000      -0.723614       -19.6905
 116   2.0000      -0.715613       -19.4728
 117   2.0000      -0.708027       -19.2664
 118   2.0000      -0.705840       -19.2069
 119   2.0000      -0.688129       -18.7249
 120   2.0000      -0.675865       -18.3912
 121   2.0000      -0.668772       -18.1982
 122   2.0000      -0.666227       -18.1290
 123   2.0000      -0.665537       -18.1102
 124   2.0000      -0.661561       -18.0020
 125   2.0000      -0.659181       -17.9372
 126   2.0000      -0.657125       -17.8813
 127   2.0000      -0.648203       -17.6385
 128   2.0000      -0.644946       -17.5499
 129   2.0000      -0.642755       -17.4902
 130   2.0000      -0.642374       -17.4799
 131   2.0000      -0.638444       -17.3729
 132   2.0000      -0.635305       -17.2875
 133   2.0000      -0.632317       -17.2062
 134   2.0000      -0.629212       -17.1217
 135   2.0000      -0.624253       -16.9868
 136   2.0000      -0.617170       -16.7940
 137   2.0000      -0.613109       -16.6835
 138   2.0000      -0.609370       -16.5818
 139   2.0000      -0.605348       -16.4724
 140   2.0000      -0.601418       -16.3654
 141   2.0000      -0.598022       -16.2730
 142   2.0000      -0.596841       -16.2409
 143   2.0000      -0.595916       -16.2157
 144   2.0000      -0.592533       -16.1236
 145   2.0000      -0.592014       -16.1095
 146   2.0000      -0.586153       -15.9500
 147   2.0000      -0.583505       -15.8780
 148   2.0000      -0.578150       -15.7323
 149   2.0000      -0.573969       -15.6185
 150   2.0000      -0.571742       -15.5579
 151   2.0000      -0.570522       -15.5247
 152   2.0000      -0.567183       -15.4338
 153   2.0000      -0.558549       -15.1989
 154   2.0000      -0.555178       -15.1072
 155   2.0000      -0.547251       -14.8915
 156   2.0000      -0.544291       -14.8109
 157   2.0000      -0.535239       -14.5646
 158   2.0000      -0.533855       -14.5269
 159   2.0000      -0.530445       -14.4341
 160   2.0000      -0.524690       -14.2775
 161   2.0000      -0.521081       -14.1793
 162   2.0000      -0.510223       -13.8839
 163   2.0000      -0.507437       -13.8081
 164   2.0000      -0.505747       -13.7621
 165   2.0000      -0.505383       -13.7522
 166   2.0000      -0.499397       -13.5893
 167   2.0000      -0.494454       -13.4548
 168   2.0000      -0.486305       -13.2330
 169   2.0000      -0.482171       -13.1205
 170   2.0000      -0.478863       -13.0305
 171   2.0000      -0.476210       -12.9583
 172   2.0000      -0.475548       -12.9403
 173   2.0000      -0.472491       -12.8571
 174   2.0000      -0.468810       -12.7570
 175   2.0000      -0.465998       -12.6805
 176   2.0000      -0.459036       -12.4910
 177   2.0000      -0.456906       -12.4331
 178   2.0000      -0.456257       -12.4154
 179   2.0000      -0.454788       -12.3754
 180   2.0000      -0.450716       -12.2646
 181   2.0000      -0.435950       -11.8628
 182   2.0000      -0.428820       -11.6688
 183   2.0000      -0.424878       -11.5615
 184   2.0000      -0.420994       -11.4558
 185   2.0000      -0.414562       -11.2808
 186   2.0000      -0.410731       -11.1766
 187   2.0000      -0.410115       -11.1598
 188   2.0000      -0.406199       -11.0532
 189   2.0000      -0.404187       -10.9985
 190   2.0000      -0.402057       -10.9405
 191   2.0000      -0.400175       -10.8893
 192   2.0000      -0.399120       -10.8606
 193   2.0000      -0.395439       -10.7604
 194   2.0000      -0.394624       -10.7383
 195   2.0000      -0.394289       -10.7291
 196   2.0000      -0.390994       -10.6395
 197   2.0000      -0.388918       -10.5830
 198   2.0000      -0.387231       -10.5371
 199   2.0000      -0.386069       -10.5055
 200   2.0000      -0.381020       -10.3681
 201   2.0000      -0.378031       -10.2867
 202   2.0000      -0.377718       -10.2782
 203   2.0000      -0.377285       -10.2664
 204   2.0000      -0.363172        -9.8824
 205   2.0000      -0.360995        -9.8232
 206   2.0000      -0.357213        -9.7203
 207   2.0000      -0.351863        -9.5747
 208   2.0000      -0.343441        -9.3455
 209   2.0000      -0.318081        -8.6554
 210   2.0000      -0.287321        -7.8184
 211   2.0000      -0.254828        -6.9342
 212   0.0000      -0.126771        -3.4496
 213   0.0000      -0.090198        -2.4544
 214   0.0000      -0.072355        -1.9689
 215   0.0000      -0.068506        -1.8641
 216   0.0000      -0.064245        -1.7482

MULLIKEN ATOMIC CHARGES
-----------------------
   0 C :    0.008721
   1 C :   -0.026902
   2 C :    0.176341
   3 C :   -0.039223
   4 C :   -0.073755
   5 C :   -0.228502
   6 N :    0.168535
   7 C :    0.204470
   8 C :   -0.206006
   9 S :    0.207771
  10 C :   -0.077930
  11 C :   -0.110016
  12 S :    0.192294
  13 C :   -0.103090
  14 C :    0.042584
  15 C :   -0.001016
  16 C :    0.180782
  17 C :   -0.044483
  18 C :   -0.086503
  19 C :   -0.189503
  20 N :    0.156994
  21 C :    0.153580
  22 C :   -0.037144
  23 C :    0.026212
  24 C :    0.074337
  25 C :   -0.098450
  26 S :    0.217219
  27 C :   -0.039651
  28 N :    0.273635
  29 O :   -0.236720
  30 O :   -0.250833
  31 C :    0.037621
  32 O :   -0.186170
  33 C :    0.118494
  34 C :   -0.072443
  35 C :    0.113437
  36 N :    0.253382
  37 O :   -0.229216
  38 O :   -0.215011
  39 C :    0.110135
  40 N :    0.256632
  41 O :   -0.214297
  42 O :   -0.227668
  43 C :   -0.079969
  44 C :    0.127190
  45 C :    0.085248
  46 C :   -0.086602
  47 C :    0.135081
  48 N :    0.251635
  49 O :   -0.230093
  50 O :   -0.214211
  51 C :    0.085778
  52 N :    0.254227
  53 O :   -0.216557
  54 O :   -0.210632
  55 C :   -0.045799
  56 C :    0.173559
  57 O :   -0.203741
  58 H :    0.040228
  59 H :    0.037765
  60 H :    0.007626
  61 H :    0.003505
  62 H :   -0.003671
  63 H :    0.013793
  64 H :    0.003921
  65 H :    0.012149
  66 H :    0.004505
  67 H :    0.043833
  68 H :    0.017800
  69 H :    0.000048
  70 H :    0.012200
  71 H :    0.008259
  72 H :   -0.005718
Sum of atomic charges:   -0.0000000

LOEWDIN ATOMIC CHARGES
----------------------
   0 C :   -0.008769
   1 C :   -0.043637
   2 C :    0.045745
   3 C :   -0.029611
   4 C :   -0.103166
   5 C :   -0.036115
   6 N :   -0.037844
   7 C :    0.038907
   8 C :   -0.185493
   9 S :    0.540145
  10 C :   -0.180346
  11 C :   -0.188951
  12 S :    0.532422
  13 C :   -0.155236
  14 C :   -0.043110
  15 C :   -0.019577
  16 C :    0.029092
  17 C :   -0.019715
  18 C :   -0.107099
  19 C :   -0.036147
  20 N :   -0.045851
  21 C :    0.070945
  22 C :   -0.041295
  23 C :    0.012314
  24 C :   -0.072906
  25 C :   -0.152961
  26 S :    0.517602
  27 C :   -0.199418
  28 N :    0.272584
  29 O :   -0.202010
  30 O :   -0.216125
  31 C :   -0.007341
  32 O :    0.028120
  33 C :   -0.044060
  34 C :    0.025864
  35 C :   -0.024236
  36 N :    0.281955
  37 O :   -0.195445
  38 O :   -0.182484
  39 C :   -0.018928
  40 N :    0.282475
  41 O :   -0.181475
  42 O :   -0.194962
  43 C :    0.010009
  44 C :   -0.041670
  45 C :   -0.047401
  46 C :    0.009241
  47 C :   -0.021659
  48 N :    0.282566
  49 O :   -0.196993
  50 O :   -0.181261
  51 C :   -0.012628
  52 N :    0.279623
  53 O :   -0.184525
  54 O :   -0.176877
  55 C :    0.025329
  56 C :   -0.032039
  57 O :    0.017955
  58 H :    0.034207
  59 H :    0.030282
  60 H :    0.042291
  61 H :    0.043800
  62 H :    0.034069
  63 H :    0.041177
  64 H :    0.040745
  65 H :    0.042362
  66 H :    0.037728
  67 H :    0.030487
  68 H :    0.046795
  69 H :    0.042946
  70 H :    0.025900
  71 H :    0.026051
  72 H :    0.047631

  Mayer bond orders larger than 0.100000
B(  0-C ,  1-C ) :   1.9121 B(  0-C , 58-H ) :   0.9469 B(  0-C , 59-H ) :   0.9620
B(  1-C ,  2-C ) :   1.1171 B(  1-C , 60-H ) :   0.9598 B(  2-C ,  3-C ) :   1.4643
B(  2-C , 57-O ) :   1.1127 B(  3-C ,  4-C ) :   1.2281 B(  3-C , 61-H ) :   1.0221
B(  4-C ,  5-C ) :   1.1399 B(  4-C ,  7-C ) :   1.4420 B(  5-C ,  6-N ) :   2.9827
B(  7-C ,  8-C ) :   1.1130 B(  7-C , 57-O ) :   1.1878 B(  8-C ,  9-S ) :   1.1709
B(  8-C , 10-C ) :   0.1220 B(  8-C , 56-C ) :   1.3923 B(  9-S , 10-C ) :   1.1575
B( 10-C , 11-C ) :   1.1855 B( 10-C , 45-C ) :   1.3398 B( 11-C , 12-S ) :   1.1588
B( 11-C , 13-C ) :   0.1023 B( 11-C , 44-C ) :   1.3311 B( 12-S , 13-C ) :   1.1705
B( 13-C , 14-C ) :   1.1758 B( 13-C , 33-C ) :   1.3258 B( 14-C , 15-C ) :   1.6404
B( 14-C , 62-H ) :   0.9445 B( 15-C , 16-C ) :   1.1425 B( 15-C , 63-H ) :   0.9539
B( 16-C , 17-C ) :   1.4547 B( 16-C , 32-O ) :   1.1000 B( 17-C , 18-C ) :   1.2625
B( 17-C , 64-H ) :   1.0122 B( 18-C , 19-C ) :   1.1000 B( 18-C , 21-C ) :   1.3931
B( 19-C , 20-N ) :   3.0369 B( 21-C , 22-C ) :   1.1897 B( 21-C , 32-O ) :   1.1918
B( 22-C , 23-C ) :   1.6750 B( 22-C , 65-H ) :   0.9478 B( 23-C , 24-C ) :   1.0617
B( 23-C , 66-H ) :   0.9902 B( 24-C , 25-C ) :   1.4926 B( 24-C , 31-C ) :   1.2138
B( 25-C , 26-S ) :   1.2140 B( 25-C , 67-H ) :   0.9602 B( 26-S , 27-C ) :   1.1512
B( 27-C , 28-N ) :   0.9402 B( 27-C , 31-C ) :   1.4946 B( 28-N , 29-O ) :   1.5525
B( 28-N , 30-O ) :   1.5280 B( 29-O , 30-O ) :   0.2712 B( 31-C , 68-H ) :   1.0054
B( 33-C , 34-C ) :   1.1590 B( 33-C , 44-C ) :   1.2027 B( 34-C , 35-C ) :   1.5494
B( 34-C , 69-H ) :   0.9880 B( 35-C , 36-N ) :   0.8703 B( 35-C , 39-C ) :   1.2305
B( 36-N , 37-O ) :   1.5409 B( 36-N , 38-O ) :   1.5676 B( 37-O , 38-O ) :   0.2765
B( 39-C , 40-N ) :   0.8692 B( 39-C , 43-C ) :   1.5799 B( 40-N , 41-O ) :   1.5672
B( 40-N , 42-O ) :   1.5373 B( 41-O , 42-O ) :   0.2758 B( 43-C , 44-C ) :   1.1439
B( 43-C , 70-H ) :   0.9676 B( 45-C , 46-C ) :   1.1457 B( 45-C , 56-C ) :   1.1863
B( 46-C , 47-C ) :   1.5719 B( 46-C , 71-H ) :   0.9652 B( 47-C , 48-N ) :   0.8699
B( 47-C , 51-C ) :   1.2389 B( 48-N , 49-O ) :   1.5414 B( 48-N , 50-O ) :   1.5672
B( 49-O , 50-O ) :   0.2751 B( 51-C , 52-N ) :   0.8543 B( 51-C , 55-C ) :   1.5864
B( 52-N , 53-O ) :   1.5599 B( 52-N , 54-O ) :   1.5555 B( 53-O , 54-O ) :   0.2813
B( 55-C , 56-C ) :   1.1428 B( 55-C , 72-H ) :   0.9838

-----------------------------------------------------------------------------
         ABSORPTION SPECTRUM VIA TRANSITION ELECTRIC DIPOLE MOMENTS
-----------------------------------------------------------------------------
State   Energy  Wavelength   fosc         T2         TX        TY        TZ
        (cm-1)    (nm)                  (au**2)     (au)      (au)      (au)
-----------------------------------------------------------------------------
   0   13184.2    758.5   1.132409844  28.27659   0.80628   4.56416  -2.60672
   1   20322.9    492.1   0.091931160   1.48920   0.57906   0.31015  -1.02844
   2   20969.0    476.9   0.032578888   0.51149   0.08494  -0.38953   0.59375
   3   23998.7    416.7   0.333732812   4.57812  -1.60195  -1.08269   0.91632
   4   25371.9    394.1   0.176882727   2.29513   1.49395   0.03300   0.24931
   5   26816.5    372.9   0.132730843   1.62947   1.25498  -0.22648   0.05669
   6   27568.0    362.7   0.517382481   6.17849  -0.15893   2.16296  -1.21443
   7   29160.7    342.9   0.027799428   0.31384   0.42521  -0.36469   0.00641
   8   29681.2    336.9   0.168004605   1.86344  -0.34043   1.14735  -0.65660
   9   31014.4    322.4   0.024284543   0.25778  -0.11708  -0.48240   0.10658
  10   31968.3    312.8   0.152433636   1.56977  -1.22606  -0.11081   0.23297
  11   33033.1    302.7   0.267881328   2.66974   1.60473  -0.21150   0.22329
  12   33218.9    301.0   0.203209798   2.01389   1.26097  -0.64761   0.06656
  13   33950.8    294.5   0.011524693   0.11175   0.22822  -0.22683  -0.09064
  14   34462.9    290.2   0.026009305   0.24846   0.35286  -0.32189   0.14260
  15   35056.2    285.3   0.131911798   1.23878  -0.99229  -0.37286   0.33929
  16   35209.1    284.0   0.050326730   0.47056   0.32146  -0.60591  -0.00994
  17   35700.8    280.1   0.412287366   3.80187   1.75059  -0.85728  -0.04881
  18   35940.2    278.2   0.040538100   0.37133   0.14164  -0.44376   0.39287
  19   36721.3    272.3   0.073719085   0.66090   0.73998  -0.32354  -0.09304
  20   37285.9    268.2   0.014864787   0.13125   0.28306   0.10204  -0.20177
  21   37436.0    267.1   0.099660108   0.87641   0.68014  -0.60456   0.21984
  22   38076.9    262.6   0.018723432   0.16188  -0.32577  -0.23571   0.01408
  23   38633.9    258.8   0.002216359   0.01889   0.10235   0.08981   0.01860
  24   38918.1    257.0   0.007527305   0.06367   0.10940  -0.18442   0.13302
  25   39208.1    255.0   0.017936217   0.15060  -0.11096   0.32828  -0.17471
  26   39528.0    253.0   0.070886057   0.59038  -0.61397   0.46073  -0.03402
  27   39754.6    251.5   0.009765422   0.08087  -0.00509  -0.26640   0.09937
  28   40098.3    249.4   0.005803132   0.04764   0.21379  -0.04387   0.00340

FINAL SINGLE POINT ENERGY     -3857.211880303890

DIPOLE MOMENT
-------------
                                X             Y             Z
Electronic contribution:     -8.20084      -1.04656      -0.61355
Nuclear contribution   :      9.60561       1.72021       0.86766
                        -----------------------------------------
Total Dipole Moment    :      1.40477       0.67364       0.25411
                        -----------------------------------------
Magnitude (a.u.)       :      1.57852
Magnitude (Debye)      :      4.01228

Rotational constants in cm-1:     0.002049     0.000453     0.000380
Rotational constants in MHz :    61.439910    13.577476    11.385410

                             ****ORCA TERMINATED NORMALLY****
TOTAL RUN TIME: 0 days 0 hours 5 minutes 43 seconds 242 msec
