                         Program Version 4.2.0 -  RELEASE  -
|  1> # ORCA input file
|  2> # SCF done       -197.144030628697          0.000790912068
|  3> ! CAM-B3LYP def2-SVP def2/J RIJCOSX Grid4 TightSCF
|  4> %maxcore 5000
|  5> %tddft
|  6>     Mode sTDDFT
|  7>     Ethresh 5.0
|  8>     maxcore 5000
|  9> end
| 10>
| 11> %pal
| 12>   nprocs 6
| 13>   end
| 14> * xyz 0 1
| 15>    C       -2.08691        -1.88024        -1.31962
| 16>    N       -1.31329        -1.09575        -2.11378
| 17>    C       -0.35183        -1.55919        -3.08144
| 18>    C       -1.03320        -2.11292        -4.33024
| 19>    C       -1.61782         0.27687        -1.93910
| 20>    O       -1.05210         1.16100        -2.55145
| 21>    C       -2.65832         0.27749        -0.94077
| 22>    C       -2.91920        -1.08378        -0.58342
| 23>    C       -3.96248        -1.09156         0.42316
| 24>    O       -4.51046        -1.98946         1.02339
| 25>    N       -4.25973         0.26999         0.61308
| 26>    C       -5.29913         0.68564         1.52321
| 27>    C       -6.58448         1.06504         0.79107
| 28>    C       -3.49687         1.09311        -0.18939
| 29>    C       -3.62606         2.50401        -0.17438
| 30>    C       -2.87908         3.32778        -0.95444
| 31>    C       -3.02361         4.74398        -1.03860
| 32>    C       -4.13716         5.47664        -0.55508
| 33>    C       -4.17812         6.90108        -0.67469
| 34>    N       -5.29720         7.57595        -0.34905
| 35>    C       -6.26558         6.92933         0.23149
| 36>    C       -6.18513         5.54086         0.45628
| 37>    N       -5.18013         4.83781         0.01596
| 38>    C       -3.07558         7.63589        -1.17737
| 39>    C       -1.97446         6.91433        -1.68003
| 40>    C       -1.97514         5.48404        -1.65066
| 41>    N       -0.92986         4.80488        -2.15949
| 42>    C        0.09496         5.47220        -2.60694
| 43>    C        0.13787         6.87962        -2.54404
| 44>    N       -0.87619         7.57671        -2.11028
| 45>    C       -3.12782         9.06010        -1.00048
| 46>    N       -2.76120        10.03639        -1.88346
| 47>    C       -2.37052         9.86005        -3.26089
| 48>    C       -3.51346         9.29618        -4.09994
| 49>    C       -3.03993        11.32643        -1.37590
| 50>    O       -2.83269        12.35196        -1.99182
| 51>    C       -3.57952        11.08024        -0.05975
| 52>    C       -3.63289         9.68435         0.13897
| 53>    C       -4.12406         9.45124         1.48013
| 54>    O       -4.28678         8.44022         2.13186
| 55>    N       -4.39186        10.74287         1.98581
| 56>    C       -4.93175        10.88245         3.31753
| 57>    C       -6.45586        10.97892         3.30728
| 58>    C       -4.07528        11.72534         1.07486
| 59>    C       -4.19167        13.13384         1.14562
| 60>    C       -4.81862        13.88841         2.09006
| 61>    C       -4.98254        15.29205         2.14599
| 62>    N       -4.47510        16.30094         1.35801
| 63>    C       -3.61588        16.20274         0.20095
| 64>    C       -4.40184        15.89118        -1.07044
| 65>    C       -4.92141        17.56817         1.78298
| 66>    O       -4.59747        18.60758         1.24427
| 67>    C       -5.76430        17.29856         2.92663
| 68>    C       -5.77047        15.90140         3.12549
| 69>    C       -6.60860        15.60438         4.26256
| 70>    O       -6.91432        14.55878         4.80124
| 71>    N       -7.06919        16.86637         4.68358
| 72>    C       -7.91936        17.00299         5.83993
| 73>    C       -7.13961        17.45677         7.07194
| 74>    C       -6.57423        17.88640         3.89875
| 75>    C       -6.89148        19.25075         4.08760
| 76>    C       -6.39411        20.24217         3.29970
| 77>    C       -6.72494        21.60550         3.48975
| 78>    O       -7.55518        21.99382         4.48372
| 79>    C       -7.69099        23.33832         4.42297
| 80>    C       -6.94457        23.84094         3.38073
| 81>    C       -6.31681        22.73281         2.77093
| 82>    C       -5.46118        22.77193         1.66136
| 83>    N       -4.76102        22.85310         0.75710
| 84>    C       -8.52616        24.03013         5.36747
| 85>    C       -9.20907        23.42977         6.33954
| 86>    H       -1.98578        -2.94986        -1.32845
| 87>    H        0.28192        -2.32389        -2.62230
| 88>    H        0.26195        -0.69348        -3.34457
| 89>    H       -1.67144        -2.95672        -4.07742
| 90>    H       -0.28459        -2.44309        -5.04492
| 91>    H       -1.64341        -1.34227        -4.79466
| 92>    H       -4.94115         1.51930         2.13384
| 93>    H       -5.48739        -0.17367         2.17350
| 94>    H       -6.41881         1.90608         0.12186
| 95>    H       -7.35008         1.33587         1.51317
| 96>    H       -6.94156         0.21980         0.20767
| 97>    H       -4.35923         2.93591         0.48789
| 98>    H       -2.08774         2.91776        -1.57059
| 99>    H       -7.15591         7.49293         0.47340
|100>    H       -6.98769         4.99491         0.93394
|101>    H        0.90455         4.89421        -3.03000
|102>    H        1.00411         7.43892        -2.87152
|103>    H       -1.50114         9.20000        -3.30242
|104>    H       -2.09386        10.85472        -3.62102
|105>    H       -3.80945         8.31479        -3.73478
|106>    H       -3.19783         9.20137        -5.13528
|107>    H       -4.37669         9.95663        -4.05715
|108>    H       -4.47899        11.74627         3.80811
|109>    H       -4.63482         9.97803         3.85789
|110>    H       -6.79638        11.78093         2.65672
|111>    H       -6.81881        11.17402         4.31222
|112>    H       -6.88030        10.04303         2.95221
|113>    H       -3.74896        13.60562         0.28125
|114>    H       -5.31891        13.40824         2.91755
|115>    H       -2.83959        15.45707         0.38436
|116>    H       -3.14160        17.18351         0.09709
|117>    H       -4.99773        14.98875        -0.95597
|118>    H       -3.71474        15.74672        -1.89899
|119>    H       -5.06739        16.71859        -1.30428
|120>    H       -8.34269        16.01058         6.02019
|121>    H       -8.73430        17.69793         5.61706
|122>    H       -6.36099        16.73422         7.30349
|123>    H       -7.80873        17.53192         7.92479
|124>    H       -6.67318        18.42509         6.90440
|125>    H       -7.56562        19.51170         4.89107
|126>    H       -5.71726        20.01829         2.48610
|127>    H       -6.85531        24.86706         3.08749
|128>    H       -8.56580        25.10147         5.23244
|129>    H       -9.17054        22.36220         6.47363
|130>    H       -9.82342        23.98648         7.02399
|131> *
|132>
|133>                          ****END OF INPUT****

CARTESIAN COORDINATES (ANGSTROEM)
---------------------------------
  C     -2.086910   -1.880240   -1.319620
  N     -1.313290   -1.095750   -2.113780
  C     -0.351830   -1.559190   -3.081440
  C     -1.033200   -2.112920   -4.330240
  C     -1.617820    0.276870   -1.939100
  O     -1.052100    1.161000   -2.551450
  C     -2.658320    0.277490   -0.940770
  C     -2.919200   -1.083780   -0.583420
  C     -3.962480   -1.091560    0.423160
  O     -4.510460   -1.989460    1.023390
  N     -4.259730    0.269990    0.613080
  C     -5.299130    0.685640    1.523210
  C     -6.584480    1.065040    0.791070
  C     -3.496870    1.093110   -0.189390
  C     -3.626060    2.504010   -0.174380
  C     -2.879080    3.327780   -0.954440
  C     -3.023610    4.743980   -1.038600
  C     -4.137160    5.476640   -0.555080
  C     -4.178120    6.901080   -0.674690
  N     -5.297200    7.575950   -0.349050
  C     -6.265580    6.929330    0.231490
  C     -6.185130    5.540860    0.456280
  N     -5.180130    4.837810    0.015960
  C     -3.075580    7.635890   -1.177370
  C     -1.974460    6.914330   -1.680030
  C     -1.975140    5.484040   -1.650660
  N     -0.929860    4.804880   -2.159490
  C      0.094960    5.472200   -2.606940
  C      0.137870    6.879620   -2.544040
  N     -0.876190    7.576710   -2.110280
  C     -3.127820    9.060100   -1.000480
  N     -2.761200   10.036390   -1.883460
  C     -2.370520    9.860050   -3.260890
  C     -3.513460    9.296180   -4.099940
  C     -3.039930   11.326430   -1.375900
  O     -2.832690   12.351960   -1.991820
  C     -3.579520   11.080240   -0.059750
  C     -3.632890    9.684350    0.138970
  C     -4.124060    9.451240    1.480130
  O     -4.286780    8.440220    2.131860
  N     -4.391860   10.742870    1.985810
  C     -4.931750   10.882450    3.317530
  C     -6.455860   10.978920    3.307280
  C     -4.075280   11.725340    1.074860
  C     -4.191670   13.133840    1.145620
  C     -4.818620   13.888410    2.090060
  C     -4.982540   15.292050    2.145990
  N     -4.475100   16.300940    1.358010
  C     -3.615880   16.202740    0.200950
  C     -4.401840   15.891180   -1.070440
  C     -4.921410   17.568170    1.782980
  O     -4.597470   18.607580    1.244270
  C     -5.764300   17.298560    2.926630
  C     -5.770470   15.901400    3.125490
  C     -6.608600   15.604380    4.262560
  O     -6.914320   14.558780    4.801240
  N     -7.069190   16.866370    4.683580
  C     -7.919360   17.002990    5.839930
  C     -7.139610   17.456770    7.071940
  C     -6.574230   17.886400    3.898750
  C     -6.891480   19.250750    4.087600
  C     -6.394110   20.242170    3.299700
  C     -6.724940   21.605500    3.489750
  O     -7.555180   21.993820    4.483720
  C     -7.690990   23.338320    4.422970
  C     -6.944570   23.840940    3.380730
  C     -6.316810   22.732810    2.770930
  C     -5.461180   22.771930    1.661360
  N     -4.761020   22.853100    0.757100
  C     -8.526160   24.030130    5.367470
  C     -9.209070   23.429770    6.339540
  H     -1.985780   -2.949860   -1.328450
  H      0.281920   -2.323890   -2.622300
  H      0.261950   -0.693480   -3.344570
  H     -1.671440   -2.956720   -4.077420
  H     -0.284590   -2.443090   -5.044920
  H     -1.643410   -1.342270   -4.794660
  H     -4.941150    1.519300    2.133840
  H     -5.487390   -0.173670    2.173500
  H     -6.418810    1.906080    0.121860
  H     -7.350080    1.335870    1.513170
  H     -6.941560    0.219800    0.207670
  H     -4.359230    2.935910    0.487890
  H     -2.087740    2.917760   -1.570590
  H     -7.155910    7.492930    0.473400
  H     -6.987690    4.994910    0.933940
  H      0.904550    4.894210   -3.030000
  H      1.004110    7.438920   -2.871520
  H     -1.501140    9.200000   -3.302420
  H     -2.093860   10.854720   -3.621020
  H     -3.809450    8.314790   -3.734780
  H     -3.197830    9.201370   -5.135280
  H     -4.376690    9.956630   -4.057150
  H     -4.478990   11.746270    3.808110
  H     -4.634820    9.978030    3.857890
  H     -6.796380   11.780930    2.656720
  H     -6.818810   11.174020    4.312220
  H     -6.880300   10.043030    2.952210
  H     -3.748960   13.605620    0.281250
  H     -5.318910   13.408240    2.917550
  H     -2.839590   15.457070    0.384360
  H     -3.141600   17.183510    0.097090
  H     -4.997730   14.988750   -0.955970
  H     -3.714740   15.746720   -1.898990
  H     -5.067390   16.718590   -1.304280
  H     -8.342690   16.010580    6.020190
  H     -8.734300   17.697930    5.617060
  H     -6.360990   16.734220    7.303490
  H     -7.808730   17.531920    7.924790
  H     -6.673180   18.425090    6.904400
  H     -7.565620   19.511700    4.891070
  H     -5.717260   20.018290    2.486100
  H     -6.855310   24.867060    3.087490
  H     -8.565800   25.101470    5.232440
  H     -9.170540   22.362200    6.473630
  H     -9.823420   23.986480    7.023990

 Total Charge           Charge          ....    0
 Multiplicity           Mult            ....    1
 Number of Electrons    NEL             ....  496
 Basis Dimension        Dim             .... 1219

ORBITAL ENERGIES
----------------

  NO   OCC          E(Eh)            E(eV)
   0   2.0000     -19.311726      -525.4988
   1   2.0000     -19.190060      -522.1881
   2   2.0000     -19.187961      -522.1310
   3   2.0000     -19.187585      -522.1207
   4   2.0000     -19.183510      -522.0099
   5   2.0000     -19.180161      -521.9187
   6   2.0000     -19.175562      -521.7936
   7   2.0000     -14.452743      -393.2791
   8   2.0000     -14.449847      -393.2003
   9   2.0000     -14.446812      -393.1177
  10   2.0000     -14.446721      -393.1153
  11   2.0000     -14.444382      -393.0516
  12   2.0000     -14.439944      -392.9308
  13   2.0000     -14.433384      -392.7524
  14   2.0000     -14.429534      -392.6476
  15   2.0000     -14.428375      -392.6161
  16   2.0000     -14.424928      -392.5222
  17   2.0000     -14.403286      -391.9333
  18   2.0000     -10.373210      -282.2694
  19   2.0000     -10.370444      -282.1941
  20   2.0000     -10.369111      -282.1579
  21   2.0000     -10.366271      -282.0806
  22   2.0000     -10.362242      -281.9709
  23   2.0000     -10.362049      -281.9657
  24   2.0000     -10.357467      -281.8410
  25   2.0000     -10.351006      -281.6652
  26   2.0000     -10.340228      -281.3719
  27   2.0000     -10.336881      -281.2808
  28   2.0000     -10.335238      -281.2361
  29   2.0000     -10.334012      -281.2027
  30   2.0000     -10.331468      -281.1335
  31   2.0000     -10.328481      -281.0523
  32   2.0000     -10.328218      -281.0451
  33   2.0000     -10.328068      -281.0410
  34   2.0000     -10.326720      -281.0043
  35   2.0000     -10.326595      -281.0009
  36   2.0000     -10.326522      -280.9989
  37   2.0000     -10.324175      -280.9351
  38   2.0000     -10.322228      -280.8821
  39   2.0000     -10.320866      -280.8450
  40   2.0000     -10.317257      -280.7468
  41   2.0000     -10.309385      -280.5326
  42   2.0000     -10.304063      -280.3878
  43   2.0000     -10.302874      -280.3555
  44   2.0000     -10.302743      -280.3519
  45   2.0000     -10.300048      -280.2786
  46   2.0000     -10.299419      -280.2614
  47   2.0000     -10.298377      -280.2331
  48   2.0000     -10.297657      -280.2135
  49   2.0000     -10.297389      -280.2062
  50   2.0000     -10.295936      -280.1667
  51   2.0000     -10.295630      -280.1583
  52   2.0000     -10.294742      -280.1342
  53   2.0000     -10.294569      -280.1295
  54   2.0000     -10.294134      -280.1176
  55   2.0000     -10.287303      -279.9318
  56   2.0000     -10.283603      -279.8311
  57   2.0000     -10.276182      -279.6291
  58   2.0000     -10.273247      -279.5493
  59   2.0000     -10.265461      -279.3374
  60   2.0000     -10.261044      -279.2172
  61   2.0000     -10.260192      -279.1940
  62   2.0000     -10.259847      -279.1846
  63   2.0000     -10.257210      -279.1129
  64   2.0000     -10.256214      -279.0858
  65   2.0000     -10.254756      -279.0461
  66   2.0000     -10.254102      -279.0283
  67   2.0000     -10.252206      -278.9767
  68   2.0000     -10.249832      -278.9121
  69   2.0000     -10.249491      -278.9028
  70   2.0000     -10.249390      -278.9001
  71   2.0000      -1.230388       -33.4806
  72   2.0000      -1.131153       -30.7802
  73   2.0000      -1.127256       -30.6742
  74   2.0000      -1.124194       -30.5909
  75   2.0000      -1.121283       -30.5117
  76   2.0000      -1.120143       -30.4806
  77   2.0000      -1.114397       -30.3243
  78   2.0000      -1.091782       -29.7089
  79   2.0000      -1.083663       -29.4880
  80   2.0000      -1.061369       -28.8813
  81   2.0000      -1.057325       -28.7713
  82   2.0000      -1.051990       -28.6261
  83   2.0000      -1.051535       -28.6137
  84   2.0000      -1.047560       -28.5056
  85   2.0000      -1.043196       -28.3868
  86   2.0000      -1.012898       -27.5624
  87   2.0000      -1.007015       -27.4023
  88   2.0000      -0.988493       -26.8983
  89   2.0000      -0.956858       -26.0374
  90   2.0000      -0.934649       -25.4331
  91   2.0000      -0.925727       -25.1903
  92   2.0000      -0.924582       -25.1592
  93   2.0000      -0.921315       -25.0702
  94   2.0000      -0.917132       -24.9564
  95   2.0000      -0.907253       -24.6876
  96   2.0000      -0.901857       -24.5408
  97   2.0000      -0.896267       -24.3887
  98   2.0000      -0.874350       -23.7923
  99   2.0000      -0.870324       -23.6827
 100   2.0000      -0.869319       -23.6554
 101   2.0000      -0.863359       -23.4932
 102   2.0000      -0.856525       -23.3072
 103   2.0000      -0.843926       -22.9644
 104   2.0000      -0.829529       -22.5726
 105   2.0000      -0.816315       -22.2131
 106   2.0000      -0.812666       -22.1138
 107   2.0000      -0.811657       -22.0863
 108   2.0000      -0.810872       -22.0649
 109   2.0000      -0.793517       -21.5927
 110   2.0000      -0.790820       -21.5193
 111   2.0000      -0.785604       -21.3774
 112   2.0000      -0.768238       -20.9048
 113   2.0000      -0.762836       -20.7578
 114   2.0000      -0.756520       -20.5860
 115   2.0000      -0.752698       -20.4820
 116   2.0000      -0.751439       -20.4477
 117   2.0000      -0.750006       -20.4087
 118   2.0000      -0.744192       -20.2505
 119   2.0000      -0.730537       -19.8789
 120   2.0000      -0.721699       -19.6384
 121   2.0000      -0.706736       -19.2313
 122   2.0000      -0.706455       -19.2236
 123   2.0000      -0.701350       -19.0847
 124   2.0000      -0.699954       -19.0467
 125   2.0000      -0.695427       -18.9235
 126   2.0000      -0.691152       -18.8072
 127   2.0000      -0.689349       -18.7581
 128   2.0000      -0.684717       -18.6321
 129   2.0000      -0.677497       -18.4356
 130   2.0000      -0.673806       -18.3352
 131   2.0000      -0.663226       -18.0473
 132   2.0000      -0.649069       -17.6621
 133   2.0000      -0.647152       -17.6099
 134   2.0000      -0.643958       -17.5230
 135   2.0000      -0.642344       -17.4791
 136   2.0000      -0.639492       -17.4015
 137   2.0000      -0.619854       -16.8671
 138   2.0000      -0.613378       -16.6909
 139   2.0000      -0.602193       -16.3865
 140   2.0000      -0.597501       -16.2588
 141   2.0000      -0.594753       -16.1840
 142   2.0000      -0.589177       -16.0323
 143   2.0000      -0.588933       -16.0257
 144   2.0000      -0.584962       -15.9176
 145   2.0000      -0.583110       -15.8672
 146   2.0000      -0.580767       -15.8035
 147   2.0000      -0.577855       -15.7242
 148   2.0000      -0.577022       -15.7016
 149   2.0000      -0.574817       -15.6416
 150   2.0000      -0.571423       -15.5492
 151   2.0000      -0.569507       -15.4971
 152   2.0000      -0.568048       -15.4574
 153   2.0000      -0.563491       -15.3334
 154   2.0000      -0.560514       -15.2523
 155   2.0000      -0.559594       -15.2273
 156   2.0000      -0.555574       -15.1179
 157   2.0000      -0.554084       -15.0774
 158   2.0000      -0.547221       -14.8906
 159   2.0000      -0.539116       -14.6701
 160   2.0000      -0.538316       -14.6483
 161   2.0000      -0.537688       -14.6312
 162   2.0000      -0.537007       -14.6127
 163   2.0000      -0.530194       -14.4273
 164   2.0000      -0.527122       -14.3437
 165   2.0000      -0.525956       -14.3120
 166   2.0000      -0.523712       -14.2509
 167   2.0000      -0.522964       -14.2306
 168   2.0000      -0.522073       -14.2063
 169   2.0000      -0.519661       -14.1407
 170   2.0000      -0.518305       -14.1038
 171   2.0000      -0.513371       -13.9695
 172   2.0000      -0.512027       -13.9330
 173   2.0000      -0.510844       -13.9008
 174   2.0000      -0.507249       -13.8029
 175   2.0000      -0.506186       -13.7740
 176   2.0000      -0.504640       -13.7319
 177   2.0000      -0.502922       -13.6852
 178   2.0000      -0.500816       -13.6279
 179   2.0000      -0.498272       -13.5587
 180   2.0000      -0.496751       -13.5173
 181   2.0000      -0.495560       -13.4849
 182   2.0000      -0.493820       -13.4375
 183   2.0000      -0.492516       -13.4020
 184   2.0000      -0.486753       -13.2452
 185   2.0000      -0.483584       -13.1590
 186   2.0000      -0.475968       -12.9517
 187   2.0000      -0.470627       -12.8064
 188   2.0000      -0.468492       -12.7483
 189   2.0000      -0.467629       -12.7248
 190   2.0000      -0.467293       -12.7157
 191   2.0000      -0.462672       -12.5899
 192   2.0000      -0.461658       -12.5624
 193   2.0000      -0.458916       -12.4877
 194   2.0000      -0.457986       -12.4624
 195   2.0000      -0.457592       -12.4517
 196   2.0000      -0.456959       -12.4345
 197   2.0000      -0.455173       -12.3859
 198   2.0000      -0.451708       -12.2916
 199   2.0000      -0.451208       -12.2780
 200   2.0000      -0.449879       -12.2418
 201   2.0000      -0.448965       -12.2170
 202   2.0000      -0.446093       -12.1388
 203   2.0000      -0.446040       -12.1374
 204   2.0000      -0.443748       -12.0750
 205   2.0000      -0.442234       -12.0338
 206   2.0000      -0.440122       -11.9763
 207   2.0000      -0.438609       -11.9352
 208   2.0000      -0.437814       -11.9135
 209   2.0000      -0.435089       -11.8394
 210   2.0000      -0.431808       -11.7501
 211   2.0000      -0.431467       -11.7408
 212   2.0000      -0.427223       -11.6253
 213   2.0000      -0.426465       -11.6047
 214   2.0000      -0.424171       -11.5423
 215   2.0000      -0.420140       -11.4326
 216   2.0000      -0.419137       -11.4053
 217   2.0000      -0.414234       -11.2719
 218   2.0000      -0.412581       -11.2269
 219   2.0000      -0.409159       -11.1338
 220   2.0000      -0.406874       -11.0716
 221   2.0000      -0.404783       -11.0147
 222   2.0000      -0.404456       -11.0058
 223   2.0000      -0.395738       -10.7686
 224   2.0000      -0.394811       -10.7434
 225   2.0000      -0.384389       -10.4597
 226   2.0000      -0.377607       -10.2752
 227   2.0000      -0.371955       -10.1214
 228   2.0000      -0.352791        -9.5999
 229   2.0000      -0.350964        -9.5502
 230   2.0000      -0.346915        -9.4400
 231   2.0000      -0.343518        -9.3476
 232   2.0000      -0.342190        -9.3115
 233   2.0000      -0.336987        -9.1699
 234   2.0000      -0.334997        -9.1157
 235   2.0000      -0.330140        -8.9836
 236   2.0000      -0.328821        -8.9477
 237   2.0000      -0.327915        -8.9230
 238   2.0000      -0.321570        -8.7504
 239   2.0000      -0.318051        -8.6546
 240   2.0000      -0.313986        -8.5440
 241   2.0000      -0.304424        -8.2838
 242   2.0000      -0.303718        -8.2646
 243   2.0000      -0.291326        -7.9274
 244   2.0000      -0.289118        -7.8673
 245   2.0000      -0.255555        -6.9540
 246   2.0000      -0.238350        -6.4858
 247   2.0000      -0.219566        -5.9747
 248   0.0000      -0.109391        -2.9767
 249   0.0000      -0.086961        -2.3663
 250   0.0000      -0.050341        -1.3698
 251   0.0000      -0.043726        -1.1899
 252   0.0000      -0.012610        -0.3431

MULLIKEN ATOMIC CHARGES
-----------------------
   0 C :    0.035998
   1 N :   -0.259167
   2 C :    0.114054
   3 C :   -0.002122
   4 C :    0.160470
   5 O :   -0.199081
   6 C :   -0.089059
   7 C :    0.000399
   8 C :    0.157683
   9 O :   -0.188684
  10 N :   -0.270269
  11 C :    0.104132
  12 C :   -0.001701
  13 C :    0.151842
  14 C :    0.012317
  15 C :   -0.093806
  16 C :    0.102133
  17 C :   -0.041455
  18 C :   -0.037027
  19 N :    0.001652
  20 C :    0.051925
  21 C :    0.045859
  22 N :   -0.037404
  23 C :    0.022947
  24 C :   -0.014557
  25 C :   -0.070500
  26 N :    0.007278
  27 C :    0.030572
  28 C :    0.045087
  29 N :   -0.029060
  30 C :    0.055522
  31 N :   -0.242499
  32 C :    0.114680
  33 C :   -0.004335
  34 C :    0.156832
  35 O :   -0.195092
  36 C :   -0.076871
  37 C :    0.008734
  38 C :    0.125865
  39 O :   -0.207151
  40 N :   -0.270223
  41 C :    0.101274
  42 C :    0.016540
  43 C :    0.131872
  44 C :   -0.037644
  45 C :   -0.039767
  46 C :    0.126075
  47 N :   -0.260392
  48 C :    0.095574
  49 C :    0.009389
  50 C :    0.155563
  51 O :   -0.201913
  52 C :   -0.048606
  53 C :   -0.046909
  54 C :    0.146132
  55 O :   -0.201841
  56 N :   -0.262679
  57 C :    0.099859
  58 C :    0.002344
  59 C :    0.146844
  60 C :   -0.037517
  61 C :   -0.041194
  62 C :    0.162401
  63 O :   -0.196980
  64 C :    0.175664
  65 C :   -0.041906
  66 C :   -0.076442
  67 C :   -0.181591
  68 N :    0.158792
  69 C :   -0.024801
  70 C :    0.004531
  71 H :    0.014001
  72 H :    0.016347
  73 H :    0.039574
  74 H :    0.014677
  75 H :    0.020726
  76 H :    0.030261
  77 H :    0.023202
  78 H :    0.039758
  79 H :    0.022700
  80 H :    0.015990
  81 H :    0.025315
  82 H :   -0.008527
  83 H :    0.036795
  84 H :    0.014515
  85 H :    0.012457
  86 H :    0.022791
  87 H :    0.019141
  88 H :    0.030120
  89 H :    0.034274
  90 H :    0.018570
  91 H :    0.018714
  92 H :    0.022740
  93 H :    0.029131
  94 H :    0.036071
  95 H :    0.020540
  96 H :    0.030246
  97 H :    0.013266
  98 H :    0.002926
  99 H :    0.000504
 100 H :    0.031463
 101 H :    0.042558
 102 H :    0.020635
 103 H :    0.033115
 104 H :    0.024636
 105 H :    0.041928
 106 H :    0.022928
 107 H :    0.030582
 108 H :    0.022701
 109 H :    0.015333
 110 H :   -0.016153
 111 H :    0.041690
 112 H :   -0.003927
 113 H :    0.005197
 114 H :    0.029335
 115 H :    0.032569
Sum of atomic charges:   -0.0000000

LOEWDIN ATOMIC CHARGES
----------------------
   0 C :    0.087275
   1 N :   -0.002037
   2 C :    0.037612
   3 C :   -0.061112
   4 C :    0.075535
   5 O :   -0.196225
   6 C :   -0.126537
   7 C :   -0.128628
   8 C :    0.079151
   9 O :   -0.195328
  10 N :   -0.008197
  11 C :    0.036162
  12 C :   -0.063211
  13 C :    0.082821
  14 C :   -0.028584
  15 C :    0.027482
  16 C :   -0.010117
  17 C :   -0.000758
  18 C :    0.012998
  19 N :   -0.015984
  20 C :    0.019173
  21 C :    0.022196
  22 N :   -0.031105
  23 C :   -0.040430
  24 C :   -0.002968
  25 C :   -0.003615
  26 N :   -0.013455
  27 C :    0.012205
  28 C :    0.016235
  29 N :   -0.035295
  30 C :    0.094924
  31 N :    0.011997
  32 C :    0.029713
  33 C :   -0.062448
  34 C :    0.082469
  35 O :   -0.194921
  36 C :   -0.109137
  37 C :   -0.106136
  38 C :    0.082836
  39 O :   -0.203927
  40 N :   -0.003483
  41 C :    0.035073
  42 C :   -0.060607
  43 C :    0.069118
  44 C :   -0.020085
  45 C :   -0.022730
  46 C :    0.067319
  47 N :    0.000204
  48 C :    0.035440
  49 C :   -0.060592
  50 C :    0.081229
  51 O :   -0.192275
  52 C :   -0.120772
  53 C :   -0.108436
  54 C :    0.077964
  55 O :   -0.204229
  56 N :   -0.004598
  57 C :    0.035732
  58 C :   -0.061441
  59 C :    0.076858
  60 C :   -0.038305
  61 C :    0.011882
  62 C :    0.055070
  63 O :    0.022125
  64 C :    0.044195
  65 C :   -0.033950
  66 C :   -0.091811
  67 C :   -0.033589
  68 N :   -0.038757
  69 C :   -0.040428
  70 C :   -0.021381
  71 H :    0.031719
  72 H :    0.023547
  73 H :    0.035101
  74 H :    0.022103
  75 H :    0.029035
  76 H :    0.031496
  77 H :    0.023361
  78 H :    0.036048
  79 H :    0.023718
  80 H :    0.027534
  81 H :    0.030708
  82 H :    0.025553
  83 H :    0.040056
  84 H :    0.027870
  85 H :    0.026733
  86 H :    0.031615
  87 H :    0.028927
  88 H :    0.019418
  89 H :    0.032183
  90 H :    0.021267
  91 H :    0.029170
  92 H :    0.027965
  93 H :    0.025060
  94 H :    0.035214
  95 H :    0.022792
  96 H :    0.034971
  97 H :    0.026202
  98 H :    0.044882
  99 H :    0.044470
 100 H :    0.025305
 101 H :    0.037808
 102 H :    0.022618
 103 H :    0.036263
 104 H :    0.030385
 105 H :    0.037349
 106 H :    0.022623
 107 H :    0.032544
 108 H :    0.030162
 109 H :    0.021994
 110 H :    0.030689
 111 H :    0.049415
 112 H :    0.040438
 113 H :    0.041065
 114 H :    0.026785
 115 H :    0.030468

  Mayer bond orders larger than 0.100000
B(  0-C ,  1-N ) :   1.1915 B(  0-C ,  7-C ) :   1.4530 B(  0-C , 71-H ) :   0.9900
B(  1-N ,  2-C ) :   0.9464 B(  1-N ,  4-C ) :   1.0443 B(  2-C ,  3-C ) :   1.1177
B(  2-C , 72-H ) :   0.9540 B(  2-C , 73-H ) :   0.9338 B(  3-C , 74-H ) :   0.9691
B(  3-C , 75-H ) :   0.9687 B(  3-C , 76-H ) :   0.9675 B(  4-C ,  5-O ) :   2.0493
B(  4-C ,  6-C ) :   1.0020 B(  6-C ,  7-C ) :   1.2056 B(  6-C , 13-C ) :   1.3690
B(  7-C ,  8-C ) :   0.9493 B(  8-C ,  9-O ) :   2.1753 B(  8-C , 10-N ) :   1.0252
B( 10-N , 11-C ) :   0.9491 B( 10-N , 13-C ) :   1.1508 B( 11-C , 12-C ) :   1.1214
B( 11-C , 77-H ) :   0.9490 B( 11-C , 78-H ) :   0.9275 B( 12-C , 79-H ) :   0.9666
B( 12-C , 80-H ) :   0.9676 B( 12-C , 81-H ) :   0.9625 B( 13-C , 14-C ) :   1.1473
B( 14-C , 15-C ) :   1.5562 B( 14-C , 82-H ) :   0.9456 B( 15-C , 16-C ) :   1.1823
B( 15-C , 83-H ) :   0.9452 B( 16-C , 17-C ) :   1.2111 B( 16-C , 23-C ) :   0.1455
B( 16-C , 25-C ) :   1.2103 B( 17-C , 18-C ) :   1.1605 B( 17-C , 22-N ) :   1.4410
B( 18-C , 19-N ) :   1.4666 B( 18-C , 23-C ) :   1.2904 B( 19-N , 20-C ) :   1.6651
B( 20-C , 21-C ) :   1.1942 B( 20-C , 84-H ) :   0.9729 B( 21-C , 22-N ) :   1.6651
B( 21-C , 85-H ) :   0.9715 B( 23-C , 24-C ) :   1.2810 B( 23-C , 30-C ) :   1.0113
B( 24-C , 25-C ) :   1.1484 B( 24-C , 29-N ) :   1.4549 B( 25-C , 26-N ) :   1.4922
B( 26-N , 27-C ) :   1.6874 B( 27-C , 28-C ) :   1.1910 B( 27-C , 86-H ) :   0.9767
B( 28-C , 29-N ) :   1.6474 B( 28-C , 87-H ) :   0.9727 B( 30-C , 31-N ) :   1.2392
B( 30-C , 37-C ) :   1.3987 B( 31-N , 32-C ) :   0.9447 B( 31-N , 34-C ) :   1.0279
B( 32-C , 33-C ) :   1.1185 B( 32-C , 88-H ) :   0.9278 B( 32-C , 89-H ) :   0.9264
B( 33-C , 90-H ) :   0.9664 B( 33-C , 91-H ) :   0.9673 B( 33-C , 92-H ) :   0.9652
B( 34-C , 35-O ) :   2.1128 B( 34-C , 36-C ) :   0.9810 B( 36-C , 37-C ) :   1.2466
B( 36-C , 43-C ) :   1.3253 B( 37-C , 38-C ) :   0.9586 B( 38-C , 39-O ) :   2.1091
B( 38-C , 40-N ) :   1.0456 B( 40-N , 41-C ) :   0.9376 B( 40-N , 43-C ) :   1.1652
B( 41-C , 42-C ) :   1.1209 B( 41-C , 93-H ) :   0.9515 B( 41-C , 94-H ) :   0.9240
B( 42-C , 95-H ) :   0.9671 B( 42-C , 96-H ) :   0.9675 B( 42-C , 97-H ) :   0.9597
B( 43-C , 44-C ) :   1.1911 B( 44-C , 45-C ) :   1.4858 B( 44-C , 98-H ) :   0.9508
B( 45-C , 46-C ) :   1.1912 B( 45-C , 99-H ) :   0.9497 B( 46-C , 47-N ) :   1.1682
B( 46-C , 53-C ) :   1.3202 B( 47-N , 48-C ) :   0.9354 B( 47-N , 50-C ) :   1.0633
B( 48-C , 49-C ) :   1.1196 B( 48-C ,100-H ) :   0.9512 B( 48-C ,101-H ) :   0.9251
B( 49-C ,102-H ) :   0.9676 B( 49-C ,103-H ) :   0.9675 B( 49-C ,104-H ) :   0.9608
B( 50-C , 51-O ) :   2.0342 B( 50-C , 52-C ) :   0.9804 B( 51-O ,111-H ) :   0.1076
B( 52-C , 53-C ) :   1.2558 B( 52-C , 59-C ) :   1.3303 B( 53-C , 54-C ) :   0.9830
B( 54-C , 55-O ) :   2.1084 B( 54-C , 56-N ) :   1.0440 B( 56-N , 57-C ) :   0.9487
B( 56-N , 59-C ) :   1.1568 B( 57-C , 58-C ) :   1.1187 B( 57-C ,105-H ) :   0.9284
B( 57-C ,106-H ) :   0.9500 B( 58-C ,107-H ) :   0.9640 B( 58-C ,108-H ) :   0.9681
B( 58-C ,109-H ) :   0.9691 B( 59-C , 60-C ) :   1.1431 B( 60-C , 61-C ) :   1.5649
B( 60-C ,110-H ) :   0.9758 B( 61-C , 62-C ) :   1.2001 B( 61-C ,111-H ) :   0.9316
B( 62-C , 63-O ) :   1.1579 B( 62-C , 66-C ) :   1.3957 B( 63-O , 64-C ) :   1.1292
B( 64-C , 65-C ) :   1.4533 B( 64-C , 69-C ) :   1.1164 B( 65-C , 66-C ) :   1.2386
B( 65-C ,112-H ) :   1.0233 B( 66-C , 67-C ) :   1.1163 B( 67-C , 68-N ) :   3.0330
B( 69-C , 70-C ) :   1.9164 B( 69-C ,113-H ) :   0.9590 B( 70-C ,114-H ) :   0.9595
B( 70-C ,115-H ) :   0.9463

-----------------------------------------------------------------------------
         ABSORPTION SPECTRUM VIA TRANSITION ELECTRIC DIPOLE MOMENTS
-----------------------------------------------------------------------------
State   Energy  Wavelength   fosc         T2         TX        TY        TZ
        (cm-1)    (nm)                  (au**2)     (au)      (au)      (au)
-----------------------------------------------------------------------------
   0   10039.4    996.1   1.196257042  39.22773   1.54467  -5.66108  -2.18951
   1   14514.6    689.0   0.043360366   0.98348   0.50413   0.11228  -0.84659
   2   15115.9    661.6   0.291827334   6.35575   1.02294  -2.07217  -1.00771
   3   17590.9    568.5   0.021147528   0.39577  -0.26331   0.55134  -0.14990
   4   21463.7    465.9   0.020160375   0.30922   0.04169   0.34162   0.43678
   5   22680.8    440.9   0.027436132   0.39824   0.15715   0.52245  -0.31716
   6   23456.9    426.3   0.033560685   0.47102  -0.34930   0.11493   0.57948
   7   24073.5    415.4   0.044388303   0.60702   0.54023  -0.36706  -0.42478
   8   24229.7    412.7   0.158126676   2.14849   0.35415  -1.40669  -0.21047
   9   24495.6    408.2   0.093457187   1.25603   0.33145   0.83396  -0.67133
  10   24827.1    402.8   0.025738824   0.34130  -0.39284  -0.42749   0.06503
  11   25795.3    387.7   0.258076303   3.29369   0.15916  -1.77653   0.33510
  12   26236.9    381.1   0.136834008   1.71695  -0.13372   1.30248  -0.05098
  13   26262.9    380.8   0.093481861   1.17182   0.11353  -1.07302   0.08692
  14   26472.3    377.8   0.021325343   0.26520  -0.05490  -0.49544   0.12933
  15   27220.1    367.4   0.001224457   0.01481   0.01172  -0.01520  -0.12017
  16   27879.5    358.7   0.028753128   0.33953   0.42415   0.23976  -0.31959
  17   27913.7    358.2   0.017897254   0.21108   0.26761   0.14673  -0.34342
  18   27967.0    357.6   0.007485865   0.08812   0.07979   0.19697  -0.20726
  19   28140.4    355.4   0.011179482   0.13079   0.02698  -0.35658   0.05394
  20   28897.4    346.1   0.014520972   0.16543   0.14358   0.03318  -0.37910
  21   29376.1    340.4   0.001275712   0.01430  -0.04317  -0.07809  -0.07959
  22   30212.7    331.0   0.005323101   0.05800  -0.16676  -0.16918  -0.03966
  23   30658.3    326.2   0.010816082   0.11614  -0.09166   0.31096   0.10510
  24   31538.1    317.1   0.063176103   0.65947  -0.08712   0.79465  -0.14285
  25   31783.4    314.6   0.037993401   0.39353  -0.00515   0.59952   0.18463
  26   31887.1    313.6   0.000229768   0.00237  -0.02692  -0.03161  -0.02546
  27   32162.2    310.9   0.207568270   2.12467  -1.31417  -0.25808   0.57535
  28   32386.7    308.8   0.000913269   0.00928   0.08221  -0.04771  -0.01575
  29   32725.9    305.6   0.112247286   1.12917   0.20541   0.94551  -0.43930
  30   33521.2    298.3   0.049531231   0.48645   0.18878  -0.66042  -0.12104
  31   33939.8    294.6   0.068192048   0.66145   0.73544   0.26384  -0.22575
  32   34373.9    290.9   0.106495627   1.01995   0.92826  -0.02092  -0.39730
  33   34640.3    288.7   0.017024695   0.16180  -0.31743   0.15281   0.19413
  34   34699.0    288.2   0.013602115   0.12905  -0.00740   0.35887   0.01440
  35   35052.7    285.3   0.097787387   0.91841  -0.10805   0.95068   0.05419
  36   35129.8    284.7   0.033970748   0.31835  -0.10829  -0.45910   0.30960
  37   35537.8    281.4   0.018768881   0.17387   0.17062  -0.08248  -0.37142
  38   35984.7    277.9   0.160765229   1.47079  -0.55054   1.03777   0.30123
  39   36299.5    275.5   0.056970058   0.51668   0.07040  -0.71373   0.04807
  40   36486.7    274.1   0.002491386   0.02248  -0.03148   0.13942  -0.04528
  41   36675.6    272.7   0.019127457   0.17169  -0.10729   0.31977   0.24069
  42   36907.0    271.0   0.001874177   0.01672  -0.10556  -0.00029  -0.07467
  43   37328.8    267.9   0.008141960   0.07181   0.15656   0.19537  -0.09552
  44   37498.3    266.7   0.060887990   0.53456  -0.29296   0.66633   0.06878
  45   37826.8    264.4   0.002993391   0.02605   0.04460  -0.15468   0.01166
  46   37935.5    263.6   0.004510662   0.03914   0.05156  -0.19040   0.01523
  47   38076.5    262.6   0.000814950   0.00705  -0.01270   0.06747   0.04829
  48   38552.6    259.4   0.062140806   0.53064   0.10229   0.62042  -0.36778
  49   38875.6    257.2   0.125145237   1.05977   0.22041   0.95529  -0.31404
  50   38977.3    256.6   0.242951123   2.05202   0.31155   1.30143  -0.51112
  51   39030.8    256.2   0.019094220   0.16105   0.10640   0.33370  -0.19590
  52   39498.8    253.2   0.065018704   0.54191  -0.45626  -0.00122   0.57770
  53   39586.6    252.6   0.047426624   0.39441   0.18804   0.42394  -0.42347
  54   39813.2    251.2   0.032489809   0.26866   0.08483  -0.48680  -0.15649
  55   39905.7    250.6   0.007151049   0.05899   0.19391  -0.06787  -0.12956

FINAL SINGLE POINT ENERGY     -3171.643218855584

DIPOLE MOMENT
-------------
                                X             Y             Z
Electronic contribution:     14.91130      11.25314      -3.01002
Nuclear contribution   :    -15.98926     -10.70017       3.88924
                        -----------------------------------------
Total Dipole Moment    :     -1.07796       0.55297       0.87922
                        -----------------------------------------
Magnitude (a.u.)       :      1.49693
Magnitude (Debye)      :      3.80490

Rotational constants in cm-1:     0.003003     0.000269     0.000251
Rotational constants in MHz :    90.024389     8.051223     7.516152

                             ****ORCA TERMINATED NORMALLY****
TOTAL RUN TIME: 0 days 0 hours 11 minutes 15 seconds 801 msec
