                         Program Version 4.2.0 -  RELEASE  -
|  1> # ORCA input file
|  2> # SCF done       -177.827627779429          0.000369805886
|  3> ! CAM-B3LYP def2-SVP def2/J RIJCOSX Grid4 TightSCF
|  4> %maxcore 5000
|  5> %tddft
|  6>     Mode sTDDFT
|  7>     Ethresh 5.0
|  8>     maxcore 5000
|  9> end
| 10>
| 11> %pal
| 12>   nprocs 6
| 13>   end
| 14> * xyz 0 1
| 15>    C       -7.25886         4.28510       -11.39833
| 16>    N       -5.92632         4.56695       -11.41407
| 17>    C       -5.03499         4.36490       -12.52687
| 18>    C       -5.21730         5.43929       -13.59647
| 19>    C       -5.50901         5.15842       -10.19819
| 20>    O       -4.35628         5.48679        -9.97042
| 21>    C       -6.71145         5.21658        -9.41893
| 22>    C       -7.77653         4.66292       -10.18981
| 23>    C       -8.97220         4.72029        -9.37462
| 24>    O      -10.11668         4.37887        -9.58204
| 25>    N       -8.55079         5.31223        -8.16444
| 26>    C       -9.49348         5.46486        -7.08401
| 27>    C       -9.30681         4.39708        -6.00816
| 28>    C       -7.20145         5.61267        -8.17685
| 29>    C       -6.36598         6.20712        -7.21006
| 30>    C       -6.64534         6.68276        -5.96001
| 31>    C       -5.71782         7.24685        -5.06766
| 32>    S       -6.36241         8.10893        -3.69933
| 33>    C       -4.79838         8.56797        -3.10359
| 34>    C       -3.79265         8.08763        -3.97228
| 35>    C       -4.30339         7.30490        -5.05133
| 36>    C       -3.39551         6.67001        -5.90993
| 37>    C       -2.03731         6.88569        -5.80173
| 38>    C       -1.11502         6.20154        -6.70462
| 39>    C       -1.40386         5.79544        -7.93547
| 40>    C       -1.54359         7.77466        -4.80687
| 41>    C       -0.08267         8.09795        -4.73174
| 42>    C       -2.41257         8.34303        -3.91064
| 43>    C       -4.75365         9.29002        -1.89876
| 44>    C       -3.66922         9.42559        -1.07908
| 45>    C       -3.60244        10.14380         0.13877
| 46>    C       -4.61776        10.99081         0.66787
| 47>    C       -4.47092        11.65174         1.93314
| 48>    N       -5.50992        12.32182         2.45617
| 49>    C       -6.61877        12.41714         1.76800
| 50>    C       -6.71899        11.88093         0.47802
| 51>    N       -5.74546        11.17999        -0.04221
| 52>    C       -3.26704        11.54729         2.68867
| 53>    C       -2.29040        10.64528         2.18499
| 54>    C       -2.42900         9.98608         0.93004
| 55>    N       -1.43978         9.18560         0.49090
| 56>    C       -0.38774         9.00986         1.24910
| 57>    C       -0.27263         9.61631         2.50845
| 58>    N       -1.21059        10.41801         2.94259
| 59>    C       -3.00451        12.19215         3.91722
| 60>    S       -1.72014        11.56752         4.93011
| 61>    C       -2.10002        12.67259         6.25434
| 62>    C       -3.09690        13.53957         5.84361
| 63>    C       -3.59774        13.29980         4.53848
| 64>    C       -4.49977        14.31758         4.12977
| 65>    C       -4.69230        15.27612         5.06574
| 66>    C       -5.55602        16.48101         4.98018
| 67>    S       -3.77498        14.98699         6.52950
| 68>    C       -1.33707        12.57604         7.43355
| 69>    S        0.20726        11.78518         7.33331
| 70>    C        0.54339        12.00625         9.01596
| 71>    C       -0.52499        12.65091         9.64763
| 72>    C       -1.59826        12.96880         8.75930
| 73>    C       -2.76209        13.54725         9.28236
| 74>    C       -2.86572        13.85598        10.62000
| 75>    C       -4.08188        14.48103        11.13324
| 76>    C       -5.29811        14.30772        10.63121
| 77>    C       -1.77669        13.57615        11.49959
| 78>    C       -1.88273        13.89739        12.95965
| 79>    C       -0.64677        12.97926        11.01288
| 80>    C        1.76520        11.55835         9.60434
| 81>    C        2.73875        10.91870         8.95228
| 82>    H       -7.73664         3.82950       -12.24568
| 83>    H       -5.20760         3.37129       -12.95195
| 84>    H       -4.02025         4.41173       -12.12174
| 85>    H       -6.23111         5.42002       -13.99066
| 86>    H       -4.52072         5.27182       -14.41336
| 87>    H       -5.02818         6.42212       -13.17172
| 88>    H      -10.48296         5.35150        -7.53831
| 89>    H       -9.41884         6.47194        -6.66556
| 90>    H       -9.47570         3.41200        -6.43628
| 91>    H      -10.02034         4.55354        -5.20348
| 92>    H       -8.30018         4.42614        -5.59709
| 93>    H       -5.35818         6.30871        -7.58177
| 94>    H       -7.66363         6.68943        -5.59932
| 95>    H       -3.74310         5.97173        -6.65050
| 96>    H       -0.11983         6.03173        -6.31490
| 97>    H       -2.35938         5.95655        -8.40566
| 98>    H       -0.66807         5.28726        -8.53600
| 99>    H        0.48925         7.22309        -4.42144
|100>    H        0.09483         8.89202        -4.01060
|101>    H        0.29036         8.41686        -5.70369
|102>    H       -2.03165         9.01874        -3.16241
|103>    H       -5.68963         9.72148        -1.57262
|104>    H       -2.76191         8.88407        -1.30311
|105>    H       -7.43854        12.94113         2.24153
|106>    H       -7.59898        12.01890        -0.13611
|107>    H        0.38784         8.36581         0.85734
|108>    H        0.57476         9.45462         3.15878
|109>    H       -4.97507        14.33447         3.16906
|110>    H       -6.31561        16.46279         5.76162
|111>    H       -6.04730        16.51929         4.01109
|112>    H       -4.96509        17.38697         5.11457
|113>    H       -3.58766        13.76019         8.62656
|114>    H       -3.95590        15.12692        11.99147
|115>    H       -5.49018        13.65036         9.80017
|116>    H       -6.15511        14.80835        11.04837
|117>    H       -2.77835        13.44975        13.38796
|118>    H       -1.93639        14.97526        13.11341
|119>    H       -1.01547        13.52085        13.49649
|120>    H        0.16542        12.74362        11.68452
|121>    H        1.87640        11.77016        10.65936
|122>    H        2.65511        10.69190         7.90248
|123>    H        3.63938        10.60551         9.44893
|124> *
|125>
|126>                          ****END OF INPUT****

CARTESIAN COORDINATES (ANGSTROEM)
---------------------------------
  C     -7.258860    4.285100  -11.398330
  N     -5.926320    4.566950  -11.414070
  C     -5.034990    4.364900  -12.526870
  C     -5.217300    5.439290  -13.596470
  C     -5.509010    5.158420  -10.198190
  O     -4.356280    5.486790   -9.970420
  C     -6.711450    5.216580   -9.418930
  C     -7.776530    4.662920  -10.189810
  C     -8.972200    4.720290   -9.374620
  O    -10.116680    4.378870   -9.582040
  N     -8.550790    5.312230   -8.164440
  C     -9.493480    5.464860   -7.084010
  C     -9.306810    4.397080   -6.008160
  C     -7.201450    5.612670   -8.176850
  C     -6.365980    6.207120   -7.210060
  C     -6.645340    6.682760   -5.960010
  C     -5.717820    7.246850   -5.067660
  S     -6.362410    8.108930   -3.699330
  C     -4.798380    8.567970   -3.103590
  C     -3.792650    8.087630   -3.972280
  C     -4.303390    7.304900   -5.051330
  C     -3.395510    6.670010   -5.909930
  C     -2.037310    6.885690   -5.801730
  C     -1.115020    6.201540   -6.704620
  C     -1.403860    5.795440   -7.935470
  C     -1.543590    7.774660   -4.806870
  C     -0.082670    8.097950   -4.731740
  C     -2.412570    8.343030   -3.910640
  C     -4.753650    9.290020   -1.898760
  C     -3.669220    9.425590   -1.079080
  C     -3.602440   10.143800    0.138770
  C     -4.617760   10.990810    0.667870
  C     -4.470920   11.651740    1.933140
  N     -5.509920   12.321820    2.456170
  C     -6.618770   12.417140    1.768000
  C     -6.718990   11.880930    0.478020
  N     -5.745460   11.179990   -0.042210
  C     -3.267040   11.547290    2.688670
  C     -2.290400   10.645280    2.184990
  C     -2.429000    9.986080    0.930040
  N     -1.439780    9.185600    0.490900
  C     -0.387740    9.009860    1.249100
  C     -0.272630    9.616310    2.508450
  N     -1.210590   10.418010    2.942590
  C     -3.004510   12.192150    3.917220
  S     -1.720140   11.567520    4.930110
  C     -2.100020   12.672590    6.254340
  C     -3.096900   13.539570    5.843610
  C     -3.597740   13.299800    4.538480
  C     -4.499770   14.317580    4.129770
  C     -4.692300   15.276120    5.065740
  C     -5.556020   16.481010    4.980180
  S     -3.774980   14.986990    6.529500
  C     -1.337070   12.576040    7.433550
  S      0.207260   11.785180    7.333310
  C      0.543390   12.006250    9.015960
  C     -0.524990   12.650910    9.647630
  C     -1.598260   12.968800    8.759300
  C     -2.762090   13.547250    9.282360
  C     -2.865720   13.855980   10.620000
  C     -4.081880   14.481030   11.133240
  C     -5.298110   14.307720   10.631210
  C     -1.776690   13.576150   11.499590
  C     -1.882730   13.897390   12.959650
  C     -0.646770   12.979260   11.012880
  C      1.765200   11.558350    9.604340
  C      2.738750   10.918700    8.952280
  H     -7.736640    3.829500  -12.245680
  H     -5.207600    3.371290  -12.951950
  H     -4.020250    4.411730  -12.121740
  H     -6.231110    5.420020  -13.990660
  H     -4.520720    5.271820  -14.413360
  H     -5.028180    6.422120  -13.171720
  H    -10.482960    5.351500   -7.538310
  H     -9.418840    6.471940   -6.665560
  H     -9.475700    3.412000   -6.436280
  H    -10.020340    4.553540   -5.203480
  H     -8.300180    4.426140   -5.597090
  H     -5.358180    6.308710   -7.581770
  H     -7.663630    6.689430   -5.599320
  H     -3.743100    5.971730   -6.650500
  H     -0.119830    6.031730   -6.314900
  H     -2.359380    5.956550   -8.405660
  H     -0.668070    5.287260   -8.536000
  H      0.489250    7.223090   -4.421440
  H      0.094830    8.892020   -4.010600
  H      0.290360    8.416860   -5.703690
  H     -2.031650    9.018740   -3.162410
  H     -5.689630    9.721480   -1.572620
  H     -2.761910    8.884070   -1.303110
  H     -7.438540   12.941130    2.241530
  H     -7.598980   12.018900   -0.136110
  H      0.387840    8.365810    0.857340
  H      0.574760    9.454620    3.158780
  H     -4.975070   14.334470    3.169060
  H     -6.315610   16.462790    5.761620
  H     -6.047300   16.519290    4.011090
  H     -4.965090   17.386970    5.114570
  H     -3.587660   13.760190    8.626560
  H     -3.955900   15.126920   11.991470
  H     -5.490180   13.650360    9.800170
  H     -6.155110   14.808350   11.048370
  H     -2.778350   13.449750   13.387960
  H     -1.936390   14.975260   13.113410
  H     -1.015470   13.520850   13.496490
  H      0.165420   12.743620   11.684520
  H      1.876400   11.770160   10.659360
  H      2.655110   10.691900    7.902480
  H      3.639380   10.605510    9.448930

 Total Charge           Charge          ....    0
 Multiplicity           Mult            ....    1
 Number of Electrons    NEL             ....  494
 Basis Dimension        Dim             .... 1164

ORBITAL ENERGIES
----------------

  NO   OCC          E(Eh)            E(eV)
   0   2.0000     -88.956436     -2420.6277
   1   2.0000     -88.955250     -2420.5954
   2   2.0000     -88.943610     -2420.2787
   3   2.0000     -88.939008     -2420.1534
   4   2.0000     -19.172857      -521.7200
   5   2.0000     -19.171174      -521.6742
   6   2.0000     -14.437817      -392.8730
   7   2.0000     -14.436751      -392.8440
   8   2.0000     -14.433471      -392.7547
   9   2.0000     -14.427693      -392.5975
  10   2.0000     -14.424565      -392.5124
  11   2.0000     -14.423888      -392.4940
  12   2.0000     -10.358920      -281.8805
  13   2.0000     -10.353530      -281.7339
  14   2.0000     -10.326086      -280.9871
  15   2.0000     -10.324267      -280.9376
  16   2.0000     -10.323443      -280.9152
  17   2.0000     -10.321749      -280.8691
  18   2.0000     -10.321608      -280.8652
  19   2.0000     -10.320422      -280.8330
  20   2.0000     -10.320309      -280.8299
  21   2.0000     -10.319461      -280.8068
  22   2.0000     -10.319304      -280.8025
  23   2.0000     -10.313107      -280.6339
  24   2.0000     -10.301954      -280.3304
  25   2.0000     -10.301151      -280.3086
  26   2.0000     -10.297831      -280.2182
  27   2.0000     -10.297441      -280.2076
  28   2.0000     -10.297060      -280.1973
  29   2.0000     -10.296224      -280.1745
  30   2.0000     -10.296194      -280.1737
  31   2.0000     -10.295529      -280.1556
  32   2.0000     -10.294780      -280.1352
  33   2.0000     -10.293517      -280.1008
  34   2.0000     -10.289665      -279.9960
  35   2.0000     -10.289359      -279.9877
  36   2.0000     -10.282715      -279.8069
  37   2.0000     -10.277891      -279.6756
  38   2.0000     -10.277288      -279.6592
  39   2.0000     -10.275889      -279.6212
  40   2.0000     -10.274482      -279.5829
  41   2.0000     -10.273441      -279.5545
  42   2.0000     -10.273185      -279.5476
  43   2.0000     -10.272818      -279.5376
  44   2.0000     -10.272779      -279.5365
  45   2.0000     -10.270028      -279.4617
  46   2.0000     -10.269794      -279.4553
  47   2.0000     -10.269570      -279.4492
  48   2.0000     -10.268550      -279.4215
  49   2.0000     -10.266678      -279.3705
  50   2.0000     -10.266412      -279.3633
  51   2.0000     -10.264475      -279.3106
  52   2.0000     -10.263376      -279.2807
  53   2.0000     -10.263159      -279.2748
  54   2.0000     -10.261839      -279.2388
  55   2.0000     -10.260880      -279.2127
  56   2.0000     -10.260873      -279.2126
  57   2.0000     -10.260310      -279.1972
  58   2.0000     -10.258575      -279.1500
  59   2.0000     -10.258159      -279.1387
  60   2.0000     -10.257187      -279.1122
  61   2.0000     -10.256922      -279.1050
  62   2.0000     -10.255061      -279.0544
  63   2.0000     -10.252432      -278.9829
  64   2.0000     -10.247705      -278.8542
  65   2.0000     -10.243235      -278.7326
  66   2.0000     -10.238754      -278.6107
  67   2.0000      -8.051841      -219.1017
  68   2.0000      -8.050518      -219.0657
  69   2.0000      -8.036091      -218.6732
  70   2.0000      -8.034706      -218.6355
  71   2.0000      -6.020699      -163.8315
  72   2.0000      -6.019551      -163.8003
  73   2.0000      -6.016796      -163.7253
  74   2.0000      -6.015406      -163.6875
  75   2.0000      -6.014683      -163.6679
  76   2.0000      -6.013187      -163.6272
  77   2.0000      -6.006265      -163.4388
  78   2.0000      -6.004480      -163.3902
  79   2.0000      -6.001063      -163.2972
  80   2.0000      -6.000138      -163.2721
  81   2.0000      -5.997686      -163.2053
  82   2.0000      -5.995971      -163.1587
  83   2.0000      -1.114803       -30.3353
  84   2.0000      -1.106828       -30.1183
  85   2.0000      -1.090104       -29.6632
  86   2.0000      -1.080459       -29.4008
  87   2.0000      -1.044327       -28.4176
  88   2.0000      -1.035941       -28.1894
  89   2.0000      -1.015036       -27.6205
  90   2.0000      -1.003297       -27.3011
  91   2.0000      -0.996418       -27.1139
  92   2.0000      -0.987140       -26.8615
  93   2.0000      -0.982127       -26.7250
  94   2.0000      -0.951370       -25.8881
  95   2.0000      -0.938089       -25.5267
  96   2.0000      -0.933738       -25.4083
  97   2.0000      -0.927432       -25.2367
  98   2.0000      -0.912528       -24.8312
  99   2.0000      -0.904123       -24.6024
 100   2.0000      -0.892904       -24.2972
 101   2.0000      -0.880378       -23.9563
 102   2.0000      -0.869112       -23.6497
 103   2.0000      -0.868654       -23.6373
 104   2.0000      -0.865476       -23.5508
 105   2.0000      -0.860914       -23.4267
 106   2.0000      -0.857228       -23.3264
 107   2.0000      -0.849875       -23.1263
 108   2.0000      -0.847301       -23.0562
 109   2.0000      -0.836469       -22.7615
 110   2.0000      -0.835137       -22.7252
 111   2.0000      -0.816711       -22.2238
 112   2.0000      -0.814595       -22.1663
 113   2.0000      -0.807275       -21.9671
 114   2.0000      -0.798472       -21.7275
 115   2.0000      -0.796456       -21.6727
 116   2.0000      -0.791284       -21.5319
 117   2.0000      -0.779333       -21.2067
 118   2.0000      -0.771112       -20.9830
 119   2.0000      -0.768454       -20.9107
 120   2.0000      -0.766501       -20.8576
 121   2.0000      -0.762467       -20.7478
 122   2.0000      -0.750880       -20.4325
 123   2.0000      -0.748090       -20.3566
 124   2.0000      -0.741459       -20.1761
 125   2.0000      -0.726177       -19.7603
 126   2.0000      -0.719288       -19.5728
 127   2.0000      -0.709432       -19.3046
 128   2.0000      -0.706774       -19.2323
 129   2.0000      -0.702764       -19.1232
 130   2.0000      -0.696307       -18.9475
 131   2.0000      -0.679572       -18.4921
 132   2.0000      -0.678683       -18.4679
 133   2.0000      -0.665841       -18.1185
 134   2.0000      -0.662244       -18.0206
 135   2.0000      -0.660613       -17.9762
 136   2.0000      -0.647419       -17.6172
 137   2.0000      -0.643718       -17.5165
 138   2.0000      -0.641426       -17.4541
 139   2.0000      -0.637827       -17.3562
 140   2.0000      -0.633051       -17.2262
 141   2.0000      -0.625534       -17.0216
 142   2.0000      -0.621555       -16.9134
 143   2.0000      -0.618590       -16.8327
 144   2.0000      -0.611582       -16.6420
 145   2.0000      -0.606690       -16.5089
 146   2.0000      -0.597643       -16.2627
 147   2.0000      -0.594269       -16.1709
 148   2.0000      -0.590094       -16.0573
 149   2.0000      -0.583760       -15.8849
 150   2.0000      -0.581374       -15.8200
 151   2.0000      -0.571341       -15.5470
 152   2.0000      -0.567896       -15.4532
 153   2.0000      -0.566637       -15.4190
 154   2.0000      -0.563015       -15.3204
 155   2.0000      -0.561665       -15.2837
 156   2.0000      -0.558930       -15.2093
 157   2.0000      -0.551372       -15.0036
 158   2.0000      -0.547237       -14.8911
 159   2.0000      -0.546010       -14.8577
 160   2.0000      -0.540620       -14.7110
 161   2.0000      -0.536825       -14.6077
 162   2.0000      -0.535616       -14.5749
 163   2.0000      -0.527159       -14.3447
 164   2.0000      -0.525925       -14.3111
 165   2.0000      -0.519359       -14.1325
 166   2.0000      -0.517313       -14.0768
 167   2.0000      -0.516373       -14.0512
 168   2.0000      -0.515544       -14.0287
 169   2.0000      -0.514593       -14.0028
 170   2.0000      -0.514062       -13.9883
 171   2.0000      -0.513414       -13.9707
 172   2.0000      -0.511576       -13.9207
 173   2.0000      -0.505953       -13.7677
 174   2.0000      -0.504541       -13.7293
 175   2.0000      -0.503748       -13.7077
 176   2.0000      -0.502755       -13.6807
 177   2.0000      -0.499376       -13.5887
 178   2.0000      -0.498499       -13.5648
 179   2.0000      -0.494012       -13.4428
 180   2.0000      -0.492239       -13.3945
 181   2.0000      -0.489465       -13.3190
 182   2.0000      -0.487225       -13.2581
 183   2.0000      -0.485551       -13.2125
 184   2.0000      -0.482463       -13.1285
 185   2.0000      -0.481302       -13.0969
 186   2.0000      -0.480881       -13.0854
 187   2.0000      -0.476359       -12.9624
 188   2.0000      -0.472626       -12.8608
 189   2.0000      -0.471592       -12.8327
 190   2.0000      -0.466942       -12.7061
 191   2.0000      -0.464262       -12.6332
 192   2.0000      -0.459413       -12.5013
 193   2.0000      -0.458244       -12.4695
 194   2.0000      -0.457957       -12.4616
 195   2.0000      -0.453994       -12.3538
 196   2.0000      -0.451772       -12.2933
 197   2.0000      -0.449172       -12.2226
 198   2.0000      -0.447267       -12.1707
 199   2.0000      -0.445418       -12.1205
 200   2.0000      -0.443766       -12.0755
 201   2.0000      -0.443133       -12.0583
 202   2.0000      -0.440805       -11.9949
 203   2.0000      -0.439288       -11.9536
 204   2.0000      -0.436145       -11.8681
 205   2.0000      -0.430349       -11.7104
 206   2.0000      -0.429143       -11.6776
 207   2.0000      -0.424919       -11.5626
 208   2.0000      -0.422897       -11.5076
 209   2.0000      -0.420493       -11.4422
 210   2.0000      -0.418302       -11.3826
 211   2.0000      -0.415767       -11.3136
 212   2.0000      -0.414328       -11.2744
 213   2.0000      -0.413306       -11.2466
 214   2.0000      -0.410225       -11.1628
 215   2.0000      -0.408029       -11.1030
 216   2.0000      -0.406689       -11.0666
 217   2.0000      -0.402768       -10.9599
 218   2.0000      -0.401730       -10.9316
 219   2.0000      -0.399765       -10.8782
 220   2.0000      -0.397111       -10.8059
 221   2.0000      -0.393313       -10.7026
 222   2.0000      -0.388673       -10.5763
 223   2.0000      -0.386684       -10.5222
 224   2.0000      -0.377948       -10.2845
 225   2.0000      -0.375349       -10.2138
 226   2.0000      -0.360722        -9.8157
 227   2.0000      -0.358062        -9.7433
 228   2.0000      -0.353558        -9.6208
 229   2.0000      -0.344776        -9.3818
 230   2.0000      -0.334005        -9.0887
 231   2.0000      -0.333197        -9.0668
 232   2.0000      -0.330481        -8.9928
 233   2.0000      -0.320722        -8.7273
 234   2.0000      -0.319297        -8.6885
 235   2.0000      -0.316167        -8.6034
 236   2.0000      -0.313782        -8.5384
 237   2.0000      -0.311126        -8.4662
 238   2.0000      -0.298159        -8.1133
 239   2.0000      -0.295536        -8.0419
 240   2.0000      -0.289473        -7.8770
 241   2.0000      -0.286672        -7.8008
 242   2.0000      -0.282529        -7.6880
 243   2.0000      -0.264439        -7.1958
 244   2.0000      -0.248197        -6.7538
 245   2.0000      -0.222010        -6.0412
 246   2.0000      -0.196992        -5.3604
 247   0.0000      -0.100313        -2.7297
 248   0.0000      -0.064289        -1.7494
 249   0.0000      -0.044025        -1.1980
 250   0.0000      -0.018302        -0.4980
 251   0.0000      -0.007352        -0.2001

MULLIKEN ATOMIC CHARGES
-----------------------
   0 C :    0.029104
   1 N :   -0.261807
   2 C :    0.114544
   3 C :    0.001910
   4 C :    0.157531
   5 O :   -0.216812
   6 C :   -0.089208
   7 C :    0.017064
   8 C :    0.157536
   9 O :   -0.193722
  10 N :   -0.277568
  11 C :    0.103174
  12 C :    0.002118
  13 C :    0.154364
  14 C :   -0.088271
  15 C :    0.081224
  16 C :   -0.140924
  17 S :    0.150542
  18 C :   -0.101334
  19 C :    0.121449
  20 C :    0.141388
  21 C :   -0.124839
  22 C :    0.096871
  23 C :   -0.045516
  24 C :   -0.019047
  25 C :   -0.084101
  26 C :    0.100076
  27 C :   -0.099902
  28 C :    0.065922
  29 C :   -0.115893
  30 C :    0.082281
  31 C :   -0.038402
  32 C :   -0.086887
  33 N :   -0.034651
  34 C :    0.034764
  35 C :    0.038527
  36 N :   -0.032411
  37 C :    0.161840
  38 C :   -0.022256
  39 C :   -0.035200
  40 N :   -0.022232
  41 C :    0.026167
  42 C :    0.052958
  43 N :   -0.092109
  44 C :   -0.204150
  45 S :    0.145888
  46 C :   -0.122173
  47 C :   -0.056782
  48 C :    0.144321
  49 C :    0.021390
  50 C :   -0.208379
  51 C :    0.120463
  52 S :    0.100533
  53 C :   -0.134160
  54 S :    0.143008
  55 C :   -0.116311
  56 C :    0.122044
  57 C :    0.152729
  58 C :   -0.124265
  59 C :    0.088200
  60 C :   -0.040872
  61 C :   -0.009677
  62 C :   -0.077277
  63 C :    0.099409
  64 C :   -0.100427
  65 C :   -0.000319
  66 C :   -0.027690
  67 H :    0.008573
  68 H :    0.013240
  69 H :    0.037533
  70 H :    0.012456
  71 H :    0.019208
  72 H :    0.029146
  73 H :    0.040246
  74 H :    0.020171
  75 H :    0.025419
  76 H :    0.017413
  77 H :    0.021165
  78 H :   -0.000344
  79 H :   -0.029186
  80 H :   -0.017861
  81 H :   -0.014831
  82 H :    0.046851
  83 H :    0.017410
  84 H :    0.029187
  85 H :    0.008658
  86 H :    0.030112
  87 H :   -0.035689
  88 H :   -0.006459
  89 H :   -0.000591
  90 H :    0.010055
  91 H :    0.011163
  92 H :    0.015065
  93 H :    0.013393
  94 H :   -0.038034
  95 H :    0.034288
  96 H :    0.017758
  97 H :    0.035212
  98 H :   -0.037800
  99 H :   -0.008193
 100 H :    0.023401
 101 H :    0.017818
 102 H :    0.029489
 103 H :    0.030334
 104 H :    0.006157
 105 H :   -0.045987
 106 H :   -0.009172
 107 H :    0.017939
 108 H :    0.021525
Sum of atomic charges:   -0.0000000

LOEWDIN ATOMIC CHARGES
----------------------
   0 C :    0.079966
   1 N :   -0.002487
   2 C :    0.037439
   3 C :   -0.060954
   4 C :    0.074171
   5 O :   -0.224434
   6 C :   -0.132171
   7 C :   -0.129819
   8 C :    0.084621
   9 O :   -0.195680
  10 N :   -0.014808
  11 C :    0.033765
  12 C :   -0.063689
  13 C :    0.083333
  14 C :   -0.060651
  15 C :   -0.018729
  16 C :   -0.185288
  17 S :    0.471556
  18 C :   -0.153825
  19 C :   -0.042840
  20 C :   -0.032698
  21 C :   -0.007572
  22 C :   -0.014883
  23 C :   -0.035603
  24 C :   -0.019930
  25 C :   -0.016797
  26 C :   -0.045371
  27 C :   -0.021736
  28 C :   -0.040280
  29 C :   -0.019032
  30 C :   -0.042332
  31 C :   -0.000995
  32 C :   -0.012833
  33 N :   -0.020952
  34 C :   -0.001615
  35 C :    0.009700
  36 N :   -0.028160
  37 C :   -0.033694
  38 C :   -0.017010
  39 C :   -0.000356
  40 N :   -0.031681
  41 C :    0.008386
  42 C :    0.014042
  43 N :   -0.046940
  44 C :   -0.172478
  45 S :    0.461813
  46 C :   -0.198749
  47 C :   -0.198422
  48 C :   -0.043571
  49 C :   -0.064018
  50 C :   -0.150418
  51 C :   -0.059340
  52 S :    0.393626
  53 C :   -0.191960
  54 S :    0.471073
  55 C :   -0.182113
  56 C :   -0.040728
  57 C :   -0.045153
  58 C :   -0.010097
  59 C :   -0.028126
  60 C :   -0.022368
  61 C :   -0.037365
  62 C :   -0.016920
  63 C :   -0.045193
  64 C :   -0.029387
  65 C :   -0.038661
  66 C :   -0.055089
  67 H :    0.029318
  68 H :    0.022658
  69 H :    0.034548
  70 H :    0.021667
  71 H :    0.028177
  72 H :    0.031300
  73 H :    0.036035
  74 H :    0.018638
  75 H :    0.031580
  76 H :    0.028275
  77 H :    0.022206
  78 H :    0.042271
  79 H :    0.025537
  80 H :    0.031747
  81 H :    0.024544
  82 H :    0.027921
  83 H :    0.024602
  84 H :    0.034290
  85 H :    0.029759
  86 H :    0.035322
  87 H :    0.027992
  88 H :    0.023157
  89 H :    0.028104
  90 H :    0.024890
  91 H :    0.026234
  92 H :    0.027618
  93 H :    0.028373
  94 H :    0.023573
  95 H :    0.038111
  96 H :    0.036908
  97 H :    0.038426
  98 H :    0.010175
  99 H :    0.027165
 100 H :    0.022655
 101 H :    0.023513
 102 H :    0.034859
 103 H :    0.034209
 104 H :    0.029052
 105 H :    0.022707
 106 H :    0.033432
 107 H :    0.015659
 108 H :    0.025304

  Mayer bond orders larger than 0.100000
B(  0-C ,  1-N ) :   1.1855 B(  0-C ,  7-C ) :   1.4539 B(  0-C , 67-H ) :   0.9903
B(  1-N ,  2-C ) :   0.9479 B(  1-N ,  4-C ) :   1.0435 B(  2-C ,  3-C ) :   1.1192
B(  2-C , 68-H ) :   0.9535 B(  2-C , 69-H ) :   0.9343 B(  3-C , 70-H ) :   0.9689
B(  3-C , 71-H ) :   0.9685 B(  3-C , 72-H ) :   0.9672 B(  4-C ,  5-O ) :   2.0351
B(  4-C ,  6-C ) :   1.0278 B(  6-C ,  7-C ) :   1.1964 B(  6-C , 13-C ) :   1.3395
B(  7-C ,  8-C ) :   0.9487 B(  8-C ,  9-O ) :   2.1632 B(  8-C , 10-N ) :   1.0239
B( 10-N , 11-C ) :   0.9490 B( 10-N , 13-C ) :   1.1456 B( 11-C , 12-C ) :   1.1155
B( 11-C , 73-H ) :   0.9241 B( 11-C , 74-H ) :   0.9510 B( 12-C , 75-H ) :   0.9621
B( 12-C , 76-H ) :   0.9680 B( 12-C , 77-H ) :   0.9684 B( 13-C , 14-C ) :   1.2382
B( 14-C , 15-C ) :   1.5100 B( 14-C , 78-H ) :   0.9411 B( 15-C , 16-C ) :   1.2181
B( 15-C , 79-H ) :   0.9472 B( 16-C , 17-S ) :   1.1260 B( 16-C , 20-C ) :   1.2634
B( 17-S , 18-C ) :   1.1683 B( 18-C , 19-C ) :   1.2773 B( 18-C , 28-C ) :   1.1665
B( 19-C , 20-C ) :   1.2328 B( 19-C , 27-C ) :   1.2090 B( 20-C , 21-C ) :   1.2074
B( 21-C , 22-C ) :   1.4950 B( 21-C , 80-H ) :   0.9912 B( 22-C , 23-C ) :   1.0347
B( 22-C , 25-C ) :   1.2193 B( 23-C , 24-C ) :   1.9606 B( 23-C , 81-H ) :   0.9518
B( 24-C , 82-H ) :   0.9490 B( 24-C , 83-H ) :   0.9515 B( 25-C , 26-C ) :   1.0865
B( 25-C , 27-C ) :   1.5278 B( 26-C , 84-H ) :   0.9399 B( 26-C , 85-H ) :   0.9541
B( 26-C , 86-H ) :   0.9447 B( 27-C , 87-H ) :   0.9901 B( 28-C , 29-C ) :   1.5549
B( 28-C , 88-H ) :   0.9285 B( 29-C , 30-C ) :   1.2439 B( 29-C , 89-H ) :   0.9478
B( 30-C , 31-C ) :   1.1992 B( 30-C , 37-C ) :   0.1180 B( 30-C , 39-C ) :   1.2003
B( 31-C , 32-C ) :   1.1444 B( 31-C , 36-N ) :   1.4627 B( 32-C , 33-N ) :   1.5035
B( 32-C , 37-C ) :   1.2014 B( 33-N , 34-C ) :   1.6253 B( 34-C , 35-C ) :   1.2193
B( 34-C , 90-H ) :   0.9734 B( 35-C , 36-N ) :   1.6457 B( 35-C , 91-H ) :   0.9748
B( 37-C , 38-C ) :   1.2099 B( 37-C , 44-C ) :   1.2374 B( 38-C , 39-C ) :   1.1698
B( 38-C , 43-N ) :   1.3994 B( 39-C , 40-N ) :   1.4733 B( 40-N , 41-C ) :   1.6599
B( 41-C , 42-C ) :   1.2259 B( 41-C , 92-H ) :   0.9772 B( 42-C , 43-N ) :   1.6083
B( 42-C , 93-H ) :   0.9729 B( 44-C , 45-S ) :   1.0886 B( 44-C , 48-C ) :   1.3423
B( 45-S , 46-C ) :   1.0690 B( 46-C , 47-C ) :   1.4900 B( 46-C , 53-C ) :   1.1990
B( 47-C , 48-C ) :   1.2569 B( 47-C , 52-S ) :   1.0287 B( 48-C , 49-C ) :   1.1707
B( 49-C , 50-C ) :   1.6431 B( 49-C , 94-H ) :   0.9871 B( 50-C , 51-C ) :   1.0710
B( 50-C , 52-S ) :   1.0739 B( 51-C , 95-H ) :   0.9481 B( 51-C , 96-H ) :   0.9567
B( 51-C , 97-H ) :   0.9486 B( 53-C , 54-S ) :   1.1537 B( 53-C , 55-C ) :   0.1119
B( 53-C , 57-C ) :   1.3353 B( 54-S , 55-C ) :   1.1285 B( 55-C , 56-C ) :   1.3475
B( 55-C , 65-C ) :   1.1469 B( 56-C , 57-C ) :   1.2010 B( 56-C , 64-C ) :   1.1783
B( 57-C , 58-C ) :   1.1936 B( 58-C , 59-C ) :   1.5192 B( 58-C , 98-H ) :   0.9805
B( 59-C , 60-C ) :   1.0363 B( 59-C , 62-C ) :   1.1944 B( 60-C , 61-C ) :   1.9736
B( 60-C , 99-H ) :   0.9516 B( 61-C ,100-H ) :   0.9559 B( 61-C ,101-H ) :   0.9493
B( 62-C , 63-C ) :   1.0868 B( 62-C , 64-C ) :   1.5681 B( 63-C ,102-H ) :   0.9441
B( 63-C ,103-H ) :   0.9401 B( 63-C ,104-H ) :   0.9542 B( 64-C ,105-H ) :   0.9890
B( 65-C , 66-C ) :   1.9009 B( 65-C ,106-H ) :   0.9594 B( 66-C ,107-H ) :   0.9561
B( 66-C ,108-H ) :   0.9483

-----------------------------------------------------------------------------
         ABSORPTION SPECTRUM VIA TRANSITION ELECTRIC DIPOLE MOMENTS
-----------------------------------------------------------------------------
State   Energy  Wavelength   fosc         T2         TX        TY        TZ
        (cm-1)    (nm)                  (au**2)     (au)      (au)      (au)
-----------------------------------------------------------------------------
   0    7671.4   1303.5   1.037587560  44.52718  -1.55802  -2.59029  -5.94896
   1   14000.3    714.3   0.030715488   0.72227  -0.07366   0.66083   0.52929
   2   15653.1    638.9   0.572098193  12.03225   1.08619   1.46685   2.94971
   3   19301.5    518.1   0.149938231   2.55740   0.87911  -0.01060   1.33583
   4   19668.9    508.4   0.116991643   1.95817   0.55944  -0.46180   1.19664
   5   21233.0    471.0   0.066607529   1.03273  -0.82110   0.17869  -0.57149
   6   22453.2    445.4   0.026895118   0.39434   0.53356  -0.31276  -0.10878
   7   22804.1    438.5   0.027419909   0.39585  -0.30235   0.52546  -0.16829
   8   24221.0    412.9   0.016197839   0.22016   0.46237  -0.03569   0.07145
   9   24437.2    409.2   0.005565314   0.07497  -0.06402   0.26260  -0.04376
  10   25196.2    396.9   0.003440007   0.04495   0.03939  -0.20754  -0.01798
  11   25292.5    395.4   0.020273250   0.26388   0.36597  -0.30158   0.19748
  12   25629.8    390.2   0.010415509   0.13379  -0.32839  -0.15861  -0.02807
  13   25955.9    385.3   0.030145829   0.38235  -0.43136  -0.12873   0.42392
  14   26906.5    371.7   0.035459336   0.43386   0.45326   0.45169   0.15615
  15   27398.2    365.0   0.089152965   1.07124   0.60716  -0.63666  -0.54521
  16   27891.5    358.5   0.143624748   1.69525   0.75598  -0.48573  -0.94223
  17   28209.1    354.5   0.068770026   0.80257  -0.75762  -0.09450  -0.46868
  18   28277.6    353.6   0.020214718   0.23534  -0.47180   0.01944   0.11123
  19   28397.6    352.1   0.184528204   2.13922  -0.48724   0.77465   1.14094
  20   30095.5    332.3   0.000913858   0.01000  -0.05067   0.03241  -0.07987
  21   30417.0    328.8   0.023308325   0.25227   0.26646  -0.13392  -0.40415
  22   30782.3    324.9   0.211237019   2.25915   0.84019  -0.46625  -1.15578
  23   31717.8    315.3   0.018455989   0.19156  -0.43588   0.03544  -0.01777
  24   31888.3    313.6   0.037082510   0.38284  -0.39975  -0.41722  -0.22128
  25   32087.3    311.7   0.094993085   0.97462  -0.93003   0.33057  -0.01959
  26   32485.4    307.8   0.038028549   0.38539   0.58900  -0.10293   0.16696
  27   32677.3    306.0   0.026563084   0.26761   0.45392   0.00129   0.24812
  28   32835.3    304.6   0.022591364   0.22650  -0.22847   0.41474  -0.04789
  29   33339.7    299.9   0.066212566   0.65381  -0.24103   0.50851   0.58063
  30   33581.8    297.8   0.424733834   4.16378   1.87502  -0.68182   0.42801
  31   33684.4    296.9   0.059691457   0.58339  -0.35853  -0.04079  -0.67319
  32   34363.4    291.0   0.031130945   0.29824  -0.18830   0.36625   0.35868
  33   34469.8    290.1   0.000213068   0.00203   0.00128  -0.04290  -0.01387
  34   34706.5    288.1   0.012379168   0.11742  -0.00020  -0.20866  -0.27182
  35   35404.2    282.5   0.141141771   1.31243  -1.13929  -0.10084  -0.06537
  36   35609.3    280.8   0.019408281   0.17943  -0.42105   0.04333   0.01643
  37   36137.8    276.7   0.040008629   0.36447   0.04651  -0.50351  -0.32984
  38   36482.9    274.1   0.021863246   0.19729   0.02573   0.41489   0.15649
  39   36570.9    273.4   0.391224092   3.52180  -1.54779   0.79264   0.70561
  40   36616.0    273.1   0.018507426   0.16640   0.19879  -0.27751  -0.22332
  41   36872.3    271.2   0.110372079   0.98545   0.97669  -0.14812  -0.09795
  42   37258.3    268.4   0.099549206   0.87961   0.62375  -0.48558  -0.50474
  43   37440.7    267.1   0.041581374   0.36562   0.38348  -0.04702  -0.46514
  44   38028.6    263.0   0.065979311   0.57118  -0.07324  -0.14836   0.73743
  45   38107.2    262.4   0.006998747   0.06046  -0.20526  -0.11052   0.07822
  46   38442.7    260.1   0.030197400   0.25860   0.14603  -0.17372  -0.45508
  47   38665.7    258.6   0.016928949   0.14414   0.35938   0.11416  -0.04417
  48   39006.9    256.4   0.024141553   0.20375   0.03349   0.00347  -0.45013
  49   39419.5    253.7   0.012820879   0.10707   0.31370  -0.08319   0.04176
  50   39509.8    253.1   0.009859871   0.08216   0.13548  -0.25257   0.00329
  51   39555.6    252.8   0.013028417   0.10843  -0.28897  -0.01690  -0.15698
  52   39622.7    252.4   0.007273550   0.06043   0.14758  -0.07769  -0.18061
  53   39807.6    251.2   0.011662721   0.09645  -0.29541  -0.05137  -0.08091
  54   40000.7    250.0   0.022523885   0.18537  -0.21626   0.11545  -0.35395
  55   40159.8    249.0   0.040198645   0.32953   0.43781  -0.23862  -0.28446

FINAL SINGLE POINT ENERGY     -4189.004624350847

DIPOLE MOMENT
-------------
                                X             Y             Z
Electronic contribution:      3.68247      16.23911      31.51656
Nuclear contribution   :     -2.88554     -14.97349     -29.59585
                        -----------------------------------------
Total Dipole Moment    :      0.79693       1.26562       1.92071
                        -----------------------------------------
Magnitude (a.u.)       :      2.43434
Magnitude (Debye)      :      6.18760

Rotational constants in cm-1:     0.002717     0.000270     0.000254
Rotational constants in MHz :    81.445354     8.083170     7.615159

                             ****ORCA TERMINATED NORMALLY****
TOTAL RUN TIME: 0 days 0 hours 10 minutes 32 seconds 964 msec
