                         Program Version 4.2.0 -  RELEASE  -
|  1> # ORCA input file
|  2> # SCF done       -183.103100256637          0.000949626966
|  3> ! CAM-B3LYP def2-SVP def2/J RIJCOSX Grid4 TightSCF
|  4> %maxcore 5000
|  5> %tddft
|  6>     Mode sTDDFT
|  7>     Ethresh 5.0
|  8>     maxcore 5000
|  9> end
| 10>
| 11> %pal
| 12>   nprocs 6
| 13>   end
| 14> * xyz 0 1
| 15>    C       -0.72677         0.71399         2.45695
| 16>    S       -1.25149        -0.62711         3.36928
| 17>    C       -0.65145        -1.77810         2.21148
| 18>    C       -0.04293        -1.09767         1.14861
| 19>    C       -0.09999         0.32474         1.29298
| 20>    N        0.41891         1.15033         0.34802
| 21>    C        0.97454         0.56916        -0.67889
| 22>    O        1.49573         1.29415        -1.66214
| 23>    C        1.40248         2.71114        -1.52873
| 24>    C        1.98908         3.34111        -2.77814
| 25>    C        1.07846        -0.87165        -0.80992
| 26>    C        1.82541        -1.46317        -1.97511
| 27>    N        2.11249        -2.87302        -1.90272
| 28>    N        0.57715        -1.66471         0.08986
| 29>    C       -0.82861        -3.16288         2.39126
| 30>    C       -0.46776        -4.07374         1.44163
| 31>    C       -0.63765        -5.46042         1.55536
| 32>    C       -0.36686        -6.43525         0.61152
| 33>    C       -0.71346        -7.69165         1.17901
| 34>    C       -1.19880        -7.43920         2.51923
| 35>    O       -1.58564        -8.17333         3.38643
| 36>    O       -1.12976        -6.05840         2.68414
| 37>    C       -0.47227        -8.66172         0.22990
| 38>    O        0.02527        -8.06853        -0.90470
| 39>    C        0.10772        -6.67091        -0.72770
| 40>    O        0.51580        -5.95252        -1.59424
| 41>    C       -0.65586       -10.05084         0.28992
| 42>    S       -1.18953       -10.78695         1.76717
| 43>    C       -1.11605       -12.36835         1.03971
| 44>    C       -0.70051       -12.29919        -0.29262
| 45>    C       -0.45231       -10.99663        -0.71528
| 46>    C       -0.03507       -10.62685        -2.10670
| 47>    C       -0.91147        -9.51384        -2.63452
| 48>    O       -2.06244        -9.33698        -2.35734
| 49>    C       -0.25461        -8.66872        -3.76612
| 50>    F        1.05577        -8.47901        -3.59567
| 51>    F       -0.38705        -9.32963        -4.93888
| 52>    F       -0.83698        -7.48733        -3.91696
| 53>    C       -0.19479       -11.83053        -3.05830
| 54>    C        0.34846       -13.09124        -2.39500
| 55>    C       -0.51727       -13.47637        -1.19738
| 56>    C       -1.45598       -13.53493         1.76331
| 57>    C       -1.84915       -13.52627         3.06418
| 58>    C       -2.17390       -14.68200         3.82021
| 59>    C       -1.91027       -15.99170         3.50710
| 60>    C       -2.26922       -16.81717         4.62814
| 61>    C       -2.18589       -18.21550         4.64463
| 62>    N       -2.11585       -19.36152         4.64851
| 63>    C       -2.70848       -16.01802         5.65624
| 64>    C       -2.70753       -14.66230         5.19902
| 65>    C       -3.25658       -13.59732         5.87158
| 66>    C       -3.55166       -13.55525         7.32649
| 67>    C       -4.41364       -12.52176         7.54130
| 68>    C       -4.64818       -11.85880         6.27894
| 69>    C       -3.90151       -12.46103         5.29498
| 70>    C       -5.52992       -10.78179         6.12007
| 71>    N       -6.27682        -9.91675         6.01203
| 72>    C       -2.92322       -14.34125         8.33460
| 73>    S       -1.29638       -15.01805         8.16286
| 74>    C       -3.35200       -14.57896         9.61521
| 75>    N       -4.44871       -14.28857        10.39843
| 76>    C       -4.26860       -15.02162        11.64660
| 77>    O       -2.95864       -15.56730        11.64280
| 78>    C       -2.43697       -15.31948        10.40881
| 79>    C       -1.27947       -15.63103         9.78519
| 80>    H       -0.90316         1.71261         2.80188
| 81>    H        1.94831         3.01874        -0.62953
| 82>    H        0.35061         2.98680        -1.39480
| 83>    H        3.02681         3.04193        -2.89651
| 84>    H        1.93704         4.42294        -2.70066
| 85>    H        1.43404         3.01979        -3.65519
| 86>    H        2.77351        -0.91704        -2.06517
| 87>    H        1.25978        -1.25930        -2.89070
| 88>    H        2.51829        -3.10809        -1.00380
| 89>    H        1.28075        -3.44185        -2.01651
| 90>    H       -1.28853        -3.49836         3.31091
| 91>    H       -0.03106        -3.73084         0.51538
| 92>    H        1.00929       -10.29693        -2.10247
| 93>    H        0.33320       -11.63229        -3.99108
| 94>    H       -1.25359       -11.97051        -3.28721
| 95>    H        1.37454       -12.91661        -2.06586
| 96>    H        0.35826       -13.90766        -3.11787
| 97>    H       -0.05481       -14.30137        -0.65257
| 98>    H       -1.49732       -13.81687        -1.54582
| 99>    H       -1.40831       -14.46855         1.22186
|100>    H       -1.89741       -12.57257         3.57155
|101>    H       -1.47969       -16.37130         2.59998
|102>    H       -3.11159       -16.36340         6.58776
|103>    H       -4.80957       -12.19232         8.48288
|104>    H       -3.92751       -12.20938         4.25308
|105>    H       -5.37056       -14.25812         9.99310
|106>    H       -4.99958       -15.83994        11.76311
|107>    H       -4.36084       -14.33952        12.50385
|108>    H       -0.43045       -16.17408        10.14262
|109> *
|110>
|111>                          ****END OF INPUT****

CARTESIAN COORDINATES (ANGSTROEM)
---------------------------------
  C     -0.726770    0.713990    2.456950
  S     -1.251490   -0.627110    3.369280
  C     -0.651450   -1.778100    2.211480
  C     -0.042930   -1.097670    1.148610
  C     -0.099990    0.324740    1.292980
  N      0.418910    1.150330    0.348020
  C      0.974540    0.569160   -0.678890
  O      1.495730    1.294150   -1.662140
  C      1.402480    2.711140   -1.528730
  C      1.989080    3.341110   -2.778140
  C      1.078460   -0.871650   -0.809920
  C      1.825410   -1.463170   -1.975110
  N      2.112490   -2.873020   -1.902720
  N      0.577150   -1.664710    0.089860
  C     -0.828610   -3.162880    2.391260
  C     -0.467760   -4.073740    1.441630
  C     -0.637650   -5.460420    1.555360
  C     -0.366860   -6.435250    0.611520
  C     -0.713460   -7.691650    1.179010
  C     -1.198800   -7.439200    2.519230
  O     -1.585640   -8.173330    3.386430
  O     -1.129760   -6.058400    2.684140
  C     -0.472270   -8.661720    0.229900
  O      0.025270   -8.068530   -0.904700
  C      0.107720   -6.670910   -0.727700
  O      0.515800   -5.952520   -1.594240
  C     -0.655860  -10.050840    0.289920
  S     -1.189530  -10.786950    1.767170
  C     -1.116050  -12.368350    1.039710
  C     -0.700510  -12.299190   -0.292620
  C     -0.452310  -10.996630   -0.715280
  C     -0.035070  -10.626850   -2.106700
  C     -0.911470   -9.513840   -2.634520
  O     -2.062440   -9.336980   -2.357340
  C     -0.254610   -8.668720   -3.766120
  F      1.055770   -8.479010   -3.595670
  F     -0.387050   -9.329630   -4.938880
  F     -0.836980   -7.487330   -3.916960
  C     -0.194790  -11.830530   -3.058300
  C      0.348460  -13.091240   -2.395000
  C     -0.517270  -13.476370   -1.197380
  C     -1.455980  -13.534930    1.763310
  C     -1.849150  -13.526270    3.064180
  C     -2.173900  -14.682000    3.820210
  C     -1.910270  -15.991700    3.507100
  C     -2.269220  -16.817170    4.628140
  C     -2.185890  -18.215500    4.644630
  N     -2.115850  -19.361520    4.648510
  C     -2.708480  -16.018020    5.656240
  C     -2.707530  -14.662300    5.199020
  C     -3.256580  -13.597320    5.871580
  C     -3.551660  -13.555250    7.326490
  C     -4.413640  -12.521760    7.541300
  C     -4.648180  -11.858800    6.278940
  C     -3.901510  -12.461030    5.294980
  C     -5.529920  -10.781790    6.120070
  N     -6.276820   -9.916750    6.012030
  C     -2.923220  -14.341250    8.334600
  S     -1.296380  -15.018050    8.162860
  C     -3.352000  -14.578960    9.615210
  N     -4.448710  -14.288570   10.398430
  C     -4.268600  -15.021620   11.646600
  O     -2.958640  -15.567300   11.642800
  C     -2.436970  -15.319480   10.408810
  C     -1.279470  -15.631030    9.785190
  H     -0.903160    1.712610    2.801880
  H      1.948310    3.018740   -0.629530
  H      0.350610    2.986800   -1.394800
  H      3.026810    3.041930   -2.896510
  H      1.937040    4.422940   -2.700660
  H      1.434040    3.019790   -3.655190
  H      2.773510   -0.917040   -2.065170
  H      1.259780   -1.259300   -2.890700
  H      2.518290   -3.108090   -1.003800
  H      1.280750   -3.441850   -2.016510
  H     -1.288530   -3.498360    3.310910
  H     -0.031060   -3.730840    0.515380
  H      1.009290  -10.296930   -2.102470
  H      0.333200  -11.632290   -3.991080
  H     -1.253590  -11.970510   -3.287210
  H      1.374540  -12.916610   -2.065860
  H      0.358260  -13.907660   -3.117870
  H     -0.054810  -14.301370   -0.652570
  H     -1.497320  -13.816870   -1.545820
  H     -1.408310  -14.468550    1.221860
  H     -1.897410  -12.572570    3.571550
  H     -1.479690  -16.371300    2.599980
  H     -3.111590  -16.363400    6.587760
  H     -4.809570  -12.192320    8.482880
  H     -3.927510  -12.209380    4.253080
  H     -5.370560  -14.258120    9.993100
  H     -4.999580  -15.839940   11.763110
  H     -4.360840  -14.339520   12.503850
  H     -0.430450  -16.174080   10.142620

 Total Charge           Charge          ....    0
 Multiplicity           Mult            ....    1
 Number of Electrons    NEL             ....  478
 Basis Dimension        Dim             .... 1067

ORBITAL ENERGIES
----------------

  NO   OCC          E(Eh)            E(eV)
   0   2.0000     -88.976668     -2421.1782
   1   2.0000     -88.963810     -2420.8283
   2   2.0000     -88.954482     -2420.5745
   3   2.0000     -24.796853      -674.7567
   4   2.0000     -24.793811      -674.6739
   5   2.0000     -24.792100      -674.6273
   6   2.0000     -19.290281      -524.9152
   7   2.0000     -19.280790      -524.6570
   8   2.0000     -19.264211      -524.2058
   9   2.0000     -19.263830      -524.1955
  10   2.0000     -19.228158      -523.2248
  11   2.0000     -19.213410      -522.8235
  12   2.0000     -19.208169      -522.6808
  13   2.0000     -14.446860      -393.1191
  14   2.0000     -14.425807      -392.5462
  15   2.0000     -14.417023      -392.3071
  16   2.0000     -14.408925      -392.0868
  17   2.0000     -14.406795      -392.0288
  18   2.0000     -14.366371      -390.9288
  19   2.0000     -10.505224      -285.8617
  20   2.0000     -10.412259      -283.3320
  21   2.0000     -10.408483      -283.2292
  22   2.0000     -10.380224      -282.4603
  23   2.0000     -10.378468      -282.4125
  24   2.0000     -10.375277      -282.3256
  25   2.0000     -10.371851      -282.2324
  26   2.0000     -10.363463      -282.0042
  27   2.0000     -10.336281      -281.2645
  28   2.0000     -10.326980      -281.0114
  29   2.0000     -10.325530      -280.9720
  30   2.0000     -10.324955      -280.9563
  31   2.0000     -10.322232      -280.8822
  32   2.0000     -10.321901      -280.8732
  33   2.0000     -10.321413      -280.8599
  34   2.0000     -10.315594      -280.7016
  35   2.0000     -10.315123      -280.6888
  36   2.0000     -10.313851      -280.6542
  37   2.0000     -10.313509      -280.6448
  38   2.0000     -10.312112      -280.6068
  39   2.0000     -10.310354      -280.5590
  40   2.0000     -10.306698      -280.4595
  41   2.0000     -10.306234      -280.4469
  42   2.0000     -10.305941      -280.4389
  43   2.0000     -10.304560      -280.4013
  44   2.0000     -10.304009      -280.3863
  45   2.0000     -10.302678      -280.3501
  46   2.0000     -10.297033      -280.1965
  47   2.0000     -10.296995      -280.1955
  48   2.0000     -10.296202      -280.1739
  49   2.0000     -10.294900      -280.1385
  50   2.0000     -10.294583      -280.1298
  51   2.0000     -10.293560      -280.1020
  52   2.0000     -10.292752      -280.0800
  53   2.0000     -10.292669      -280.0778
  54   2.0000     -10.291837      -280.0551
  55   2.0000     -10.289017      -279.9784
  56   2.0000     -10.288681      -279.9692
  57   2.0000     -10.287236      -279.9299
  58   2.0000     -10.282468      -279.8002
  59   2.0000     -10.281933      -279.7856
  60   2.0000     -10.281846      -279.7833
  61   2.0000     -10.279719      -279.7254
  62   2.0000     -10.278934      -279.7040
  63   2.0000     -10.277031      -279.6522
  64   2.0000     -10.264659      -279.3156
  65   2.0000      -8.071965      -219.6493
  66   2.0000      -8.058639      -219.2867
  67   2.0000      -8.049182      -219.0294
  68   2.0000      -6.040874      -164.3805
  69   2.0000      -6.036728      -164.2677
  70   2.0000      -6.034933      -164.2189
  71   2.0000      -6.027897      -164.0274
  72   2.0000      -6.023882      -163.9182
  73   2.0000      -6.020622      -163.8295
  74   2.0000      -6.019132      -163.7889
  75   2.0000      -6.014714      -163.6687
  76   2.0000      -6.010318      -163.5491
  77   2.0000      -1.384157       -37.6648
  78   2.0000      -1.289628       -35.0926
  79   2.0000      -1.283836       -34.9350
  80   2.0000      -1.215232       -33.0681
  81   2.0000      -1.206632       -32.8341
  82   2.0000      -1.188920       -32.3522
  83   2.0000      -1.182146       -32.1678
  84   2.0000      -1.148944       -31.2644
  85   2.0000      -1.122359       -30.5410
  86   2.0000      -1.116544       -30.3827
  87   2.0000      -1.075849       -29.2753
  88   2.0000      -1.032143       -28.0861
  89   2.0000      -1.012590       -27.5540
  90   2.0000      -1.005667       -27.3656
  91   2.0000      -1.002788       -27.2873
  92   2.0000      -0.998420       -27.1684
  93   2.0000      -0.986891       -26.8547
  94   2.0000      -0.984684       -26.7946
  95   2.0000      -0.977936       -26.6110
  96   2.0000      -0.969432       -26.3796
  97   2.0000      -0.947374       -25.7794
  98   2.0000      -0.938109       -25.5272
  99   2.0000      -0.929747       -25.2997
 100   2.0000      -0.915779       -24.9196
 101   2.0000      -0.908610       -24.7245
 102   2.0000      -0.886436       -24.1212
 103   2.0000      -0.879100       -23.9215
 104   2.0000      -0.877182       -23.8693
 105   2.0000      -0.864761       -23.5313
 106   2.0000      -0.859361       -23.3844
 107   2.0000      -0.845612       -23.0103
 108   2.0000      -0.840275       -22.8651
 109   2.0000      -0.838563       -22.8185
 110   2.0000      -0.835004       -22.7216
 111   2.0000      -0.823078       -22.3971
 112   2.0000      -0.808015       -21.9872
 113   2.0000      -0.799967       -21.7682
 114   2.0000      -0.795315       -21.6416
 115   2.0000      -0.791629       -21.5413
 116   2.0000      -0.779716       -21.2171
 117   2.0000      -0.769702       -20.9446
 118   2.0000      -0.753918       -20.5151
 119   2.0000      -0.751159       -20.4401
 120   2.0000      -0.744282       -20.2529
 121   2.0000      -0.739030       -20.1100
 122   2.0000      -0.730140       -19.8681
 123   2.0000      -0.721940       -19.6450
 124   2.0000      -0.712574       -19.3901
 125   2.0000      -0.711619       -19.3641
 126   2.0000      -0.707413       -19.2497
 127   2.0000      -0.703038       -19.1306
 128   2.0000      -0.691708       -18.8223
 129   2.0000      -0.690827       -18.7984
 130   2.0000      -0.689887       -18.7728
 131   2.0000      -0.684870       -18.6363
 132   2.0000      -0.668866       -18.2008
 133   2.0000      -0.665930       -18.1209
 134   2.0000      -0.663802       -18.0630
 135   2.0000      -0.657347       -17.8873
 136   2.0000      -0.653212       -17.7748
 137   2.0000      -0.644615       -17.5409
 138   2.0000      -0.635470       -17.2920
 139   2.0000      -0.633566       -17.2402
 140   2.0000      -0.625903       -17.0317
 141   2.0000      -0.623813       -16.9748
 142   2.0000      -0.621541       -16.9130
 143   2.0000      -0.603489       -16.4218
 144   2.0000      -0.598648       -16.2900
 145   2.0000      -0.597434       -16.2570
 146   2.0000      -0.594788       -16.1850
 147   2.0000      -0.592210       -16.1148
 148   2.0000      -0.589211       -16.0332
 149   2.0000      -0.586936       -15.9713
 150   2.0000      -0.584998       -15.9186
 151   2.0000      -0.582206       -15.8426
 152   2.0000      -0.565617       -15.3912
 153   2.0000      -0.557166       -15.1613
 154   2.0000      -0.556301       -15.1377
 155   2.0000      -0.554168       -15.0797
 156   2.0000      -0.552633       -15.0379
 157   2.0000      -0.551276       -15.0010
 158   2.0000      -0.549154       -14.9432
 159   2.0000      -0.545669       -14.8484
 160   2.0000      -0.541258       -14.7284
 161   2.0000      -0.538447       -14.6519
 162   2.0000      -0.535933       -14.5835
 163   2.0000      -0.531661       -14.4672
 164   2.0000      -0.529246       -14.4015
 165   2.0000      -0.528566       -14.3830
 166   2.0000      -0.527134       -14.3441
 167   2.0000      -0.523726       -14.2513
 168   2.0000      -0.520707       -14.1692
 169   2.0000      -0.519052       -14.1241
 170   2.0000      -0.518225       -14.1016
 171   2.0000      -0.513816       -13.9816
 172   2.0000      -0.510801       -13.8996
 173   2.0000      -0.507877       -13.8200
 174   2.0000      -0.503977       -13.7139
 175   2.0000      -0.502350       -13.6696
 176   2.0000      -0.500130       -13.6092
 177   2.0000      -0.498994       -13.5783
 178   2.0000      -0.498350       -13.5608
 179   2.0000      -0.497108       -13.5270
 180   2.0000      -0.493772       -13.4362
 181   2.0000      -0.492177       -13.3928
 182   2.0000      -0.490372       -13.3437
 183   2.0000      -0.487729       -13.2718
 184   2.0000      -0.487045       -13.2532
 185   2.0000      -0.481948       -13.1145
 186   2.0000      -0.481334       -13.0978
 187   2.0000      -0.478792       -13.0286
 188   2.0000      -0.477985       -13.0066
 189   2.0000      -0.477611       -12.9965
 190   2.0000      -0.476066       -12.9544
 191   2.0000      -0.471497       -12.8301
 192   2.0000      -0.470905       -12.8140
 193   2.0000      -0.466258       -12.6875
 194   2.0000      -0.464993       -12.6531
 195   2.0000      -0.457705       -12.4548
 196   2.0000      -0.457298       -12.4437
 197   2.0000      -0.456775       -12.4295
 198   2.0000      -0.453759       -12.3474
 199   2.0000      -0.451707       -12.2916
 200   2.0000      -0.444402       -12.0928
 201   2.0000      -0.442160       -12.0318
 202   2.0000      -0.441542       -12.0150
 203   2.0000      -0.436812       -11.8863
 204   2.0000      -0.436401       -11.8751
 205   2.0000      -0.434835       -11.8325
 206   2.0000      -0.434510       -11.8236
 207   2.0000      -0.432046       -11.7566
 208   2.0000      -0.427441       -11.6313
 209   2.0000      -0.427128       -11.6228
 210   2.0000      -0.421617       -11.4728
 211   2.0000      -0.418373       -11.3845
 212   2.0000      -0.418059       -11.3760
 213   2.0000      -0.415837       -11.3155
 214   2.0000      -0.411579       -11.1996
 215   2.0000      -0.408937       -11.1278
 216   2.0000      -0.407686       -11.0937
 217   2.0000      -0.405100       -11.0233
 218   2.0000      -0.402125       -10.9424
 219   2.0000      -0.395217       -10.7544
 220   2.0000      -0.389999       -10.6124
 221   2.0000      -0.385687       -10.4951
 222   2.0000      -0.379722       -10.3328
 223   2.0000      -0.370230       -10.0745
 224   2.0000      -0.367653       -10.0043
 225   2.0000      -0.351154        -9.5554
 226   2.0000      -0.344098        -9.3634
 227   2.0000      -0.342318        -9.3150
 228   2.0000      -0.335299        -9.1239
 229   2.0000      -0.330108        -8.9827
 230   2.0000      -0.321951        -8.7607
 231   2.0000      -0.321314        -8.7434
 232   2.0000      -0.308969        -8.4075
 233   2.0000      -0.299064        -8.1380
 234   2.0000      -0.294239        -8.0067
 235   2.0000      -0.279022        -7.5926
 236   2.0000      -0.266509        -7.2521
 237   2.0000      -0.260463        -7.0876
 238   2.0000      -0.232115        -6.3162
 239   0.0000      -0.122990        -3.3467
 240   0.0000      -0.091426        -2.4878
 241   0.0000      -0.054184        -1.4744
 242   0.0000      -0.023745        -0.6461
 243   0.0000      -0.005154        -0.1402

MULLIKEN ATOMIC CHARGES
-----------------------
   0 C :   -0.154125
   1 S :    0.178920
   2 C :   -0.165984
   3 C :    0.042478
   4 C :    0.077878
   5 N :   -0.050888
   6 C :    0.110034
   7 O :   -0.284284
   8 C :    0.167445
   9 C :    0.010415
  10 C :   -0.178847
  11 C :    0.174015
  12 N :   -0.204328
  13 N :   -0.002756
  14 C :    0.051016
  15 C :   -0.061061
  16 C :    0.138659
  17 C :   -0.040300
  18 C :   -0.092302
  19 C :    0.228035
  20 O :   -0.139211
  21 O :   -0.252609
  22 C :    0.145619
  23 O :   -0.314632
  24 C :    0.234288
  25 O :   -0.133526
  26 C :   -0.154596
  27 S :    0.173154
  28 C :   -0.068724
  29 C :   -0.097136
  30 C :    0.039262
  31 C :    0.011666
  32 C :   -0.053254
  33 O :   -0.141169
  34 C :    0.532530
  35 F :   -0.152148
  36 F :   -0.176694
  37 F :   -0.132444
  38 C :    0.045134
  39 C :    0.037961
  40 C :    0.125353
  41 C :   -0.019952
  42 C :   -0.029865
  43 C :    0.090902
  44 C :   -0.026787
  45 C :   -0.105604
  46 C :   -0.135305
  47 N :    0.133591
  48 C :   -0.007675
  49 C :    0.049419
  50 C :    0.030734
  51 C :    0.075502
  52 C :   -0.061094
  53 C :   -0.088165
  54 C :   -0.027507
  55 C :   -0.132576
  56 N :    0.142592
  57 C :   -0.252960
  58 S :    0.116249
  59 C :    0.128804
  60 N :   -0.199033
  61 C :    0.338945
  62 O :   -0.301122
  63 C :    0.249805
  64 C :   -0.207637
  65 H :    0.017918
  66 H :    0.019455
  67 H :    0.021568
  68 H :    0.027644
  69 H :    0.022390
  70 H :    0.027473
  71 H :    0.024587
  72 H :    0.029651
  73 H :    0.091605
  74 H :    0.114024
  75 H :    0.002738
  76 H :    0.007779
  77 H :    0.041525
  78 H :    0.019642
  79 H :    0.019099
  80 H :    0.010577
  81 H :    0.011075
  82 H :    0.016673
  83 H :    0.022450
  84 H :   -0.010745
  85 H :    0.012907
  86 H :   -0.011524
  87 H :    0.013860
  88 H :   -0.018088
  89 H :    0.003474
  90 H :    0.137240
  91 H :    0.027358
  92 H :    0.033871
  93 H :    0.029669
Sum of atomic charges:   -0.0000000

LOEWDIN ATOMIC CHARGES
----------------------
   0 C :   -0.191492
   1 S :    0.497344
   2 C :   -0.195273
   3 C :   -0.045004
   4 C :   -0.050514
   5 N :   -0.097051
   6 C :    0.050693
   7 O :   -0.076330
   8 C :    0.089313
   9 C :   -0.062462
  10 C :   -0.011346
  11 C :    0.007902
  12 N :   -0.095677
  13 N :   -0.044412
  14 C :    0.010183
  15 C :   -0.051844
  16 C :    0.106734
  17 C :   -0.131153
  18 C :   -0.132314
  19 C :    0.099038
  20 O :   -0.143747
  21 O :   -0.051656
  22 C :    0.084333
  23 O :   -0.057156
  24 C :    0.112180
  25 O :   -0.135991
  26 C :   -0.190215
  27 S :    0.489015
  28 C :   -0.155268
  29 C :   -0.050533
  30 C :   -0.023287
  31 C :   -0.057019
  32 C :    0.043009
  33 O :   -0.103279
  34 C :    0.133357
  35 F :   -0.046172
  36 F :   -0.069913
  37 F :   -0.028640
  38 C :   -0.014040
  39 C :   -0.024058
  40 C :   -0.025516
  41 C :   -0.030777
  42 C :   -0.020304
  43 C :   -0.035238
  44 C :    0.009342
  45 C :   -0.063054
  46 C :   -0.030567
  47 N :   -0.049748
  48 C :   -0.003948
  49 C :    0.032151
  50 C :    0.041325
  51 C :   -0.029640
  52 C :   -0.024003
  53 C :   -0.037619
  54 C :   -0.016611
  55 C :   -0.028324
  56 N :   -0.038617
  57 C :   -0.219294
  58 S :    0.427001
  59 C :   -0.017263
  60 N :   -0.053019
  61 C :    0.165787
  62 O :   -0.104250
  63 C :    0.002734
  64 C :   -0.211575
  65 H :    0.029408
  66 H :    0.019336
  67 H :    0.019482
  68 H :    0.030122
  69 H :    0.033605
  70 H :    0.030104
  71 H :    0.032937
  72 H :    0.040391
  73 H :    0.052500
  74 H :    0.056284
  75 H :    0.037681
  76 H :    0.038385
  77 H :    0.044617
  78 H :    0.029162
  79 H :    0.029593
  80 H :    0.025773
  81 H :    0.029559
  82 H :    0.032117
  83 H :    0.036326
  84 H :    0.032218
  85 H :    0.026319
  86 H :    0.029739
  87 H :    0.031755
  88 H :    0.028154
  89 H :    0.035763
  90 H :    0.081476
  91 H :    0.012010
  92 H :    0.018020
  93 H :    0.030934

  Mayer bond orders larger than 0.100000
B(  0-C ,  1-S ) :   1.1988 B(  0-C ,  2-C ) :   0.1088 B(  0-C ,  4-C ) :   1.4005
B(  0-C , 65-H ) :   0.9766 B(  1-S ,  2-C ) :   1.1617 B(  2-C ,  3-C ) :   1.3176
B(  2-C , 14-C ) :   1.1636 B(  3-C ,  4-C ) :   1.2245 B(  3-C , 13-N ) :   1.3348
B(  4-C ,  5-N ) :   1.3327 B(  5-N ,  6-C ) :   1.6387 B(  6-C ,  7-O ) :   1.2711
B(  6-C , 10-C ) :   1.0709 B(  7-O ,  8-C ) :   0.8981 B(  8-C ,  9-C ) :   1.0949
B(  8-C , 66-H ) :   0.9578 B(  8-C , 67-H ) :   0.9563 B(  9-C , 68-H ) :   0.9685
B(  9-C , 69-H ) :   0.9613 B(  9-C , 70-H ) :   0.9692 B( 10-C , 11-C ) :   0.9564
B( 10-C , 13-N ) :   1.7807 B( 11-C , 12-N ) :   1.1705 B( 11-C , 71-H ) :   0.9370
B( 11-C , 72-H ) :   0.9244 B( 12-N , 73-H ) :   0.9811 B( 12-N , 74-H ) :   0.9674
B( 14-C , 15-C ) :   1.5728 B( 14-C , 75-H ) :   0.9736 B( 15-C , 16-C ) :   1.2254
B( 15-C , 76-H ) :   0.9350 B( 16-C , 17-C ) :   1.3370 B( 16-C , 21-O ) :   1.1373
B( 17-C , 18-C ) :   1.1568 B( 17-C , 24-C ) :   0.9919 B( 18-C , 19-C ) :   0.9544
B( 18-C , 22-C ) :   1.4012 B( 19-C , 20-O ) :   2.2305 B( 19-C , 21-O ) :   1.0182
B( 22-C , 23-O ) :   1.0975 B( 22-C , 26-C ) :   1.2154 B( 23-O , 24-C ) :   0.9497
B( 24-C , 25-O ) :   2.2020 B( 26-C , 27-S ) :   1.1312 B( 26-C , 28-C ) :   0.1158
B( 26-C , 30-C ) :   1.4239 B( 27-S , 28-C ) :   1.1076 B( 28-C , 29-C ) :   1.4304
B( 28-C , 41-C ) :   1.1700 B( 29-C , 30-C ) :   1.3892 B( 29-C , 40-C ) :   1.0469
B( 30-C , 31-C ) :   0.9697 B( 31-C , 32-C ) :   0.9012 B( 31-C , 38-C ) :   1.0550
B( 31-C , 77-H ) :   0.8745 B( 32-C , 33-O ) :   2.2389 B( 32-C , 34-C ) :   0.8614
B( 34-C , 35-F ) :   1.1496 B( 34-C , 36-F ) :   1.1271 B( 34-C , 37-F ) :   1.1881
B( 38-C , 39-C ) :   1.0826 B( 38-C , 78-H ) :   0.9314 B( 38-C , 79-H ) :   0.9327
B( 39-C , 40-C ) :   1.0965 B( 39-C , 80-H ) :   0.9407 B( 39-C , 81-H ) :   0.9334
B( 40-C , 82-H ) :   0.9122 B( 40-C , 83-H ) :   0.9075 B( 41-C , 42-C ) :   1.6318
B( 41-C , 84-H ) :   0.9770 B( 42-C , 43-C ) :   1.1057 B( 42-C , 85-H ) :   0.9651
B( 43-C , 44-C ) :   1.5741 B( 43-C , 49-C ) :   1.0435 B( 44-C , 45-C ) :   1.1191
B( 44-C , 86-H ) :   1.0107 B( 45-C , 46-C ) :   1.0553 B( 45-C , 48-C ) :   1.6101
B( 46-C , 47-N ) :   3.0416 B( 48-C , 49-C ) :   1.1010 B( 48-C , 87-H ) :   1.0081
B( 49-C , 50-C ) :   1.4745 B( 50-C , 51-C ) :   1.0365 B( 50-C , 54-C ) :   1.1069
B( 51-C , 52-C ) :   1.6315 B( 51-C , 57-C ) :   1.0942 B( 52-C , 53-C ) :   1.0923
B( 52-C , 88-H ) :   1.0189 B( 53-C , 54-C ) :   1.6132 B( 53-C , 55-C ) :   1.0641
B( 54-C , 89-H ) :   1.0138 B( 55-C , 56-N ) :   3.0370 B( 57-C , 58-S ) :   1.0713
B( 57-C , 59-C ) :   1.5189 B( 58-S , 64-C ) :   1.1023 B( 59-C , 60-N ) :   1.1547
B( 59-C , 63-C ) :   1.2120 B( 60-N , 61-C ) :   0.9962 B( 60-N , 90-H ) :   0.9206
B( 61-C , 62-O ) :   0.9845 B( 61-C , 91-H ) :   0.9565 B( 61-C , 92-H ) :   0.9583
B( 62-O , 63-C ) :   1.1010 B( 63-C , 64-C ) :   1.5593 B( 64-C , 93-H ) :   0.9872

-----------------------------------------------------------------------------
         ABSORPTION SPECTRUM VIA TRANSITION ELECTRIC DIPOLE MOMENTS
-----------------------------------------------------------------------------
State   Energy  Wavelength   fosc         T2         TX        TY        TZ
        (cm-1)    (nm)                  (au**2)     (au)      (au)      (au)
-----------------------------------------------------------------------------
   0    8804.1   1135.8   0.162350694   6.07079   0.61490   1.88392  -1.46408
   1   10178.1    982.5   0.023014475   0.74441  -0.13738  -0.05026   0.85030
   2   14631.2    683.5   0.076374165   1.71847   0.40512   1.04587   0.67860
   3   16099.3    621.1   1.163182075  23.78569  -0.29922  -4.86370  -0.20136
   4   17933.2    557.6   0.017448470   0.32031   0.28100   0.47818   0.11268
   5   23705.8    421.8   0.046814653   0.65013  -0.43556   0.04712   0.67691
   6   24193.8    413.3   0.157282568   2.14019  -0.52118   0.70482   1.17123
   7   25396.3    393.8   0.044134987   0.57212   0.41463  -0.41381  -0.47850
   8   25692.1    389.2   0.022341337   0.28628  -0.00842   0.16522  -0.50883
   9   26042.3    384.0   0.029195684   0.36908   0.17565  -0.54963  -0.19007
  10   27105.5    368.9   0.171980483   2.08880   0.75060  -1.22916   0.12075
  11   27519.3    363.4   0.003174708   0.03798  -0.04680  -0.18412  -0.04344
  12   28301.3    353.3   0.267856068   3.11580   0.44987  -1.29395  -1.11315
  13   29153.1    343.0   0.154636273   1.74623   0.58347  -0.25174  -1.15863
  14   29575.2    338.1   0.056696022   0.63110  -0.10483  -0.62241   0.48241
  15   29666.9    337.1   0.073193523   0.81222  -0.28146   0.68895   0.50828
  16   30104.5    332.2   0.013396682   0.14650   0.07053   0.21056  -0.31175
  17   30318.5    329.8   0.090846358   0.98645  -0.24660  -0.44244   0.85433
  18   30935.1    323.3   0.118604019   1.26219  -0.57584  -0.12048   0.95712
  19   31301.6    319.5   0.162744261   1.71165   0.30733  -1.25196  -0.22314
  20   32796.4    304.9   0.001126095   0.01130  -0.09435   0.04455  -0.02043
  21   33035.0    302.7   0.077301069   0.77035  -0.11181  -0.71050   0.50303
  22   33501.6    298.5   0.029719740   0.29205  -0.22006  -0.26586   0.41587
  23   33597.3    297.6   0.067306583   0.65952   0.09553   0.62245  -0.51279
  24   34077.3    293.5   0.086904066   0.83956   0.10234   0.10764  -0.90415
  25   34313.2    291.4   0.009542485   0.09155  -0.03725   0.27533  -0.11983
  26   34755.8    287.7   0.004439950   0.04206  -0.12264   0.14111   0.08428
  27   34838.9    287.0   0.004783295   0.04520   0.01927   0.20945   0.03096
  28   35736.6    279.8   0.262630983   2.41940   0.64089   0.54241  -1.30937
  29   36472.4    274.2   0.000261787   0.00236  -0.00240  -0.00453   0.04834
  30   37167.3    269.1   0.031889094   0.28246  -0.16711  -0.33158   0.38025
  31   37521.5    266.5   0.083914898   0.73627  -0.11054  -0.60528   0.59807
  32   37532.0    266.4   0.138133648   1.21164   0.48551  -0.72009  -0.67630
  33   37642.3    265.7   0.005932438   0.05188   0.06231  -0.20877   0.06646
  34   38029.9    263.0   0.009818522   0.08500   0.01429   0.20184  -0.20988
  35   38090.5    262.5   0.026986154   0.23324   0.13170  -0.20079   0.41902
  36   38329.9    260.9   0.009718817   0.08347   0.03485   0.08023  -0.27536
  37   38559.7    259.3   0.068989697   0.58902   0.07739  -0.35872   0.67405
  38   38965.2    256.6   0.029807944   0.25184   0.11324   0.48880  -0.00957
  39   39627.7    252.3   0.520991873   4.32821  -0.16993  -1.22783   1.67086
  40   40049.7    249.7   0.038581621   0.31714   0.24834  -0.50488   0.02380

FINAL SINGLE POINT ENERGY     -4115.499672997929

DIPOLE MOMENT
-------------
                                X             Y             Z
Electronic contribution:    -12.17040     -21.93869       4.79423
Nuclear contribution   :     12.63671      23.05729      -3.51288
                        -----------------------------------------
Total Dipole Moment    :      0.46632       1.11860       1.28135
                        -----------------------------------------
Magnitude (a.u.)       :      1.76369
Magnitude (Debye)      :      4.48293

Rotational constants in cm-1:     0.001508     0.000414     0.000338
Rotational constants in MHz :    45.203641    12.417572    10.123637

                             ****ORCA TERMINATED NORMALLY****
TOTAL RUN TIME: 0 days 0 hours 9 minutes 32 seconds 179 msec
