                         Program Version 4.2.0 -  RELEASE  -
|  1> # ORCA input file
|  2> # SCF done       -201.564565605966          0.000939579170
|  3> ! CAM-B3LYP def2-SVP def2/J RIJCOSX Grid4 TightSCF
|  4> %maxcore 5000
|  5> %tddft
|  6>     Mode sTDDFT
|  7>     Ethresh 5.0
|  8>     maxcore 5000
|  9> end
| 10>
| 11> %pal
| 12>   nprocs 6
| 13>   end
| 14> * xyz 0 1
| 15>    C       -3.70752         0.31976         3.37514
| 16>    S       -3.72455        -1.17023         4.20208
| 17>    C       -3.22221        -2.07138         2.80174
| 18>    C       -3.04708        -1.19649         1.72070
| 19>    C       -3.33449         0.16535         2.05736
| 20>    N       -3.24863         1.15187         1.13015
| 21>    C       -2.88885         0.78212        -0.06853
| 22>    O       -2.80752         1.68220        -1.04572
| 23>    C       -3.10943         3.03148        -0.69913
| 24>    C       -2.98414         3.87881        -1.95169
| 25>    C       -2.55371        -0.58619        -0.40740
| 26>    C       -2.14937        -0.94325        -1.81235
| 27>    N       -3.21894        -0.73866        -2.77326
| 28>    N       -2.64727        -1.53629         0.47717
| 29>    C       -3.07039        -3.46876         2.85531
| 30>    C       -2.66080        -4.22341         1.79389
| 31>    C       -2.56370        -5.62270         1.84055
| 32>    C       -2.18463        -6.51432         0.85270
| 33>    C       -2.31947        -7.82788         1.38478
| 34>    C       -2.77881        -7.69415         2.75263
| 35>    O       -3.02639        -8.50344         3.60165
| 36>    O       -2.90412        -6.32575         2.96671
| 37>    C       -1.99827        -8.72360         0.39001
| 38>    O       -1.63084        -8.03104        -0.73594
| 39>    C       -1.73319        -6.63841        -0.51105
| 40>    O       -1.45135        -5.85084        -1.36509
| 41>    C       -2.03392       -10.13041         0.38542
| 42>    S       -2.42790       -11.00342         1.82674
| 43>    C       -2.31988       -12.52216         0.97635
| 44>    C       -1.96241       -12.33373        -0.36305
| 45>    C       -1.80978       -10.98849        -0.69288
| 46>    C       -1.48059       -10.48422        -2.06618
| 47>    C       -2.50715        -9.46106        -2.49839
| 48>    O       -3.65374        -9.42906        -2.15621
| 49>    C       -2.01486        -8.50301        -3.62378
| 50>    F       -0.72488        -8.17568        -3.51575
| 51>    F       -2.14392        -9.12497        -4.81746
| 52>    F       -2.73075        -7.38909        -3.68571
| 53>    C       -1.50615       -11.62896        -3.09959
| 54>    C       -0.84559       -12.86997        -2.51173
| 55>    C       -1.68664       -13.41450        -1.35875
| 56>    C       -2.62237       -13.69517         1.70726
| 57>    C       -2.92342       -14.92159         1.19506
| 58>    C       -3.25639       -16.01625         2.01881
| 59>    C       -3.29220       -16.16933         3.39206
| 60>    C       -3.73978       -17.49365         3.66046
| 61>    C       -3.96804       -18.14386         2.39308
| 62>    O       -4.34617       -19.24811         2.10733
| 63>    O       -3.64893       -17.18907         1.43038
| 64>    C       -3.78072       -17.65192         5.03293
| 65>    O       -3.37081       -16.49654         5.63163
| 66>    C       -3.05659       -15.53695         4.67417
| 67>    O       -2.67616       -14.43897         4.97606
| 68>    C       -4.17788       -18.75290         5.80035
| 69>    S       -4.80646       -20.19162         5.05826
| 70>    C       -5.09299       -20.96240         6.57767
| 71>    C       -4.70222       -20.13282         7.63572
| 72>    C       -4.17552       -18.88440         7.19711
| 73>    N       -3.72410       -17.96073         8.06082
| 74>    C       -3.81069       -18.25745         9.33246
| 75>    O       -3.36442       -17.41677        10.25420
| 76>    C       -2.76956       -16.19856         9.79553
| 77>    C       -3.79877       -15.19672         9.29517
| 78>    C       -4.36863       -19.50876         9.79383
| 79>    C       -4.46007       -19.79200        11.26949
| 80>    N       -5.03082       -21.07321        11.61698
| 81>    N       -4.79070       -20.41243         8.95825
| 82>    C       -5.66576       -22.27423         6.61262
| 83>    C       -5.94248       -22.94412         7.73344
| 84>    H       -3.97603         1.22747         3.87655
| 85>    H       -2.41313         3.36058         0.08006
| 86>    H       -4.12298         3.07324        -0.28430
| 87>    H       -1.97778         3.80419        -2.35467
| 88>    H       -3.19548         4.91669        -1.71251
| 89>    H       -3.68628         3.53978        -2.70890
| 90>    H       -1.85538        -1.99461        -1.83540
| 91>    H       -1.30248        -0.32212        -2.11760
| 92>    H       -4.02713        -1.30124        -2.53040
| 93>    H       -3.49355         0.23727        -2.79515
| 94>    H       -3.30060        -3.95749         3.79291
| 95>    H       -2.40796        -3.75095         0.85659
| 96>    H       -0.48917       -10.01930        -2.05783
| 97>    H       -0.99039       -11.31375        -4.00652
| 98>    H       -2.54141       -11.86103        -3.35903
| 99>    H        0.15357       -12.61717        -2.15254
|100>    H       -0.74651       -13.63278        -3.28470
|101>    H       -1.16487       -14.24026        -0.87177
|102>    H       -2.63286       -13.79639        -1.75366
|103>    H       -2.66185       -13.57213         2.78276
|104>    H       -2.97589       -15.10836         0.13519
|105>    H       -2.05917       -16.42968         8.99628
|106>    H       -2.24054       -15.81577        10.67093
|107>    H       -4.26912       -15.56951         8.38993
|108>    H       -3.30069       -14.26006         9.06429
|109>    H       -4.55820       -15.02008        10.05337
|110>    H       -5.05564       -19.00018        11.73698
|111>    H       -3.45330       -19.72497        11.69671
|112>    H       -5.96927       -21.14389        11.23681
|113>    H       -4.48346       -21.81660        11.19511
|114>    H       -5.87500       -22.70680         5.64296
|115>    H       -5.73845       -22.51446         8.69791
|116>    H       -6.37515       -23.92854         7.70288
|117> *
|118>
|119>                          ****END OF INPUT****

CARTESIAN COORDINATES (ANGSTROEM)
---------------------------------
  C     -3.707520    0.319760    3.375140
  S     -3.724550   -1.170230    4.202080
  C     -3.222210   -2.071380    2.801740
  C     -3.047080   -1.196490    1.720700
  C     -3.334490    0.165350    2.057360
  N     -3.248630    1.151870    1.130150
  C     -2.888850    0.782120   -0.068530
  O     -2.807520    1.682200   -1.045720
  C     -3.109430    3.031480   -0.699130
  C     -2.984140    3.878810   -1.951690
  C     -2.553710   -0.586190   -0.407400
  C     -2.149370   -0.943250   -1.812350
  N     -3.218940   -0.738660   -2.773260
  N     -2.647270   -1.536290    0.477170
  C     -3.070390   -3.468760    2.855310
  C     -2.660800   -4.223410    1.793890
  C     -2.563700   -5.622700    1.840550
  C     -2.184630   -6.514320    0.852700
  C     -2.319470   -7.827880    1.384780
  C     -2.778810   -7.694150    2.752630
  O     -3.026390   -8.503440    3.601650
  O     -2.904120   -6.325750    2.966710
  C     -1.998270   -8.723600    0.390010
  O     -1.630840   -8.031040   -0.735940
  C     -1.733190   -6.638410   -0.511050
  O     -1.451350   -5.850840   -1.365090
  C     -2.033920  -10.130410    0.385420
  S     -2.427900  -11.003420    1.826740
  C     -2.319880  -12.522160    0.976350
  C     -1.962410  -12.333730   -0.363050
  C     -1.809780  -10.988490   -0.692880
  C     -1.480590  -10.484220   -2.066180
  C     -2.507150   -9.461060   -2.498390
  O     -3.653740   -9.429060   -2.156210
  C     -2.014860   -8.503010   -3.623780
  F     -0.724880   -8.175680   -3.515750
  F     -2.143920   -9.124970   -4.817460
  F     -2.730750   -7.389090   -3.685710
  C     -1.506150  -11.628960   -3.099590
  C     -0.845590  -12.869970   -2.511730
  C     -1.686640  -13.414500   -1.358750
  C     -2.622370  -13.695170    1.707260
  C     -2.923420  -14.921590    1.195060
  C     -3.256390  -16.016250    2.018810
  C     -3.292200  -16.169330    3.392060
  C     -3.739780  -17.493650    3.660460
  C     -3.968040  -18.143860    2.393080
  O     -4.346170  -19.248110    2.107330
  O     -3.648930  -17.189070    1.430380
  C     -3.780720  -17.651920    5.032930
  O     -3.370810  -16.496540    5.631630
  C     -3.056590  -15.536950    4.674170
  O     -2.676160  -14.438970    4.976060
  C     -4.177880  -18.752900    5.800350
  S     -4.806460  -20.191620    5.058260
  C     -5.092990  -20.962400    6.577670
  C     -4.702220  -20.132820    7.635720
  C     -4.175520  -18.884400    7.197110
  N     -3.724100  -17.960730    8.060820
  C     -3.810690  -18.257450    9.332460
  O     -3.364420  -17.416770   10.254200
  C     -2.769560  -16.198560    9.795530
  C     -3.798770  -15.196720    9.295170
  C     -4.368630  -19.508760    9.793830
  C     -4.460070  -19.792000   11.269490
  N     -5.030820  -21.073210   11.616980
  N     -4.790700  -20.412430    8.958250
  C     -5.665760  -22.274230    6.612620
  C     -5.942480  -22.944120    7.733440
  H     -3.976030    1.227470    3.876550
  H     -2.413130    3.360580    0.080060
  H     -4.122980    3.073240   -0.284300
  H     -1.977780    3.804190   -2.354670
  H     -3.195480    4.916690   -1.712510
  H     -3.686280    3.539780   -2.708900
  H     -1.855380   -1.994610   -1.835400
  H     -1.302480   -0.322120   -2.117600
  H     -4.027130   -1.301240   -2.530400
  H     -3.493550    0.237270   -2.795150
  H     -3.300600   -3.957490    3.792910
  H     -2.407960   -3.750950    0.856590
  H     -0.489170  -10.019300   -2.057830
  H     -0.990390  -11.313750   -4.006520
  H     -2.541410  -11.861030   -3.359030
  H      0.153570  -12.617170   -2.152540
  H     -0.746510  -13.632780   -3.284700
  H     -1.164870  -14.240260   -0.871770
  H     -2.632860  -13.796390   -1.753660
  H     -2.661850  -13.572130    2.782760
  H     -2.975890  -15.108360    0.135190
  H     -2.059170  -16.429680    8.996280
  H     -2.240540  -15.815770   10.670930
  H     -4.269120  -15.569510    8.389930
  H     -3.300690  -14.260060    9.064290
  H     -4.558200  -15.020080   10.053370
  H     -5.055640  -19.000180   11.736980
  H     -3.453300  -19.724970   11.696710
  H     -5.969270  -21.143890   11.236810
  H     -4.483460  -21.816600   11.195110
  H     -5.875000  -22.706800    5.642960
  H     -5.738450  -22.514460    8.697910
  H     -6.375150  -23.928540    7.702880

 Total Charge           Charge          ....    0
 Multiplicity           Mult            ....    1
 Number of Electrons    NEL             ....  514
 Basis Dimension        Dim             .... 1143

ORBITAL ENERGIES
----------------

  NO   OCC          E(Eh)            E(eV)
   0   2.0000     -88.979736     -2421.2617
   1   2.0000     -88.978033     -2421.2154
   2   2.0000     -88.965589     -2420.8768
   3   2.0000     -24.796461      -674.7460
   4   2.0000     -24.793427      -674.6634
   5   2.0000     -24.791387      -674.6079
   6   2.0000     -19.289097      -524.8830
   7   2.0000     -19.281935      -524.6881
   8   2.0000     -19.281234      -524.6690
   9   2.0000     -19.277116      -524.5570
  10   2.0000     -19.270076      -524.3654
  11   2.0000     -19.266801      -524.2763
  12   2.0000     -19.227617      -523.2100
  13   2.0000     -19.211162      -522.7623
  14   2.0000     -19.210942      -522.7563
  15   2.0000     -19.209314      -522.7120
  16   2.0000     -19.201740      -522.5059
  17   2.0000     -14.430833      -392.6829
  18   2.0000     -14.428780      -392.6271
  19   2.0000     -14.421058      -392.4169
  20   2.0000     -14.418248      -392.3405
  21   2.0000     -14.381161      -391.3313
  22   2.0000     -14.380622      -391.3166
  23   2.0000     -10.504810      -285.8504
  24   2.0000     -10.410841      -283.2934
  25   2.0000     -10.409311      -283.2518
  26   2.0000     -10.409266      -283.2505
  27   2.0000     -10.402528      -283.0672
  28   2.0000     -10.383926      -282.5610
  29   2.0000     -10.382451      -282.5209
  30   2.0000     -10.379967      -282.4533
  31   2.0000     -10.372544      -282.2513
  32   2.0000     -10.372048      -282.2378
  33   2.0000     -10.364968      -282.0451
  34   2.0000     -10.361798      -281.9589
  35   2.0000     -10.329908      -281.0911
  36   2.0000     -10.328623      -281.0561
  37   2.0000     -10.328375      -281.0494
  38   2.0000     -10.326215      -280.9906
  39   2.0000     -10.321934      -280.8741
  40   2.0000     -10.321657      -280.8666
  41   2.0000     -10.318199      -280.7725
  42   2.0000     -10.316293      -280.7206
  43   2.0000     -10.315712      -280.7048
  44   2.0000     -10.314338      -280.6674
  45   2.0000     -10.313082      -280.6332
  46   2.0000     -10.312804      -280.6257
  47   2.0000     -10.312031      -280.6046
  48   2.0000     -10.306631      -280.4577
  49   2.0000     -10.303831      -280.3815
  50   2.0000     -10.301217      -280.3104
  51   2.0000     -10.296508      -280.1822
  52   2.0000     -10.296342      -280.1777
  53   2.0000     -10.295971      -280.1676
  54   2.0000     -10.292290      -280.0674
  55   2.0000     -10.292024      -280.0602
  56   2.0000     -10.289486      -279.9911
  57   2.0000     -10.288500      -279.9643
  58   2.0000     -10.283706      -279.8339
  59   2.0000     -10.281583      -279.7761
  60   2.0000     -10.281537      -279.7748
  61   2.0000     -10.281155      -279.7644
  62   2.0000     -10.281133      -279.7639
  63   2.0000     -10.279562      -279.7211
  64   2.0000     -10.275677      -279.6154
  65   2.0000     -10.275574      -279.6126
  66   2.0000     -10.273672      -279.5608
  67   2.0000     -10.269039      -279.4348
  68   2.0000     -10.250589      -278.9327
  69   2.0000      -8.075002      -219.7320
  70   2.0000      -8.072534      -219.6648
  71   2.0000      -8.060622      -219.3407
  72   2.0000      -6.043853      -164.4616
  73   2.0000      -6.041611      -164.4006
  74   2.0000      -6.039752      -164.3500
  75   2.0000      -6.038046      -164.3036
  76   2.0000      -6.037398      -164.2859
  77   2.0000      -6.035151      -164.2248
  78   2.0000      -6.029841      -164.0803
  79   2.0000      -6.025680      -163.9671
  80   2.0000      -6.022747      -163.8873
  81   2.0000      -1.383744       -37.6536
  82   2.0000      -1.289112       -35.0785
  83   2.0000      -1.283462       -34.9248
  84   2.0000      -1.215014       -33.0622
  85   2.0000      -1.213764       -33.0282
  86   2.0000      -1.207191       -32.8493
  87   2.0000      -1.203283       -32.7430
  88   2.0000      -1.187029       -32.3007
  89   2.0000      -1.183906       -32.2157
  90   2.0000      -1.148545       -31.2535
  91   2.0000      -1.121209       -30.5097
  92   2.0000      -1.119447       -30.4617
  93   2.0000      -1.118083       -30.4246
  94   2.0000      -1.110921       -30.2297
  95   2.0000      -1.080521       -29.4025
  96   2.0000      -1.078801       -29.3557
  97   2.0000      -1.011796       -27.5324
  98   2.0000      -1.008271       -27.4365
  99   2.0000      -1.003350       -27.3026
 100   2.0000      -0.989121       -26.9153
 101   2.0000      -0.987565       -26.8730
 102   2.0000      -0.959760       -26.1164
 103   2.0000      -0.959559       -26.1109
 104   2.0000      -0.938139       -25.5281
 105   2.0000      -0.932027       -25.3617
 106   2.0000      -0.926974       -25.2243
 107   2.0000      -0.917602       -24.9692
 108   2.0000      -0.911025       -24.7903
 109   2.0000      -0.898138       -24.4396
 110   2.0000      -0.886694       -24.1282
 111   2.0000      -0.879164       -23.9233
 112   2.0000      -0.875021       -23.8105
 113   2.0000      -0.861097       -23.4316
 114   2.0000      -0.854142       -23.2424
 115   2.0000      -0.847679       -23.0665
 116   2.0000      -0.840989       -22.8845
 117   2.0000      -0.838278       -22.8107
 118   2.0000      -0.834542       -22.7091
 119   2.0000      -0.820174       -22.3181
 120   2.0000      -0.806149       -21.9364
 121   2.0000      -0.795942       -21.6587
 122   2.0000      -0.791045       -21.5254
 123   2.0000      -0.777692       -21.1621
 124   2.0000      -0.775767       -21.1097
 125   2.0000      -0.760867       -20.7043
 126   2.0000      -0.750523       -20.4228
 127   2.0000      -0.748779       -20.3753
 128   2.0000      -0.747627       -20.3440
 129   2.0000      -0.743760       -20.2387
 130   2.0000      -0.741787       -20.1850
 131   2.0000      -0.726915       -19.7804
 132   2.0000      -0.716243       -19.4899
 133   2.0000      -0.711321       -19.3560
 134   2.0000      -0.706842       -19.2342
 135   2.0000      -0.703546       -19.1444
 136   2.0000      -0.697437       -18.9782
 137   2.0000      -0.695794       -18.9335
 138   2.0000      -0.693718       -18.8770
 139   2.0000      -0.689116       -18.7518
 140   2.0000      -0.684882       -18.6366
 141   2.0000      -0.681689       -18.5497
 142   2.0000      -0.667571       -18.1655
 143   2.0000      -0.665359       -18.1053
 144   2.0000      -0.660046       -17.9608
 145   2.0000      -0.653237       -17.7755
 146   2.0000      -0.647855       -17.6290
 147   2.0000      -0.639920       -17.4131
 148   2.0000      -0.634400       -17.2629
 149   2.0000      -0.627675       -17.0799
 150   2.0000      -0.624475       -16.9928
 151   2.0000      -0.619826       -16.8663
 152   2.0000      -0.606885       -16.5142
 153   2.0000      -0.600521       -16.3410
 154   2.0000      -0.599803       -16.3215
 155   2.0000      -0.594706       -16.1828
 156   2.0000      -0.590622       -16.0716
 157   2.0000      -0.588186       -16.0054
 158   2.0000      -0.586712       -15.9653
 159   2.0000      -0.584579       -15.9072
 160   2.0000      -0.583095       -15.8668
 161   2.0000      -0.581433       -15.8216
 162   2.0000      -0.573230       -15.5984
 163   2.0000      -0.569328       -15.4922
 164   2.0000      -0.559186       -15.2162
 165   2.0000      -0.556861       -15.1530
 166   2.0000      -0.556069       -15.1314
 167   2.0000      -0.555455       -15.1147
 168   2.0000      -0.551897       -15.0179
 169   2.0000      -0.549435       -14.9509
 170   2.0000      -0.546190       -14.8626
 171   2.0000      -0.545503       -14.8439
 172   2.0000      -0.541756       -14.7419
 173   2.0000      -0.539742       -14.6871
 174   2.0000      -0.539348       -14.6764
 175   2.0000      -0.537981       -14.6392
 176   2.0000      -0.536053       -14.5867
 177   2.0000      -0.534049       -14.5322
 178   2.0000      -0.528451       -14.3799
 179   2.0000      -0.526238       -14.3197
 180   2.0000      -0.523604       -14.2480
 181   2.0000      -0.522694       -14.2232
 182   2.0000      -0.522302       -14.2126
 183   2.0000      -0.519438       -14.1346
 184   2.0000      -0.518941       -14.1211
 185   2.0000      -0.517827       -14.0908
 186   2.0000      -0.513850       -13.9826
 187   2.0000      -0.507675       -13.8145
 188   2.0000      -0.504100       -13.7173
 189   2.0000      -0.503721       -13.7069
 190   2.0000      -0.501105       -13.6358
 191   2.0000      -0.499151       -13.5826
 192   2.0000      -0.498538       -13.5659
 193   2.0000      -0.496553       -13.5119
 194   2.0000      -0.492773       -13.4090
 195   2.0000      -0.488603       -13.2956
 196   2.0000      -0.487872       -13.2757
 197   2.0000      -0.486701       -13.2438
 198   2.0000      -0.486290       -13.2326
 199   2.0000      -0.483398       -13.1539
 200   2.0000      -0.480752       -13.0819
 201   2.0000      -0.477928       -13.0051
 202   2.0000      -0.477560       -12.9951
 203   2.0000      -0.476218       -12.9585
 204   2.0000      -0.473239       -12.8775
 205   2.0000      -0.471476       -12.8295
 206   2.0000      -0.468896       -12.7593
 207   2.0000      -0.466902       -12.7051
 208   2.0000      -0.466187       -12.6856
 209   2.0000      -0.460648       -12.5349
 210   2.0000      -0.459226       -12.4962
 211   2.0000      -0.455021       -12.3817
 212   2.0000      -0.452461       -12.3121
 213   2.0000      -0.451783       -12.2936
 214   2.0000      -0.449639       -12.2353
 215   2.0000      -0.448126       -12.1941
 216   2.0000      -0.447217       -12.1694
 217   2.0000      -0.443393       -12.0653
 218   2.0000      -0.442352       -12.0370
 219   2.0000      -0.441267       -12.0075
 220   2.0000      -0.437133       -11.8950
 221   2.0000      -0.434774       -11.8308
 222   2.0000      -0.433974       -11.8090
 223   2.0000      -0.432375       -11.7655
 224   2.0000      -0.427322       -11.6280
 225   2.0000      -0.425625       -11.5819
 226   2.0000      -0.419342       -11.4109
 227   2.0000      -0.418807       -11.3963
 228   2.0000      -0.410844       -11.1796
 229   2.0000      -0.409865       -11.1530
 230   2.0000      -0.406372       -11.0579
 231   2.0000      -0.405436       -11.0325
 232   2.0000      -0.403801       -10.9880
 233   2.0000      -0.395928       -10.7737
 234   2.0000      -0.391592       -10.6558
 235   2.0000      -0.391101       -10.6424
 236   2.0000      -0.384638       -10.4665
 237   2.0000      -0.377557       -10.2739
 238   2.0000      -0.369808       -10.0630
 239   2.0000      -0.369415       -10.0523
 240   2.0000      -0.366889        -9.9836
 241   2.0000      -0.363835        -9.9005
 242   2.0000      -0.351206        -9.5568
 243   2.0000      -0.347529        -9.4567
 244   2.0000      -0.341958        -9.3052
 245   2.0000      -0.338127        -9.2009
 246   2.0000      -0.332172        -9.0389
 247   2.0000      -0.328374        -8.9355
 248   2.0000      -0.321467        -8.7476
 249   2.0000      -0.316387        -8.6093
 250   2.0000      -0.309491        -8.4217
 251   2.0000      -0.308157        -8.3854
 252   2.0000      -0.304937        -8.2978
 253   2.0000      -0.296761        -8.0753
 254   2.0000      -0.289898        -7.8885
 255   2.0000      -0.250804        -6.8247
 256   2.0000      -0.228653        -6.2220
 257   0.0000      -0.102112        -2.7786
 258   0.0000      -0.081303        -2.2124
 259   0.0000      -0.057606        -1.5675
 260   0.0000      -0.036871        -1.0033
 261   0.0000      -0.015455        -0.4206

MULLIKEN ATOMIC CHARGES
-----------------------
   0 C :   -0.153081
   1 S :    0.182001
   2 C :   -0.162051
   3 C :    0.040694
   4 C :    0.068899
   5 N :   -0.048782
   6 C :    0.105579
   7 O :   -0.291787
   8 C :    0.168631
   9 C :    0.011695
  10 C :   -0.198579
  11 C :    0.250806
  12 N :   -0.240812
  13 N :    0.009945
  14 C :    0.045208
  15 C :   -0.058106
  16 C :    0.126811
  17 C :   -0.028963
  18 C :   -0.095476
  19 C :    0.228536
  20 O :   -0.131045
  21 O :   -0.255666
  22 C :    0.154044
  23 O :   -0.317068
  24 C :    0.226162
  25 O :   -0.124227
  26 C :   -0.170899
  27 S :    0.224343
  28 C :   -0.124941
  29 C :   -0.083095
  30 C :    0.026999
  31 C :    0.006848
  32 C :   -0.052934
  33 O :   -0.143067
  34 C :    0.534888
  35 F :   -0.153200
  36 F :   -0.176249
  37 F :   -0.131587
  38 C :    0.047332
  39 C :    0.051167
  40 C :    0.103587
  41 C :    0.048315
  42 C :   -0.020659
  43 C :    0.132885
  44 C :   -0.083444
  45 C :   -0.122492
  46 C :    0.217117
  47 O :   -0.151229
  48 O :   -0.246958
  49 C :    0.156901
  50 O :   -0.234831
  51 C :    0.239265
  52 O :   -0.143524
  53 C :   -0.261555
  54 S :    0.244987
  55 C :   -0.151479
  56 C :    0.017614
  57 C :    0.090131
  58 N :   -0.016439
  59 C :    0.116816
  60 O :   -0.275295
  61 C :    0.181852
  62 C :   -0.028769
  63 C :   -0.193653
  64 C :    0.168088
  65 N :   -0.198156
  66 N :    0.001569
  67 C :    0.008725
  68 C :    0.015311
  69 H :    0.018930
  70 H :    0.021475
  71 H :    0.021218
  72 H :    0.028850
  73 H :    0.022879
  74 H :    0.026675
  75 H :    0.028011
  76 H :    0.016716
  77 H :    0.094589
  78 H :    0.095897
  79 H :    0.004828
  80 H :    0.025756
  81 H :    0.041665
  82 H :    0.022066
  83 H :    0.018293
  84 H :    0.011080
  85 H :    0.011922
  86 H :    0.024152
  87 H :    0.031084
  88 H :    0.013066
  89 H :   -0.009127
  90 H :    0.032135
  91 H :    0.022998
  92 H :    0.044727
  93 H :    0.031026
  94 H :    0.017419
  95 H :    0.030398
  96 H :    0.030267
  97 H :    0.098754
  98 H :    0.098804
  99 H :   -0.009853
 100 H :    0.021670
 101 H :    0.027973
Sum of atomic charges:   -0.0000000

LOEWDIN ATOMIC CHARGES
----------------------
   0 C :   -0.192308
   1 S :    0.501310
   2 C :   -0.193446
   3 C :   -0.046622
   4 C :   -0.050907
   5 N :   -0.094768
   6 C :    0.050572
   7 O :   -0.079652
   8 C :    0.088536
   9 C :   -0.062207
  10 C :   -0.016031
  11 C :    0.019509
  12 N :   -0.098712
  13 N :   -0.035389
  14 C :    0.008723
  15 C :   -0.047904
  16 C :    0.108863
  17 C :   -0.129821
  18 C :   -0.128383
  19 C :    0.097924
  20 O :   -0.137587
  21 O :   -0.052733
  22 C :    0.083900
  23 O :   -0.058915
  24 C :    0.109677
  25 O :   -0.129947
  26 C :   -0.189763
  27 S :    0.513670
  28 C :   -0.164240
  29 C :   -0.038933
  30 C :   -0.025619
  31 C :   -0.057964
  32 C :    0.043095
  33 O :   -0.104765
  34 C :    0.133768
  35 F :   -0.046819
  36 F :   -0.069285
  37 F :   -0.027954
  38 C :   -0.014847
  39 C :   -0.023103
  40 C :   -0.027419
  41 C :    0.005780
  42 C :   -0.048444
  43 C :    0.094757
  44 C :   -0.130042
  45 C :   -0.149533
  46 C :    0.091907
  47 O :   -0.157389
  48 O :   -0.051533
  49 C :    0.093074
  50 O :   -0.035230
  51 C :    0.102984
  52 O :   -0.143532
  53 C :   -0.230668
  54 S :    0.536850
  55 C :   -0.152638
  56 C :   -0.064427
  57 C :   -0.017660
  58 N :   -0.083715
  59 C :    0.061124
  60 O :   -0.067545
  61 C :    0.089375
  62 C :   -0.068145
  63 C :   -0.022081
  64 C :    0.008332
  65 N :   -0.097348
  66 N :   -0.044107
  67 C :   -0.050174
  68 C :   -0.008532
  69 H :    0.029829
  70 H :    0.020432
  71 H :    0.019454
  72 H :    0.030766
  73 H :    0.034380
  74 H :    0.029217
  75 H :    0.037114
  76 H :    0.031051
  77 H :    0.055059
  78 H :    0.045836
  79 H :    0.037477
  80 H :    0.043108
  81 H :    0.044743
  82 H :    0.029612
  83 H :    0.029191
  84 H :    0.026085
  85 H :    0.030008
  86 H :    0.036161
  87 H :    0.036130
  88 H :    0.038508
  89 H :    0.038520
  90 H :    0.024421
  91 H :    0.023856
  92 H :    0.030414
  93 H :    0.037855
  94 H :    0.024583
  95 H :    0.037179
  96 H :    0.037286
  97 H :    0.053909
  98 H :    0.053792
  99 H :    0.030930
 100 H :    0.020434
 101 H :    0.027715

  Mayer bond orders larger than 0.100000
B(  0-C ,  1-S ) :   1.2002 B(  0-C ,  2-C ) :   0.1107 B(  0-C ,  4-C ) :   1.3996
B(  0-C , 69-H ) :   0.9769 B(  1-S ,  2-C ) :   1.1692 B(  2-C ,  3-C ) :   1.3133
B(  2-C , 14-C ) :   1.1619 B(  3-C ,  4-C ) :   1.2234 B(  3-C , 13-N ) :   1.3508
B(  4-C ,  5-N ) :   1.3362 B(  5-N ,  6-C ) :   1.6406 B(  6-C ,  7-O ) :   1.2355
B(  6-C , 10-C ) :   1.0733 B(  7-O ,  8-C ) :   0.8958 B(  8-C ,  9-C ) :   1.0920
B(  8-C , 70-H ) :   0.9574 B(  8-C , 71-H ) :   0.9567 B(  9-C , 72-H ) :   0.9685
B(  9-C , 73-H ) :   0.9612 B(  9-C , 74-H ) :   0.9699 B( 10-C , 11-C ) :   1.0009
B( 10-C , 13-N ) :   1.7787 B( 11-C , 12-N ) :   1.0962 B( 11-C , 75-H ) :   0.9265
B( 11-C , 76-H ) :   0.9323 B( 12-N , 77-H ) :   0.9760 B( 12-N , 78-H ) :   0.9803
B( 14-C , 15-C ) :   1.5760 B( 14-C , 79-H ) :   0.9698 B( 15-C , 16-C ) :   1.2221
B( 15-C , 80-H ) :   0.9448 B( 16-C , 17-C ) :   1.3343 B( 16-C , 21-O ) :   1.1315
B( 17-C , 18-C ) :   1.1573 B( 17-C , 24-C ) :   0.9829 B( 18-C , 19-C ) :   0.9485
B( 18-C , 22-C ) :   1.4175 B( 19-C , 20-O ) :   2.2411 B( 19-C , 21-O ) :   1.0181
B( 22-C , 23-O ) :   1.0990 B( 22-C , 26-C ) :   1.1947 B( 23-O , 24-C ) :   0.9387
B( 24-C , 25-O ) :   2.2458 B( 26-C , 27-S ) :   1.1511 B( 26-C , 28-C ) :   0.1164
B( 26-C , 30-C ) :   1.4145 B( 27-S , 28-C ) :   1.1208 B( 28-C , 29-C ) :   1.4272
B( 28-C , 41-C ) :   1.1637 B( 29-C , 30-C ) :   1.4063 B( 29-C , 40-C ) :   1.0507
B( 30-C , 31-C ) :   0.9743 B( 31-C , 32-C ) :   0.9008 B( 31-C , 38-C ) :   1.0530
B( 31-C , 81-H ) :   0.8734 B( 32-C , 33-O ) :   2.2371 B( 32-C , 34-C ) :   0.8627
B( 34-C , 35-F ) :   1.1474 B( 34-C , 36-F ) :   1.1271 B( 34-C , 37-F ) :   1.1888
B( 38-C , 39-C ) :   1.0840 B( 38-C , 82-H ) :   0.9306 B( 38-C , 83-H ) :   0.9312
B( 39-C , 40-C ) :   1.0898 B( 39-C , 84-H ) :   0.9390 B( 39-C , 85-H ) :   0.9331
B( 40-C , 86-H ) :   0.9139 B( 40-C , 87-H ) :   0.8990 B( 41-C , 42-C ) :   1.5794
B( 41-C , 88-H ) :   0.9333 B( 42-C , 43-C ) :   1.2039 B( 42-C , 89-H ) :   0.9619
B( 43-C , 44-C ) :   1.3780 B( 43-C , 48-O ) :   1.1336 B( 44-C , 45-C ) :   1.1610
B( 44-C , 51-C ) :   0.9676 B( 45-C , 46-C ) :   0.9746 B( 45-C , 49-C ) :   1.3427
B( 46-C , 47-O ) :   2.2212 B( 46-C , 48-O ) :   1.0165 B( 49-C , 50-O ) :   1.1761
B( 49-C , 53-C ) :   1.2625 B( 50-O , 51-C ) :   1.0170 B( 51-C , 52-O ) :   2.1661
B( 53-C , 54-S ) :   1.1449 B( 53-C , 55-C ) :   0.1419 B( 53-C , 57-C ) :   1.2795
B( 54-S , 55-C ) :   1.1801 B( 55-C , 56-C ) :   1.3441 B( 55-C , 67-C ) :   1.1249
B( 56-C , 57-C ) :   1.2444 B( 56-C , 66-N ) :   1.3391 B( 57-C , 58-N ) :   1.4337
B( 58-N , 59-C ) :   1.5946 B( 59-C , 60-O ) :   1.2944 B( 59-C , 63-C ) :   1.0829
B( 60-O , 61-C ) :   0.8921 B( 61-C , 62-C ) :   1.1204 B( 61-C , 90-H ) :   0.9458
B( 61-C , 91-H ) :   0.9608 B( 62-C , 92-H ) :   0.9638 B( 62-C , 93-H ) :   0.9618
B( 62-C , 94-H ) :   0.9646 B( 63-C , 64-C ) :   0.9566 B( 63-C , 66-N ) :   1.7855
B( 64-C , 65-N ) :   1.1599 B( 64-C , 95-H ) :   0.9335 B( 64-C , 96-H ) :   0.9323
B( 65-N , 97-H ) :   0.9791 B( 65-N , 98-H ) :   0.9791 B( 67-C , 68-C ) :   1.9180
B( 67-C , 99-H ) :   0.9470 B( 68-C ,100-H ) :   0.9309 B( 68-C ,101-H ) :   0.9449

-----------------------------------------------------------------------------
         ABSORPTION SPECTRUM VIA TRANSITION ELECTRIC DIPOLE MOMENTS
-----------------------------------------------------------------------------
State   Energy  Wavelength   fosc         T2         TX        TY        TZ
        (cm-1)    (nm)                  (au**2)     (au)      (au)      (au)
-----------------------------------------------------------------------------
   0   13670.2    731.5   1.701915943  40.98625   0.40417   6.13830  -1.77318
   1   18783.4    532.4   0.664175839  11.64081  -1.10531   1.43565   2.89102
   2   20100.7    497.5   0.008872817   0.14532  -0.02038   0.37703   0.05245
   3   22875.3    437.2   0.011074010   0.15937  -0.14539   0.34850   0.12954
   4   25643.8    390.0   0.075249309   0.96604  -0.14602   0.65302  -0.71992
   5   26229.4    381.3   0.100462355   1.26093   0.21997  -0.35389  -1.04274
   6   26649.4    375.2   0.089931365   1.11096  -0.06578   0.47934   0.93641
   7   28160.2    355.1   0.006954287   0.08130  -0.05488  -0.17117   0.22134
   8   28754.5    347.8   0.002068628   0.02368   0.11543   0.00359   0.10172
   9   29550.4    338.4   0.018190190   0.20265  -0.34315  -0.09065  -0.27692
  10   29941.3    334.0   0.088708797   0.97538  -0.12464  -0.89852  -0.39051
  11   30644.2    326.3   0.076803120   0.82510  -0.38721  -0.31950  -0.75702
  12   31101.9    321.5   0.098586336   1.04353  -0.14780  -0.08010   1.00761
  13   31232.9    320.2   0.015955876   0.16818   0.06439   0.08260   0.39650
  14   31717.4    315.3   0.016444162   0.17068  -0.08676  -0.03628   0.40229
  15   31797.1    314.5   0.157099769   1.62654  -0.17235   0.10704   1.25912
  16   32648.1    306.3   0.169863146   1.71284   0.38767   1.24917   0.04605
  17   32962.0    303.4   0.050591434   0.50529  -0.15345  -0.69257   0.04566
  18   33104.0    302.1   0.003500750   0.03481   0.03895  -0.04320   0.17729
  19   33311.0    300.2   0.003006635   0.02971  -0.06955   0.14950  -0.05027
  20   33845.7    295.5   0.057288365   0.55724   0.16978   0.64536  -0.33454
  21   34396.6    290.7   0.005450872   0.05217   0.10588   0.03062  -0.20006
  22   34918.2    286.4   0.019478810   0.18365  -0.00332   0.22532   0.36451
  23   35021.5    285.5   0.076668665   0.72071  -0.02253   0.12418  -0.83951
  24   35216.5    284.0   0.009649763   0.09021   0.10650  -0.05168  -0.27603
  25   36006.4    277.7   0.003686257   0.03370  -0.03777  -0.02812   0.17745
  26   36450.3    274.3   0.060346603   0.54504   0.20300   0.45011  -0.54885
  27   36914.4    270.9   0.040293509   0.35935   0.07660  -0.02157   0.59415
  28   37071.7    269.7   0.010753205   0.09549  -0.03795   0.07220   0.29806
  29   37990.1    263.2   0.082946212   0.71879  -0.07933  -0.52824   0.65837
  30   38040.7    262.9   0.047953187   0.41500   0.13016   0.44627  -0.44597
  31   38167.0    262.0   0.012132696   0.10465   0.07095   0.03472  -0.31371
  32   38358.7    260.7   0.001594382   0.01368  -0.00671  -0.10181  -0.05721
  33   39102.6    255.7   0.101522121   0.85473   0.13811   0.84242   0.35494
  34   39228.6    254.9   0.159868482   1.34164  -0.42427  -1.07377  -0.09297
  35   39795.1    251.3   0.048400211   0.40040  -0.01049  -0.18791  -0.60413
  36   39868.4    250.8   0.115667840   0.95512  -0.34336  -0.88660  -0.22620

FINAL SINGLE POINT ENERGY     -4418.610617373913

DIPOLE MOMENT
-------------
                                X             Y             Z
Electronic contribution:      4.70219      -7.44966     -28.89659
Nuclear contribution   :     -4.47572       9.16169      29.94839
                        -----------------------------------------
Total Dipole Moment    :      0.22647       1.71202       1.05180
                        -----------------------------------------
Magnitude (a.u.)       :      2.02203
Magnitude (Debye)      :      5.13959

Rotational constants in cm-1:     0.001651     0.000273     0.000238
Rotational constants in MHz :    49.508436     8.192802     7.141255

                             ****ORCA TERMINATED NORMALLY****
TOTAL RUN TIME: 0 days 0 hours 8 minutes 27 seconds 760 msec
