                         Program Version 4.2.0 -  RELEASE  -
|  1> # ORCA input file
|  2> # SCF done       -196.274887869292          0.000930488130
|  3> ! CAM-B3LYP def2-SVP def2/J RIJCOSX Grid4 TightSCF
|  4> %maxcore 5000
|  5> %tddft
|  6>     Mode sTDDFT
|  7>     Ethresh 5.0
|  8>     maxcore 5000
|  9> end
| 10>
| 11> %pal
| 12>   nprocs 6
| 13>   end
| 14> * xyz 0 1
| 15>    C       -1.43376         0.17176         1.08015
| 16>    S       -1.69376        -1.34033         1.81983
| 17>    C       -1.24425        -2.22937         0.39470
| 18>    C       -0.89618        -1.33413        -0.62509
| 19>    C       -1.01373         0.03552        -0.22592
| 20>    N       -0.73870         1.04939        -1.08539
| 21>    C       -0.36059         0.69697        -2.28287
| 22>    O       -0.08321         1.61770        -3.20085
| 23>    C       -0.23986         2.97822        -2.80247
| 24>    C        0.07607         3.85843        -3.99706
| 25>    C       -0.22106        -0.68535        -2.68910
| 26>    C        0.24237        -1.01467        -4.08204
| 27>    N        0.34813        -2.42155        -4.38754
| 28>    N       -0.48760        -1.66157        -1.87157
| 29>    C       -1.29296        -3.63619         0.38984
| 30>    C       -0.95694        -4.40201        -0.68878
| 31>    C       -1.06377        -5.80307        -0.67261
| 32>    C       -1.50421        -6.68482         0.29684
| 33>    C       -1.45931        -8.00023        -0.25917
| 34>    C       -0.88854        -7.86598        -1.58621
| 35>    O       -0.54886        -8.68729        -2.39916
| 36>    O       -0.70500        -6.51534        -1.78655
| 37>    C       -1.89876        -8.86889         0.71796
| 38>    O       -2.15135        -8.17001         1.86493
| 39>    C       -1.95127        -6.80883         1.66392
| 40>    O       -2.13032        -6.00044         2.53521
| 41>    C       -2.12310       -10.26456         0.74387
| 42>    S       -2.08301       -11.09992         2.26090
| 43>    C       -2.41041       -12.62208         1.48185
| 44>    C       -2.54863       -12.46654         0.10528
| 45>    C       -2.41638       -11.13252        -0.30498
| 46>    C       -2.66831       -10.66844        -1.70598
| 47>    C       -3.67098        -9.55166        -1.76845
| 48>    O       -3.63139        -8.60736        -2.50284
| 49>    C       -4.91547        -9.67434        -0.82764
| 50>    F       -5.13627       -10.90378        -0.34346
| 51>    F       -4.78803        -8.85871         0.22918
| 52>    F       -6.02712        -9.31363        -1.47428
| 53>    C       -3.20549       -11.80920        -2.59873
| 54>    C       -2.43602       -13.08733        -2.29553
| 55>    C       -2.76606       -13.56565        -0.88398
| 56>    C       -2.52367       -13.76731         2.31485
| 57>    C       -3.02480       -14.97650         1.96808
| 58>    C       -3.14504       -16.07685         2.84975
| 59>    S       -2.63208       -16.09205         4.52759
| 60>    C       -3.17280       -17.74464         4.78657
| 61>    C       -3.72175       -18.23260         3.61164
| 62>    C       -3.69474       -17.30163         2.54680
| 63>    C       -4.28992       -17.91428         1.35655
| 64>    O       -4.45129       -17.47795         0.24340
| 65>    N       -4.65371       -19.18491         1.78463
| 66>    C       -4.35642       -19.45581         3.11635
| 67>    O       -4.61104       -20.50377         3.66450
| 68>    C       -2.99597       -18.32947         6.06079
| 69>    C       -3.36242       -19.60267         6.35993
| 70>    C       -3.16761       -20.22241         7.61438
| 71>    S       -2.23393       -19.43017         8.85972
| 72>    C       -2.32977       -20.82548         9.88239
| 73>    C       -3.02113       -21.85590         9.26971
| 74>    C       -3.56263       -21.49248         8.01922
| 75>    C       -4.55668       -22.35435         7.28959
| 76>    C       -5.79874       -21.56813         6.84754
| 77>    C       -5.00290       -23.49209         8.21430
| 78>    C       -3.80574       -24.18146         8.84535
| 79>    C       -3.08811       -23.25179         9.82812
| 80>    C       -1.68142       -23.80576        10.08532
| 81>    C       -1.79172       -20.78670        11.21526
| 82>    C       -0.96034       -19.85171        11.66886
| 83>    H       -1.59832         1.08322         1.61834
| 84>    H        0.43429         3.18228        -1.96315
| 85>    H       -1.26733         3.12889        -2.45295
| 86>    H        1.09738         3.69037        -4.32728
| 87>    H       -0.04209         4.90235        -3.72235
| 88>    H       -0.59600         3.62848        -4.81928
| 89>    H        1.22000        -0.54436        -4.23764
| 90>    H       -0.44781        -0.54798        -4.79358
| 91>    H        0.98545        -2.87043        -3.73794
| 92>    H       -0.55452        -2.87107        -4.27469
| 93>    H       -1.62652        -4.11743         1.30063
| 94>    H       -0.61179        -3.93777        -1.59957
| 95>    H       -1.74090       -10.28230        -2.15256
| 96>    H       -3.08792       -11.51917        -3.64250
| 97>    H       -4.26693       -11.98028        -2.40766
| 98>    H       -1.36527       -12.89718        -2.38463
| 99>    H       -2.70873       -13.86047        -3.01418
|100>    H       -2.14036       -14.42214        -0.62639
|101>    H       -3.81063       -13.88839        -0.84666
|102>    H       -2.20903       -13.62235         3.34194
|103>    H       -3.40985       -15.17196         0.97994
|104>    H       -5.10287       -19.86069         1.18366
|105>    H       -2.54407       -17.70405         6.81965
|106>    H       -3.79752       -20.21335         5.58431
|107>    H       -4.07781       -22.78233         6.40067
|108>    H       -6.10499       -20.86993         7.62378
|109>    H       -6.61649       -22.26343         6.67060
|110>    H       -5.63267       -21.01880         5.92784
|111>    H       -5.58901       -24.21090         7.63965
|112>    H       -5.64458       -23.08443         8.99941
|113>    H       -3.11022       -24.47467         8.05533
|114>    H       -4.11816       -25.08731         9.36782
|115>    H       -3.64161       -23.23129        10.77547
|116>    H       -1.10065       -23.78140         9.16527
|117>    H       -1.75200       -24.83857        10.41957
|118>    H       -1.14525       -23.23570        10.83724
|119>    H       -2.13325       -21.57188        11.87683
|120>    H       -0.60554       -19.05828        11.03211
|121>    H       -0.60765       -19.85440        12.68474
|122> *
|123>
|124>                          ****END OF INPUT****

CARTESIAN COORDINATES (ANGSTROEM)
---------------------------------
  C     -1.433760    0.171760    1.080150
  S     -1.693760   -1.340330    1.819830
  C     -1.244250   -2.229370    0.394700
  C     -0.896180   -1.334130   -0.625090
  C     -1.013730    0.035520   -0.225920
  N     -0.738700    1.049390   -1.085390
  C     -0.360590    0.696970   -2.282870
  O     -0.083210    1.617700   -3.200850
  C     -0.239860    2.978220   -2.802470
  C      0.076070    3.858430   -3.997060
  C     -0.221060   -0.685350   -2.689100
  C      0.242370   -1.014670   -4.082040
  N      0.348130   -2.421550   -4.387540
  N     -0.487600   -1.661570   -1.871570
  C     -1.292960   -3.636190    0.389840
  C     -0.956940   -4.402010   -0.688780
  C     -1.063770   -5.803070   -0.672610
  C     -1.504210   -6.684820    0.296840
  C     -1.459310   -8.000230   -0.259170
  C     -0.888540   -7.865980   -1.586210
  O     -0.548860   -8.687290   -2.399160
  O     -0.705000   -6.515340   -1.786550
  C     -1.898760   -8.868890    0.717960
  O     -2.151350   -8.170010    1.864930
  C     -1.951270   -6.808830    1.663920
  O     -2.130320   -6.000440    2.535210
  C     -2.123100  -10.264560    0.743870
  S     -2.083010  -11.099920    2.260900
  C     -2.410410  -12.622080    1.481850
  C     -2.548630  -12.466540    0.105280
  C     -2.416380  -11.132520   -0.304980
  C     -2.668310  -10.668440   -1.705980
  C     -3.670980   -9.551660   -1.768450
  O     -3.631390   -8.607360   -2.502840
  C     -4.915470   -9.674340   -0.827640
  F     -5.136270  -10.903780   -0.343460
  F     -4.788030   -8.858710    0.229180
  F     -6.027120   -9.313630   -1.474280
  C     -3.205490  -11.809200   -2.598730
  C     -2.436020  -13.087330   -2.295530
  C     -2.766060  -13.565650   -0.883980
  C     -2.523670  -13.767310    2.314850
  C     -3.024800  -14.976500    1.968080
  C     -3.145040  -16.076850    2.849750
  S     -2.632080  -16.092050    4.527590
  C     -3.172800  -17.744640    4.786570
  C     -3.721750  -18.232600    3.611640
  C     -3.694740  -17.301630    2.546800
  C     -4.289920  -17.914280    1.356550
  O     -4.451290  -17.477950    0.243400
  N     -4.653710  -19.184910    1.784630
  C     -4.356420  -19.455810    3.116350
  O     -4.611040  -20.503770    3.664500
  C     -2.995970  -18.329470    6.060790
  C     -3.362420  -19.602670    6.359930
  C     -3.167610  -20.222410    7.614380
  S     -2.233930  -19.430170    8.859720
  C     -2.329770  -20.825480    9.882390
  C     -3.021130  -21.855900    9.269710
  C     -3.562630  -21.492480    8.019220
  C     -4.556680  -22.354350    7.289590
  C     -5.798740  -21.568130    6.847540
  C     -5.002900  -23.492090    8.214300
  C     -3.805740  -24.181460    8.845350
  C     -3.088110  -23.251790    9.828120
  C     -1.681420  -23.805760   10.085320
  C     -1.791720  -20.786700   11.215260
  C     -0.960340  -19.851710   11.668860
  H     -1.598320    1.083220    1.618340
  H      0.434290    3.182280   -1.963150
  H     -1.267330    3.128890   -2.452950
  H      1.097380    3.690370   -4.327280
  H     -0.042090    4.902350   -3.722350
  H     -0.596000    3.628480   -4.819280
  H      1.220000   -0.544360   -4.237640
  H     -0.447810   -0.547980   -4.793580
  H      0.985450   -2.870430   -3.737940
  H     -0.554520   -2.871070   -4.274690
  H     -1.626520   -4.117430    1.300630
  H     -0.611790   -3.937770   -1.599570
  H     -1.740900  -10.282300   -2.152560
  H     -3.087920  -11.519170   -3.642500
  H     -4.266930  -11.980280   -2.407660
  H     -1.365270  -12.897180   -2.384630
  H     -2.708730  -13.860470   -3.014180
  H     -2.140360  -14.422140   -0.626390
  H     -3.810630  -13.888390   -0.846660
  H     -2.209030  -13.622350    3.341940
  H     -3.409850  -15.171960    0.979940
  H     -5.102870  -19.860690    1.183660
  H     -2.544070  -17.704050    6.819650
  H     -3.797520  -20.213350    5.584310
  H     -4.077810  -22.782330    6.400670
  H     -6.104990  -20.869930    7.623780
  H     -6.616490  -22.263430    6.670600
  H     -5.632670  -21.018800    5.927840
  H     -5.589010  -24.210900    7.639650
  H     -5.644580  -23.084430    8.999410
  H     -3.110220  -24.474670    8.055330
  H     -4.118160  -25.087310    9.367820
  H     -3.641610  -23.231290   10.775470
  H     -1.100650  -23.781400    9.165270
  H     -1.752000  -24.838570   10.419570
  H     -1.145250  -23.235700   10.837240
  H     -2.133250  -21.571880   11.876830
  H     -0.605540  -19.058280   11.032110
  H     -0.607650  -19.854400   12.684740

 Total Charge           Charge          ....    0
 Multiplicity           Mult            ....    1
 Number of Electrons    NEL             ....  516
 Basis Dimension        Dim             .... 1163

ORBITAL ENERGIES
----------------

  NO   OCC          E(Eh)            E(eV)
   0   2.0000     -88.976559     -2421.1753
   1   2.0000     -88.968525     -2420.9566
   2   2.0000     -88.961361     -2420.7617
   3   2.0000     -88.944852     -2420.3125
   4   2.0000     -24.805773      -674.9994
   5   2.0000     -24.801135      -674.8732
   6   2.0000     -24.796402      -674.7444
   7   2.0000     -19.280121      -524.6388
   8   2.0000     -19.280097      -524.6381
   9   2.0000     -19.265680      -524.2458
  10   2.0000     -19.235587      -523.4269
  11   2.0000     -19.209963      -522.7297
  12   2.0000     -19.207650      -522.6667
  13   2.0000     -19.207193      -522.6543
  14   2.0000     -19.204832      -522.5900
  15   2.0000     -14.451511      -393.2456
  16   2.0000     -14.428562      -392.6211
  17   2.0000     -14.418704      -392.3529
  18   2.0000     -14.377566      -391.2335
  19   2.0000     -10.512027      -286.0468
  20   2.0000     -10.408643      -283.2336
  21   2.0000     -10.404404      -283.1182
  22   2.0000     -10.395651      -282.8800
  23   2.0000     -10.392510      -282.7946
  24   2.0000     -10.382327      -282.5175
  25   2.0000     -10.379743      -282.4472
  26   2.0000     -10.368526      -282.1419
  27   2.0000     -10.363150      -281.9957
  28   2.0000     -10.329062      -281.0681
  29   2.0000     -10.328518      -281.0533
  30   2.0000     -10.326664      -281.0028
  31   2.0000     -10.321083      -280.8509
  32   2.0000     -10.315767      -280.7063
  33   2.0000     -10.314481      -280.6713
  34   2.0000     -10.311508      -280.5904
  35   2.0000     -10.309678      -280.5406
  36   2.0000     -10.309521      -280.5363
  37   2.0000     -10.304054      -280.3876
  38   2.0000     -10.299704      -280.2692
  39   2.0000     -10.295302      -280.1494
  40   2.0000     -10.295076      -280.1432
  41   2.0000     -10.294734      -280.1340
  42   2.0000     -10.294533      -280.1285
  43   2.0000     -10.290571      -280.0207
  44   2.0000     -10.289934      -280.0033
  45   2.0000     -10.286331      -279.9053
  46   2.0000     -10.286138      -279.9000
  47   2.0000     -10.284795      -279.8635
  48   2.0000     -10.284026      -279.8426
  49   2.0000     -10.283467      -279.8274
  50   2.0000     -10.282340      -279.7967
  51   2.0000     -10.280566      -279.7484
  52   2.0000     -10.280006      -279.7332
  53   2.0000     -10.278967      -279.7049
  54   2.0000     -10.276938      -279.6497
  55   2.0000     -10.275137      -279.6007
  56   2.0000     -10.274515      -279.5838
  57   2.0000     -10.273498      -279.5561
  58   2.0000     -10.272058      -279.5169
  59   2.0000     -10.269569      -279.4492
  60   2.0000     -10.268383      -279.4169
  61   2.0000     -10.268263      -279.4136
  62   2.0000     -10.267190      -279.3845
  63   2.0000     -10.265890      -279.3491
  64   2.0000     -10.256284      -279.0877
  65   2.0000     -10.255266      -279.0600
  66   2.0000     -10.252237      -278.9776
  67   2.0000     -10.243053      -278.7276
  68   2.0000      -8.071738      -219.6432
  69   2.0000      -8.063830      -219.4280
  70   2.0000      -8.056816      -219.2371
  71   2.0000      -8.040536      -218.7941
  72   2.0000      -6.040617      -164.3735
  73   2.0000      -6.036426      -164.2595
  74   2.0000      -6.034815      -164.2157
  75   2.0000      -6.033178      -164.1711
  76   2.0000      -6.029017      -164.0579
  77   2.0000      -6.026022      -163.9764
  78   2.0000      -6.025829      -163.9712
  79   2.0000      -6.021968      -163.8661
  80   2.0000      -6.018940      -163.7837
  81   2.0000      -6.009640      -163.5306
  82   2.0000      -6.005817      -163.4266
  83   2.0000      -6.002706      -163.3419
  84   2.0000      -1.391408       -37.8621
  85   2.0000      -1.295486       -35.2520
  86   2.0000      -1.291314       -35.1384
  87   2.0000      -1.214500       -33.0482
  88   2.0000      -1.206745       -32.8372
  89   2.0000      -1.183278       -32.1986
  90   2.0000      -1.154232       -31.4083
  91   2.0000      -1.152757       -31.3681
  92   2.0000      -1.131031       -30.7769
  93   2.0000      -1.115632       -30.3579
  94   2.0000      -1.113982       -30.3130
  95   2.0000      -1.077471       -29.3195
  96   2.0000      -1.041314       -28.3356
  97   2.0000      -1.008137       -27.4328
  98   2.0000      -1.000433       -27.2232
  99   2.0000      -0.991912       -26.9913
 100   2.0000      -0.985228       -26.8094
 101   2.0000      -0.984422       -26.7875
 102   2.0000      -0.956101       -26.0168
 103   2.0000      -0.932815       -25.3832
 104   2.0000      -0.927756       -25.2455
 105   2.0000      -0.921193       -25.0669
 106   2.0000      -0.915814       -24.9206
 107   2.0000      -0.908977       -24.7345
 108   2.0000      -0.903959       -24.5980
 109   2.0000      -0.887590       -24.1526
 110   2.0000      -0.878841       -23.9145
 111   2.0000      -0.874622       -23.7997
 112   2.0000      -0.861495       -23.4425
 113   2.0000      -0.858453       -23.3597
 114   2.0000      -0.854435       -23.2503
 115   2.0000      -0.844805       -22.9883
 116   2.0000      -0.836825       -22.7712
 117   2.0000      -0.836305       -22.7570
 118   2.0000      -0.824842       -22.4451
 119   2.0000      -0.814548       -22.1650
 120   2.0000      -0.807076       -21.9617
 121   2.0000      -0.793680       -21.5971
 122   2.0000      -0.789060       -21.4714
 123   2.0000      -0.784772       -21.3547
 124   2.0000      -0.779570       -21.2132
 125   2.0000      -0.770550       -20.9677
 126   2.0000      -0.746751       -20.3201
 127   2.0000      -0.742598       -20.2071
 128   2.0000      -0.741974       -20.1901
 129   2.0000      -0.738837       -20.1048
 130   2.0000      -0.737108       -20.0577
 131   2.0000      -0.723729       -19.6937
 132   2.0000      -0.720726       -19.6119
 133   2.0000      -0.716563       -19.4987
 134   2.0000      -0.709823       -19.3153
 135   2.0000      -0.704449       -19.1690
 136   2.0000      -0.701011       -19.0755
 137   2.0000      -0.692575       -18.8459
 138   2.0000      -0.684759       -18.6332
 139   2.0000      -0.682308       -18.5666
 140   2.0000      -0.681164       -18.5354
 141   2.0000      -0.674457       -18.3529
 142   2.0000      -0.673890       -18.3375
 143   2.0000      -0.671814       -18.2810
 144   2.0000      -0.659541       -17.9470
 145   2.0000      -0.655762       -17.8442
 146   2.0000      -0.651321       -17.7233
 147   2.0000      -0.633641       -17.2422
 148   2.0000      -0.629955       -17.1419
 149   2.0000      -0.623180       -16.9576
 150   2.0000      -0.622357       -16.9352
 151   2.0000      -0.613902       -16.7051
 152   2.0000      -0.608412       -16.5557
 153   2.0000      -0.600575       -16.3425
 154   2.0000      -0.597419       -16.2566
 155   2.0000      -0.593600       -16.1527
 156   2.0000      -0.591305       -16.0902
 157   2.0000      -0.589779       -16.0487
 158   2.0000      -0.584053       -15.8929
 159   2.0000      -0.583394       -15.8750
 160   2.0000      -0.577404       -15.7120
 161   2.0000      -0.572635       -15.5822
 162   2.0000      -0.571864       -15.5612
 163   2.0000      -0.562249       -15.2996
 164   2.0000      -0.559815       -15.2333
 165   2.0000      -0.559085       -15.2135
 166   2.0000      -0.557492       -15.1701
 167   2.0000      -0.555249       -15.1091
 168   2.0000      -0.553493       -15.0613
 169   2.0000      -0.548373       -14.9220
 170   2.0000      -0.545996       -14.8573
 171   2.0000      -0.543450       -14.7880
 172   2.0000      -0.538944       -14.6654
 173   2.0000      -0.537001       -14.6126
 174   2.0000      -0.534963       -14.5571
 175   2.0000      -0.531875       -14.4731
 176   2.0000      -0.530630       -14.4392
 177   2.0000      -0.525272       -14.2934
 178   2.0000      -0.522731       -14.2242
 179   2.0000      -0.522487       -14.2176
 180   2.0000      -0.520248       -14.1567
 181   2.0000      -0.518146       -14.0995
 182   2.0000      -0.515112       -14.0169
 183   2.0000      -0.510497       -13.8913
 184   2.0000      -0.509118       -13.8538
 185   2.0000      -0.507040       -13.7973
 186   2.0000      -0.504888       -13.7387
 187   2.0000      -0.500711       -13.6250
 188   2.0000      -0.499213       -13.5843
 189   2.0000      -0.497697       -13.5430
 190   2.0000      -0.496552       -13.5119
 191   2.0000      -0.493268       -13.4225
 192   2.0000      -0.492313       -13.3965
 193   2.0000      -0.489532       -13.3208
 194   2.0000      -0.488839       -13.3020
 195   2.0000      -0.486537       -13.2393
 196   2.0000      -0.486279       -13.2323
 197   2.0000      -0.485388       -13.2081
 198   2.0000      -0.484069       -13.1722
 199   2.0000      -0.482840       -13.1387
 200   2.0000      -0.480389       -13.0721
 201   2.0000      -0.479839       -13.0571
 202   2.0000      -0.477654       -12.9976
 203   2.0000      -0.474180       -12.9031
 204   2.0000      -0.473585       -12.8869
 205   2.0000      -0.472607       -12.8603
 206   2.0000      -0.468405       -12.7460
 207   2.0000      -0.464036       -12.6271
 208   2.0000      -0.463180       -12.6038
 209   2.0000      -0.462127       -12.5751
 210   2.0000      -0.460783       -12.5385
 211   2.0000      -0.458328       -12.4717
 212   2.0000      -0.456041       -12.4095
 213   2.0000      -0.449436       -12.2298
 214   2.0000      -0.444035       -12.0828
 215   2.0000      -0.440528       -11.9874
 216   2.0000      -0.437477       -11.9044
 217   2.0000      -0.435748       -11.8573
 218   2.0000      -0.434735       -11.8297
 219   2.0000      -0.433624       -11.7995
 220   2.0000      -0.432524       -11.7696
 221   2.0000      -0.429061       -11.6753
 222   2.0000      -0.428690       -11.6652
 223   2.0000      -0.426822       -11.6144
 224   2.0000      -0.421174       -11.4607
 225   2.0000      -0.420740       -11.4489
 226   2.0000      -0.418201       -11.3798
 227   2.0000      -0.415321       -11.3015
 228   2.0000      -0.410582       -11.1725
 229   2.0000      -0.406270       -11.0552
 230   2.0000      -0.403040       -10.9673
 231   2.0000      -0.402745       -10.9593
 232   2.0000      -0.400348       -10.8940
 233   2.0000      -0.392861       -10.6903
 234   2.0000      -0.392318       -10.6755
 235   2.0000      -0.387069       -10.5327
 236   2.0000      -0.382256       -10.4017
 237   2.0000      -0.380231       -10.3466
 238   2.0000      -0.373374       -10.1600
 239   2.0000      -0.366974        -9.9859
 240   2.0000      -0.365522        -9.9464
 241   2.0000      -0.361757        -9.8439
 242   2.0000      -0.360518        -9.8102
 243   2.0000      -0.355754        -9.6805
 244   2.0000      -0.348622        -9.4865
 245   2.0000      -0.345801        -9.4097
 246   2.0000      -0.341648        -9.2967
 247   2.0000      -0.334476        -9.1015
 248   2.0000      -0.332494        -9.0476
 249   2.0000      -0.324093        -8.8190
 250   2.0000      -0.313345        -8.5266
 251   2.0000      -0.309341        -8.4176
 252   2.0000      -0.306480        -8.3398
 253   2.0000      -0.302983        -8.2446
 254   2.0000      -0.299744        -8.1564
 255   2.0000      -0.279443        -7.6040
 256   2.0000      -0.247491        -6.7346
 257   2.0000      -0.230895        -6.2830
 258   0.0000      -0.090473        -2.4619
 259   0.0000      -0.065495        -1.7822
 260   0.0000      -0.051980        -1.4145
 261   0.0000      -0.032835        -0.8935
 262   0.0000      -0.006193        -0.1685

MULLIKEN ATOMIC CHARGES
-----------------------
   0 C :   -0.154735
   1 S :    0.195448
   2 C :   -0.182264
   3 C :    0.044702
   4 C :    0.076164
   5 N :   -0.051037
   6 C :    0.113920
   7 O :   -0.287175
   8 C :    0.166799
   9 C :    0.013300
  10 C :   -0.184231
  11 C :    0.168213
  12 N :   -0.195728
  13 N :   -0.003859
  14 C :    0.055052
  15 C :   -0.024860
  16 C :    0.165809
  17 C :   -0.106989
  18 C :   -0.073761
  19 C :    0.256757
  20 O :   -0.155365
  21 O :   -0.228820
  22 C :    0.089729
  23 O :   -0.244218
  24 C :    0.242350
  25 O :   -0.152458
  26 C :   -0.175972
  27 S :    0.186395
  28 C :   -0.105752
  29 C :   -0.103606
  30 C :    0.007166
  31 C :    0.006877
  32 C :   -0.062295
  33 O :   -0.128328
  34 C :    0.518941
  35 F :   -0.154843
  36 F :   -0.154998
  37 F :   -0.147571
  38 C :    0.038161
  39 C :    0.068446
  40 C :    0.093476
  41 C :    0.046146
  42 C :   -0.021982
  43 C :   -0.115126
  44 S :    0.139248
  45 C :   -0.118068
  46 C :   -0.022104
  47 C :   -0.020258
  48 C :    0.167028
  49 O :   -0.159388
  50 N :   -0.149563
  51 C :    0.184059
  52 O :   -0.171684
  53 C :    0.022397
  54 C :   -0.006788
  55 C :   -0.109353
  56 S :    0.095770
  57 C :   -0.121626
  58 C :   -0.006965
  59 C :   -0.007759
  60 C :   -0.052259
  61 C :    0.072063
  62 C :    0.054833
  63 C :    0.070470
  64 C :   -0.054930
  65 C :    0.076036
  66 C :   -0.010530
  67 C :   -0.020366
  68 H :    0.019030
  69 H :    0.020580
  70 H :    0.021035
  71 H :    0.026459
  72 H :    0.021544
  73 H :    0.027365
  74 H :    0.029246
  75 H :    0.030792
  76 H :    0.101332
  77 H :    0.102748
  78 H :   -0.001203
  79 H :   -0.018813
  80 H :    0.061885
  81 H :    0.023948
  82 H :    0.009293
  83 H :    0.014035
  84 H :    0.011852
  85 H :    0.028408
  86 H :    0.039717
  87 H :   -0.011578
  88 H :    0.008020
  89 H :    0.135101
  90 H :   -0.019042
  91 H :    0.025633
  92 H :    0.012781
  93 H :    0.010436
  94 H :    0.000722
  95 H :    0.018238
  96 H :   -0.000402
  97 H :   -0.005203
  98 H :   -0.007950
  99 H :   -0.004694
 100 H :    0.001361
 101 H :    0.011511
 102 H :    0.005179
 103 H :    0.005487
 104 H :    0.006867
 105 H :    0.024782
 106 H :    0.025356
Sum of atomic charges:   -0.0000000

LOEWDIN ATOMIC CHARGES
----------------------
   0 C :   -0.191151
   1 S :    0.512357
   2 C :   -0.194905
   3 C :   -0.045622
   4 C :   -0.050962
   5 N :   -0.095019
   6 C :    0.049604
   7 O :   -0.078623
   8 C :    0.089196
   9 C :   -0.062073
  10 C :   -0.014833
  11 C :    0.007632
  12 N :   -0.095332
  13 N :   -0.047289
  14 C :    0.021074
  15 C :   -0.054740
  16 C :    0.111243
  17 C :   -0.138357
  18 C :   -0.131616
  19 C :    0.108181
  20 O :   -0.141232
  21 O :   -0.034778
  22 C :    0.068529
  23 O :   -0.047556
  24 C :    0.101152
  25 O :   -0.152570
  26 C :   -0.205461
  27 S :    0.474347
  28 C :   -0.159057
  29 C :   -0.046011
  30 C :   -0.035928
  31 C :   -0.059766
  32 C :    0.048753
  33 O :   -0.082801
  34 C :    0.136115
  35 F :   -0.049897
  36 F :   -0.049424
  37 F :   -0.045973
  38 C :   -0.010815
  39 C :   -0.021483
  40 C :   -0.026800
  41 C :   -0.037789
  42 C :   -0.032336
  43 C :   -0.139106
  44 S :    0.440885
  45 C :   -0.110240
  46 C :   -0.118831
  47 C :   -0.093232
  48 C :    0.085066
  49 O :   -0.170487
  50 N :   -0.000512
  51 C :    0.094258
  52 O :   -0.172628
  53 C :   -0.081545
  54 C :    0.010663
  55 C :   -0.181276
  56 S :    0.430273
  57 C :   -0.164341
  58 C :   -0.053172
  59 C :   -0.028430
  60 C :   -0.027761
  61 C :   -0.045215
  62 C :   -0.024622
  63 C :   -0.024633
  64 C :   -0.029312
  65 C :   -0.042530
  66 C :   -0.040947
  67 C :   -0.043121
  68 H :    0.029898
  69 H :    0.019596
  70 H :    0.019467
  71 H :    0.029778
  72 H :    0.033624
  73 H :    0.030015
  74 H :    0.037187
  75 H :    0.037719
  76 H :    0.055115
  77 H :    0.056217
  78 H :    0.036619
  79 H :    0.032717
  80 H :    0.051934
  81 H :    0.034339
  82 H :    0.020382
  83 H :    0.027958
  84 H :    0.030616
  85 H :    0.037689
  86 H :    0.038447
  87 H :    0.024029
  88 H :    0.041766
  89 H :    0.093913
  90 H :    0.020104
  91 H :    0.036810
  92 H :    0.033337
  93 H :    0.023983
  94 H :    0.023180
  95 H :    0.023405
  96 H :    0.023390
  97 H :    0.021048
  98 H :    0.021101
  99 H :    0.023183
 100 H :    0.026424
 101 H :    0.025499
 102 H :    0.022699
 103 H :    0.020547
 104 H :    0.033607
 105 H :    0.018600
 106 H :    0.026869

  Mayer bond orders larger than 0.100000
B(  0-C ,  1-S ) :   1.2058 B(  0-C ,  2-C ) :   0.1110 B(  0-C ,  4-C ) :   1.3940
B(  0-C , 68-H ) :   0.9771 B(  1-S ,  2-C ) :   1.1775 B(  2-C ,  3-C ) :   1.3048
B(  2-C , 14-C ) :   1.1974 B(  3-C ,  4-C ) :   1.2281 B(  3-C , 13-N ) :   1.3425
B(  4-C ,  5-N ) :   1.3336 B(  5-N ,  6-C ) :   1.6384 B(  6-C ,  7-O ) :   1.2726
B(  6-C , 10-C ) :   1.0782 B(  7-O ,  8-C ) :   0.8977 B(  8-C ,  9-C ) :   1.0946
B(  8-C , 69-H ) :   0.9577 B(  8-C , 70-H ) :   0.9567 B(  9-C , 71-H ) :   0.9686
B(  9-C , 72-H ) :   0.9612 B(  9-C , 73-H ) :   0.9689 B( 10-C , 11-C ) :   0.9583
B( 10-C , 13-N ) :   1.7819 B( 11-C , 12-N ) :   1.1617 B( 11-C , 74-H ) :   0.9318
B( 11-C , 75-H ) :   0.9312 B( 12-N , 76-H ) :   0.9790 B( 12-N , 77-H ) :   0.9790
B( 14-C , 15-C ) :   1.5707 B( 14-C , 78-H ) :   0.9353 B( 15-C , 16-C ) :   1.2013
B( 15-C , 79-H ) :   0.9578 B( 16-C , 17-C ) :   1.3604 B( 16-C , 21-O ) :   1.1234
B( 17-C , 18-C ) :   1.1453 B( 17-C , 24-C ) :   0.9880 B( 18-C , 19-C ) :   0.9571
B( 18-C , 22-C ) :   1.4340 B( 19-C , 20-O ) :   2.1209 B( 19-C , 21-O ) :   1.0510
B( 20-O , 80-H ) :   0.1079 B( 22-C , 23-O ) :   1.1670 B( 22-C , 26-C ) :   1.1291
B( 23-O , 24-C ) :   1.0200 B( 24-C , 25-O ) :   2.1507 B( 26-C , 27-S ) :   1.1275
B( 26-C , 28-C ) :   0.1160 B( 26-C , 30-C ) :   1.4875 B( 27-S , 28-C ) :   1.1157
B( 28-C , 29-C ) :   1.5002 B( 28-C , 41-C ) :   1.1296 B( 29-C , 30-C ) :   1.3530
B( 29-C , 40-C ) :   1.0539 B( 30-C , 31-C ) :   0.9702 B( 31-C , 32-C ) :   0.9408
B( 31-C , 38-C ) :   1.0495 B( 31-C , 80-H ) :   0.8344 B( 32-C , 33-O ) :   2.2039
B( 32-C , 34-C ) :   0.8735 B( 34-C , 35-F ) :   1.1252 B( 34-C , 36-F ) :   1.1387
B( 34-C , 37-F ) :   1.1788 B( 38-C , 39-C ) :   1.0804 B( 38-C , 81-H ) :   0.9327
B( 38-C , 82-H ) :   0.9352 B( 39-C , 40-C ) :   1.0884 B( 39-C , 83-H ) :   0.9385
B( 39-C , 84-H ) :   0.9307 B( 40-C , 85-H ) :   0.9118 B( 40-C , 86-H ) :   0.8979
B( 41-C , 42-C ) :   1.6309 B( 41-C , 87-H ) :   0.9514 B( 42-C , 43-C ) :   1.1817
B( 42-C , 88-H ) :   0.9594 B( 43-C , 44-S ) :   1.0848 B( 43-C , 47-C ) :   1.5137
B( 44-S , 45-C ) :   1.1271 B( 45-C , 46-C ) :   1.4766 B( 45-C , 53-C ) :   1.1670
B( 46-C , 47-C ) :   1.2416 B( 46-C , 51-C ) :   0.9164 B( 47-C , 48-C ) :   0.9000
B( 48-C , 49-O ) :   2.2116 B( 48-C , 50-N ) :   1.0893 B( 50-N , 51-C ) :   1.1032
B( 50-N , 89-H ) :   0.9156 B( 51-C , 52-O ) :   2.1055 B( 53-C , 54-C ) :   1.6216
B( 53-C , 90-H ) :   0.9557 B( 54-C , 55-C ) :   1.1802 B( 54-C , 91-H ) :   0.9506
B( 55-C , 56-S ) :   1.0952 B( 55-C , 59-C ) :   1.4680 B( 56-S , 57-C ) :   1.1256
B( 57-C , 58-C ) :   1.4942 B( 57-C , 66-C ) :   1.1176 B( 58-C , 59-C ) :   1.3435
B( 58-C , 64-C ) :   1.0024 B( 59-C , 60-C ) :   0.9986 B( 60-C , 61-C ) :   1.0881
B( 60-C , 62-C ) :   1.0737 B( 60-C , 92-H ) :   0.8812 B( 61-C , 93-H ) :   0.9603
B( 61-C , 94-H ) :   0.9575 B( 61-C , 95-H ) :   0.9564 B( 62-C , 63-C ) :   1.0886
B( 62-C , 96-H ) :   0.9296 B( 62-C , 97-H ) :   0.9343 B( 63-C , 64-C ) :   1.0713
B( 63-C , 98-H ) :   0.9295 B( 63-C , 99-H ) :   0.9286 B( 64-C , 65-C ) :   1.0875
B( 64-C ,100-H ) :   0.8803 B( 65-C ,101-H ) :   0.9592 B( 65-C ,102-H ) :   0.9616
B( 65-C ,103-H ) :   0.9608 B( 66-C , 67-C ) :   1.9232 B( 66-C ,104-H ) :   0.9536
B( 67-C ,105-H ) :   0.9563 B( 67-C ,106-H ) :   0.9489

-----------------------------------------------------------------------------
         ABSORPTION SPECTRUM VIA TRANSITION ELECTRIC DIPOLE MOMENTS
-----------------------------------------------------------------------------
State   Energy  Wavelength   fosc         T2         TX        TY        TZ
        (cm-1)    (nm)                  (au**2)     (au)      (au)      (au)
-----------------------------------------------------------------------------
   0   16595.0    602.6   2.166319961  42.97560  -0.89465  -6.09085   2.25317
   1   21464.9    465.9   0.445386412   6.83099   0.28498  -0.79180   2.47444
   2   23361.5    428.1   0.160093200   2.25604  -0.18287   0.85231  -1.22318
   3   24571.4    407.0   0.204260593   2.73672  -0.82067  -0.36845  -1.38833
   4   27468.8    364.0   0.024867279   0.29803   0.24281  -0.48644  -0.04951
   5   27707.2    360.9   0.012783754   0.15189   0.37319  -0.05993   0.09505
   6   28926.6    345.7   0.001452391   0.01653   0.12651   0.00845   0.02131
   7   29293.6    341.4   0.112666260   1.26618   0.21329   0.48493  -0.99274
   8   30312.8    329.9   0.098613908   1.07100   0.11271   0.76484   0.68797
   9   30747.2    325.2   0.000247006   0.00264   0.00819   0.03176   0.03961
  10   31268.2    319.8   0.008018786   0.08443   0.09202  -0.09733   0.25785
  11   31333.3    319.1   0.131514616   1.38180   0.22875  -0.95858  -0.64077
  12   31671.2    315.7   0.024683871   0.25658  -0.18326  -0.18497  -0.43449
  13   31879.7    313.7   0.137084642   1.41563  -0.35640  -0.71558   0.88123
  14   33380.6    299.6   0.067620138   0.66690   0.00236   0.69602  -0.42713
  15   34024.1    293.9   0.024546557   0.23751  -0.01078  -0.27274   0.40374
  16   34142.8    292.9   0.034826925   0.33581  -0.27652  -0.50861   0.02578
  17   34614.5    288.9   0.017388229   0.16538   0.03533   0.19012   0.35775
  18   35448.0    282.1   0.035785452   0.33235   0.27053   0.50673  -0.04883
  19   36666.8    272.7   0.023890940   0.21450  -0.33143  -0.16039  -0.28096
  20   36853.1    271.3   0.048471107   0.43300   0.29200   0.49891   0.31436
  21   37286.6    268.2   0.035773154   0.31585   0.15182   0.28345  -0.46093
  22   37711.8    265.2   0.008610380   0.07517  -0.09300  -0.23290   0.11079
  23   38410.7    260.3   0.066708450   0.57175  -0.13276  -0.64115   0.37821
  24   38591.2    259.1   0.001777078   0.01516  -0.03681   0.09086  -0.07449
  25   39048.3    256.1   0.003955697   0.03335   0.03035   0.05434   0.17169
  26   39334.1    254.2   0.009876694   0.08266   0.12378   0.15593  -0.20743
  27   39648.6    252.2   0.010934688   0.09079  -0.03147  -0.28785   0.08333
  28   39698.1    251.9   0.016425222   0.13621   0.12133   0.25775   0.23464
  29   40194.4    248.8   0.025077943   0.20540  -0.09034   0.05259  -0.44099

FINAL SINGLE POINT ENERGY     -4599.686545563775

DIPOLE MOMENT
-------------
                                X             Y             Z
Electronic contribution:    -12.34279      67.25607     -33.24587
Nuclear contribution   :     12.88133     -66.97624      34.39123
                        -----------------------------------------
Total Dipole Moment    :      0.53854       0.27983       1.14536
                        -----------------------------------------
Magnitude (a.u.)       :      1.29622
Magnitude (Debye)      :      3.29473

Rotational constants in cm-1:     0.002472     0.000226     0.000213
Rotational constants in MHz :    74.114888     6.781062     6.385332

                             ****ORCA TERMINATED NORMALLY****
TOTAL RUN TIME: 0 days 0 hours 8 minutes 43 seconds 343 msec
