                         Program Version 4.2.0 -  RELEASE  -
|  1> # ORCA input file
|  2> # SCF done       -179.396738790941          0.000634585843
|  3> ! CAM-B3LYP def2-SVP def2/J RIJCOSX Grid4 TightSCF
|  4> %maxcore 5000
|  5> %tddft
|  6>     Mode sTDDFT
|  7>     Ethresh 5.0
|  8>     maxcore 5000
|  9> end
| 10>
| 11> %pal
| 12>   nprocs 6
| 13>   end
| 14> * xyz 0 1
| 15>    C       -3.81640        -1.28373         7.04287
| 16>    S       -4.38486        -1.55795         5.46527
| 17>    C       -3.65256        -3.13340         5.37514
| 18>    C       -2.93984        -3.40360         6.55461
| 19>    C       -3.05633        -2.33587         7.51330
| 20>    C       -2.41519        -2.42948         8.76700
| 21>    C       -1.65226        -3.53194         9.05177
| 22>    C       -1.00260        -3.64800        10.30336
| 23>    N       -0.48660        -3.72869        11.32283
| 24>    C       -1.48269        -4.56650         8.07666
| 25>    C       -0.64699        -5.66737         8.37186
| 26>    N        0.02418        -6.57103         8.58702
| 27>    C       -2.11115        -4.49782         6.85474
| 28>    C       -3.85878        -3.89512         4.20140
| 29>    C       -3.73803        -5.24748         4.09207
| 30>    C       -3.89669        -6.00457         2.91106
| 31>    S       -4.29394        -7.68521         3.05942
| 32>    C       -4.43277        -7.92184         1.34223
| 33>    C       -4.08240        -6.73513         0.66182
| 34>    C       -3.78431        -5.65011         1.55192
| 35>    C       -3.33705        -4.42626         1.02989
| 36>    C       -3.22907        -4.25620        -0.33201
| 37>    C       -2.78699        -3.01860        -0.85362
| 38>    N       -2.43401        -2.00417        -1.25229
| 39>    C       -3.52285        -5.33297        -1.21628
| 40>    C       -3.36638        -5.16073        -2.61070
| 41>    N       -3.25043        -5.04723        -3.74498
| 42>    C       -3.91944        -6.55533        -0.71964
| 43>    C       -4.84776        -9.18694         0.89212
| 44>    C       -5.33317        -9.48963        -0.35131
| 45>    C       -5.69078       -10.75423        -0.84627
| 46>    S       -6.60591       -10.78223        -2.32614
| 47>    C       -6.73144       -12.51665        -2.36377
| 48>    C       -6.07992       -13.06133        -1.23132
| 49>    C       -5.46391       -12.07200        -0.39688
| 50>    C       -4.68945       -12.48409         0.69808
| 51>    C       -4.60577       -13.81958         1.02453
| 52>    C       -3.82330       -14.22723         2.12918
| 53>    N       -3.18496       -14.53534         3.02931
| 54>    C       -5.31324       -14.79036         0.26134
| 55>    C       -5.27253       -16.15248         0.63660
| 56>    N       -5.25389       -17.26289         0.91898
| 57>    C       -6.02424       -14.41071        -0.85545
| 58>    C       -7.31910       -13.18295        -3.45141
| 59>    S       -6.94856       -14.85355        -3.78937
| 60>    C       -7.85791       -14.87858        -5.26603
| 61>    C       -8.46062       -13.62396        -5.48445
| 62>    C       -8.16269       -12.66751        -4.46271
| 63>    C       -8.74313       -11.39262        -4.53038
| 64>    C       -9.55178       -11.05870        -5.59428
| 65>    C      -10.13790        -9.77298        -5.64971
| 66>    N      -10.60388        -8.72666        -5.67105
| 67>    C       -9.80948       -11.99829        -6.63362
| 68>    C      -10.62608       -11.62550        -7.72652
| 69>    N      -11.28050       -11.33736        -8.62133
| 70>    C       -9.27690       -13.26574        -6.56718
| 71>    C       -7.93509       -16.02613        -6.07118
| 72>    C       -7.24717       -17.17645        -5.80685
| 73>    C       -7.24501       -18.37707        -6.54082
| 74>    S       -5.94728       -19.49262        -6.23232
| 75>    C       -6.43623       -20.58165        -7.47484
| 76>    C       -7.62583       -20.14425        -8.06995
| 77>    C       -8.09319       -18.89247        -7.54019
| 78>    C       -9.31940       -18.37443        -7.98476
| 79>    C      -10.04426       -19.04287        -8.94512
| 80>    C      -11.27932       -18.51558        -9.38645
| 81>    N      -12.27611       -18.06732        -9.73075
| 82>    C       -9.57748       -20.28399        -9.47289
| 83>    C      -10.35376       -20.96917       -10.43652
| 84>    N      -10.96290       -21.53818       -11.22232
| 85>    C       -8.39820       -20.82932        -9.02646
| 86>    C       -5.61174       -21.72637        -7.74418
| 87>    C       -5.49076       -22.35650        -8.91263
| 88>    H       -4.05838        -0.37356         7.55432
| 89>    H       -2.52142        -1.63182         9.48644
| 90>    H       -1.93259        -5.27385         6.12786
| 91>    H       -4.22558        -3.33159         3.35458
| 92>    H       -3.58966        -5.83224         4.98947
| 93>    H       -3.03614        -3.62523         1.68511
| 94>    H       -4.06019        -7.37373        -1.40608
| 95>    H       -4.83971        -9.95493         1.65216
| 96>    H       -5.53955        -8.67600        -1.03294
| 97>    H       -4.13217       -11.77039         1.28128
| 98>    H       -6.54793       -15.16575        -1.41864
| 99>    H       -8.58419       -10.66597        -3.75027
|100>    H       -9.49539       -13.97511        -7.35046
|101>    H       -8.54303       -15.94483        -6.95821
|102>    H       -6.57213       -17.16470        -4.95801
|103>    H       -9.72805       -17.47426        -7.55571
|104>    H       -8.08869       -21.79812        -9.38361
|105>    H       -5.00397       -22.04640        -6.90658
|106>    H       -6.00198       -22.03819        -9.80391
|107>    H       -4.83527       -23.20313        -9.01459
|108> *
|109>
|110>                          ****END OF INPUT****

CARTESIAN COORDINATES (ANGSTROEM)
---------------------------------
  C     -3.816400   -1.283730    7.042870
  S     -4.384860   -1.557950    5.465270
  C     -3.652560   -3.133400    5.375140
  C     -2.939840   -3.403600    6.554610
  C     -3.056330   -2.335870    7.513300
  C     -2.415190   -2.429480    8.767000
  C     -1.652260   -3.531940    9.051770
  C     -1.002600   -3.648000   10.303360
  N     -0.486600   -3.728690   11.322830
  C     -1.482690   -4.566500    8.076660
  C     -0.646990   -5.667370    8.371860
  N      0.024180   -6.571030    8.587020
  C     -2.111150   -4.497820    6.854740
  C     -3.858780   -3.895120    4.201400
  C     -3.738030   -5.247480    4.092070
  C     -3.896690   -6.004570    2.911060
  S     -4.293940   -7.685210    3.059420
  C     -4.432770   -7.921840    1.342230
  C     -4.082400   -6.735130    0.661820
  C     -3.784310   -5.650110    1.551920
  C     -3.337050   -4.426260    1.029890
  C     -3.229070   -4.256200   -0.332010
  C     -2.786990   -3.018600   -0.853620
  N     -2.434010   -2.004170   -1.252290
  C     -3.522850   -5.332970   -1.216280
  C     -3.366380   -5.160730   -2.610700
  N     -3.250430   -5.047230   -3.744980
  C     -3.919440   -6.555330   -0.719640
  C     -4.847760   -9.186940    0.892120
  C     -5.333170   -9.489630   -0.351310
  C     -5.690780  -10.754230   -0.846270
  S     -6.605910  -10.782230   -2.326140
  C     -6.731440  -12.516650   -2.363770
  C     -6.079920  -13.061330   -1.231320
  C     -5.463910  -12.072000   -0.396880
  C     -4.689450  -12.484090    0.698080
  C     -4.605770  -13.819580    1.024530
  C     -3.823300  -14.227230    2.129180
  N     -3.184960  -14.535340    3.029310
  C     -5.313240  -14.790360    0.261340
  C     -5.272530  -16.152480    0.636600
  N     -5.253890  -17.262890    0.918980
  C     -6.024240  -14.410710   -0.855450
  C     -7.319100  -13.182950   -3.451410
  S     -6.948560  -14.853550   -3.789370
  C     -7.857910  -14.878580   -5.266030
  C     -8.460620  -13.623960   -5.484450
  C     -8.162690  -12.667510   -4.462710
  C     -8.743130  -11.392620   -4.530380
  C     -9.551780  -11.058700   -5.594280
  C    -10.137900   -9.772980   -5.649710
  N    -10.603880   -8.726660   -5.671050
  C     -9.809480  -11.998290   -6.633620
  C    -10.626080  -11.625500   -7.726520
  N    -11.280500  -11.337360   -8.621330
  C     -9.276900  -13.265740   -6.567180
  C     -7.935090  -16.026130   -6.071180
  C     -7.247170  -17.176450   -5.806850
  C     -7.245010  -18.377070   -6.540820
  S     -5.947280  -19.492620   -6.232320
  C     -6.436230  -20.581650   -7.474840
  C     -7.625830  -20.144250   -8.069950
  C     -8.093190  -18.892470   -7.540190
  C     -9.319400  -18.374430   -7.984760
  C    -10.044260  -19.042870   -8.945120
  C    -11.279320  -18.515580   -9.386450
  N    -12.276110  -18.067320   -9.730750
  C     -9.577480  -20.283990   -9.472890
  C    -10.353760  -20.969170  -10.436520
  N    -10.962900  -21.538180  -11.222320
  C     -8.398200  -20.829320   -9.026460
  C     -5.611740  -21.726370   -7.744180
  C     -5.490760  -22.356500   -8.912630
  H     -4.058380   -0.373560    7.554320
  H     -2.521420   -1.631820    9.486440
  H     -1.932590   -5.273850    6.127860
  H     -4.225580   -3.331590    3.354580
  H     -3.589660   -5.832240    4.989470
  H     -3.036140   -3.625230    1.685110
  H     -4.060190   -7.373730   -1.406080
  H     -4.839710   -9.954930    1.652160
  H     -5.539550   -8.676000   -1.032940
  H     -4.132170  -11.770390    1.281280
  H     -6.547930  -15.165750   -1.418640
  H     -8.584190  -10.665970   -3.750270
  H     -9.495390  -13.975110   -7.350460
  H     -8.543030  -15.944830   -6.958210
  H     -6.572130  -17.164700   -4.958010
  H     -9.728050  -17.474260   -7.555710
  H     -8.088690  -21.798120   -9.383610
  H     -5.003970  -22.046400   -6.906580
  H     -6.001980  -22.038190   -9.803910
  H     -4.835270  -23.203130   -9.014590

 Total Charge           Charge          ....    0
 Multiplicity           Mult            ....    1
 Number of Electrons    NEL             ....  518
 Basis Dimension        Dim             .... 1142

ORBITAL ENERGIES
----------------

  NO   OCC          E(Eh)            E(eV)
   0   2.0000     -89.011717     -2422.1320
   1   2.0000     -89.011090     -2422.1149
   2   2.0000     -89.007975     -2422.0301
   3   2.0000     -89.007684     -2422.0222
   4   2.0000     -89.006241     -2421.9830
   5   2.0000     -14.427932      -392.6040
   6   2.0000     -14.427285      -392.5864
   7   2.0000     -14.424778      -392.5182
   8   2.0000     -14.424518      -392.5111
   9   2.0000     -14.424163      -392.5014
  10   2.0000     -14.422172      -392.4472
  11   2.0000     -14.421869      -392.4390
  12   2.0000     -14.420301      -392.3964
  13   2.0000     -14.420254      -392.3951
  14   2.0000     -14.419474      -392.3738
  15   2.0000     -10.360978      -281.9365
  16   2.0000     -10.358734      -281.8755
  17   2.0000     -10.353130      -281.7230
  18   2.0000     -10.352838      -281.7150
  19   2.0000     -10.352593      -281.7084
  20   2.0000     -10.352521      -281.7064
  21   2.0000     -10.351400      -281.6759
  22   2.0000     -10.350948      -281.6636
  23   2.0000     -10.350526      -281.6521
  24   2.0000     -10.350160      -281.6422
  25   2.0000     -10.349900      -281.6351
  26   2.0000     -10.349699      -281.6296
  27   2.0000     -10.347751      -281.5766
  28   2.0000     -10.347294      -281.5642
  29   2.0000     -10.346453      -281.5413
  30   2.0000     -10.345811      -281.5238
  31   2.0000     -10.345699      -281.5208
  32   2.0000     -10.344988      -281.5014
  33   2.0000     -10.344861      -281.4980
  34   2.0000     -10.337171      -281.2887
  35   2.0000     -10.336351      -281.2664
  36   2.0000     -10.336198      -281.2623
  37   2.0000     -10.335726      -281.2494
  38   2.0000     -10.334832      -281.2251
  39   2.0000     -10.334526      -281.2168
  40   2.0000     -10.334439      -281.2144
  41   2.0000     -10.333317      -281.1838
  42   2.0000     -10.333166      -281.1798
  43   2.0000     -10.332966      -281.1743
  44   2.0000     -10.332294      -281.1560
  45   2.0000     -10.331742      -281.1410
  46   2.0000     -10.331518      -281.1349
  47   2.0000     -10.330508      -281.1074
  48   2.0000     -10.330276      -281.1011
  49   2.0000     -10.329654      -281.0842
  50   2.0000     -10.329318      -281.0750
  51   2.0000     -10.329223      -281.0724
  52   2.0000     -10.329147      -281.0704
  53   2.0000     -10.329095      -281.0690
  54   2.0000     -10.328403      -281.0501
  55   2.0000     -10.328186      -281.0442
  56   2.0000     -10.326676      -281.0032
  57   2.0000     -10.326119      -280.9880
  58   2.0000     -10.325941      -280.9831
  59   2.0000     -10.325863      -280.9810
  60   2.0000     -10.325457      -280.9700
  61   2.0000     -10.325073      -280.9595
  62   2.0000     -10.324522      -280.9445
  63   2.0000     -10.322630      -280.8931
  64   2.0000     -10.322469      -280.8886
  65   2.0000     -10.321837      -280.8715
  66   2.0000     -10.319807      -280.8162
  67   2.0000     -10.319559      -280.8095
  68   2.0000     -10.318396      -280.7778
  69   2.0000     -10.318322      -280.7758
  70   2.0000     -10.317559      -280.7551
  71   2.0000     -10.316337      -280.7218
  72   2.0000     -10.302612      -280.3483
  73   2.0000      -8.106512      -220.5894
  74   2.0000      -8.105686      -220.5669
  75   2.0000      -8.103394      -220.5046
  76   2.0000      -8.103087      -220.4962
  77   2.0000      -8.101731      -220.4593
  78   2.0000      -6.075608      -165.3257
  79   2.0000      -6.074807      -165.3039
  80   2.0000      -6.072210      -165.2332
  81   2.0000      -6.071929      -165.2256
  82   2.0000      -6.071380      -165.2107
  83   2.0000      -6.070642      -165.1906
  84   2.0000      -6.070513      -165.1871
  85   2.0000      -6.069160      -165.1502
  86   2.0000      -6.068257      -165.1257
  87   2.0000      -6.067930      -165.1168
  88   2.0000      -6.067876      -165.1153
  89   2.0000      -6.066701      -165.0833
  90   2.0000      -6.066413      -165.0755
  91   2.0000      -6.065965      -165.0633
  92   2.0000      -6.064816      -165.0320
  93   2.0000      -1.054787       -28.7022
  94   2.0000      -1.045045       -28.4371
  95   2.0000      -1.042241       -28.3608
  96   2.0000      -1.040208       -28.3055
  97   2.0000      -1.039486       -28.2858
  98   2.0000      -1.022063       -27.8118
  99   2.0000      -1.018883       -27.7252
 100   2.0000      -1.016972       -27.6732
 101   2.0000      -1.015335       -27.6287
 102   2.0000      -1.013985       -27.5919
 103   2.0000      -1.007912       -27.4267
 104   2.0000      -1.005005       -27.3476
 105   2.0000      -1.003327       -27.3019
 106   2.0000      -1.001343       -27.2479
 107   2.0000      -1.000203       -27.2169
 108   2.0000      -0.984095       -26.7786
 109   2.0000      -0.981650       -26.7120
 110   2.0000      -0.980979       -26.6938
 111   2.0000      -0.977379       -26.5958
 112   2.0000      -0.975666       -26.5492
 113   2.0000      -0.961140       -26.1539
 114   2.0000      -0.951588       -25.8940
 115   2.0000      -0.939172       -25.5562
 116   2.0000      -0.926544       -25.2126
 117   2.0000      -0.918207       -24.9857
 118   2.0000      -0.905946       -24.6520
 119   2.0000      -0.904806       -24.6210
 120   2.0000      -0.899734       -24.4830
 121   2.0000      -0.899364       -24.4729
 122   2.0000      -0.895347       -24.3636
 123   2.0000      -0.894703       -24.3461
 124   2.0000      -0.891439       -24.2573
 125   2.0000      -0.889930       -24.2162
 126   2.0000      -0.889052       -24.1923
 127   2.0000      -0.878192       -23.8968
 128   2.0000      -0.862662       -23.4742
 129   2.0000      -0.846234       -23.0272
 130   2.0000      -0.825426       -22.4610
 131   2.0000      -0.813549       -22.1378
 132   2.0000      -0.787166       -21.4199
 133   2.0000      -0.783655       -21.3243
 134   2.0000      -0.782838       -21.3021
 135   2.0000      -0.779542       -21.2124
 136   2.0000      -0.777862       -21.1667
 137   2.0000      -0.775849       -21.1119
 138   2.0000      -0.775495       -21.1023
 139   2.0000      -0.774367       -21.0716
 140   2.0000      -0.769318       -20.9342
 141   2.0000      -0.755175       -20.5494
 142   2.0000      -0.742956       -20.2169
 143   2.0000      -0.723232       -19.6801
 144   2.0000      -0.714113       -19.4320
 145   2.0000      -0.711140       -19.3511
 146   2.0000      -0.708473       -19.2785
 147   2.0000      -0.703893       -19.1539
 148   2.0000      -0.701573       -19.0908
 149   2.0000      -0.696405       -18.9502
 150   2.0000      -0.686002       -18.6671
 151   2.0000      -0.671626       -18.2759
 152   2.0000      -0.659874       -17.9561
 153   2.0000      -0.654793       -17.8178
 154   2.0000      -0.651702       -17.7337
 155   2.0000      -0.647820       -17.6281
 156   2.0000      -0.641681       -17.4610
 157   2.0000      -0.636634       -17.3237
 158   2.0000      -0.634009       -17.2523
 159   2.0000      -0.630795       -17.1648
 160   2.0000      -0.629499       -17.1295
 161   2.0000      -0.627250       -17.0683
 162   2.0000      -0.625977       -17.0337
 163   2.0000      -0.622435       -16.9373
 164   2.0000      -0.619713       -16.8632
 165   2.0000      -0.604697       -16.4547
 166   2.0000      -0.594304       -16.1718
 167   2.0000      -0.587499       -15.9866
 168   2.0000      -0.582935       -15.8625
 169   2.0000      -0.578570       -15.7437
 170   2.0000      -0.575647       -15.6641
 171   2.0000      -0.573600       -15.6085
 172   2.0000      -0.571306       -15.5460
 173   2.0000      -0.566058       -15.4032
 174   2.0000      -0.564523       -15.3615
 175   2.0000      -0.562905       -15.3174
 176   2.0000      -0.562307       -15.3011
 177   2.0000      -0.559573       -15.2267
 178   2.0000      -0.558102       -15.1867
 179   2.0000      -0.553362       -15.0577
 180   2.0000      -0.550373       -14.9764
 181   2.0000      -0.545782       -14.8515
 182   2.0000      -0.544586       -14.8189
 183   2.0000      -0.544170       -14.8076
 184   2.0000      -0.542657       -14.7664
 185   2.0000      -0.541990       -14.7483
 186   2.0000      -0.535291       -14.5660
 187   2.0000      -0.529420       -14.4062
 188   2.0000      -0.525056       -14.2875
 189   2.0000      -0.516613       -14.0577
 190   2.0000      -0.515010       -14.0141
 191   2.0000      -0.513264       -13.9666
 192   2.0000      -0.509419       -13.8620
 193   2.0000      -0.506809       -13.7910
 194   2.0000      -0.505673       -13.7601
 195   2.0000      -0.501635       -13.6502
 196   2.0000      -0.499320       -13.5872
 197   2.0000      -0.498545       -13.5661
 198   2.0000      -0.495035       -13.4706
 199   2.0000      -0.489737       -13.3264
 200   2.0000      -0.485182       -13.2025
 201   2.0000      -0.483956       -13.1691
 202   2.0000      -0.470865       -12.8129
 203   2.0000      -0.469503       -12.7758
 204   2.0000      -0.468259       -12.7420
 205   2.0000      -0.467291       -12.7156
 206   2.0000      -0.466232       -12.6868
 207   2.0000      -0.463738       -12.6189
 208   2.0000      -0.463013       -12.5992
 209   2.0000      -0.462227       -12.5778
 210   2.0000      -0.461067       -12.5463
 211   2.0000      -0.459922       -12.5151
 212   2.0000      -0.457928       -12.4609
 213   2.0000      -0.456310       -12.4168
 214   2.0000      -0.454891       -12.3782
 215   2.0000      -0.454191       -12.3592
 216   2.0000      -0.453149       -12.3308
 217   2.0000      -0.452217       -12.3055
 218   2.0000      -0.451013       -12.2727
 219   2.0000      -0.450301       -12.2533
 220   2.0000      -0.449428       -12.2296
 221   2.0000      -0.447926       -12.1887
 222   2.0000      -0.447345       -12.1729
 223   2.0000      -0.447071       -12.1654
 224   2.0000      -0.446421       -12.1477
 225   2.0000      -0.445783       -12.1304
 226   2.0000      -0.445587       -12.1250
 227   2.0000      -0.437084       -11.8937
 228   2.0000      -0.433552       -11.7975
 229   2.0000      -0.431206       -11.7337
 230   2.0000      -0.430752       -11.7213
 231   2.0000      -0.429505       -11.6874
 232   2.0000      -0.428956       -11.6725
 233   2.0000      -0.427810       -11.6413
 234   2.0000      -0.426999       -11.6192
 235   2.0000      -0.426485       -11.6052
 236   2.0000      -0.426037       -11.5931
 237   2.0000      -0.424714       -11.5571
 238   2.0000      -0.424457       -11.5500
 239   2.0000      -0.422566       -11.4986
 240   2.0000      -0.421553       -11.4710
 241   2.0000      -0.420612       -11.4454
 242   2.0000      -0.418778       -11.3955
 243   2.0000      -0.408934       -11.1277
 244   2.0000      -0.396955       -10.8017
 245   2.0000      -0.376990       -10.2584
 246   2.0000      -0.375544       -10.2191
 247   2.0000      -0.372649       -10.1403
 248   2.0000      -0.371168       -10.1000
 249   2.0000      -0.356179        -9.6921
 250   2.0000      -0.353678        -9.6241
 251   2.0000      -0.352581        -9.5942
 252   2.0000      -0.348950        -9.4954
 253   2.0000      -0.347379        -9.4527
 254   2.0000      -0.338019        -9.1980
 255   2.0000      -0.319142        -8.6843
 256   2.0000      -0.297729        -8.1016
 257   2.0000      -0.270848        -7.3701
 258   2.0000      -0.241332        -6.5670
 259   0.0000      -0.137508        -3.7418
 260   0.0000      -0.110702        -3.0124
 261   0.0000      -0.092063        -2.5052
 262   0.0000      -0.079145        -2.1536
 263   0.0000      -0.070792        -1.9263

MULLIKEN ATOMIC CHARGES
-----------------------
   0 C :   -0.114545
   1 S :    0.201328
   2 C :   -0.169594
   3 C :    0.149076
   4 C :    0.096917
   5 C :   -0.015399
   6 C :   -0.072661
   7 C :   -0.172640
   8 N :    0.177678
   9 C :   -0.065778
  10 C :   -0.176649
  11 N :    0.176230
  12 C :   -0.057166
  13 C :    0.036232
  14 C :    0.029335
  15 C :   -0.136854
  16 S :    0.199098
  17 C :   -0.138219
  18 C :    0.125867
  19 C :    0.125500
  20 C :   -0.057455
  21 C :   -0.070420
  22 C :   -0.180380
  23 N :    0.186415
  24 C :   -0.064440
  25 C :   -0.181198
  26 N :    0.181918
  27 C :   -0.060235
  28 C :    0.040641
  29 C :    0.031968
  30 C :   -0.116178
  31 S :    0.168829
  32 C :   -0.106786
  33 C :    0.113356
  34 C :    0.120823
  35 C :   -0.058651
  36 C :   -0.064668
  37 C :   -0.181683
  38 N :    0.185327
  39 C :   -0.068495
  40 C :   -0.183104
  41 N :    0.181207
  42 C :   -0.066176
  43 C :   -0.100465
  44 S :    0.141519
  45 C :   -0.078046
  46 C :    0.122989
  47 C :    0.122132
  48 C :   -0.068341
  49 C :   -0.068627
  50 C :   -0.177597
  51 N :    0.184324
  52 C :   -0.064676
  53 C :   -0.177951
  54 N :    0.187039
  55 C :   -0.053201
  56 C :   -0.020460
  57 C :    0.054665
  58 C :   -0.142851
  59 S :    0.202436
  60 C :   -0.141421
  61 C :    0.119561
  62 C :    0.136197
  63 C :   -0.061377
  64 C :   -0.065555
  65 C :   -0.178722
  66 N :    0.187021
  67 C :   -0.072399
  68 C :   -0.178088
  69 N :    0.181042
  70 C :   -0.049862
  71 C :    0.018292
  72 C :   -0.015493
  73 H :    0.037873
  74 H :    0.000107
  75 H :   -0.004053
  76 H :    0.002209
  77 H :    0.002544
  78 H :   -0.003272
  79 H :   -0.004504
  80 H :   -0.005520
  81 H :   -0.002158
  82 H :   -0.004989
  83 H :    0.006641
  84 H :    0.006053
  85 H :    0.000008
  86 H :   -0.003395
  87 H :   -0.002303
  88 H :   -0.009885
  89 H :   -0.001240
  90 H :    0.012406
  91 H :    0.038072
  92 H :    0.044951
Sum of atomic charges:   -0.0000000

LOEWDIN ATOMIC CHARGES
----------------------
   0 C :   -0.177073
   1 S :    0.523137
   2 C :   -0.175714
   3 C :   -0.042756
   4 C :   -0.049437
   5 C :    0.038912
   6 C :   -0.053765
   7 C :   -0.033117
   8 N :   -0.029515
   9 C :   -0.050504
  10 C :   -0.034095
  11 N :   -0.031170
  12 C :    0.027035
  13 C :   -0.036707
  14 C :   -0.049266
  15 C :   -0.162269
  16 S :    0.507773
  17 C :   -0.167399
  18 C :   -0.038635
  19 C :   -0.041230
  20 C :    0.030924
  21 C :   -0.050771
  22 C :   -0.034049
  23 N :   -0.028519
  24 C :   -0.048182
  25 C :   -0.033888
  26 N :   -0.027831
  27 C :    0.027958
  28 C :   -0.042562
  29 C :   -0.050314
  30 C :   -0.162745
  31 S :    0.511898
  32 C :   -0.182435
  33 C :   -0.044302
  34 C :   -0.039571
  35 C :    0.030197
  36 C :   -0.048856
  37 C :   -0.034462
  38 N :   -0.026872
  39 C :   -0.049604
  40 C :   -0.033395
  41 N :   -0.029747
  42 C :    0.018194
  43 C :   -0.185903
  44 S :    0.502557
  45 C :   -0.155234
  46 C :   -0.041244
  47 C :   -0.042362
  48 C :    0.016267
  49 C :   -0.044518
  50 C :   -0.033357
  51 N :   -0.025882
  52 C :   -0.048957
  53 C :   -0.034842
  54 N :   -0.023118
  55 C :    0.035207
  56 C :   -0.050271
  57 C :   -0.036078
  58 C :   -0.174669
  59 S :    0.517838
  60 C :   -0.160271
  61 C :   -0.043202
  62 C :   -0.037435
  63 C :    0.025645
  64 C :   -0.046550
  65 C :   -0.034781
  66 N :   -0.026379
  67 C :   -0.052779
  68 C :   -0.033404
  69 N :   -0.029140
  70 C :    0.037720
  71 C :   -0.047128
  72 C :   -0.017142
  73 H :    0.032804
  74 H :    0.047153
  75 H :    0.041445
  76 H :    0.032216
  77 H :    0.033164
  78 H :    0.042621
  79 H :    0.041550
  80 H :    0.030660
  81 H :    0.031217
  82 H :    0.041633
  83 H :    0.026614
  84 H :    0.026734
  85 H :    0.044223
  86 H :    0.033969
  87 H :    0.024481
  88 H :    0.039827
  89 H :    0.044760
  90 H :    0.036481
  91 H :    0.027275
  92 H :    0.035312

  Mayer bond orders larger than 0.100000
B(  0-C ,  1-S ) :   1.2231 B(  0-C ,  4-C ) :   1.3976 B(  0-C , 73-H ) :   0.9701
B(  1-S ,  2-C ) :   1.1820 B(  2-C ,  3-C ) :   1.3135 B(  2-C , 13-C ) :   1.1763
B(  3-C ,  4-C ) :   1.1999 B(  3-C , 12-C ) :   1.1951 B(  4-C ,  5-C ) :   1.1605
B(  5-C ,  6-C ) :   1.5746 B(  5-C , 74-H ) :   1.0074 B(  6-C ,  7-C ) :   1.0764
B(  6-C ,  9-C ) :   1.2302 B(  7-C ,  8-N ) :   3.0471 B(  9-C , 10-C ) :   1.0804
B(  9-C , 12-C ) :   1.5674 B( 10-C , 11-N ) :   3.0426 B( 12-C , 75-H ) :   0.9943
B( 13-C , 14-C ) :   1.6339 B( 13-C , 76-H ) :   0.9474 B( 14-C , 15-C ) :   1.1799
B( 14-C , 77-H ) :   0.9458 B( 15-C , 16-S ) :   1.1680 B( 15-C , 19-C ) :   1.2918
B( 16-S , 17-C ) :   1.1538 B( 17-C , 18-C ) :   1.2790 B( 17-C , 28-C ) :   1.2158
B( 18-C , 19-C ) :   1.2153 B( 18-C , 27-C ) :   1.2087 B( 19-C , 20-C ) :   1.2064
B( 20-C , 21-C ) :   1.5469 B( 20-C , 78-H ) :   0.9946 B( 21-C , 22-C ) :   1.0788
B( 21-C , 24-C ) :   1.2572 B( 22-C , 23-N ) :   3.0470 B( 24-C , 25-C ) :   1.0786
B( 24-C , 27-C ) :   1.5463 B( 25-C , 26-N ) :   3.0441 B( 27-C , 79-H ) :   0.9937
B( 28-C , 29-C ) :   1.5852 B( 28-C , 80-H ) :   0.9414 B( 29-C , 30-C ) :   1.2240
B( 29-C , 81-H ) :   0.9387 B( 30-C , 31-S ) :   1.1436 B( 30-C , 34-C ) :   1.2815
B( 31-S , 32-C ) :   1.1542 B( 32-C , 33-C ) :   1.2822 B( 32-C , 43-C ) :   1.2403
B( 33-C , 34-C ) :   1.2122 B( 33-C , 42-C ) :   1.2045 B( 34-C , 35-C ) :   1.2078
B( 35-C , 36-C ) :   1.5471 B( 35-C , 82-H ) :   0.9940 B( 36-C , 37-C ) :   1.0750
B( 36-C , 39-C ) :   1.2623 B( 37-C , 38-N ) :   3.0454 B( 39-C , 40-C ) :   1.0815
B( 39-C , 42-C ) :   1.5581 B( 40-C , 41-N ) :   3.0437 B( 42-C , 83-H ) :   0.9750
B( 43-C , 44-S ) :   1.1374 B( 43-C , 47-C ) :   1.2973 B( 44-S , 45-C ) :   1.1366
B( 45-C , 46-C ) :   1.2767 B( 45-C , 56-C ) :   1.2417 B( 46-C , 47-C ) :   1.2038
B( 46-C , 55-C ) :   1.2120 B( 47-C , 48-C ) :   1.1950 B( 48-C , 49-C ) :   1.5695
B( 48-C , 84-H ) :   0.9750 B( 49-C , 50-C ) :   1.0796 B( 49-C , 52-C ) :   1.2561
B( 50-C , 51-N ) :   3.0430 B( 52-C , 53-C ) :   1.0761 B( 52-C , 55-C ) :   1.5543
B( 53-C , 54-N ) :   3.0443 B( 55-C , 85-H ) :   0.9953 B( 56-C , 57-C ) :   1.5816
B( 56-C , 86-H ) :   0.9599 B( 57-C , 58-C ) :   1.1999 B( 57-C , 87-H ) :   0.9417
B( 58-C , 59-S ) :   1.1598 B( 58-C , 60-C ) :   0.1012 B( 58-C , 62-C ) :   1.2952
B( 59-S , 60-C ) :   1.1910 B( 60-C , 61-C ) :   1.3408 B( 60-C , 71-C ) :   1.0907
B( 61-C , 62-C ) :   1.2052 B( 61-C , 70-C ) :   1.1923 B( 62-C , 63-C ) :   1.2042
B( 63-C , 64-C ) :   1.5575 B( 63-C , 88-H ) :   0.9935 B( 64-C , 65-C ) :   1.0779
B( 64-C , 67-C ) :   1.2486 B( 65-C , 66-N ) :   3.0450 B( 67-C , 68-C ) :   1.0777
B( 67-C , 70-C ) :   1.5575 B( 68-C , 69-N ) :   3.0467 B( 70-C , 89-H ) :   0.9970
B( 71-C , 72-C ) :   1.9276 B( 71-C , 90-H ) :   0.9480 B( 72-C , 91-H ) :   0.9619
B( 72-C , 92-H ) :   0.9482

-----------------------------------------------------------------------------
         ABSORPTION SPECTRUM VIA TRANSITION ELECTRIC DIPOLE MOMENTS
-----------------------------------------------------------------------------
State   Energy  Wavelength   fosc         T2         TX        TY        TZ
        (cm-1)    (nm)                  (au**2)     (au)      (au)      (au)
-----------------------------------------------------------------------------
   0    9540.0   1048.2   1.673269491  57.74213   1.98555   5.51261   4.83847
   1   15614.2    640.4   0.038176166   0.80491   0.52486   0.44646   0.57455
   2   16499.0    606.1   0.020159414   0.40225   0.42465   0.30665   0.35761
   3   18882.9    529.6   0.214804998   3.74499  -0.58427   1.50992   1.06008
   4   21206.7    471.5   0.094504206   1.46708  -0.04478   0.07967   1.20778
   5   21664.0    461.6   0.243682783   3.70307  -0.71456   1.72256   0.47460
   6   22324.0    447.9   0.088519898   1.30540  -0.16200   0.16697   1.11860
   7   24172.3    413.7   0.048573492   0.66154   0.04671  -0.68528   0.43560
   8   25651.1    389.8   0.492522004   6.32115   0.43290  -2.02780   1.42188
   9   26250.2    380.9   0.033028834   0.41423  -0.26303  -0.47382  -0.34718
  10   27376.0    365.3   0.032773133   0.39411   0.07759   0.62207   0.03350
  11   27824.7    359.4   0.022844813   0.27029  -0.20849   0.46330   0.11034
  12   28711.8    348.3   0.020136092   0.23088   0.40853   0.25223   0.01909
  13   28852.3    346.6   0.031245715   0.35652  -0.27179   0.10351  -0.52148
  14   29379.1    340.4   0.187635267   2.10258  -0.63977  -0.66561  -1.11814
  15   29455.4    339.5   0.094979305   1.06155  -0.49217  -0.51655  -0.74330
  16   29753.8    336.1   0.040814453   0.45159  -0.21703   0.17542  -0.61132
  17   30728.3    325.4   0.110297105   1.18168   0.17490  -1.05967   0.16792
  18   31119.1    321.3   0.034046727   0.36018  -0.19542  -0.13521  -0.55110
  19   32042.8    312.1   0.053896235   0.55374  -0.36531   0.45471   0.46209
  20   32064.1    311.9   0.033388099   0.34281  -0.02302   0.31779   0.49121
  21   33095.4    302.2   0.087418014   0.86958  -0.08844  -0.68542   0.62607
  22   33298.3    300.3   0.288629919   2.85361   0.55238  -1.43321   0.70313
  23   33824.8    295.6   0.158500359   1.54266  -0.10556  -0.57556   1.09556
  24   33894.1    295.0   0.227295234   2.20771   1.34020  -0.43131   0.47492
  25   34169.0    292.7   0.175781195   1.69362   0.30639  -0.88997   0.89872
  26   34251.3    292.0   0.162487135   1.56177  -0.61744   1.00736  -0.40714
  27   35097.6    284.9   0.016372846   0.15358  -0.33843   0.18764  -0.06192
  28   35322.1    283.1   0.071389927   0.66537   0.16805  -0.74236   0.29333
  29   35873.5    278.8   0.185335632   1.70083  -0.94626   0.82226  -0.35959
  30   36113.8    276.9   0.020418164   0.18613   0.04344  -0.22670  -0.36449
  31   36371.6    274.9   0.020123547   0.18215  -0.10146  -0.30108  -0.28495
  32   36648.2    272.9   0.096280063   0.86489   0.00430  -0.78745  -0.49477
  33   36832.3    271.5   0.053043235   0.47411  -0.31688  -0.21826  -0.57101
  34   37263.3    268.4   0.010759918   0.09506  -0.15899   0.24385  -0.10160
  35   37307.9    268.0   0.042537783   0.37536  -0.32667  -0.09351  -0.50981
  36   37524.1    266.5   0.006204865   0.05444  -0.12955   0.14301   0.13116
  37   37945.6    263.5   0.018986245   0.16472   0.27280  -0.19601   0.22778
  38   38040.7    262.9   0.051287770   0.44386  -0.44094  -0.05364  -0.49654
  39   38349.0    260.8   0.008119864   0.06971   0.11426   0.20417   0.12234
  40   38687.8    258.5   0.043555736   0.37064   0.55844  -0.17824   0.16436
  41   38835.4    257.5   0.081551013   0.69132  -0.05892   0.09447   0.82397
  42   39372.0    254.0   0.028692387   0.23991   0.09292   0.42691  -0.22143
  43   39470.2    253.4   0.082403172   0.68731  -0.21135   0.42021  -0.68268
  44   39556.2    252.8   0.037390735   0.31119   0.49003   0.06471   0.25860
  45   39943.6    250.4   0.148111137   1.22072   0.55158  -0.28049   0.91532
  46   39996.7    250.0   0.036895137   0.30368  -0.43410   0.12578  -0.31531
  47   40196.3    248.8   0.130178066   1.06617  -0.16224  -0.94873   0.37386

FINAL SINGLE POINT ENERGY     -4756.310433022160

DIPOLE MOMENT
-------------
                                X             Y             Z
Electronic contribution:     -3.15867      14.03959       7.81741
Nuclear contribution   :      3.95082     -14.31386      -6.33229
                        -----------------------------------------
Total Dipole Moment    :      0.79215      -0.27427       1.48512
                        -----------------------------------------
Magnitude (a.u.)       :      1.70537
Magnitude (Debye)      :      4.33471

Rotational constants in cm-1:     0.001654     0.000234     0.000214
Rotational constants in MHz :    49.597292     7.005557     6.404365

                             ****ORCA TERMINATED NORMALLY****
TOTAL RUN TIME: 0 days 0 hours 8 minutes 18 seconds 157 msec
