                         Program Version 4.2.0 -  RELEASE  -
|  1> # ORCA input file
|  2> # SCF done       -215.323831744539          0.000423880490
|  3> ! CAM-B3LYP def2-SVP def2/J RIJCOSX Grid4 TightSCF
|  4> %maxcore 5000
|  5> %tddft
|  6>     Mode sTDDFT
|  7>     Ethresh 5.0
|  8>     maxcore 5000
|  9> end
| 10>
| 11> %pal
| 12>   nprocs 6
| 13>   end
| 14> * xyz 0 1
| 15>    C       -1.57555         0.54553        -1.36499
| 16>    C       -0.88596         1.73458        -1.53435
| 17>    C       -0.36839         2.36892        -0.40321
| 18>    C        0.34782         3.58251        -0.55427
| 19>    N        0.92764         4.56085        -0.68483
| 20>    C       -0.54009         1.82411         0.88402
| 21>    C       -0.00253         2.49197         2.01079
| 22>    N        0.42828         3.01635         2.93307
| 23>    C       -1.23266         0.62368         1.04913
| 24>    C       -1.73581         0.00563        -0.07572
| 25>    C       -2.48274        -1.27129        -0.15466
| 26>    O       -2.75808        -1.98735         0.78209
| 27>    C       -2.72471        -1.49435        -1.59786
| 28>    C       -2.22605        -0.34343        -2.32677
| 29>    C       -2.40535        -0.07495        -3.65788
| 30>    C       -1.91770         1.08177        -4.30407
| 31>    N       -1.54025         1.99813        -4.88193
| 32>    C       -3.13229        -0.88547        -4.55719
| 33>    N       -3.72733        -1.48233        -5.33657
| 34>    C       -3.15812        -2.65399        -2.18683
| 35>    C       -3.76068        -3.78170        -1.60229
| 36>    C       -4.39588        -3.96302        -0.37770
| 37>    C       -4.89147        -5.24909        -0.23176
| 38>    C       -4.62910        -6.07721        -1.34942
| 39>    S       -3.81292        -5.25229        -2.58851
| 40>    C       -5.13064        -7.36996        -1.07655
| 41>    C       -5.72211        -7.36472         0.20071
| 42>    C       -5.60390        -6.02849         0.76710
| 43>    C       -6.07643        -5.60337         1.97262
| 44>    C       -6.75025        -6.47641         2.85418
| 45>    N       -7.29417        -7.19226         3.56543
| 46>    C       -5.95044        -4.26793         2.41545
| 47>    N       -5.87836        -3.18550         2.78433
| 48>    C       -6.23426        -8.60687         0.56536
| 49>    C       -6.02769        -9.55997        -0.41878
| 50>    S       -5.20191        -8.90684        -1.82300
| 51>    C       -6.37789       -10.93217        -0.37157
| 52>    C       -6.07417       -11.91179        -1.30131
| 53>    C       -6.53529       -13.16516        -0.90491
| 54>    C       -7.20603       -13.13542         0.33140
| 55>    S       -7.26410       -11.56916         1.00660
| 56>    C       -7.60567       -14.45421         0.66032
| 57>    C       -7.17711       -15.32148        -0.36142
| 58>    C       -6.50186       -14.53833        -1.38488
| 59>    C       -5.94982       -14.99424        -2.54482
| 60>    C       -5.97392       -16.36097        -2.89669
| 61>    N       -5.99432       -17.47261        -3.17518
| 62>    C       -5.31894       -14.12675        -3.46230
| 63>    N       -4.80636       -13.41670        -4.20183
| 64>    C       -7.49190       -16.65482        -0.10769
| 65>    C       -8.16418       -16.80703         1.09256
| 66>    S       -8.41466       -15.27497         1.91846
| 67>    C       -8.60866       -18.01267         1.68997
| 68>    C       -9.37646       -18.14615         2.83578
| 69>    C       -9.59868       -19.48167         3.15854
| 70>    C       -8.98708       -20.37258         2.25682
| 71>    S       -8.15783       -19.56211         1.00008
| 72>    C       -9.24491       -21.69426         2.68488
| 73>    C      -10.02835       -21.64456         3.85980
| 74>    C      -10.28148       -20.25181         4.18841
| 75>    C      -10.99985       -19.76372         5.23888
| 76>    C      -11.61465       -20.61013         6.18691
| 77>    N      -12.10927       -21.29417         6.96198
| 78>    C      -11.16765       -18.37766         5.44696
| 79>    N      -11.29736       -17.25079         5.61204
| 80>    C      -10.30286       -22.90288         4.37496
| 81>    C       -9.76251       -23.92409         3.60019
| 82>    S       -8.86413       -23.28407         2.22113
| 83>    C       -9.79756       -25.29204         3.93238
| 84>    C       -9.42241       -26.38753         3.21065
| 85>    C       -9.05798       -27.63504         3.93281
| 86>    O       -9.27939       -27.90242         5.08880
| 87>    C       -8.30464       -28.44197         2.94224
| 88>    C       -7.62600       -29.62632         3.13452
| 89>    C       -6.94535       -30.17827         2.04735
| 90>    C       -6.95934       -29.52899         0.79790
| 91>    C       -7.66269       -28.33723         0.60974
| 92>    C       -8.33915       -27.79807         1.68928
| 93>    C       -9.17309       -26.60064         1.80339
| 94>    C       -9.82949       -25.99754         0.76323
| 95>    C      -10.85996       -25.05358         0.95629
| 96>    N      -11.72878       -24.31620         1.09161
| 97>    C       -9.62251       -26.32689        -0.59214
| 98>    N       -9.46966       -26.55450        -1.70604
| 99>    C       -6.24028       -30.09116        -0.28628
|100>    N       -5.65625       -30.53381        -1.16571
|101>    C       -6.23030       -31.39038         2.20421
|102>    N       -5.65581       -32.36990         2.35093
|103>    H       -0.72992         2.17988        -2.50396
|104>    H       -1.37160         0.18976         2.02771
|105>    H       -2.99443        -2.74830        -3.25428
|106>    H       -4.48170        -3.18401         0.35645
|107>    H       -6.72445        -8.82820         1.49643
|108>    H       -5.53429       -11.70682        -2.20840
|109>    H       -7.25265       -17.48296        -0.75055
|110>    H       -9.74586       -17.30248         3.39066
|111>    H      -10.87885       -23.09755         5.26175
|112>    H      -10.07109       -25.50202         4.96280
|113>    H       -7.61864       -30.11154         4.09869
|114>    H       -7.65133       -27.86154        -0.35848
|115> *
|116>
|117>                          ****END OF INPUT****

CARTESIAN COORDINATES (ANGSTROEM)
---------------------------------
  C     -1.575550    0.545530   -1.364990
  C     -0.885960    1.734580   -1.534350
  C     -0.368390    2.368920   -0.403210
  C      0.347820    3.582510   -0.554270
  N      0.927640    4.560850   -0.684830
  C     -0.540090    1.824110    0.884020
  C     -0.002530    2.491970    2.010790
  N      0.428280    3.016350    2.933070
  C     -1.232660    0.623680    1.049130
  C     -1.735810    0.005630   -0.075720
  C     -2.482740   -1.271290   -0.154660
  O     -2.758080   -1.987350    0.782090
  C     -2.724710   -1.494350   -1.597860
  C     -2.226050   -0.343430   -2.326770
  C     -2.405350   -0.074950   -3.657880
  C     -1.917700    1.081770   -4.304070
  N     -1.540250    1.998130   -4.881930
  C     -3.132290   -0.885470   -4.557190
  N     -3.727330   -1.482330   -5.336570
  C     -3.158120   -2.653990   -2.186830
  C     -3.760680   -3.781700   -1.602290
  C     -4.395880   -3.963020   -0.377700
  C     -4.891470   -5.249090   -0.231760
  C     -4.629100   -6.077210   -1.349420
  S     -3.812920   -5.252290   -2.588510
  C     -5.130640   -7.369960   -1.076550
  C     -5.722110   -7.364720    0.200710
  C     -5.603900   -6.028490    0.767100
  C     -6.076430   -5.603370    1.972620
  C     -6.750250   -6.476410    2.854180
  N     -7.294170   -7.192260    3.565430
  C     -5.950440   -4.267930    2.415450
  N     -5.878360   -3.185500    2.784330
  C     -6.234260   -8.606870    0.565360
  C     -6.027690   -9.559970   -0.418780
  S     -5.201910   -8.906840   -1.823000
  C     -6.377890  -10.932170   -0.371570
  C     -6.074170  -11.911790   -1.301310
  C     -6.535290  -13.165160   -0.904910
  C     -7.206030  -13.135420    0.331400
  S     -7.264100  -11.569160    1.006600
  C     -7.605670  -14.454210    0.660320
  C     -7.177110  -15.321480   -0.361420
  C     -6.501860  -14.538330   -1.384880
  C     -5.949820  -14.994240   -2.544820
  C     -5.973920  -16.360970   -2.896690
  N     -5.994320  -17.472610   -3.175180
  C     -5.318940  -14.126750   -3.462300
  N     -4.806360  -13.416700   -4.201830
  C     -7.491900  -16.654820   -0.107690
  C     -8.164180  -16.807030    1.092560
  S     -8.414660  -15.274970    1.918460
  C     -8.608660  -18.012670    1.689970
  C     -9.376460  -18.146150    2.835780
  C     -9.598680  -19.481670    3.158540
  C     -8.987080  -20.372580    2.256820
  S     -8.157830  -19.562110    1.000080
  C     -9.244910  -21.694260    2.684880
  C    -10.028350  -21.644560    3.859800
  C    -10.281480  -20.251810    4.188410
  C    -10.999850  -19.763720    5.238880
  C    -11.614650  -20.610130    6.186910
  N    -12.109270  -21.294170    6.961980
  C    -11.167650  -18.377660    5.446960
  N    -11.297360  -17.250790    5.612040
  C    -10.302860  -22.902880    4.374960
  C     -9.762510  -23.924090    3.600190
  S     -8.864130  -23.284070    2.221130
  C     -9.797560  -25.292040    3.932380
  C     -9.422410  -26.387530    3.210650
  C     -9.057980  -27.635040    3.932810
  O     -9.279390  -27.902420    5.088800
  C     -8.304640  -28.441970    2.942240
  C     -7.626000  -29.626320    3.134520
  C     -6.945350  -30.178270    2.047350
  C     -6.959340  -29.528990    0.797900
  C     -7.662690  -28.337230    0.609740
  C     -8.339150  -27.798070    1.689280
  C     -9.173090  -26.600640    1.803390
  C     -9.829490  -25.997540    0.763230
  C    -10.859960  -25.053580    0.956290
  N    -11.728780  -24.316200    1.091610
  C     -9.622510  -26.326890   -0.592140
  N     -9.469660  -26.554500   -1.706040
  C     -6.240280  -30.091160   -0.286280
  N     -5.656250  -30.533810   -1.165710
  C     -6.230300  -31.390380    2.204210
  N     -5.655810  -32.369900    2.350930
  H     -0.729920    2.179880   -2.503960
  H     -1.371600    0.189760    2.027710
  H     -2.994430   -2.748300   -3.254280
  H     -4.481700   -3.184010    0.356450
  H     -6.724450   -8.828200    1.496430
  H     -5.534290  -11.706820   -2.208400
  H     -7.252650  -17.482960   -0.750550
  H     -9.745860  -17.302480    3.390660
  H    -10.878850  -23.097550    5.261750
  H    -10.071090  -25.502020    4.962800
  H     -7.618640  -30.111540    4.098690
  H     -7.651330  -27.861540   -0.358480

 Total Charge           Charge          ....    0
 Multiplicity           Mult            ....    1
 Number of Electrons    NEL             ....  618
 Basis Dimension        Dim             .... 1316

ORBITAL ENERGIES
----------------

  NO   OCC          E(Eh)            E(eV)
   0   2.0000     -89.017860     -2422.2991
   1   2.0000     -89.017602     -2422.2921
   2   2.0000     -89.017137     -2422.2794
   3   2.0000     -89.016866     -2422.2721
   4   2.0000     -89.016776     -2422.2696
   5   2.0000     -89.015646     -2422.2389
   6   2.0000     -19.244148      -523.6599
   7   2.0000     -19.242346      -523.6108
   8   2.0000     -14.452388      -393.2695
   9   2.0000     -14.452162      -393.2633
  10   2.0000     -14.451902      -393.2563
  11   2.0000     -14.450949      -393.2303
  12   2.0000     -14.450759      -393.2251
  13   2.0000     -14.447354      -393.1325
  14   2.0000     -14.439463      -392.9178
  15   2.0000     -14.439271      -392.9125
  16   2.0000     -14.437814      -392.8729
  17   2.0000     -14.435104      -392.7991
  18   2.0000     -14.433187      -392.7470
  19   2.0000     -14.432965      -392.7410
  20   2.0000     -14.431055      -392.6890
  21   2.0000     -14.429946      -392.6588
  22   2.0000     -10.395956      -282.8883
  23   2.0000     -10.394254      -282.8420
  24   2.0000     -10.389152      -282.7032
  25   2.0000     -10.389064      -282.7008
  26   2.0000     -10.387889      -282.6688
  27   2.0000     -10.375676      -282.3365
  28   2.0000     -10.375499      -282.3317
  29   2.0000     -10.373847      -282.2867
  30   2.0000     -10.372590      -282.2525
  31   2.0000     -10.369698      -282.1738
  32   2.0000     -10.368631      -282.1448
  33   2.0000     -10.368222      -282.1337
  34   2.0000     -10.367860      -282.1238
  35   2.0000     -10.366321      -282.0819
  36   2.0000     -10.365247      -282.0527
  37   2.0000     -10.365127      -282.0495
  38   2.0000     -10.363149      -281.9956
  39   2.0000     -10.362594      -281.9805
  40   2.0000     -10.360965      -281.9362
  41   2.0000     -10.360822      -281.9323
  42   2.0000     -10.358889      -281.8797
  43   2.0000     -10.358652      -281.8733
  44   2.0000     -10.356765      -281.8219
  45   2.0000     -10.356486      -281.8143
  46   2.0000     -10.355685      -281.7925
  47   2.0000     -10.355559      -281.7891
  48   2.0000     -10.352160      -281.6966
  49   2.0000     -10.351863      -281.6885
  50   2.0000     -10.351613      -281.6817
  51   2.0000     -10.350629      -281.6549
  52   2.0000     -10.350367      -281.6478
  53   2.0000     -10.350111      -281.6408
  54   2.0000     -10.349410      -281.6218
  55   2.0000     -10.348688      -281.6021
  56   2.0000     -10.347584      -281.5721
  57   2.0000     -10.347072      -281.5581
  58   2.0000     -10.346181      -281.5339
  59   2.0000     -10.343370      -281.4574
  60   2.0000     -10.340624      -281.3827
  61   2.0000     -10.340586      -281.3817
  62   2.0000     -10.340073      -281.3677
  63   2.0000     -10.339976      -281.3650
  64   2.0000     -10.339598      -281.3548
  65   2.0000     -10.337221      -281.2901
  66   2.0000     -10.337013      -281.2844
  67   2.0000     -10.336720      -281.2764
  68   2.0000     -10.336674      -281.2752
  69   2.0000     -10.335261      -281.2368
  70   2.0000     -10.335014      -281.2300
  71   2.0000     -10.331901      -281.1453
  72   2.0000     -10.329840      -281.0892
  73   2.0000     -10.329804      -281.0883
  74   2.0000     -10.329769      -281.0873
  75   2.0000     -10.329628      -281.0835
  76   2.0000     -10.329309      -281.0748
  77   2.0000     -10.329296      -281.0744
  78   2.0000     -10.329284      -281.0741
  79   2.0000     -10.329168      -281.0710
  80   2.0000     -10.328626      -281.0562
  81   2.0000     -10.328583      -281.0550
  82   2.0000     -10.328228      -281.0454
  83   2.0000     -10.328107      -281.0421
  84   2.0000     -10.327483      -281.0251
  85   2.0000     -10.326188      -280.9899
  86   2.0000     -10.322663      -280.8939
  87   2.0000     -10.321405      -280.8597
  88   2.0000      -8.112201      -220.7442
  89   2.0000      -8.111717      -220.7310
  90   2.0000      -8.111619      -220.7284
  91   2.0000      -8.111289      -220.7194
  92   2.0000      -8.111225      -220.7177
  93   2.0000      -8.110441      -220.6963
  94   2.0000      -6.081538      -165.4871
  95   2.0000      -6.080950      -165.4711
  96   2.0000      -6.080939      -165.4708
  97   2.0000      -6.080568      -165.4607
  98   2.0000      -6.080544      -165.4600
  99   2.0000      -6.079559      -165.4332
 100   2.0000      -6.077306      -165.3719
 101   2.0000      -6.076758      -165.3570
 102   2.0000      -6.076751      -165.3568
 103   2.0000      -6.076366      -165.3463
 104   2.0000      -6.076354      -165.3460
 105   2.0000      -6.075417      -165.3205
 106   2.0000      -6.074431      -165.2937
 107   2.0000      -6.074157      -165.2862
 108   2.0000      -6.073798      -165.2765
 109   2.0000      -6.073520      -165.2689
 110   2.0000      -6.073502      -165.2684
 111   2.0000      -6.072940      -165.2531
 112   2.0000      -1.160117       -31.5684
 113   2.0000      -1.158409       -31.5219
 114   2.0000      -1.073578       -29.2135
 115   2.0000      -1.071840       -29.1662
 116   2.0000      -1.068851       -29.0849
 117   2.0000      -1.050666       -28.5901
 118   2.0000      -1.047243       -28.4969
 119   2.0000      -1.044899       -28.4332
 120   2.0000      -1.043837       -28.4042
 121   2.0000      -1.042028       -28.3550
 122   2.0000      -1.036413       -28.2022
 123   2.0000      -1.034181       -28.1415
 124   2.0000      -1.032613       -28.0988
 125   2.0000      -1.029615       -28.0172
 126   2.0000      -1.028840       -27.9962
 127   2.0000      -1.026782       -27.9402
 128   2.0000      -1.025196       -27.8970
 129   2.0000      -1.018099       -27.7039
 130   2.0000      -1.017532       -27.6885
 131   2.0000      -1.015725       -27.6393
 132   2.0000      -1.014903       -27.6169
 133   2.0000      -1.013597       -27.5814
 134   2.0000      -1.012325       -27.5468
 135   2.0000      -1.009706       -27.4755
 136   2.0000      -0.991439       -26.9784
 137   2.0000      -0.986669       -26.8486
 138   2.0000      -0.983399       -26.7596
 139   2.0000      -0.980311       -26.6756
 140   2.0000      -0.977101       -26.5883
 141   2.0000      -0.948490       -25.8097
 142   2.0000      -0.943999       -25.6875
 143   2.0000      -0.934340       -25.4247
 144   2.0000      -0.932808       -25.3830
 145   2.0000      -0.930764       -25.3274
 146   2.0000      -0.915547       -24.9133
 147   2.0000      -0.913003       -24.8441
 148   2.0000      -0.910337       -24.7715
 149   2.0000      -0.907121       -24.6840
 150   2.0000      -0.898434       -24.4476
 151   2.0000      -0.896846       -24.4044
 152   2.0000      -0.893539       -24.3144
 153   2.0000      -0.887722       -24.1562
 154   2.0000      -0.881875       -23.9971
 155   2.0000      -0.876534       -23.8517
 156   2.0000      -0.869922       -23.6718
 157   2.0000      -0.858225       -23.3535
 158   2.0000      -0.844458       -22.9789
 159   2.0000      -0.824405       -22.4332
 160   2.0000      -0.815564       -22.1926
 161   2.0000      -0.813606       -22.1393
 162   2.0000      -0.805799       -21.9269
 163   2.0000      -0.802227       -21.8297
 164   2.0000      -0.797093       -21.6900
 165   2.0000      -0.792333       -21.5605
 166   2.0000      -0.775652       -21.1066
 167   2.0000      -0.761259       -20.7149
 168   2.0000      -0.757651       -20.6167
 169   2.0000      -0.751087       -20.4381
 170   2.0000      -0.738344       -20.0914
 171   2.0000      -0.729716       -19.8566
 172   2.0000      -0.722556       -19.6618
 173   2.0000      -0.720707       -19.6114
 174   2.0000      -0.719094       -19.5675
 175   2.0000      -0.717134       -19.5142
 176   2.0000      -0.714266       -19.4362
 177   2.0000      -0.709195       -19.2982
 178   2.0000      -0.707209       -19.2441
 179   2.0000      -0.702006       -19.1026
 180   2.0000      -0.695688       -18.9306
 181   2.0000      -0.691745       -18.8233
 182   2.0000      -0.678886       -18.4734
 183   2.0000      -0.674045       -18.3417
 184   2.0000      -0.663724       -18.0608
 185   2.0000      -0.663226       -18.0473
 186   2.0000      -0.660364       -17.9694
 187   2.0000      -0.658115       -17.9082
 188   2.0000      -0.653078       -17.7712
 189   2.0000      -0.652059       -17.7434
 190   2.0000      -0.645886       -17.5754
 191   2.0000      -0.644869       -17.5478
 192   2.0000      -0.641162       -17.4469
 193   2.0000      -0.637343       -17.3430
 194   2.0000      -0.629074       -17.1180
 195   2.0000      -0.622761       -16.9462
 196   2.0000      -0.621861       -16.9217
 197   2.0000      -0.612674       -16.6717
 198   2.0000      -0.606614       -16.5068
 199   2.0000      -0.605431       -16.4746
 200   2.0000      -0.596520       -16.2321
 201   2.0000      -0.586454       -15.9582
 202   2.0000      -0.581259       -15.8169
 203   2.0000      -0.575991       -15.6735
 204   2.0000      -0.575001       -15.6466
 205   2.0000      -0.573631       -15.6093
 206   2.0000      -0.573360       -15.6019
 207   2.0000      -0.570398       -15.5213
 208   2.0000      -0.570284       -15.5182
 209   2.0000      -0.567699       -15.4479
 210   2.0000      -0.566692       -15.4205
 211   2.0000      -0.564551       -15.3622
 212   2.0000      -0.557113       -15.1598
 213   2.0000      -0.552487       -15.0339
 214   2.0000      -0.548078       -14.9140
 215   2.0000      -0.543023       -14.7764
 216   2.0000      -0.539897       -14.6913
 217   2.0000      -0.538822       -14.6621
 218   2.0000      -0.534345       -14.5403
 219   2.0000      -0.533085       -14.5060
 220   2.0000      -0.532263       -14.4836
 221   2.0000      -0.531559       -14.4645
 222   2.0000      -0.529698       -14.4138
 223   2.0000      -0.529161       -14.3992
 224   2.0000      -0.527890       -14.3646
 225   2.0000      -0.527308       -14.3488
 226   2.0000      -0.524719       -14.2783
 227   2.0000      -0.523168       -14.2361
 228   2.0000      -0.521019       -14.1776
 229   2.0000      -0.517825       -14.0907
 230   2.0000      -0.516982       -14.0678
 231   2.0000      -0.513720       -13.9790
 232   2.0000      -0.513210       -13.9652
 233   2.0000      -0.510812       -13.8999
 234   2.0000      -0.508727       -13.8432
 235   2.0000      -0.506454       -13.7813
 236   2.0000      -0.502407       -13.6712
 237   2.0000      -0.498333       -13.5603
 238   2.0000      -0.495388       -13.4802
 239   2.0000      -0.493990       -13.4422
 240   2.0000      -0.492609       -13.4046
 241   2.0000      -0.482320       -13.1246
 242   2.0000      -0.482030       -13.1167
 243   2.0000      -0.481278       -13.0962
 244   2.0000      -0.480036       -13.0624
 245   2.0000      -0.479457       -13.0467
 246   2.0000      -0.477678       -12.9983
 247   2.0000      -0.475090       -12.9279
 248   2.0000      -0.473388       -12.8816
 249   2.0000      -0.471762       -12.8373
 250   2.0000      -0.468438       -12.7469
 251   2.0000      -0.468274       -12.7424
 252   2.0000      -0.466878       -12.7044
 253   2.0000      -0.466385       -12.6910
 254   2.0000      -0.465156       -12.6575
 255   2.0000      -0.464753       -12.6466
 256   2.0000      -0.463931       -12.6242
 257   2.0000      -0.463764       -12.6197
 258   2.0000      -0.462531       -12.5861
 259   2.0000      -0.462118       -12.5749
 260   2.0000      -0.461827       -12.5670
 261   2.0000      -0.460765       -12.5381
 262   2.0000      -0.459944       -12.5157
 263   2.0000      -0.459283       -12.4977
 264   2.0000      -0.458585       -12.4787
 265   2.0000      -0.458338       -12.4720
 266   2.0000      -0.458027       -12.4635
 267   2.0000      -0.457453       -12.4479
 268   2.0000      -0.456729       -12.4282
 269   2.0000      -0.456483       -12.4215
 270   2.0000      -0.456072       -12.4103
 271   2.0000      -0.454108       -12.3569
 272   2.0000      -0.452573       -12.3151
 273   2.0000      -0.450874       -12.2689
 274   2.0000      -0.448791       -12.2122
 275   2.0000      -0.448394       -12.2014
 276   2.0000      -0.446803       -12.1581
 277   2.0000      -0.446613       -12.1530
 278   2.0000      -0.445626       -12.1261
 279   2.0000      -0.444181       -12.0868
 280   2.0000      -0.439634       -11.9630
 281   2.0000      -0.437589       -11.9074
 282   2.0000      -0.435301       -11.8451
 283   2.0000      -0.432908       -11.7800
 284   2.0000      -0.431378       -11.7384
 285   2.0000      -0.430308       -11.7093
 286   2.0000      -0.430048       -11.7022
 287   2.0000      -0.425525       -11.5791
 288   2.0000      -0.422608       -11.4997
 289   2.0000      -0.416528       -11.3343
 290   2.0000      -0.409491       -11.1428
 291   2.0000      -0.396920       -10.8008
 292   2.0000      -0.379648       -10.3308
 293   2.0000      -0.378476       -10.2989
 294   2.0000      -0.376016       -10.2319
 295   2.0000      -0.374700       -10.1961
 296   2.0000      -0.372968       -10.1490
 297   2.0000      -0.370889       -10.0924
 298   2.0000      -0.366853        -9.9826
 299   2.0000      -0.364370        -9.9150
 300   2.0000      -0.356424        -9.6988
 301   2.0000      -0.346813        -9.4373
 302   2.0000      -0.346378        -9.4254
 303   2.0000      -0.344405        -9.3717
 304   2.0000      -0.343886        -9.3576
 305   2.0000      -0.336932        -9.1684
 306   2.0000      -0.316874        -8.6226
 307   2.0000      -0.290750        -7.9117
 308   2.0000      -0.264997        -7.2109
 309   0.0000      -0.140484        -3.8228
 310   0.0000      -0.132807        -3.6139
 311   0.0000      -0.126001        -3.4286
 312   0.0000      -0.113181        -3.0798
 313   0.0000      -0.112524        -3.0619

MULLIKEN ATOMIC CHARGES
-----------------------
   0 C :    0.048454
   1 C :   -0.041689
   2 C :   -0.062578
   3 C :   -0.173899
   4 N :    0.204955
   5 C :   -0.064452
   6 C :   -0.174868
   7 N :    0.201016
   8 C :   -0.033177
   9 C :   -0.005335
  10 C :    0.158769
  11 O :   -0.139216
  12 C :   -0.102980
  13 C :    0.298363
  14 C :   -0.329730
  15 C :   -0.185188
  16 N :    0.170176
  17 C :   -0.205813
  18 N :    0.171711
  19 C :    0.038794
  20 C :   -0.115612
  21 C :    0.025634
  22 C :   -0.016186
  23 C :   -0.076735
  24 S :    0.218186
  25 C :   -0.105505
  26 C :    0.028967
  27 C :    0.302719
  28 C :   -0.285999
  29 C :   -0.188410
  30 N :    0.177276
  31 C :   -0.185760
  32 N :    0.194002
  33 C :   -0.066524
  34 C :   -0.041182
  35 S :    0.211398
  36 C :   -0.055716
  37 C :   -0.057630
  38 C :    0.017602
  39 C :   -0.094551
  40 S :    0.210277
  41 C :   -0.096650
  42 C :    0.018659
  43 C :    0.293129
  44 C :   -0.285520
  45 C :   -0.185493
  46 N :    0.179284
  47 C :   -0.187288
  48 N :    0.180068
  49 C :   -0.056926
  50 C :   -0.057677
  51 S :    0.210326
  52 C :   -0.042094
  53 C :   -0.065463
  54 C :    0.028486
  55 C :   -0.106101
  56 S :    0.215498
  57 C :   -0.071542
  58 C :    0.024543
  59 C :    0.295155
  60 C :   -0.282913
  61 C :   -0.189970
  62 N :    0.187680
  63 C :   -0.185455
  64 N :    0.176953
  65 C :    0.000240
  66 C :   -0.080807
  67 S :    0.211365
  68 C :    0.047280
  69 C :   -0.143623
  70 C :    0.147710
  71 O :   -0.123741
  72 C :    0.007467
  73 C :   -0.033520
  74 C :   -0.071450
  75 C :   -0.060895
  76 C :   -0.035132
  77 C :    0.034196
  78 C :    0.240865
  79 C :   -0.308306
  80 C :   -0.213647
  81 N :    0.185259
  82 C :   -0.175823
  83 N :    0.175366
  84 C :   -0.174350
  85 N :    0.203363
  86 C :   -0.170829
  87 N :    0.199515
  88 H :    0.021354
  89 H :    0.018639
  90 H :    0.025344
  91 H :    0.036518
  92 H :    0.016090
  93 H :    0.015895
  94 H :    0.016746
  95 H :    0.017185
  96 H :    0.024126
  97 H :    0.037724
  98 H :    0.019477
  99 H :    0.024146
Sum of atomic charges:   -0.0000000

LOEWDIN ATOMIC CHARGES
----------------------
   0 C :    0.001944
   1 C :    0.034158
   2 C :   -0.023408
   3 C :   -0.031713
   4 N :   -0.009950
   5 C :   -0.027638
   6 C :   -0.032144
   7 N :   -0.012182
   8 C :    0.049504
   9 C :   -0.028538
  10 C :    0.084271
  11 O :   -0.127282
  12 C :   -0.104822
  13 C :    0.068594
  14 C :   -0.126485
  15 C :   -0.022609
  16 N :   -0.034177
  17 C :   -0.024986
  18 N :   -0.038606
  19 C :    0.050845
  20 C :   -0.180178
  21 C :    0.028875
  22 C :   -0.074720
  23 C :   -0.151852
  24 S :    0.501406
  25 C :   -0.192735
  26 C :   -0.045763
  27 C :    0.074197
  28 C :   -0.087923
  29 C :   -0.015195
  30 N :   -0.025785
  31 C :   -0.020610
  32 N :   -0.011946
  33 C :   -0.040493
  34 C :   -0.164229
  35 S :    0.494117
  36 C :   -0.182163
  37 C :   -0.029997
  38 C :   -0.064474
  39 C :   -0.176414
  40 S :    0.495455
  41 C :   -0.176178
  42 C :   -0.064657
  43 C :    0.078885
  44 C :   -0.093201
  45 C :   -0.016797
  46 N :   -0.023935
  47 C :   -0.016493
  48 N :   -0.024866
  49 C :   -0.029704
  50 C :   -0.182183
  51 S :    0.495450
  52 C :   -0.164526
  53 C :   -0.039939
  54 C :   -0.045875
  55 C :   -0.191810
  56 S :    0.496537
  57 C :   -0.143728
  58 C :   -0.075523
  59 C :    0.076721
  60 C :   -0.090522
  61 C :   -0.018413
  62 N :   -0.018936
  63 C :   -0.015801
  64 N :   -0.024709
  65 C :    0.022558
  66 C :   -0.181432
  67 S :    0.516208
  68 C :    0.059897
  69 C :   -0.111667
  70 C :    0.083128
  71 O :   -0.126854
  72 C :   -0.030322
  73 C :    0.049611
  74 C :   -0.028585
  75 C :   -0.022413
  76 C :    0.031316
  77 C :    0.004463
  78 C :    0.053927
  79 C :   -0.132943
  80 C :   -0.039205
  81 N :   -0.034517
  82 C :   -0.025342
  83 N :   -0.031929
  84 C :   -0.031864
  85 N :   -0.009344
  86 C :   -0.032412
  87 N :   -0.011880
  88 H :    0.052563
  89 H :    0.055039
  90 H :    0.045516
  91 H :    0.045946
  92 H :    0.037331
  93 H :    0.037629
  94 H :    0.038311
  95 H :    0.037619
  96 H :    0.049354
  97 H :    0.058129
  98 H :    0.055356
  99 H :    0.052665

  Mayer bond orders larger than 0.100000
B(  0-C ,  1-C ) :   1.3589 B(  0-C ,  9-C ) :   1.3360 B(  0-C , 13-C ) :   0.9579
B(  1-C ,  2-C ) :   1.3890 B(  1-C , 88-H ) :   0.9874 B(  2-C ,  3-C ) :   1.0873
B(  2-C ,  5-C ) :   1.4053 B(  3-C ,  4-N ) :   3.0437 B(  5-C ,  6-C ) :   1.0863
B(  5-C ,  8-C ) :   1.3600 B(  6-C ,  7-N ) :   3.0452 B(  8-C ,  9-C ) :   1.3654
B(  8-C , 89-H ) :   1.0157 B(  9-C , 10-C ) :   0.9259 B( 10-C , 11-O ) :   2.2033
B( 10-C , 12-C ) :   0.9556 B( 12-C , 13-C ) :   1.0864 B( 12-C , 19-C ) :   1.5625
B( 13-C , 14-C ) :   1.6528 B( 14-C , 15-C ) :   1.1439 B( 14-C , 17-C ) :   1.1393
B( 15-C , 16-N ) :   2.9658 B( 17-C , 18-N ) :   2.9933 B( 19-C , 20-C ) :   1.2285
B( 19-C , 90-H ) :   0.9247 B( 20-C , 21-C ) :   1.3843 B( 20-C , 24-S ) :   1.0674
B( 21-C , 22-C ) :   1.3529 B( 21-C , 91-H ) :   0.9737 B( 22-C , 23-C ) :   1.3661
B( 22-C , 27-C ) :   0.9941 B( 23-C , 24-S ) :   1.1748 B( 23-C , 25-C ) :   1.2137
B( 25-C , 26-C ) :   1.4325 B( 25-C , 35-S ) :   1.1047 B( 26-C , 27-C ) :   0.9932
B( 26-C , 33-C ) :   1.3160 B( 27-C , 28-C ) :   1.7233 B( 28-C , 29-C ) :   1.1345
B( 28-C , 31-C ) :   1.1341 B( 29-C , 30-N ) :   2.9875 B( 31-C , 32-N ) :   2.9927
B( 33-C , 34-C ) :   1.4402 B( 33-C , 92-H ) :   0.9854 B( 34-C , 35-S ) :   1.1261
B( 34-C , 36-C ) :   1.1737 B( 36-C , 37-C ) :   1.4498 B( 36-C , 40-S ) :   1.1094
B( 37-C , 38-C ) :   1.3107 B( 37-C , 93-H ) :   0.9854 B( 38-C , 39-C ) :   1.4376
B( 38-C , 43-C ) :   0.9948 B( 39-C , 40-S ) :   1.1269 B( 39-C , 41-C ) :   1.1903
B( 41-C , 42-C ) :   1.4375 B( 41-C , 51-S ) :   1.1282 B( 42-C , 43-C ) :   0.9937
B( 42-C , 49-C ) :   1.3090 B( 43-C , 44-C ) :   1.7210 B( 44-C , 45-C ) :   1.1317
B( 44-C , 47-C ) :   1.1324 B( 45-C , 46-N ) :   2.9909 B( 47-C , 48-N ) :   2.9907
B( 49-C , 50-C ) :   1.4507 B( 49-C , 94-H ) :   0.9865 B( 50-C , 51-S ) :   1.1083
B( 50-C , 52-C ) :   1.1730 B( 52-C , 53-C ) :   1.4366 B( 52-C , 56-S ) :   1.1275
B( 53-C , 54-C ) :   1.3178 B( 53-C , 95-H ) :   0.9864 B( 54-C , 55-C ) :   1.4284
B( 54-C , 59-C ) :   0.9940 B( 55-C , 56-S ) :   1.1052 B( 55-C , 57-C ) :   1.2223
B( 57-C , 58-C ) :   1.3753 B( 57-C , 67-S ) :   1.1733 B( 58-C , 59-C ) :   0.9934
B( 58-C , 65-C ) :   1.3224 B( 59-C , 60-C ) :   1.7243 B( 60-C , 61-C ) :   1.1324
B( 60-C , 63-C ) :   1.1329 B( 61-C , 62-N ) :   2.9942 B( 63-C , 64-N ) :   2.9876
B( 65-C , 66-C ) :   1.3697 B( 65-C , 96-H ) :   1.0021 B( 66-C , 67-S ) :   1.0688
B( 66-C , 68-C ) :   1.1950 B( 68-C , 69-C ) :   1.5894 B( 68-C , 97-H ) :   0.9447
B( 69-C , 70-C ) :   0.9521 B( 69-C , 78-C ) :   1.0498 B( 70-C , 71-O ) :   2.2810
B( 70-C , 72-C ) :   0.8989 B( 72-C , 73-C ) :   1.3729 B( 72-C , 77-C ) :   1.3363
B( 73-C , 74-C ) :   1.3634 B( 73-C , 98-H ) :   1.0145 B( 74-C , 75-C ) :   1.4050
B( 74-C , 86-C ) :   1.0877 B( 75-C , 76-C ) :   1.3841 B( 75-C , 84-C ) :   1.0857
B( 76-C , 77-C ) :   1.3666 B( 76-C , 99-H ) :   0.9907 B( 77-C , 78-C ) :   0.9791
B( 78-C , 79-C ) :   1.6624 B( 79-C , 80-C ) :   1.1554 B( 79-C , 82-C ) :   1.1318
B( 80-C , 81-N ) :   3.0220 B( 82-C , 83-N ) :   2.9894 B( 84-C , 85-N ) :   3.0446
B( 86-C , 87-N ) :   3.0442

-----------------------------------------------------------------------------
         ABSORPTION SPECTRUM VIA TRANSITION ELECTRIC DIPOLE MOMENTS
-----------------------------------------------------------------------------
State   Energy  Wavelength   fosc         T2         TX        TY        TZ
        (cm-1)    (nm)                  (au**2)     (au)      (au)      (au)
-----------------------------------------------------------------------------
   0   11451.6    873.2   0.964586626  27.73009   1.35463   5.00796  -0.90300
   1   12904.5    774.9   0.071917032   1.83470   0.17423   1.33128  -0.17904
   2   13351.6    749.0   0.112949707   2.78502  -0.67680  -1.50973   0.21837
   3   18948.5    527.7   1.120487298  19.46736   0.78864   4.34113  -0.00200
   4   19856.6    503.6   0.607733907  10.07590  -1.40884  -2.54897   1.26246
   5   20315.6    492.2   0.010134263   0.16422  -0.07517  -0.39779   0.01834
   6   21781.1    459.1   0.016684855   0.25218   0.23061   0.37234   0.24570
   7   22933.8    436.0   0.028261821   0.40570   0.05541   0.31292  -0.55200
   8   23490.2    425.7   0.316709033   4.43863   0.75077   1.96164   0.16411
   9   24008.5    416.5   0.252219220   3.45851   0.17875  -1.77052   0.54019
  10   26317.2    380.0   0.016406972   0.20524  -0.30031  -0.30690   0.14446
  11   27068.8    369.4   0.010330586   0.12564  -0.10162   0.03350   0.33792
  12   27344.8    365.7   0.067722143   0.81533   0.03968   0.45324  -0.77995
  13   27498.6    363.7   0.075566106   0.90467  -0.21157  -0.62888  -0.68148
  14   27991.0    357.3   0.180805808   2.12652  -0.28886  -1.31539   0.55932
  15   28966.1    345.2   0.301474277   3.42639  -0.73432  -1.49868   0.80071
  16   29362.6    340.6   0.008865210   0.09940  -0.28509  -0.12476   0.05053
  17   29672.0    337.0   0.007336498   0.08140   0.11274  -0.24947  -0.08032
  18   30063.7    332.6   0.295310466   3.23379  -0.82585   1.17829   1.07861
  19   30258.7    330.5   0.078662933   0.85585  -0.49239   0.05435   0.78131
  20   30829.9    324.4   0.040210411   0.42938   0.23174  -0.06937  -0.60899
  21   31100.3    321.5   0.077340992   0.81869   0.46250  -0.59175   0.50460
  22   31197.9    320.5   0.035140372   0.37081  -0.03284   0.60543   0.05646
  23   31335.2    319.1   0.302682873   3.18002   0.41841  -0.85179  -1.50977
  24   31422.6    318.2   0.770632724   8.07385   1.38666  -0.70308  -2.37839
  25   31742.0    315.0   0.063104954   0.65449   0.25696   0.67816   0.35856
  26   32013.7    312.4   0.119850951   1.23248   0.42291  -0.91627   0.46268
  27   32339.2    309.2   0.138424852   1.40916  -0.57578  -0.40149  -0.95731
  28   32821.3    304.7   0.287611677   2.88487   0.23013   1.58597  -0.56269
  29   32868.2    304.2   0.690986239   6.92101  -1.03198   1.36133   2.00070
  30   33229.0    300.9   0.059336803   0.58787  -0.68973  -0.30189   0.14493
  31   33433.7    299.1   0.055621115   0.54768  -0.30189  -0.64910  -0.18765
  32   33464.9    298.8   0.046084939   0.45336   0.33904   0.55262  -0.18173
  33   33692.1    296.8   0.172890747   1.68935   0.34592  -0.65890  -1.06562
  34   33878.7    295.2   0.104443801   1.01492   0.00252   0.87902  -0.49218
  35   34170.4    292.7   0.199311016   1.92024  -0.54369  -0.28734   1.24180
  36   34421.9    290.5   0.106939778   1.02278  -0.46045  -0.80527  -0.40288
  37   34667.2    288.5   0.128537910   1.22064  -0.80990  -0.72962   0.17985
  38   34950.2    286.1   0.469478141   4.42223   0.90865  -1.88692   0.19007
  39   35072.1    285.1   0.100496879   0.94334  -0.73134   0.09690  -0.63173
  40   35100.4    284.9   0.221222177   2.07487   0.22710  -0.75836  -1.20341
  41   35178.5    284.3   0.108759870   1.01781  -0.28681   0.35440  -0.89997
  42   35644.1    280.6   0.138737457   1.28139   0.68933   0.20989   0.87302
  43   35740.4    279.8   0.010902067   0.10042  -0.10418   0.29761   0.03154
  44   36308.4    275.4   0.007699478   0.06981   0.14043   0.19142   0.11596
  45   36551.6    273.6   0.118408718   1.06648  -0.48821   0.40366  -0.81559
  46   36721.6    272.3   0.072880424   0.65338   0.12611  -0.67224  -0.43077
  47   37027.8    270.1   0.186533124   1.65846   0.27794   0.26189   1.22989
  48   37184.3    268.9   0.069725652   0.61732  -0.22903   0.04971   0.74993
  49   37252.3    268.4   0.153149623   1.35344   0.10773  -0.52203   1.03408
  50   37585.5    266.1   0.030028675   0.26302  -0.15901  -0.47845   0.09394
  51   37949.6    263.5   0.000417842   0.00362  -0.04324  -0.01203  -0.04013
  52   38064.8    262.7   0.008725591   0.07547  -0.12805  -0.19228   0.14864
  53   38252.7    261.4   0.011081812   0.09537   0.03376  -0.10307  -0.28915
  54   38310.4    261.0   0.035618343   0.30608  -0.05528   0.20275   0.51178
  55   38712.2    258.3   0.108922743   0.92629   0.39148   0.12874  -0.86974
  56   38763.5    258.0   0.088782882   0.75402  -0.02239  -0.51782   0.69669
  57   38846.9    257.4   0.000795312   0.00674  -0.07916  -0.01700  -0.01360
  58   39019.3    256.3   0.021338137   0.18003   0.14792  -0.13121  -0.37541
  59   39100.0    255.8   0.012009196   0.10111  -0.02193  -0.28070  -0.14779
  60   39271.9    254.6   0.048108581   0.40329  -0.32010  -0.38863   0.38703
  61   39435.0    253.6   0.028026936   0.23398  -0.13024  -0.44361   0.14222
  62   39593.2    252.6   0.050099239   0.41657   0.14274  -0.50827  -0.37128
  63   39744.6    251.6   0.031644302   0.26212   0.24951   0.28654  -0.34316
  64   39866.5    250.8   0.003425541   0.02829  -0.13167  -0.05911   0.08635
  65   40059.3    249.6   0.031606917   0.25975   0.05363   0.46703  -0.19687
  66   40240.7    248.5   0.041040723   0.33576  -0.50640  -0.19537   0.20284
  67   40313.1    248.1   0.063702574   0.52022  -0.35818  -0.57269   0.25288

FINAL SINGLE POINT ENERGY     -5822.938337030307

DIPOLE MOMENT
-------------
                                X             Y             Z
Electronic contribution:     -2.09933      -0.11330      -3.80987
Nuclear contribution   :      1.13581      -1.01760       4.70663
                        -----------------------------------------
Total Dipole Moment    :     -0.96352      -1.13089       0.89676
                        -----------------------------------------
Magnitude (a.u.)       :      1.73536
Magnitude (Debye)      :      4.41094

Rotational constants in cm-1:     0.001637     0.000115     0.000111
Rotational constants in MHz :    49.081722     3.434577     3.322036

                             ****ORCA TERMINATED NORMALLY****
TOTAL RUN TIME: 0 days 0 hours 11 minutes 30 seconds 406 msec
