                         Program Version 4.2.0 -  RELEASE  -
|  1> # ORCA input file
|  2> # SCF done       -204.812910721102          0.000429778196
|  3> ! CAM-B3LYP def2-SVP def2/J RIJCOSX Grid4 TightSCF
|  4> %maxcore 5000
|  5> %tddft
|  6>     Mode sTDDFT
|  7>     Ethresh 5.0
|  8>     maxcore 5000
|  9> end
| 10>
| 11> %pal
| 12>   nprocs 6
| 13>   end
| 14> * xyz 0 1
| 15>    C       -2.33532         1.56658         0.73369
| 16>    C       -3.54634         0.97492         0.39869
| 17>    C       -3.78787         0.49149        -0.87974
| 18>    C       -2.81078         0.57288        -1.86213
| 19>    C       -1.60137         1.15403        -1.53276
| 20>    C       -1.35811         1.66308        -0.24322
| 21>    C       -0.01778         2.24717        -0.20967
| 22>    C        0.40212         3.19271         0.68794
| 23>    C       -0.36776         3.63359         1.78578
| 24>    N       -0.95283         4.03648         2.68654
| 25>    C        1.61012         3.90746         0.56900
| 26>    N        2.57409         4.52720         0.49837
| 27>    C        0.64567         1.85735        -1.43632
| 28>    C       -0.39808         1.33230        -2.36685
| 29>    O       -0.24994         1.07203        -3.53786
| 30>    C        1.94917         1.80619        -1.82423
| 31>    C        3.11410         1.86668        -1.02811
| 32>    C        3.25141         1.65120         0.33557
| 33>    C        4.57197         1.74906         0.75285
| 34>    C        5.46190         2.03848        -0.30183
| 35>    S        4.66746         2.17048        -1.79970
| 36>    C        6.77287         2.11406         0.23017
| 37>    C        6.71269         1.87630         1.61492
| 38>    C        5.32447         1.65615         1.99107
| 39>    C        4.82311         1.43542         3.23989
| 40>    C        5.65075         1.37315         4.38055
| 41>    N        6.33067         1.31734         5.30190
| 42>    C        3.44018         1.25446         3.45483
| 43>    N        2.31453         1.10302         3.61183
| 44>    C        7.96472         1.89946         2.22573
| 45>    C        8.97772         2.15123         1.31666
| 46>    S        8.37013         2.37678        -0.31607
| 47>    C       10.37183         2.19355         1.56926
| 48>    C       11.38648         2.44179         0.66230
| 49>    C       12.64628         2.34340         1.25089
| 50>    C       12.58804         2.01891         2.61767
| 51>    S       10.98559         1.84716         3.18038
| 52>    C       13.91154         1.89641         3.11021
| 53>    C       14.80719         2.14371         2.05517
| 54>    C       14.04232         2.44636         0.85524
| 55>    C       14.53057         2.75603        -0.37946
| 56>    C       15.91552         2.82642        -0.64100
| 57>    N       17.04130         2.88119        -0.85043
| 58>    C       13.68187         3.02776        -1.47367
| 59>    N       12.99049         3.24731        -2.36137
| 60>    C       16.14180         2.00239         2.43189
| 61>    C       16.26796         1.64830         3.76330
| 62>    S       14.71075         1.50129         4.56622
| 63>    C       17.46293         1.37194         4.47384
| 64>    C       17.58838         1.01247         5.80453
| 65>    C       18.91523         0.77021         6.15429
| 66>    C       19.80631         0.94563         5.08072
| 67>    S       19.01113         1.41796         3.64486
| 68>    C       21.11756         0.64200         5.52350
| 69>    C       21.05303         0.28040         6.88434
| 70>    C       19.67045         0.34480         7.32301
| 71>    C       19.18743         0.02927         8.55863
| 72>    C       20.04356        -0.40082         9.59465
| 73>    N       20.75253        -0.74491        10.42749
| 74>    C       17.81441         0.11313         8.87113
| 75>    N       16.69838         0.19138         9.12139
| 76>    C       22.28608        -0.09162         7.40433
| 77>    C       23.29586        -0.02934         6.45577
| 78>    S       22.69817         0.54679         4.90304
| 79>    C       24.66948        -0.32869         6.59553
| 80>    C       25.28966        -1.07386         7.55012
| 81>    C       24.81817        -1.99405         8.56515
| 82>    C       23.70966        -2.79840         8.49772
| 83>    C       23.38643        -3.77461         9.46391
| 84>    N       23.07890        -4.58634        10.21424
| 85>    C       22.81479        -2.82262         7.41126
| 86>    N       22.07236        -2.89896         6.53831
| 87>    C       25.88384        -2.12819         9.55210
| 88>    C       27.06027        -1.52139         9.03969
| 89>    C       26.76291        -0.91332         7.73256
| 90>    O       27.52219        -0.35568         6.97393
| 91>    C       28.25041        -1.52847         9.72700
| 92>    C       28.27739        -2.14857        10.97984
| 93>    C       27.09189        -2.73163        11.49078
| 94>    C       25.88959        -2.73404        10.79299
| 95>    S       27.35709        -3.42360        13.05883
| 96>    C       29.01824        -2.94435        13.01650
| 97>    C       29.36601        -2.29264        11.88535
| 98>    H       -2.16576         1.92476         1.73629
| 99>    H       -4.31463         0.89066         1.15241
|100>    H       -4.74310         0.04413        -1.10939
|101>    H       -2.97697         0.19621        -2.85957
|102>    H        2.10214         1.62014        -2.88318
|103>    H        2.42765         1.38737         0.97325
|104>    H        8.14743         1.73721         3.27295
|105>    H       11.20007         2.67262        -0.37123
|106>    H       16.98820         2.13755         1.78264
|107>    H       16.74657         0.92991         6.46857
|108>    H       22.46183        -0.36006         8.43005
|109>    H       25.33822         0.14116         5.88031
|110>    H       29.13321        -1.06933         9.31001
|111>    H       25.00903        -3.18122        11.22392
|112>    H       29.64207        -3.18364        13.85571
|113>    H       30.35416        -1.92055        11.68393
|114> *
|115>
|116>                          ****END OF INPUT****

CARTESIAN COORDINATES (ANGSTROEM)
---------------------------------
  C     -2.335320    1.566580    0.733690
  C     -3.546340    0.974920    0.398690
  C     -3.787870    0.491490   -0.879740
  C     -2.810780    0.572880   -1.862130
  C     -1.601370    1.154030   -1.532760
  C     -1.358110    1.663080   -0.243220
  C     -0.017780    2.247170   -0.209670
  C      0.402120    3.192710    0.687940
  C     -0.367760    3.633590    1.785780
  N     -0.952830    4.036480    2.686540
  C      1.610120    3.907460    0.569000
  N      2.574090    4.527200    0.498370
  C      0.645670    1.857350   -1.436320
  C     -0.398080    1.332300   -2.366850
  O     -0.249940    1.072030   -3.537860
  C      1.949170    1.806190   -1.824230
  C      3.114100    1.866680   -1.028110
  C      3.251410    1.651200    0.335570
  C      4.571970    1.749060    0.752850
  C      5.461900    2.038480   -0.301830
  S      4.667460    2.170480   -1.799700
  C      6.772870    2.114060    0.230170
  C      6.712690    1.876300    1.614920
  C      5.324470    1.656150    1.991070
  C      4.823110    1.435420    3.239890
  C      5.650750    1.373150    4.380550
  N      6.330670    1.317340    5.301900
  C      3.440180    1.254460    3.454830
  N      2.314530    1.103020    3.611830
  C      7.964720    1.899460    2.225730
  C      8.977720    2.151230    1.316660
  S      8.370130    2.376780   -0.316070
  C     10.371830    2.193550    1.569260
  C     11.386480    2.441790    0.662300
  C     12.646280    2.343400    1.250890
  C     12.588040    2.018910    2.617670
  S     10.985590    1.847160    3.180380
  C     13.911540    1.896410    3.110210
  C     14.807190    2.143710    2.055170
  C     14.042320    2.446360    0.855240
  C     14.530570    2.756030   -0.379460
  C     15.915520    2.826420   -0.641000
  N     17.041300    2.881190   -0.850430
  C     13.681870    3.027760   -1.473670
  N     12.990490    3.247310   -2.361370
  C     16.141800    2.002390    2.431890
  C     16.267960    1.648300    3.763300
  S     14.710750    1.501290    4.566220
  C     17.462930    1.371940    4.473840
  C     17.588380    1.012470    5.804530
  C     18.915230    0.770210    6.154290
  C     19.806310    0.945630    5.080720
  S     19.011130    1.417960    3.644860
  C     21.117560    0.642000    5.523500
  C     21.053030    0.280400    6.884340
  C     19.670450    0.344800    7.323010
  C     19.187430    0.029270    8.558630
  C     20.043560   -0.400820    9.594650
  N     20.752530   -0.744910   10.427490
  C     17.814410    0.113130    8.871130
  N     16.698380    0.191380    9.121390
  C     22.286080   -0.091620    7.404330
  C     23.295860   -0.029340    6.455770
  S     22.698170    0.546790    4.903040
  C     24.669480   -0.328690    6.595530
  C     25.289660   -1.073860    7.550120
  C     24.818170   -1.994050    8.565150
  C     23.709660   -2.798400    8.497720
  C     23.386430   -3.774610    9.463910
  N     23.078900   -4.586340   10.214240
  C     22.814790   -2.822620    7.411260
  N     22.072360   -2.898960    6.538310
  C     25.883840   -2.128190    9.552100
  C     27.060270   -1.521390    9.039690
  C     26.762910   -0.913320    7.732560
  O     27.522190   -0.355680    6.973930
  C     28.250410   -1.528470    9.727000
  C     28.277390   -2.148570   10.979840
  C     27.091890   -2.731630   11.490780
  C     25.889590   -2.734040   10.792990
  S     27.357090   -3.423600   13.058830
  C     29.018240   -2.944350   13.016500
  C     29.366010   -2.292640   11.885350
  H     -2.165760    1.924760    1.736290
  H     -4.314630    0.890660    1.152410
  H     -4.743100    0.044130   -1.109390
  H     -2.976970    0.196210   -2.859570
  H      2.102140    1.620140   -2.883180
  H      2.427650    1.387370    0.973250
  H      8.147430    1.737210    3.272950
  H     11.200070    2.672620   -0.371230
  H     16.988200    2.137550    1.782640
  H     16.746570    0.929910    6.468570
  H     22.461830   -0.360060    8.430050
  H     25.338220    0.141160    5.880310
  H     29.133210   -1.069330    9.310010
  H     25.009030   -3.181220   11.223920
  H     29.642070   -3.183640   13.855710
  H     30.354160   -1.920550   11.683930

 Total Charge           Charge          ....    0
 Multiplicity           Mult            ....    1
 Number of Electrons    NEL             ....  598
 Basis Dimension        Dim             .... 1270

ORBITAL ENERGIES
----------------

  NO   OCC          E(Eh)            E(eV)
   0   2.0000     -89.002158     -2421.8719
   1   2.0000     -89.001899     -2421.8648
   2   2.0000     -89.001783     -2421.8616
   3   2.0000     -89.001021     -2421.8409
   4   2.0000     -88.999723     -2421.8056
   5   2.0000     -88.998738     -2421.7788
   6   2.0000     -88.967083     -2420.9174
   7   2.0000     -19.219083      -522.9778
   8   2.0000     -19.216301      -522.9021
   9   2.0000     -14.440299      -392.9405
  10   2.0000     -14.440235      -392.9388
  11   2.0000     -14.437577      -392.8664
  12   2.0000     -14.437521      -392.8649
  13   2.0000     -14.436855      -392.8468
  14   2.0000     -14.436791      -392.8450
  15   2.0000     -14.420662      -392.4062
  16   2.0000     -14.419146      -392.3649
  17   2.0000     -14.415363      -392.2620
  18   2.0000     -14.414593      -392.2410
  19   2.0000     -10.375588      -282.3341
  20   2.0000     -10.373016      -282.2641
  21   2.0000     -10.372106      -282.2394
  22   2.0000     -10.369676      -282.1732
  23   2.0000     -10.367454      -282.1128
  24   2.0000     -10.362405      -281.9754
  25   2.0000     -10.359967      -281.9090
  26   2.0000     -10.359037      -281.8837
  27   2.0000     -10.347546      -281.5711
  28   2.0000     -10.347444      -281.5683
  29   2.0000     -10.346131      -281.5325
  30   2.0000     -10.345452      -281.5141
  31   2.0000     -10.345042      -281.5029
  32   2.0000     -10.344445      -281.4867
  33   2.0000     -10.343846      -281.4704
  34   2.0000     -10.343441      -281.4593
  35   2.0000     -10.343134      -281.4510
  36   2.0000     -10.342251      -281.4269
  37   2.0000     -10.341785      -281.4143
  38   2.0000     -10.341012      -281.3932
  39   2.0000     -10.340737      -281.3858
  40   2.0000     -10.340558      -281.3809
  41   2.0000     -10.340389      -281.3763
  42   2.0000     -10.340362      -281.3756
  43   2.0000     -10.337648      -281.3017
  44   2.0000     -10.337574      -281.2997
  45   2.0000     -10.336979      -281.2835
  46   2.0000     -10.336844      -281.2798
  47   2.0000     -10.330736      -281.1136
  48   2.0000     -10.329921      -281.0914
  49   2.0000     -10.327322      -281.0207
  50   2.0000     -10.326042      -280.9859
  51   2.0000     -10.321704      -280.8678
  52   2.0000     -10.321502      -280.8623
  53   2.0000     -10.320699      -280.8405
  54   2.0000     -10.317622      -280.7568
  55   2.0000     -10.317039      -280.7409
  56   2.0000     -10.316895      -280.7370
  57   2.0000     -10.315932      -280.7108
  58   2.0000     -10.315857      -280.7087
  59   2.0000     -10.314836      -280.6810
  60   2.0000     -10.314795      -280.6798
  61   2.0000     -10.314748      -280.6786
  62   2.0000     -10.314497      -280.6717
  63   2.0000     -10.314094      -280.6608
  64   2.0000     -10.313704      -280.6501
  65   2.0000     -10.313021      -280.6316
  66   2.0000     -10.312389      -280.6144
  67   2.0000     -10.311374      -280.5867
  68   2.0000     -10.310273      -280.5568
  69   2.0000     -10.308587      -280.5109
  70   2.0000     -10.308064      -280.4967
  71   2.0000     -10.304112      -280.3891
  72   2.0000     -10.302731      -280.3516
  73   2.0000     -10.302435      -280.3435
  74   2.0000     -10.301937      -280.3300
  75   2.0000     -10.300441      -280.2893
  76   2.0000     -10.297111      -280.1986
  77   2.0000     -10.296561      -280.1837
  78   2.0000     -10.296151      -280.1725
  79   2.0000     -10.295698      -280.1602
  80   2.0000     -10.294328      -280.1229
  81   2.0000     -10.292236      -280.0660
  82   2.0000     -10.289566      -279.9933
  83   2.0000      -8.096574      -220.3190
  84   2.0000      -8.096323      -220.3121
  85   2.0000      -8.096215      -220.3092
  86   2.0000      -8.095486      -220.2894
  87   2.0000      -8.094420      -220.2604
  88   2.0000      -8.093446      -220.2339
  89   2.0000      -8.063366      -219.4153
  90   2.0000      -6.065862      -165.0605
  91   2.0000      -6.065603      -165.0535
  92   2.0000      -6.065521      -165.0512
  93   2.0000      -6.064766      -165.0307
  94   2.0000      -6.063586      -164.9986
  95   2.0000      -6.062608      -164.9720
  96   2.0000      -6.061690      -164.9470
  97   2.0000      -6.061457      -164.9406
  98   2.0000      -6.061355      -164.9379
  99   2.0000      -6.060634      -164.9182
 100   2.0000      -6.059403      -164.8847
 101   2.0000      -6.058839      -164.8694
 102   2.0000      -6.058596      -164.8628
 103   2.0000      -6.058449      -164.8588
 104   2.0000      -6.058428      -164.8582
 105   2.0000      -6.057726      -164.8391
 106   2.0000      -6.056916      -164.8171
 107   2.0000      -6.055952      -164.7908
 108   2.0000      -6.032886      -164.1632
 109   2.0000      -6.028552      -164.0452
 110   2.0000      -6.025039      -163.9497
 111   2.0000      -1.134397       -30.8685
 112   2.0000      -1.131748       -30.7964
 113   2.0000      -1.057744       -28.7827
 114   2.0000      -1.055132       -28.7116
 115   2.0000      -1.053213       -28.6594
 116   2.0000      -1.032451       -28.0944
 117   2.0000      -1.029710       -28.0198
 118   2.0000      -1.028862       -27.9967
 119   2.0000      -1.023098       -27.8399
 120   2.0000      -1.022259       -27.8171
 121   2.0000      -1.018587       -27.7172
 122   2.0000      -1.017044       -27.6752
 123   2.0000      -1.015088       -27.6219
 124   2.0000      -1.014302       -27.6006
 125   2.0000      -1.010155       -27.4877
 126   2.0000      -1.008169       -27.4337
 127   2.0000      -0.999766       -27.2050
 128   2.0000      -0.999701       -27.2032
 129   2.0000      -0.994823       -27.0705
 130   2.0000      -0.994376       -27.0584
 131   2.0000      -0.986396       -26.8412
 132   2.0000      -0.974755       -26.5244
 133   2.0000      -0.967035       -26.3144
 134   2.0000      -0.963133       -26.2082
 135   2.0000      -0.951132       -25.8816
 136   2.0000      -0.935256       -25.4496
 137   2.0000      -0.931101       -25.3365
 138   2.0000      -0.924434       -25.1551
 139   2.0000      -0.915786       -24.9198
 140   2.0000      -0.904268       -24.6064
 141   2.0000      -0.900973       -24.5167
 142   2.0000      -0.888177       -24.1685
 143   2.0000      -0.883190       -24.0328
 144   2.0000      -0.882338       -24.0096
 145   2.0000      -0.880995       -23.9731
 146   2.0000      -0.877535       -23.8789
 147   2.0000      -0.871380       -23.7115
 148   2.0000      -0.868450       -23.6317
 149   2.0000      -0.864769       -23.5316
 150   2.0000      -0.861581       -23.4448
 151   2.0000      -0.860498       -23.4154
 152   2.0000      -0.843550       -22.9542
 153   2.0000      -0.824153       -22.4264
 154   2.0000      -0.821902       -22.3651
 155   2.0000      -0.806596       -21.9486
 156   2.0000      -0.795985       -21.6598
 157   2.0000      -0.790066       -21.4988
 158   2.0000      -0.783824       -21.3289
 159   2.0000      -0.779361       -21.2075
 160   2.0000      -0.772459       -21.0197
 161   2.0000      -0.765690       -20.8355
 162   2.0000      -0.757399       -20.6099
 163   2.0000      -0.744045       -20.2465
 164   2.0000      -0.727953       -19.8086
 165   2.0000      -0.719342       -19.5743
 166   2.0000      -0.715779       -19.4773
 167   2.0000      -0.708313       -19.2742
 168   2.0000      -0.707009       -19.2387
 169   2.0000      -0.702955       -19.1284
 170   2.0000      -0.698271       -19.0009
 171   2.0000      -0.693025       -18.8582
 172   2.0000      -0.690783       -18.7971
 173   2.0000      -0.688349       -18.7309
 174   2.0000      -0.684829       -18.6351
 175   2.0000      -0.681351       -18.5405
 176   2.0000      -0.679413       -18.4878
 177   2.0000      -0.663057       -18.0427
 178   2.0000      -0.657228       -17.8841
 179   2.0000      -0.652109       -17.7448
 180   2.0000      -0.644695       -17.5430
 181   2.0000      -0.642920       -17.4947
 182   2.0000      -0.639043       -17.3893
 183   2.0000      -0.637457       -17.3461
 184   2.0000      -0.631681       -17.1889
 185   2.0000      -0.630634       -17.1604
 186   2.0000      -0.627298       -17.0696
 187   2.0000      -0.621870       -16.9220
 188   2.0000      -0.620909       -16.8958
 189   2.0000      -0.619687       -16.8625
 190   2.0000      -0.612027       -16.6541
 191   2.0000      -0.603209       -16.4141
 192   2.0000      -0.598473       -16.2853
 193   2.0000      -0.594215       -16.1694
 194   2.0000      -0.586160       -15.9502
 195   2.0000      -0.580717       -15.8021
 196   2.0000      -0.573499       -15.6057
 197   2.0000      -0.563383       -15.3304
 198   2.0000      -0.560523       -15.2526
 199   2.0000      -0.557497       -15.1703
 200   2.0000      -0.555628       -15.1194
 201   2.0000      -0.554708       -15.0944
 202   2.0000      -0.551030       -14.9943
 203   2.0000      -0.548083       -14.9141
 204   2.0000      -0.544370       -14.8130
 205   2.0000      -0.540087       -14.6965
 206   2.0000      -0.538887       -14.6639
 207   2.0000      -0.536012       -14.5856
 208   2.0000      -0.533495       -14.5171
 209   2.0000      -0.531349       -14.4587
 210   2.0000      -0.530612       -14.4387
 211   2.0000      -0.526898       -14.3376
 212   2.0000      -0.522257       -14.2113
 213   2.0000      -0.518564       -14.1108
 214   2.0000      -0.518242       -14.1021
 215   2.0000      -0.517466       -14.0810
 216   2.0000      -0.514660       -14.0046
 217   2.0000      -0.512429       -13.9439
 218   2.0000      -0.511725       -13.9248
 219   2.0000      -0.511346       -13.9144
 220   2.0000      -0.510415       -13.8891
 221   2.0000      -0.509619       -13.8674
 222   2.0000      -0.503421       -13.6988
 223   2.0000      -0.503018       -13.6878
 224   2.0000      -0.500094       -13.6082
 225   2.0000      -0.499514       -13.5925
 226   2.0000      -0.497696       -13.5430
 227   2.0000      -0.495785       -13.4910
 228   2.0000      -0.492515       -13.4020
 229   2.0000      -0.490608       -13.3501
 230   2.0000      -0.488695       -13.2981
 231   2.0000      -0.487489       -13.2653
 232   2.0000      -0.484889       -13.1945
 233   2.0000      -0.480724       -13.0812
 234   2.0000      -0.478932       -13.0324
 235   2.0000      -0.470963       -12.8156
 236   2.0000      -0.470332       -12.7984
 237   2.0000      -0.468101       -12.7377
 238   2.0000      -0.467703       -12.7268
 239   2.0000      -0.467333       -12.7168
 240   2.0000      -0.466860       -12.7039
 241   2.0000      -0.465326       -12.6622
 242   2.0000      -0.464110       -12.6291
 243   2.0000      -0.463894       -12.6232
 244   2.0000      -0.459300       -12.4982
 245   2.0000      -0.457376       -12.4458
 246   2.0000      -0.455385       -12.3917
 247   2.0000      -0.454519       -12.3681
 248   2.0000      -0.453068       -12.3286
 249   2.0000      -0.451633       -12.2896
 250   2.0000      -0.451350       -12.2819
 251   2.0000      -0.451155       -12.2766
 252   2.0000      -0.450875       -12.2689
 253   2.0000      -0.450263       -12.2523
 254   2.0000      -0.449120       -12.2212
 255   2.0000      -0.447551       -12.1785
 256   2.0000      -0.446805       -12.1582
 257   2.0000      -0.446676       -12.1547
 258   2.0000      -0.446397       -12.1471
 259   2.0000      -0.445068       -12.1109
 260   2.0000      -0.444458       -12.0943
 261   2.0000      -0.443097       -12.0573
 262   2.0000      -0.442213       -12.0332
 263   2.0000      -0.436036       -11.8651
 264   2.0000      -0.435561       -11.8522
 265   2.0000      -0.434722       -11.8294
 266   2.0000      -0.433310       -11.7910
 267   2.0000      -0.432621       -11.7722
 268   2.0000      -0.431217       -11.7340
 269   2.0000      -0.429437       -11.6856
 270   2.0000      -0.427746       -11.6396
 271   2.0000      -0.425469       -11.5776
 272   2.0000      -0.423071       -11.5123
 273   2.0000      -0.418371       -11.3845
 274   2.0000      -0.413731       -11.2582
 275   2.0000      -0.412199       -11.2165
 276   2.0000      -0.410933       -11.1821
 277   2.0000      -0.405470       -11.0334
 278   2.0000      -0.398673       -10.8484
 279   2.0000      -0.387851       -10.5540
 280   2.0000      -0.380222       -10.3464
 281   2.0000      -0.371499       -10.1090
 282   2.0000      -0.362620        -9.8674
 283   2.0000      -0.359221        -9.7749
 284   2.0000      -0.356863        -9.7107
 285   2.0000      -0.354375        -9.6430
 286   2.0000      -0.345207        -9.3936
 287   2.0000      -0.342430        -9.3180
 288   2.0000      -0.340182        -9.2568
 289   2.0000      -0.336328        -9.1520
 290   2.0000      -0.331076        -9.0090
 291   2.0000      -0.330524        -8.9940
 292   2.0000      -0.327742        -8.9183
 293   2.0000      -0.318103        -8.6560
 294   2.0000      -0.314529        -8.5588
 295   2.0000      -0.301704        -8.2098
 296   2.0000      -0.295546        -8.0422
 297   2.0000      -0.272925        -7.4267
 298   2.0000      -0.247833        -6.7439
 299   0.0000      -0.121503        -3.3063
 300   0.0000      -0.114304        -3.1104
 301   0.0000      -0.111672        -3.0388
 302   0.0000      -0.089846        -2.4448
 303   0.0000      -0.088811        -2.4167

MULLIKEN ATOMIC CHARGES
-----------------------
   0 C :   -0.024483
   1 C :    0.040823
   2 C :    0.043739
   3 C :   -0.025888
   4 C :    0.000617
   5 C :    0.008848
   6 C :    0.258600
   7 C :   -0.323025
   8 C :   -0.173337
   9 N :    0.163124
  10 C :   -0.200142
  11 N :    0.165943
  12 C :   -0.136001
  13 C :    0.132726
  14 O :   -0.140668
  15 C :    0.083822
  16 C :   -0.114219
  17 C :    0.003958
  18 C :   -0.007002
  19 C :   -0.069978
  20 S :    0.217510
  21 C :   -0.107190
  22 C :    0.024174
  23 C :    0.300989
  24 C :   -0.282110
  25 C :   -0.190176
  26 N :    0.178452
  27 C :   -0.185385
  28 N :    0.173291
  29 C :   -0.066412
  30 C :   -0.046254
  31 S :    0.203765
  32 C :   -0.053853
  33 C :   -0.060655
  34 C :    0.013879
  35 C :   -0.097462
  36 S :    0.203892
  37 C :   -0.095703
  38 C :    0.016140
  39 C :    0.298612
  40 C :   -0.289355
  41 C :   -0.187522
  42 N :    0.174752
  43 C :   -0.188528
  44 N :    0.176418
  45 C :   -0.062814
  46 C :   -0.053104
  47 S :    0.204651
  48 C :   -0.047061
  49 C :   -0.066602
  50 C :    0.024164
  51 C :   -0.104001
  52 S :    0.202761
  53 C :   -0.068611
  54 C :   -0.007021
  55 C :    0.303924
  56 C :   -0.285466
  57 C :   -0.184283
  58 N :    0.171974
  59 C :   -0.186307
  60 N :    0.174837
  61 C :   -0.002900
  62 C :   -0.111734
  63 S :    0.216062
  64 C :    0.080696
  65 C :   -0.132480
  66 C :    0.269420
  67 C :   -0.334852
  68 C :   -0.174441
  69 N :    0.158726
  70 C :   -0.197372
  71 N :    0.166129
  72 C :   -0.002723
  73 C :    0.003523
  74 C :    0.131602
  75 O :   -0.144647
  76 C :   -0.068847
  77 C :    0.111096
  78 C :   -0.092439
  79 C :   -0.020110
  80 S :    0.144347
  81 C :   -0.050703
  82 C :    0.026047
  83 H :    0.010387
  84 H :    0.005336
  85 H :    0.001722
  86 H :   -0.002097
  87 H :    0.021286
  88 H :    0.024609
  89 H :    0.014827
  90 H :    0.013691
  91 H :    0.014382
  92 H :    0.014943
  93 H :    0.025848
  94 H :    0.021385
  95 H :   -0.010861
  96 H :    0.001480
  97 H :    0.039357
  98 H :   -0.006463
Sum of atomic charges:   -0.0000000

LOEWDIN ATOMIC CHARGES
----------------------
   0 C :    0.001825
   1 C :    0.004066
   2 C :   -0.002370
   3 C :    0.014706
   4 C :   -0.046680
   5 C :   -0.010466
   6 C :    0.065178
   7 C :   -0.133609
   8 C :   -0.019804
   9 N :   -0.042971
  10 C :   -0.015469
  11 N :   -0.045236
  12 C :   -0.090858
  13 C :    0.084036
  14 O :   -0.139791
  15 C :    0.040840
  16 C :   -0.181768
  17 C :    0.009427
  18 C :   -0.067819
  19 C :   -0.158864
  20 S :    0.501804
  21 C :   -0.184906
  22 C :   -0.055015
  23 C :    0.082121
  24 C :   -0.095596
  25 C :   -0.016569
  26 N :   -0.028768
  27 C :   -0.013447
  28 N :   -0.028887
  29 C :   -0.039288
  30 C :   -0.171586
  31 S :    0.490502
  32 C :   -0.180910
  33 C :   -0.034457
  34 C :   -0.067467
  35 C :   -0.177597
  36 S :    0.491148
  37 C :   -0.178527
  38 C :   -0.066849
  39 C :    0.081765
  40 C :   -0.097929
  41 C :   -0.016314
  42 N :   -0.029289
  43 C :   -0.016469
  44 N :   -0.029176
  45 C :   -0.035285
  46 C :   -0.180094
  47 S :    0.491458
  48 C :   -0.172568
  49 C :   -0.038860
  50 C :   -0.055399
  51 C :   -0.183847
  52 S :    0.490635
  53 C :   -0.159654
  54 C :   -0.067297
  55 C :    0.082779
  56 C :   -0.095761
  57 C :   -0.013346
  58 N :   -0.029223
  59 C :   -0.016168
  60 N :   -0.029558
  61 C :    0.008221
  62 C :   -0.181308
  63 S :    0.501117
  64 C :    0.040105
  65 C :   -0.089057
  66 C :    0.066669
  67 C :   -0.138441
  68 C :   -0.019464
  69 N :   -0.046211
  70 C :   -0.015375
  71 N :   -0.049008
  72 C :   -0.019387
  73 C :   -0.056348
  74 C :    0.083468
  75 O :   -0.144592
  76 C :    0.024605
  77 C :   -0.035462
  78 C :   -0.144125
  79 C :   -0.008171
  80 S :    0.432454
  81 C :   -0.149166
  82 C :   -0.057567
  83 H :    0.041741
  84 H :    0.037390
  85 H :    0.035098
  86 H :    0.040147
  87 H :    0.045888
  88 H :    0.042609
  89 H :    0.036826
  90 H :    0.036546
  91 H :    0.036553
  92 H :    0.036833
  93 H :    0.042824
  94 H :    0.045869
  95 H :    0.040832
  96 H :    0.042314
  97 H :    0.029692
  98 H :    0.035404

  Mayer bond orders larger than 0.100000
B(  0-C ,  1-C ) :   1.3728 B(  0-C ,  5-C ) :   1.3843 B(  0-C , 83-H ) :   0.9862
B(  1-C ,  2-C ) :   1.3816 B(  1-C , 84-H ) :   0.9855 B(  2-C ,  3-C ) :   1.3514
B(  2-C , 85-H ) :   0.9896 B(  3-C ,  4-C ) :   1.3944 B(  3-C , 86-H ) :   1.0055
B(  4-C ,  5-C ) :   1.3307 B(  4-C , 13-C ) :   0.9264 B(  5-C ,  6-C ) :   1.0007
B(  6-C ,  7-C ) :   1.6564 B(  6-C , 12-C ) :   1.0341 B(  7-C ,  8-C ) :   1.1246
B(  7-C , 10-C ) :   1.1684 B(  8-C ,  9-N ) :   2.9997 B( 10-C , 11-N ) :   2.9975
B( 12-C , 13-C ) :   0.9395 B( 12-C , 15-C ) :   1.6802 B( 13-C , 14-O ) :   2.2644
B( 15-C , 16-C ) :   1.1329 B( 15-C , 87-H ) :   0.9279 B( 16-C , 17-C ) :   1.3988
B( 16-C , 20-S ) :   1.0885 B( 17-C , 18-C ) :   1.3605 B( 17-C , 88-H ) :   0.9784
B( 18-C , 19-C ) :   1.4087 B( 18-C , 23-C ) :   1.0012 B( 19-C , 20-S ) :   1.1563
B( 19-C , 21-C ) :   1.1964 B( 21-C , 22-C ) :   1.4434 B( 21-C , 31-S ) :   1.1124
B( 22-C , 23-C ) :   0.9909 B( 22-C , 29-C ) :   1.3092 B( 23-C , 24-C ) :   1.7201
B( 24-C , 25-C ) :   1.1321 B( 24-C , 27-C ) :   1.1341 B( 25-C , 26-N ) :   2.9929
B( 27-C , 28-N ) :   2.9836 B( 29-C , 30-C ) :   1.4493 B( 29-C , 89-H ) :   0.9866
B( 30-C , 31-S ) :   1.1183 B( 30-C , 32-C ) :   1.1709 B( 32-C , 33-C ) :   1.4554
B( 32-C , 36-S ) :   1.1083 B( 33-C , 34-C ) :   1.3062 B( 33-C , 90-H ) :   0.9860
B( 34-C , 35-C ) :   1.4409 B( 34-C , 39-C ) :   0.9949 B( 35-C , 36-S ) :   1.1245
B( 35-C , 37-C ) :   1.1879 B( 37-C , 38-C ) :   1.4424 B( 37-C , 47-S ) :   1.1238
B( 38-C , 39-C ) :   0.9948 B( 38-C , 45-C ) :   1.3052 B( 39-C , 40-C ) :   1.7177
B( 40-C , 41-C ) :   1.1314 B( 40-C , 43-C ) :   1.1323 B( 41-C , 42-N ) :   2.9918
B( 43-C , 44-N ) :   2.9919 B( 45-C , 46-C ) :   1.4545 B( 45-C , 91-H ) :   0.9867
B( 46-C , 47-S ) :   1.1092 B( 46-C , 48-C ) :   1.1722 B( 48-C , 49-C ) :   1.4495
B( 48-C , 52-S ) :   1.1181 B( 49-C , 50-C ) :   1.3072 B( 49-C , 92-H ) :   0.9873
B( 50-C , 51-C ) :   1.4439 B( 50-C , 55-C ) :   0.9927 B( 51-C , 52-S ) :   1.1139
B( 51-C , 53-C ) :   1.1935 B( 53-C , 54-C ) :   1.4107 B( 53-C , 63-S ) :   1.1547
B( 54-C , 55-C ) :   1.0018 B( 54-C , 61-C ) :   1.3547 B( 55-C , 56-C ) :   1.7188
B( 56-C , 57-C ) :   1.1348 B( 56-C , 59-C ) :   1.1313 B( 57-C , 58-N ) :   2.9821
B( 59-C , 60-N ) :   2.9912 B( 61-C , 62-C ) :   1.4027 B( 61-C , 93-H ) :   0.9804
B( 62-C , 63-S ) :   1.0899 B( 62-C , 64-C ) :   1.1273 B( 64-C , 65-C ) :   1.6815
B( 64-C , 94-H ) :   0.9280 B( 65-C , 66-C ) :   1.0331 B( 65-C , 74-C ) :   0.9401
B( 66-C , 67-C ) :   1.6466 B( 66-C , 72-C ) :   1.0117 B( 67-C , 68-C ) :   1.1263
B( 67-C , 70-C ) :   1.1732 B( 68-C , 69-N ) :   2.9940 B( 70-C , 71-N ) :   2.9960
B( 72-C , 73-C ) :   1.2687 B( 72-C , 79-C ) :   1.4178 B( 73-C , 74-C ) :   0.9257
B( 73-C , 76-C ) :   1.4255 B( 74-C , 75-O ) :   2.2631 B( 76-C , 77-C ) :   1.2516
B( 76-C , 95-H ) :   1.0166 B( 77-C , 78-C ) :   1.3015 B( 77-C , 82-C ) :   1.1713
B( 78-C , 79-C ) :   1.3207 B( 78-C , 80-S ) :   1.0995 B( 79-C , 96-H ) :   0.9863
B( 80-S , 81-C ) :   1.1278 B( 81-C , 82-C ) :   1.6301 B( 81-C , 97-H ) :   0.9683
B( 82-C , 98-H ) :   0.9995

-----------------------------------------------------------------------------
         ABSORPTION SPECTRUM VIA TRANSITION ELECTRIC DIPOLE MOMENTS
-----------------------------------------------------------------------------
State   Energy  Wavelength   fosc         T2         TX        TY        TZ
        (cm-1)    (nm)                  (au**2)     (au)      (au)      (au)
-----------------------------------------------------------------------------
   0   11071.5    903.2   0.549678274  16.34478   3.76399  -0.49878   1.38867
   1   12525.9    798.3   0.223944031   5.88582  -2.27401   0.32166  -0.78182
   2   12819.6    780.1   0.015967271   0.41005  -0.14690   0.46359  -0.41660
   3   19430.9    514.6   1.585844788  26.86852  -4.70817   1.24501  -1.77528
   4   20094.5    497.6   0.037109677   0.60797   0.65569   0.34507  -0.24283
   5   20327.2    492.0   0.079792521   1.29229  -0.83783  -0.60997   0.46719
   6   21968.8    455.2   0.076817131   1.15114  -0.86140   0.62633  -0.12973
   7   22360.7    447.2   0.010853301   0.15979  -0.15317  -0.26878   0.25315
   8   25211.5    396.6   0.186178958   2.43113   1.48413  -0.12376   0.46170
   9   25719.2    388.8   0.561152823   7.18290  -2.44054  -0.11792  -1.10125
  10   26965.5    370.8   0.319693866   3.90302   1.81226   0.28990   0.73124
  11   27211.5    367.5   0.123519560   1.49437  -0.98034  -0.20902  -0.69972
  12   27539.6    363.1   0.014925158   0.17842  -0.40052   0.13146  -0.02682
  13   27752.8    360.3   0.039805991   0.47219  -0.36265   0.20512  -0.54645
  14   28394.1    352.2   0.028684956   0.33258   0.11849   0.52966  -0.19495
  15   28526.7    350.5   0.013953735   0.16103  -0.06827   0.21893   0.32931
  16   28917.2    345.8   0.033324008   0.37938   0.27553  -0.44084  -0.33035
  17   29486.6    339.1   0.012753317   0.14239   0.17168   0.13901   0.30593
  18   29620.9    337.6   0.509989392   5.66811   2.04502  -0.53143   1.09709
  19   29848.7    335.0   0.007697641   0.08490  -0.16652   0.08922  -0.22184
  20   30242.3    330.7   0.160438575   1.74650   0.41660  -0.12507   1.24792
  21   30346.3    329.5   0.028867714   0.31317   0.54726   0.10553  -0.05040
  22   30907.4    323.5   0.310263915   3.30479  -1.12126  -0.40791   1.37156
  23   31164.5    320.9   0.069754409   0.73686  -0.11780   0.14521  -0.83779
  24   31522.4    317.2   0.288262557   3.01054  -0.74811  -0.64812   1.42507
  25   31622.2    316.2   0.733077007   7.63191  -1.37436  -0.63298   2.31136
  26   31893.7    313.5   0.263821855   2.72321  -0.12373  -0.29410   1.61907
  27   32282.0    309.8   0.167565414   1.70883  -0.85530  -0.57011  -0.80764
  28   32564.4    307.1   0.037355093   0.37764   0.24467   0.08492  -0.55729
  29   32662.9    306.2   0.044730120   0.45084  -0.31776   0.40428  -0.43177
  30   32893.1    304.0   0.080821514   0.80891   0.03915   0.12934   0.88918
  31   33122.4    301.9   0.370702933   3.68451  -1.91125  -0.17691  -0.01836
  32   33185.2    301.3   0.261467783   2.59387   0.86871  -0.49355   1.26318
  33   33317.0    300.1   0.040629880   0.40147  -0.18757  -0.28281  -0.53508
  34   33644.2    297.2   0.085264313   0.83432  -0.86141  -0.25712  -0.16179
  35   34102.1    293.2   0.002749936   0.02655   0.00444   0.12766  -0.10114
  36   34323.0    291.4   0.009940495   0.09535   0.30396   0.02891  -0.04605
  37   34463.7    290.2   0.422029320   4.03141  -1.87278  -0.13936  -0.71041
  38   34484.2    290.0   0.095292315   0.90973   0.92729   0.21516  -0.05979
  39   34601.6    289.0   0.002310498   0.02198  -0.05449  -0.13551   0.02550
  40   34763.7    287.7   0.043053802   0.40772  -0.36385  -0.33092  -0.40721
  41   34806.1    287.3   0.025465369   0.24086  -0.15163   0.01167   0.46662
  42   34946.3    286.2   0.012316700   0.11603  -0.30846   0.10706  -0.09705
  43   35086.3    285.0   0.047890621   0.44935  -0.31412  -0.17297   0.56636
  44   35307.3    283.2   0.196336761   1.83068  -0.02106  -0.11471   1.34799
  45   35548.6    281.3   0.015300045   0.14169   0.23152   0.27709   0.10635
  46   36053.2    277.4   0.008160922   0.07452   0.25238   0.00806   0.10373
  47   36279.3    275.6   0.284072201   2.57778   1.26296   0.43787   0.88937
  48   36353.8    275.1   0.020854877   0.18886   0.32811   0.20912   0.19356
  49   36531.5    273.7   0.040729393   0.36704   0.00428   0.16054  -0.58417
  50   36618.0    273.1   0.009567631   0.08602   0.22963   0.02023  -0.18132
  51   36702.7    272.5   0.022409247   0.20100   0.12712  -0.01596  -0.42964
  52   36798.9    271.7   0.056184038   0.50264   0.17585  -0.04722  -0.68519
  53   36991.6    270.3   0.028574808   0.25431   0.46200   0.18704  -0.07668
  54   37768.0    264.8   0.065753597   0.57315   0.45897   0.59832   0.06718
  55   37933.2    263.6   0.220350418   1.91236   0.95855   0.76313   0.64123
  56   38373.9    260.6   0.022430406   0.19243   0.18629   0.08023  -0.38896
  57   38686.9    258.5   0.004521811   0.03848   0.07203   0.11779   0.13934
  58   38851.1    257.4   0.002401127   0.02035  -0.06210   0.11565  -0.05582
  59   39011.7    256.3   0.081433906   0.68720   0.48813   0.29096  -0.60355
  60   39186.2    255.2   0.019091035   0.16039   0.35614   0.08243  -0.16358
  61   39275.7    254.6   0.109719471   0.91968   0.57496   0.55046   0.53488
  62   39342.0    254.2   0.136877217   1.14538  -0.51294  -0.64227  -0.68539
  63   39465.5    253.4   0.013718232   0.11443   0.00751   0.05637  -0.33347
  64   39607.0    252.5   0.008070086   0.06708  -0.11411  -0.04050   0.22895
  65   39824.4    251.1   0.054170908   0.44781   0.06265   0.34945  -0.56725
  66   40068.6    249.6   0.004575830   0.03760  -0.19108  -0.02778  -0.01772
  67   40306.3    248.1   0.026076122   0.21298   0.39641  -0.22213  -0.08061

FINAL SINGLE POINT ENERGY     -5928.640298662018

DIPOLE MOMENT
-------------
                                X             Y             Z
Electronic contribution:     13.12640       7.67585      -5.72853
Nuclear contribution   :    -11.67031      -7.83855       5.06623
                        -----------------------------------------
Total Dipole Moment    :      1.45609      -0.16270      -0.66230
                        -----------------------------------------
Magnitude (a.u.)       :      1.60789
Magnitude (Debye)      :      4.08693

Rotational constants in cm-1:     0.002078     0.000128     0.000123
Rotational constants in MHz :    62.296499     3.852282     3.694022

                             ****ORCA TERMINATED NORMALLY****
TOTAL RUN TIME: 0 days 0 hours 10 minutes 31 seconds 996 msec
