                         Program Version 4.2.0 -  RELEASE  -
|  1> # ORCA input file
|  2> # SCF done       -193.138989925059          0.000717293749
|  3> ! CAM-B3LYP def2-SVP def2/J RIJCOSX Grid4 TightSCF
|  4> %maxcore 5000
|  5> %tddft
|  6>     Mode sTDDFT
|  7>     Ethresh 5.0
|  8>     maxcore 5000
|  9> end
| 10>
| 11> %pal
| 12>   nprocs 6
| 13>   end
| 14> * xyz 0 1
| 15>    C        0.14708        -0.54103         3.23190
| 16>    O        1.03599        -0.02914         2.58709
| 17>    C       -1.21783        -0.05775         3.40024
| 18>    C       -1.97378        -0.92140         4.18226
| 19>    C       -3.29848        -0.47516         4.35448
| 20>    C       -3.50288         0.70317         3.69880
| 21>    S       -2.11278         1.29569         2.86824
| 22>    C       -1.14167        -2.03379         4.59099
| 23>    C       -1.55188        -3.03890         5.42651
| 24>    C       -2.86932        -3.08578         5.93216
| 25>    N       -3.93387        -3.14735         6.35519
| 26>    C       -0.76648        -4.10836         5.90135
| 27>    N       -0.19056        -5.00252         6.33548
| 28>    C        0.17216        -1.82896         3.98939
| 29>    C        1.18085        -2.74587         4.05336
| 30>    C        2.51554        -2.69153         3.59754
| 31>    C        3.31317        -1.65053         3.14231
| 32>    C        4.60247        -2.07103         2.84235
| 33>    C        4.80041        -3.45359         3.05772
| 34>    S        3.40915        -4.21980         3.65803
| 35>    C        6.12759        -3.78041         2.69083
| 36>    C        6.77430        -2.61177         2.25232
| 37>    C        5.84241        -1.49621         2.34784
| 38>    C        6.10125        -0.18988         2.05819
| 39>    C        5.15471         0.84391         2.23286
| 40>    N        4.41911         1.70924         2.38463
| 41>    C        7.36349         0.22761         1.58317
| 42>    N        8.38916         0.56392         1.19660
| 43>    C        8.09335        -2.83559         1.86370
| 44>    C        8.45350        -4.16545         1.99914
| 45>    S        7.14315        -5.15420         2.62238
| 46>    C        9.70623        -4.75236         1.69042
| 47>    C       10.06517        -6.08411         1.79763
| 48>    C       11.38216        -6.30204         1.39581
| 49>    C       12.02980        -5.12468         0.98221
| 50>    S       11.02026        -3.75242         1.08562
| 51>    C       13.35342        -5.44943         0.59272
| 52>    C       13.54300        -6.83261         0.75731
| 53>    C       12.31146        -7.41418         1.26903
| 54>    C       12.07790        -8.72387         1.56715
| 55>    C       10.83292        -9.16828         2.06118
| 56>    N        9.82071        -9.52740         2.46201
| 57>    C       13.06694        -9.71697         1.40265
| 58>    N       13.87119       -10.52259         1.26707
| 59>    C       14.82202        -7.25190         0.39396
| 60>    C       15.60585        -6.19903        -0.04285
| 61>    S       14.74709        -4.66534        -0.00457
| 62>    C       16.95015        -6.24731        -0.49025
| 63>    C       17.73661        -5.18626        -0.90420
| 64>    C       19.01355        -5.60068        -1.27693
| 65>    C       19.19947        -6.98838        -1.14887
| 66>    S       17.80284        -7.78102        -0.56639
| 67>    C       20.51786        -7.30988        -1.55868
| 68>    C       21.16629        -6.11819        -1.93930
| 69>    C       20.24200        -5.00953        -1.78564
| 70>    C       20.47358        -3.70106        -2.09200
| 71>    C       19.49299        -2.70307        -1.91204
| 72>    N       18.69295        -1.89669        -1.75729
| 73>    C       21.71645        -3.27669        -2.60806
| 74>    N       22.73348        -2.94762        -3.02283
| 75>    C       22.46363        -6.32808        -2.39060
| 76>    C       22.81536        -7.66847        -2.36998
| 77>    S       21.51650        -8.67516        -1.73821
| 78>    C       24.04470        -8.26908        -2.72805
| 79>    C       25.03109        -7.78323        -3.52627
| 80>    C       26.39338        -8.40749        -3.42791
| 81>    O       26.66989        -9.43790        -2.86025
| 82>    C       27.25683        -7.46220        -4.12242
| 83>    C       26.51787        -6.43302        -4.69706
| 84>    C       25.10619        -6.66952        -4.45749
| 85>    C       24.09837        -6.09401        -5.18532
| 86>    C       24.35376        -5.08447        -6.13882
| 87>    N       24.54134        -4.26488        -6.91864
| 88>    C       22.74766        -6.48673        -5.14730
| 89>    N       21.64054        -6.78979        -5.17788
| 90>    C       27.32288        -5.50133        -5.37830
| 91>    C       28.64033        -5.84488        -5.29425
| 92>    S       28.93302        -7.29654        -4.41168
| 93>    H       -4.05715        -0.98333         4.91983
| 94>    H       -4.41216         1.27042         3.65663
| 95>    H        0.93357        -3.69098         4.52357
| 96>    H        2.94813        -0.64564         3.03296
| 97>    H        8.76910        -2.08444         1.49597
| 98>    H        9.38953        -6.84288         2.14986
| 99>    H       15.17996        -8.26486         0.43890
|100>    H       17.38251        -4.17113        -0.92671
|101>    H       23.14407        -5.54783        -2.67894
|102>    H       24.26719        -9.22359        -2.26034
|103>    H       26.96287        -4.62801        -5.88954
|104>    H       29.47454        -5.31811        -5.71490
|105> *
|106>
|107>                          ****END OF INPUT****

CARTESIAN COORDINATES (ANGSTROEM)
---------------------------------
  C      0.147080   -0.541030    3.231900
  O      1.035990   -0.029140    2.587090
  C     -1.217830   -0.057750    3.400240
  C     -1.973780   -0.921400    4.182260
  C     -3.298480   -0.475160    4.354480
  C     -3.502880    0.703170    3.698800
  S     -2.112780    1.295690    2.868240
  C     -1.141670   -2.033790    4.590990
  C     -1.551880   -3.038900    5.426510
  C     -2.869320   -3.085780    5.932160
  N     -3.933870   -3.147350    6.355190
  C     -0.766480   -4.108360    5.901350
  N     -0.190560   -5.002520    6.335480
  C      0.172160   -1.828960    3.989390
  C      1.180850   -2.745870    4.053360
  C      2.515540   -2.691530    3.597540
  C      3.313170   -1.650530    3.142310
  C      4.602470   -2.071030    2.842350
  C      4.800410   -3.453590    3.057720
  S      3.409150   -4.219800    3.658030
  C      6.127590   -3.780410    2.690830
  C      6.774300   -2.611770    2.252320
  C      5.842410   -1.496210    2.347840
  C      6.101250   -0.189880    2.058190
  C      5.154710    0.843910    2.232860
  N      4.419110    1.709240    2.384630
  C      7.363490    0.227610    1.583170
  N      8.389160    0.563920    1.196600
  C      8.093350   -2.835590    1.863700
  C      8.453500   -4.165450    1.999140
  S      7.143150   -5.154200    2.622380
  C      9.706230   -4.752360    1.690420
  C     10.065170   -6.084110    1.797630
  C     11.382160   -6.302040    1.395810
  C     12.029800   -5.124680    0.982210
  S     11.020260   -3.752420    1.085620
  C     13.353420   -5.449430    0.592720
  C     13.543000   -6.832610    0.757310
  C     12.311460   -7.414180    1.269030
  C     12.077900   -8.723870    1.567150
  C     10.832920   -9.168280    2.061180
  N      9.820710   -9.527400    2.462010
  C     13.066940   -9.716970    1.402650
  N     13.871190  -10.522590    1.267070
  C     14.822020   -7.251900    0.393960
  C     15.605850   -6.199030   -0.042850
  S     14.747090   -4.665340   -0.004570
  C     16.950150   -6.247310   -0.490250
  C     17.736610   -5.186260   -0.904200
  C     19.013550   -5.600680   -1.276930
  C     19.199470   -6.988380   -1.148870
  S     17.802840   -7.781020   -0.566390
  C     20.517860   -7.309880   -1.558680
  C     21.166290   -6.118190   -1.939300
  C     20.242000   -5.009530   -1.785640
  C     20.473580   -3.701060   -2.092000
  C     19.492990   -2.703070   -1.912040
  N     18.692950   -1.896690   -1.757290
  C     21.716450   -3.276690   -2.608060
  N     22.733480   -2.947620   -3.022830
  C     22.463630   -6.328080   -2.390600
  C     22.815360   -7.668470   -2.369980
  S     21.516500   -8.675160   -1.738210
  C     24.044700   -8.269080   -2.728050
  C     25.031090   -7.783230   -3.526270
  C     26.393380   -8.407490   -3.427910
  O     26.669890   -9.437900   -2.860250
  C     27.256830   -7.462200   -4.122420
  C     26.517870   -6.433020   -4.697060
  C     25.106190   -6.669520   -4.457490
  C     24.098370   -6.094010   -5.185320
  C     24.353760   -5.084470   -6.138820
  N     24.541340   -4.264880   -6.918640
  C     22.747660   -6.486730   -5.147300
  N     21.640540   -6.789790   -5.177880
  C     27.322880   -5.501330   -5.378300
  C     28.640330   -5.844880   -5.294250
  S     28.933020   -7.296540   -4.411680
  H     -4.057150   -0.983330    4.919830
  H     -4.412160    1.270420    3.656630
  H      0.933570   -3.690980    4.523570
  H      2.948130   -0.645640    3.032960
  H      8.769100   -2.084440    1.495970
  H      9.389530   -6.842880    2.149860
  H     15.179960   -8.264860    0.438900
  H     17.382510   -4.171130   -0.926710
  H     23.144070   -5.547830   -2.678940
  H     24.267190   -9.223590   -2.260340
  H     26.962870   -4.628010   -5.889540
  H     29.474540   -5.318110   -5.714900

 Total Charge           Charge          ....    0
 Multiplicity           Mult            ....    1
 Number of Electrons    NEL             ....  574
 Basis Dimension        Dim             .... 1184

ORBITAL ENERGIES
----------------

  NO   OCC          E(Eh)            E(eV)
   0   2.0000     -89.003805     -2421.9167
   1   2.0000     -89.003286     -2421.9025
   2   2.0000     -89.003245     -2421.9014
   3   2.0000     -89.002481     -2421.8806
   4   2.0000     -89.000282     -2421.8208
   5   2.0000     -88.999625     -2421.8029
   6   2.0000     -88.991690     -2421.5870
   7   2.0000     -88.990862     -2421.5645
   8   2.0000     -19.225090      -523.1413
   9   2.0000     -19.222469      -523.0700
  10   2.0000     -14.441423      -392.9711
  11   2.0000     -14.441366      -392.9695
  12   2.0000     -14.438406      -392.8890
  13   2.0000     -14.438214      -392.8838
  14   2.0000     -14.438158      -392.8822
  15   2.0000     -14.433833      -392.7646
  16   2.0000     -14.424180      -392.5019
  17   2.0000     -14.424111      -392.5000
  18   2.0000     -14.418816      -392.3559
  19   2.0000     -14.418674      -392.3521
  20   2.0000     -10.383978      -282.5624
  21   2.0000     -10.380698      -282.4732
  22   2.0000     -10.376904      -282.3699
  23   2.0000     -10.373727      -282.2835
  24   2.0000     -10.373452      -282.2760
  25   2.0000     -10.363797      -282.0132
  26   2.0000     -10.360430      -281.9216
  27   2.0000     -10.360104      -281.9128
  28   2.0000     -10.352604      -281.7087
  29   2.0000     -10.351542      -281.6798
  30   2.0000     -10.350297      -281.6459
  31   2.0000     -10.349799      -281.6323
  32   2.0000     -10.349530      -281.6250
  33   2.0000     -10.347450      -281.5684
  34   2.0000     -10.345534      -281.5163
  35   2.0000     -10.345399      -281.5126
  36   2.0000     -10.344627      -281.4916
  37   2.0000     -10.343431      -281.4591
  38   2.0000     -10.342458      -281.4326
  39   2.0000     -10.342435      -281.4320
  40   2.0000     -10.342146      -281.4241
  41   2.0000     -10.342102      -281.4229
  42   2.0000     -10.341454      -281.4053
  43   2.0000     -10.341415      -281.4042
  44   2.0000     -10.338441      -281.3233
  45   2.0000     -10.338302      -281.3195
  46   2.0000     -10.338278      -281.3189
  47   2.0000     -10.332837      -281.1708
  48   2.0000     -10.331783      -281.1421
  49   2.0000     -10.331740      -281.1409
  50   2.0000     -10.330599      -281.1099
  51   2.0000     -10.328327      -281.0481
  52   2.0000     -10.326648      -281.0024
  53   2.0000     -10.325650      -280.9752
  54   2.0000     -10.325452      -280.9698
  55   2.0000     -10.324330      -280.9393
  56   2.0000     -10.321484      -280.8618
  57   2.0000     -10.320743      -280.8417
  58   2.0000     -10.319934      -280.8197
  59   2.0000     -10.319115      -280.7974
  60   2.0000     -10.318496      -280.7806
  61   2.0000     -10.316956      -280.7386
  62   2.0000     -10.316370      -280.7227
  63   2.0000     -10.316337      -280.7218
  64   2.0000     -10.316335      -280.7217
  65   2.0000     -10.316240      -280.7192
  66   2.0000     -10.315859      -280.7088
  67   2.0000     -10.315011      -280.6857
  68   2.0000     -10.314209      -280.6639
  69   2.0000     -10.314091      -280.6607
  70   2.0000     -10.313674      -280.6493
  71   2.0000     -10.312081      -280.6060
  72   2.0000     -10.311547      -280.5915
  73   2.0000     -10.309780      -280.5434
  74   2.0000     -10.309014      -280.5225
  75   2.0000     -10.308491      -280.5083
  76   2.0000     -10.302175      -280.3364
  77   2.0000     -10.301336      -280.3136
  78   2.0000      -8.098170      -220.3624
  79   2.0000      -8.097668      -220.3488
  80   2.0000      -8.097644      -220.3481
  81   2.0000      -8.096898      -220.3278
  82   2.0000      -8.095001      -220.2762
  83   2.0000      -8.094346      -220.2583
  84   2.0000      -8.086737      -220.0513
  85   2.0000      -8.085931      -220.0294
  86   2.0000      -6.067486      -165.1047
  87   2.0000      -6.067017      -165.0919
  88   2.0000      -6.066962      -165.0904
  89   2.0000      -6.066225      -165.0704
  90   2.0000      -6.064188      -165.0150
  91   2.0000      -6.063460      -164.9951
  92   2.0000      -6.063268      -164.9899
  93   2.0000      -6.062798      -164.9771
  94   2.0000      -6.062746      -164.9757
  95   2.0000      -6.062016      -164.9558
  96   2.0000      -6.060443      -164.9130
  97   2.0000      -6.059990      -164.9007
  98   2.0000      -6.059913      -164.8986
  99   2.0000      -6.059883      -164.8978
 100   2.0000      -6.059292      -164.8817
 101   2.0000      -6.059136      -164.8775
 102   2.0000      -6.057473      -164.8322
 103   2.0000      -6.056912      -164.8169
 104   2.0000      -6.055899      -164.7894
 105   2.0000      -6.055061      -164.7666
 106   2.0000      -6.051451      -164.6684
 107   2.0000      -6.050633      -164.6461
 108   2.0000      -6.049465      -164.6143
 109   2.0000      -6.048679      -164.5929
 110   2.0000      -1.142415       -31.0867
 111   2.0000      -1.139609       -31.0103
 112   2.0000      -1.059084       -28.8191
 113   2.0000      -1.056082       -28.7375
 114   2.0000      -1.054363       -28.6907
 115   2.0000      -1.033612       -28.1260
 116   2.0000      -1.032596       -28.0984
 117   2.0000      -1.031671       -28.0732
 118   2.0000      -1.030261       -28.0348
 119   2.0000      -1.029014       -28.0009
 120   2.0000      -1.020774       -27.7767
 121   2.0000      -1.018544       -27.7160
 122   2.0000      -1.015911       -27.6443
 123   2.0000      -1.014429       -27.6040
 124   2.0000      -1.014228       -27.5986
 125   2.0000      -1.012916       -27.5628
 126   2.0000      -1.010035       -27.4844
 127   2.0000      -1.001192       -27.2438
 128   2.0000      -0.999590       -27.2002
 129   2.0000      -0.998489       -27.1703
 130   2.0000      -0.977305       -26.5938
 131   2.0000      -0.971700       -26.4413
 132   2.0000      -0.968381       -26.3510
 133   2.0000      -0.964806       -26.2537
 134   2.0000      -0.963294       -26.2126
 135   2.0000      -0.933828       -25.4108
 136   2.0000      -0.927539       -25.2396
 137   2.0000      -0.918072       -24.9820
 138   2.0000      -0.908360       -24.7177
 139   2.0000      -0.906366       -24.6635
 140   2.0000      -0.889809       -24.2129
 141   2.0000      -0.888763       -24.1845
 142   2.0000      -0.882381       -24.0108
 143   2.0000      -0.881360       -23.9830
 144   2.0000      -0.873241       -23.7621
 145   2.0000      -0.872189       -23.7335
 146   2.0000      -0.865520       -23.5520
 147   2.0000      -0.861764       -23.4498
 148   2.0000      -0.858958       -23.3734
 149   2.0000      -0.858076       -23.3494
 150   2.0000      -0.844233       -22.9728
 151   2.0000      -0.820769       -22.3343
 152   2.0000      -0.802036       -21.8245
 153   2.0000      -0.793664       -21.5967
 154   2.0000      -0.790461       -21.5095
 155   2.0000      -0.783738       -21.3266
 156   2.0000      -0.778029       -21.1712
 157   2.0000      -0.773043       -21.0356
 158   2.0000      -0.769151       -20.9297
 159   2.0000      -0.758091       -20.6287
 160   2.0000      -0.739433       -20.1210
 161   2.0000      -0.722237       -19.6531
 162   2.0000      -0.714001       -19.4290
 163   2.0000      -0.713137       -19.4055
 164   2.0000      -0.707038       -19.2395
 165   2.0000      -0.701931       -19.1005
 166   2.0000      -0.698014       -18.9939
 167   2.0000      -0.693224       -18.8636
 168   2.0000      -0.692678       -18.8487
 169   2.0000      -0.687400       -18.7051
 170   2.0000      -0.682725       -18.5779
 171   2.0000      -0.678793       -18.4709
 172   2.0000      -0.671028       -18.2596
 173   2.0000      -0.670596       -18.2478
 174   2.0000      -0.651558       -17.7298
 175   2.0000      -0.645606       -17.5678
 176   2.0000      -0.643819       -17.5192
 177   2.0000      -0.642445       -17.4818
 178   2.0000      -0.636940       -17.3320
 179   2.0000      -0.632449       -17.2098
 180   2.0000      -0.630410       -17.1543
 181   2.0000      -0.629523       -17.1302
 182   2.0000      -0.624740       -17.0000
 183   2.0000      -0.622069       -16.9274
 184   2.0000      -0.614191       -16.7130
 185   2.0000      -0.613300       -16.6887
 186   2.0000      -0.607522       -16.5315
 187   2.0000      -0.601539       -16.3687
 188   2.0000      -0.589530       -16.0419
 189   2.0000      -0.581877       -15.8337
 190   2.0000      -0.573869       -15.6158
 191   2.0000      -0.571239       -15.5442
 192   2.0000      -0.561990       -15.2925
 193   2.0000      -0.560132       -15.2420
 194   2.0000      -0.557484       -15.1699
 195   2.0000      -0.556058       -15.1311
 196   2.0000      -0.552888       -15.0449
 197   2.0000      -0.548490       -14.9252
 198   2.0000      -0.547063       -14.8864
 199   2.0000      -0.544007       -14.8032
 200   2.0000      -0.538010       -14.6400
 201   2.0000      -0.534224       -14.5370
 202   2.0000      -0.529271       -14.4022
 203   2.0000      -0.527132       -14.3440
 204   2.0000      -0.525347       -14.2954
 205   2.0000      -0.522332       -14.2134
 206   2.0000      -0.519629       -14.1398
 207   2.0000      -0.518566       -14.1109
 208   2.0000      -0.514807       -14.0086
 209   2.0000      -0.513518       -13.9735
 210   2.0000      -0.512364       -13.9421
 211   2.0000      -0.510502       -13.8915
 212   2.0000      -0.509584       -13.8665
 213   2.0000      -0.507518       -13.8103
 214   2.0000      -0.505116       -13.7449
 215   2.0000      -0.502914       -13.6850
 216   2.0000      -0.501253       -13.6398
 217   2.0000      -0.499636       -13.5958
 218   2.0000      -0.498366       -13.5612
 219   2.0000      -0.494338       -13.4516
 220   2.0000      -0.491633       -13.3780
 221   2.0000      -0.490312       -13.3421
 222   2.0000      -0.486891       -13.2490
 223   2.0000      -0.484584       -13.1862
 224   2.0000      -0.482191       -13.1211
 225   2.0000      -0.480436       -13.0733
 226   2.0000      -0.478195       -13.0123
 227   2.0000      -0.474825       -12.9206
 228   2.0000      -0.472808       -12.8658
 229   2.0000      -0.472020       -12.8443
 230   2.0000      -0.468803       -12.7568
 231   2.0000      -0.468643       -12.7524
 232   2.0000      -0.467882       -12.7317
 233   2.0000      -0.467193       -12.7130
 234   2.0000      -0.465660       -12.6712
 235   2.0000      -0.461625       -12.5614
 236   2.0000      -0.459098       -12.4927
 237   2.0000      -0.457159       -12.4399
 238   2.0000      -0.456552       -12.4234
 239   2.0000      -0.454093       -12.3565
 240   2.0000      -0.453655       -12.3446
 241   2.0000      -0.452314       -12.3081
 242   2.0000      -0.451903       -12.2969
 243   2.0000      -0.451416       -12.2836
 244   2.0000      -0.450684       -12.2637
 245   2.0000      -0.450072       -12.2471
 246   2.0000      -0.448205       -12.1963
 247   2.0000      -0.447650       -12.1812
 248   2.0000      -0.447421       -12.1749
 249   2.0000      -0.446056       -12.1378
 250   2.0000      -0.445837       -12.1319
 251   2.0000      -0.445637       -12.1264
 252   2.0000      -0.444973       -12.1083
 253   2.0000      -0.444244       -12.0885
 254   2.0000      -0.437137       -11.8951
 255   2.0000      -0.436489       -11.8775
 256   2.0000      -0.434031       -11.8106
 257   2.0000      -0.433776       -11.8037
 258   2.0000      -0.433276       -11.7900
 259   2.0000      -0.432809       -11.7773
 260   2.0000      -0.430755       -11.7214
 261   2.0000      -0.430489       -11.7142
 262   2.0000      -0.422841       -11.5061
 263   2.0000      -0.417540       -11.3618
 264   2.0000      -0.417186       -11.3522
 265   2.0000      -0.415798       -11.3145
 266   2.0000      -0.415623       -11.3097
 267   2.0000      -0.402645       -10.9565
 268   2.0000      -0.394755       -10.7418
 269   2.0000      -0.383270       -10.4293
 270   2.0000      -0.364374        -9.9151
 271   2.0000      -0.364276        -9.9125
 272   2.0000      -0.360135        -9.7998
 273   2.0000      -0.356683        -9.7058
 274   2.0000      -0.350496        -9.5375
 275   2.0000      -0.349581        -9.5126
 276   2.0000      -0.346600        -9.4315
 277   2.0000      -0.342964        -9.3325
 278   2.0000      -0.338124        -9.2008
 279   2.0000      -0.332209        -9.0399
 280   2.0000      -0.331383        -9.0174
 281   2.0000      -0.328764        -8.9461
 282   2.0000      -0.318309        -8.6616
 283   2.0000      -0.316211        -8.6045
 284   2.0000      -0.303005        -8.2452
 285   2.0000      -0.275379        -7.4935
 286   2.0000      -0.249867        -6.7992
 287   0.0000      -0.122580        -3.3356
 288   0.0000      -0.114906        -3.1268
 289   0.0000      -0.112722        -3.0673
 290   0.0000      -0.087732        -2.3873
 291   0.0000      -0.087239        -2.3739

MULLIKEN ATOMIC CHARGES
-----------------------
   0 C :    0.140735
   1 O :   -0.144405
   2 C :   -0.169109
   3 C :    0.002664
   4 C :    0.026176
   5 C :   -0.058850
   6 S :    0.217718
   7 C :    0.303827
   8 C :   -0.343189
   9 C :   -0.191370
  10 N :    0.157510
  11 C :   -0.182490
  12 N :    0.154851
  13 C :   -0.101104
  14 C :    0.027919
  15 C :   -0.113664
  16 C :    0.000688
  17 C :   -0.008473
  18 C :   -0.082065
  19 S :    0.207835
  20 C :   -0.105702
  21 C :    0.025753
  22 C :    0.306330
  23 C :   -0.295010
  24 C :   -0.190368
  25 N :    0.195246
  26 C :   -0.190171
  27 N :    0.174407
  28 C :   -0.069779
  29 C :   -0.043153
  30 S :    0.205184
  31 C :   -0.055087
  32 C :   -0.061605
  33 C :    0.016378
  34 C :   -0.097061
  35 S :    0.204998
  36 C :   -0.097399
  37 C :    0.020733
  38 C :    0.297914
  39 C :   -0.292984
  40 C :   -0.187701
  41 N :    0.178419
  42 C :   -0.188135
  43 N :    0.176409
  44 C :   -0.066393
  45 C :   -0.051036
  46 S :    0.204081
  47 C :   -0.045006
  48 C :   -0.070475
  49 C :    0.029208
  50 C :   -0.104905
  51 S :    0.203855
  52 C :   -0.071850
  53 C :   -0.006088
  54 C :    0.303591
  55 C :   -0.286967
  56 C :   -0.188876
  57 N :    0.175374
  58 C :   -0.184828
  59 N :    0.175382
  60 C :   -0.004043
  61 C :   -0.110818
  62 S :    0.216183
  63 C :    0.074492
  64 C :   -0.145169
  65 C :    0.113537
  66 O :   -0.141081
  67 C :   -0.152510
  68 C :   -0.018275
  69 C :    0.277645
  70 C :   -0.321411
  71 C :   -0.174588
  72 N :    0.159026
  73 C :   -0.197741
  74 N :    0.172107
  75 C :    0.031773
  76 C :   -0.057537
  77 S :    0.212492
  78 H :    0.018832
  79 H :    0.044352
  80 H :    0.006789
  81 H :    0.036808
  82 H :    0.014868
  83 H :    0.014238
  84 H :    0.013095
  85 H :    0.013974
  86 H :    0.025493
  87 H :    0.022626
  88 H :    0.021746
  89 H :    0.045208
Sum of atomic charges:   -0.0000000

LOEWDIN ATOMIC CHARGES
----------------------
   0 C :    0.069869
   1 O :   -0.135250
   2 C :   -0.208025
   3 C :   -0.040743
   4 C :   -0.043990
   5 C :   -0.148613
   6 S :    0.508620
   7 C :    0.076919
   8 C :   -0.138415
   9 C :   -0.017049
  10 N :   -0.050496
  11 C :   -0.024326
  12 N :   -0.048091
  13 C :   -0.091504
  14 C :    0.034735
  15 C :   -0.178488
  16 C :    0.016489
  17 C :   -0.076016
  18 C :   -0.160899
  19 S :    0.497005
  20 C :   -0.189638
  21 C :   -0.052155
  22 C :    0.076090
  23 C :   -0.092337
  24 C :   -0.022425
  25 N :   -0.013434
  26 C :   -0.014777
  27 N :   -0.030954
  28 C :   -0.041525
  29 C :   -0.169582
  30 S :    0.489345
  31 C :   -0.181844
  32 C :   -0.033366
  33 C :   -0.067666
  34 C :   -0.176652
  35 S :    0.491966
  36 C :   -0.179237
  37 C :   -0.066214
  38 C :    0.081288
  39 C :   -0.097570
  40 C :   -0.016527
  41 N :   -0.028492
  42 C :   -0.016320
  43 N :   -0.028758
  44 C :   -0.035472
  45 C :   -0.179078
  46 S :    0.491482
  47 C :   -0.173359
  48 C :   -0.038547
  49 C :   -0.055828
  50 C :   -0.183538
  51 S :    0.490539
  52 C :   -0.160346
  53 C :   -0.067654
  54 C :    0.082875
  55 C :   -0.095864
  56 C :   -0.016207
  57 N :   -0.029303
  58 C :   -0.013220
  59 N :   -0.029610
  60 C :    0.006571
  61 C :   -0.183011
  62 S :    0.499681
  63 C :    0.036406
  64 C :   -0.085703
  65 C :    0.066494
  66 O :   -0.140976
  67 C :   -0.212498
  68 C :   -0.035008
  69 C :    0.065822
  70 C :   -0.133162
  71 C :   -0.017317
  72 N :   -0.043778
  73 C :   -0.016747
  74 N :   -0.043300
  75 C :   -0.043670
  76 C :   -0.146583
  77 S :    0.504405
  78 H :    0.043842
  79 H :    0.031794
  80 H :    0.042746
  81 H :    0.043674
  82 H :    0.036392
  83 H :    0.036907
  84 H :    0.036597
  85 H :    0.036593
  86 H :    0.042399
  87 H :    0.046374
  88 H :    0.045140
  89 H :    0.032097

  Mayer bond orders larger than 0.100000
B(  0-C ,  1-O ) :   2.1631 B(  0-C ,  2-C ) :   1.0659 B(  0-C , 13-C ) :   0.9306
B(  2-C ,  3-C ) :   1.4558 B(  2-C ,  6-S ) :   1.1318 B(  3-C ,  4-C ) :   1.2690
B(  3-C ,  7-C ) :   1.0017 B(  4-C ,  5-C ) :   1.5415 B(  4-C , 78-H ) :   0.9957
B(  5-C ,  6-S ) :   1.1876 B(  5-C , 79-H ) :   0.9624 B(  7-C ,  8-C ) :   1.6436
B(  7-C , 13-C ) :   1.0712 B(  8-C ,  9-C ) :   1.1490 B(  8-C , 11-C ) :   1.1325
B(  9-C , 10-N ) :   2.9880 B( 11-C , 12-N ) :   2.9707 B( 13-C , 14-C ) :   1.6434
B( 14-C , 15-C ) :   1.1922 B( 14-C , 80-H ) :   0.9118 B( 15-C , 16-C ) :   1.4126
B( 15-C , 19-S ) :   1.0790 B( 16-C , 17-C ) :   1.3132 B( 16-C , 81-H ) :   0.9730
B( 17-C , 18-C ) :   1.3856 B( 17-C , 22-C ) :   0.9977 B( 18-C , 19-S ) :   1.1653
B( 18-C , 20-C ) :   1.2003 B( 20-C , 21-C ) :   1.4414 B( 20-C , 30-S ) :   1.1085
B( 21-C , 22-C ) :   0.9927 B( 21-C , 28-C ) :   1.3099 B( 22-C , 23-C ) :   1.7161
B( 23-C , 24-C ) :   1.1355 B( 23-C , 26-C ) :   1.1368 B( 24-C , 25-N ) :   2.9972
B( 26-C , 27-N ) :   2.9880 B( 28-C , 29-C ) :   1.4482 B( 28-C , 82-H ) :   0.9848
B( 29-C , 30-S ) :   1.1197 B( 29-C , 31-C ) :   1.1725 B( 31-C , 32-C ) :   1.4559
B( 31-C , 35-S ) :   1.1071 B( 32-C , 33-C ) :   1.3060 B( 32-C , 83-H ) :   0.9856
B( 33-C , 34-C ) :   1.4412 B( 33-C , 38-C ) :   0.9953 B( 34-C , 35-S ) :   1.1259
B( 34-C , 36-C ) :   1.1873 B( 36-C , 37-C ) :   1.4437 B( 36-C , 46-S ) :   1.1229
B( 37-C , 38-C ) :   0.9941 B( 37-C , 44-C ) :   1.3017 B( 38-C , 39-C ) :   1.7159
B( 39-C , 40-C ) :   1.1339 B( 39-C , 42-C ) :   1.1336 B( 40-C , 41-N ) :   2.9924
B( 42-C , 43-N ) :   2.9919 B( 44-C , 45-C ) :   1.4548 B( 44-C , 84-H ) :   0.9877
B( 45-C , 46-S ) :   1.1098 B( 45-C , 47-C ) :   1.1721 B( 47-C , 48-C ) :   1.4496
B( 47-C , 51-S ) :   1.1175 B( 48-C , 49-C ) :   1.3052 B( 48-C , 85-H ) :   0.9875
B( 49-C , 50-C ) :   1.4458 B( 49-C , 54-C ) :   0.9921 B( 50-C , 51-S ) :   1.1141
B( 50-C , 52-C ) :   1.1914 B( 52-C , 53-C ) :   1.4175 B( 52-C , 62-S ) :   1.1525
B( 53-C , 54-C ) :   1.0020 B( 53-C , 60-C ) :   1.3498 B( 54-C , 55-C ) :   1.7175
B( 55-C , 56-C ) :   1.1328 B( 55-C , 58-C ) :   1.1360 B( 56-C , 57-N ) :   2.9913
B( 58-C , 59-N ) :   2.9844 B( 60-C , 61-C ) :   1.4102 B( 60-C , 86-H ) :   0.9802
B( 61-C , 62-S ) :   1.0912 B( 61-C , 63-C ) :   1.1146 B( 63-C , 64-C ) :   1.7174
B( 63-C , 87-H ) :   0.9273 B( 64-C , 65-C ) :   0.9434 B( 64-C , 69-C ) :   1.0194
B( 65-C , 66-O ) :   2.2389 B( 65-C , 67-C ) :   1.0313 B( 67-C , 68-C ) :   1.4507
B( 67-C , 77-S ) :   1.1287 B( 68-C , 69-C ) :   1.0205 B( 68-C , 75-C ) :   1.2771
B( 69-C , 70-C ) :   1.6634 B( 70-C , 71-C ) :   1.1261 B( 70-C , 73-C ) :   1.1654
B( 71-C , 72-N ) :   2.9992 B( 73-C , 74-N ) :   2.9991 B( 75-C , 76-C ) :   1.5388
B( 75-C , 88-H ) :   0.9945 B( 76-C , 77-S ) :   1.1897 B( 76-C , 89-H ) :   0.9621

-----------------------------------------------------------------------------
         ABSORPTION SPECTRUM VIA TRANSITION ELECTRIC DIPOLE MOMENTS
-----------------------------------------------------------------------------
State   Energy  Wavelength   fosc         T2         TX        TY        TZ
        (cm-1)    (nm)                  (au**2)     (au)      (au)      (au)
-----------------------------------------------------------------------------
   0   11211.8    891.9   0.522906808  15.35413   3.65913  -0.80757  -1.14575
   1   12784.7    782.2   0.216688218   5.57982  -2.19609   0.36933   0.78778
   2   13222.7    756.3   0.071181006   1.77223  -1.21272   0.50139   0.22396
   3   20233.0    494.2   1.055361963  17.17187  -3.76679   0.52730   1.64471
   4   20386.9    490.5   0.409687967   6.61572  -2.37413   0.46997   0.87082
   5   21417.4    466.9   0.254385395   3.91021  -1.87426   0.62759   0.05918
   6   22492.4    444.6   0.092306274   1.35105  -0.96809  -0.02386   0.64286
   7   22851.4    437.6   0.308498619   4.44443   2.00728  -0.22134  -0.60521
   8   24578.0    406.9   0.716613303   9.59874   2.87416  -1.01852  -0.54822
   9   25499.2    392.2   0.127394052   1.64474  -1.10539  -0.12267   0.63860
  10   26635.9    375.4   0.017034809   0.21055   0.42462  -0.14250  -0.09970
  11   27773.8    360.1   0.022375127   0.26522  -0.51457  -0.00678  -0.01973
  12   28162.9    355.1   0.024836543   0.29033  -0.28188   0.44098  -0.12808
  13   28550.6    350.3   0.097814929   1.12789   0.89220  -0.56193   0.12690
  14   29234.7    342.1   0.013736340   0.15469  -0.34688   0.12755   0.13449
  15   29727.1    336.4   0.024937771   0.27617   0.07354   0.51518   0.07319
  16   30060.0    332.7   0.033702644   0.36911   0.08981  -0.37488  -0.46958
  17   30452.0    328.4   0.326538781   3.53016   1.72058   0.20102  -0.72757
  18   30773.5    325.0   0.029995170   0.32089  -0.12421   0.55268  -0.00254
  19   31096.7    321.6   0.323523636   3.42505   0.25447   1.79573  -0.36832
  20   31364.1    318.8   0.038257325   0.40157  -0.52965   0.32074   0.13477
  21   31543.6    317.0   0.005449548   0.05688   0.21387   0.09163   0.05233
  22   31581.4    316.6   1.210331432  12.61680   0.88155   3.37945  -0.64730
  23   31900.3    313.5   0.059064509   0.60955  -0.17097   0.76172  -0.01021
  24   32211.2    310.5   0.071633068   0.73212  -0.50189  -0.67826   0.14209
  25   32634.0    306.4   0.107011400   1.07953   0.19985  -0.88356   0.50883
  26   32901.0    303.9   0.113557938   1.13628  -0.97783  -0.37310   0.20227
  27   33023.7    302.8   0.016609713   0.16558  -0.32895   0.23346   0.05358
  28   33118.6    301.9   0.017985631   0.17878  -0.36751  -0.20720  -0.02808
  29   33212.2    301.1   0.171008947   1.69511   0.72402   0.87211  -0.64057
  30   33318.1    300.1   0.166334105   1.64353  -1.03497   0.73054   0.19666
  31   33538.2    298.2   0.307715529   3.02054   1.56359  -0.71975  -0.24022
  32   34015.4    294.0   0.055044988   0.53274   0.66478   0.15415  -0.25894
  33   34294.4    291.6   0.016183352   0.15535   0.38221  -0.06943   0.06667
  34   34419.0    290.5   0.058918972   0.56355  -0.33093   0.61624  -0.27257
  35   34665.8    288.5   0.167645965   1.59209  -0.98422   0.74716  -0.25525
  36   34877.0    286.7   0.180400988   1.70285  -1.19873  -0.11861   0.50182
  37   34966.5    286.0   0.079568651   0.74914   0.36457  -0.75631   0.21029
  38   35406.3    282.4   0.007166724   0.06664  -0.05524  -0.24619   0.05456
  39   35540.2    281.4   0.062033282   0.57462   0.09878   0.74775   0.07572
  40   35677.5    280.3   0.060438563   0.55769   0.31053  -0.66486   0.13867
  41   35709.2    280.0   0.045378351   0.41835   0.61557   0.15632  -0.12243
  42   35930.2    278.3   0.150416724   1.37820   1.17203  -0.06662   0.00998
  43   36071.8    277.2   0.215056481   1.96273  -0.63078   1.18190  -0.40984
  44   36275.2    275.7   0.005940244   0.05391  -0.21542  -0.02411   0.08320
  45   36490.4    274.0   0.006653950   0.06003  -0.09787  -0.21970   0.04673
  46   36761.4    272.0   0.015144644   0.13563  -0.01655  -0.35664   0.09032
  47   37064.0    269.8   0.020053371   0.17812   0.41113  -0.08965  -0.03242
  48   37325.2    267.9   0.520357787   4.58961   0.52769   1.63421  -1.28082
  49   37586.2    266.1   0.140471689   1.23037   0.97131   0.44342  -0.30053
  50   37637.0    265.7   0.671167296   5.87072  -1.32975   1.61838  -1.21792
  51   38213.5    261.7   0.111838425   0.96350  -0.94415   0.23896  -0.12239
  52   38233.3    261.6   0.160603134   1.38289  -0.63049  -0.83355   0.53905
  53   38667.3    258.6   0.005530533   0.04709  -0.13821  -0.15309   0.06744
  54   38917.4    257.0   0.003154704   0.02669   0.09056  -0.10786  -0.08277
  55   39073.3    255.9   0.066698220   0.56196   0.71959  -0.17593  -0.11488
  56   39215.0    255.0   0.002434124   0.02043  -0.05589   0.12525  -0.04028
  57   39228.0    254.9   0.002143750   0.01799  -0.05206  -0.07712   0.09661
  58   39347.1    254.1   0.006274321   0.05250   0.14213  -0.17890  -0.01709
  59   39417.3    253.7   0.072377713   0.60450  -0.00529   0.68240  -0.37256
  60   39498.5    253.2   0.008778233   0.07316  -0.24100   0.01589   0.12179
  61   39604.2    252.5   0.008017388   0.06664   0.24712   0.03312  -0.06693
  62   39764.0    251.5   0.031900617   0.26411  -0.50173  -0.03915   0.10413
  63   40087.8    249.5   0.000245449   0.00202   0.01095  -0.03576  -0.02483
  64   40312.5    248.1   0.026870844   0.21944   0.43488   0.09498  -0.14594

FINAL SINGLE POINT ENERGY     -6095.929672216005

DIPOLE MOMENT
-------------
                                X             Y             Z
Electronic contribution:      1.98268      -5.40752       1.61981
Nuclear contribution   :     -0.74856       5.18829      -1.57191
                        -----------------------------------------
Total Dipole Moment    :      1.23412      -0.21923       0.04790
                        -----------------------------------------
Magnitude (a.u.)       :      1.25436
Magnitude (Debye)      :      3.18832

Rotational constants in cm-1:     0.002533     0.000137     0.000131
Rotational constants in MHz :    75.942528     4.114980     3.935210

                             ****ORCA TERMINATED NORMALLY****
TOTAL RUN TIME: 0 days 0 hours 9 minutes 9 seconds 513 msec
