                         Program Version 4.2.0 -  RELEASE  -
|  1> # ORCA input file
|  2> # SCF done       -214.158847920779          0.000920766700
|  3> ! CAM-B3LYP def2-SVP def2/J RIJCOSX Grid4 TightSCF
|  4> %maxcore 5000
|  5> %tddft
|  6>     Mode sTDDFT
|  7>     Ethresh 5.0
|  8>     maxcore 5000
|  9> end
| 10>
| 11> %pal
| 12>   nprocs 6
| 13>   end
| 14> * xyz 0 1
| 15>    C       -1.12347        -0.17192        -2.57969
| 16>    C       -1.03547         1.01522        -1.86846
| 17>    F       -1.73862         2.07250        -2.28592
| 18>    C       -0.23152         1.13366        -0.73304
| 19>    F       -0.17910         2.29890        -0.07948
| 20>    C        0.51249         0.05655        -0.28010
| 21>    C        0.42461        -1.12498        -0.98989
| 22>    C       -0.38220        -1.25484        -2.13157
| 23>    C       -0.26017        -2.61980        -2.63955
| 24>    C       -0.99167        -3.14526        -3.67118
| 25>    C       -1.92569        -2.40930        -4.43308
| 26>    N       -2.68984        -1.86853        -5.09634
| 27>    C       -0.95587        -4.48750        -4.10830
| 28>    N       -1.00417        -5.56094        -4.51326
| 29>    C        0.70507        -3.31662        -1.80578
| 30>    C        1.12002        -2.40179        -0.71686
| 31>    O        1.89936        -2.60397         0.18746
| 32>    C        1.22287        -4.54938        -2.10217
| 33>    C        2.08018        -5.38649        -1.36435
| 34>    C        2.49069        -5.37743        -0.03525
| 35>    C        3.30949        -6.45541         0.26669
| 36>    C        3.54496        -7.30216        -0.84238
| 37>    S        2.73189        -6.78347        -2.23846
| 38>    C        4.40642        -8.34595        -0.43543
| 39>    C        4.71146        -8.17606         0.92741
| 40>    C        4.02517        -6.98735         1.41539
| 41>    C        4.04215        -6.49763         2.68703
| 42>    C        4.79154        -7.11872         3.70986
| 43>    N        5.40420        -7.62622         4.53531
| 44>    C        3.30524        -5.35982         3.08422
| 45>    N        2.70062        -4.45355         3.43871
| 46>    C        5.55577        -9.16854         1.42052
| 47>    C        5.90093       -10.08576         0.44183
| 48>    S        5.16603        -9.72012        -1.11025
| 49>    C        6.73769       -11.22198         0.57292
| 50>    C        7.13011       -12.08945        -0.43158
| 51>    C        7.95118       -13.10592         0.05024
| 52>    C        8.18217       -13.01482         1.43505
| 53>    S        7.39661       -11.67195         2.13936
| 54>    C        9.00926       -14.09766         1.82624
| 55>    C        9.30363       -14.87011         0.68770
| 56>    C        8.65704       -14.26735        -0.46703
| 57>    C        8.71148       -14.69287        -1.76098
| 58>    C        9.44816       -15.83500        -2.14145
| 59>    N       10.05330       -16.75916        -2.44749
| 60>    C        8.04088       -14.01203        -2.79958
| 61>    N        7.49841       -13.45172        -3.63966
| 62>    C       10.10195       -15.97513         0.97230
| 63>    C       10.41771       -16.05200         2.31773
| 64>    S        9.71978       -14.73078         3.24407
| 65>    C       11.18953       -17.05169         2.95990
| 66>    C       11.51398       -17.13834         4.30406
| 67>    C       12.27274       -18.27249         4.58235
| 68>    C       12.52684       -19.05432         3.44092
| 69>    S       11.83544       -18.39106         2.02636
| 70>    C       13.28037       -20.18601         3.82723
| 71>    C       13.51495       -20.12052         5.21722
| 72>    C       12.89009       -18.91498         5.73493
| 73>    C       12.87995       -18.47355         7.02450
| 74>    C       13.52489       -19.17640         8.06515
| 75>    N       14.05385       -19.73950         8.91153
| 76>    C       12.23034       -17.27744         7.39808
| 77>    N       11.70404       -16.30352         7.69539
| 78>    C       14.25676       -21.19748         5.68695
| 79>    C       14.55695       -22.10965         4.68451
| 80>    S       13.95433       -21.57406         3.11438
| 81>    C       15.33122       -23.28020         4.83969
| 82>    C       15.44944       -24.35711         4.01400
| 83>    C       16.65233       -25.22822         4.11298
| 84>    O       17.46512       -25.24795         5.00484
| 85>    C       16.66075       -26.00816         2.85352
| 86>    C       15.48936       -25.73672         2.12362
| 87>    C       15.28371       -26.32840         0.88822
| 88>    C       16.26261       -27.18671         0.40995
| 89>    C       17.41715       -27.46272         1.14526
| 90>    C       17.62900       -26.87257         2.38120
| 91>    F       18.33030       -28.30322         0.64806
| 92>    F       16.09517       -27.75864        -0.78583
| 93>    C       14.64778       -24.83326         2.90692
| 94>    C       13.28962       -24.71200         2.78010
| 95>    C       12.47941       -24.07357         3.74271
| 96>    N       11.78872       -23.59635         4.52535
| 97>    C       12.54367       -25.28589         1.72983
| 98>    N       11.89525       -25.71876         0.88832
| 99>    H       -1.75601        -0.20928        -3.45121
|100>    H        1.13526         0.14079         0.59626
|101>    H        0.95292        -4.96160        -3.06766
|102>    H        2.19885        -4.60818         0.65595
|103>    H        5.91408        -9.23463         2.43214
|104>    H        6.82462       -11.97139        -1.45576
|105>    H       10.44155       -16.69769         0.25204
|106>    H       11.20165       -16.40589         5.02670
|107>    H       14.54856       -21.35009         6.71041
|108>    H       15.98963       -23.28842         5.70359
|109>    H       14.40931       -26.14156         0.28607
|110>    H       18.52070       -27.08556         2.94894
|111> *
|112>
|113>                          ****END OF INPUT****

CARTESIAN COORDINATES (ANGSTROEM)
---------------------------------
  C     -1.123470   -0.171920   -2.579690
  C     -1.035470    1.015220   -1.868460
  F     -1.738620    2.072500   -2.285920
  C     -0.231520    1.133660   -0.733040
  F     -0.179100    2.298900   -0.079480
  C      0.512490    0.056550   -0.280100
  C      0.424610   -1.124980   -0.989890
  C     -0.382200   -1.254840   -2.131570
  C     -0.260170   -2.619800   -2.639550
  C     -0.991670   -3.145260   -3.671180
  C     -1.925690   -2.409300   -4.433080
  N     -2.689840   -1.868530   -5.096340
  C     -0.955870   -4.487500   -4.108300
  N     -1.004170   -5.560940   -4.513260
  C      0.705070   -3.316620   -1.805780
  C      1.120020   -2.401790   -0.716860
  O      1.899360   -2.603970    0.187460
  C      1.222870   -4.549380   -2.102170
  C      2.080180   -5.386490   -1.364350
  C      2.490690   -5.377430   -0.035250
  C      3.309490   -6.455410    0.266690
  C      3.544960   -7.302160   -0.842380
  S      2.731890   -6.783470   -2.238460
  C      4.406420   -8.345950   -0.435430
  C      4.711460   -8.176060    0.927410
  C      4.025170   -6.987350    1.415390
  C      4.042150   -6.497630    2.687030
  C      4.791540   -7.118720    3.709860
  N      5.404200   -7.626220    4.535310
  C      3.305240   -5.359820    3.084220
  N      2.700620   -4.453550    3.438710
  C      5.555770   -9.168540    1.420520
  C      5.900930  -10.085760    0.441830
  S      5.166030   -9.720120   -1.110250
  C      6.737690  -11.221980    0.572920
  C      7.130110  -12.089450   -0.431580
  C      7.951180  -13.105920    0.050240
  C      8.182170  -13.014820    1.435050
  S      7.396610  -11.671950    2.139360
  C      9.009260  -14.097660    1.826240
  C      9.303630  -14.870110    0.687700
  C      8.657040  -14.267350   -0.467030
  C      8.711480  -14.692870   -1.760980
  C      9.448160  -15.835000   -2.141450
  N     10.053300  -16.759160   -2.447490
  C      8.040880  -14.012030   -2.799580
  N      7.498410  -13.451720   -3.639660
  C     10.101950  -15.975130    0.972300
  C     10.417710  -16.052000    2.317730
  S      9.719780  -14.730780    3.244070
  C     11.189530  -17.051690    2.959900
  C     11.513980  -17.138340    4.304060
  C     12.272740  -18.272490    4.582350
  C     12.526840  -19.054320    3.440920
  S     11.835440  -18.391060    2.026360
  C     13.280370  -20.186010    3.827230
  C     13.514950  -20.120520    5.217220
  C     12.890090  -18.914980    5.734930
  C     12.879950  -18.473550    7.024500
  C     13.524890  -19.176400    8.065150
  N     14.053850  -19.739500    8.911530
  C     12.230340  -17.277440    7.398080
  N     11.704040  -16.303520    7.695390
  C     14.256760  -21.197480    5.686950
  C     14.556950  -22.109650    4.684510
  S     13.954330  -21.574060    3.114380
  C     15.331220  -23.280200    4.839690
  C     15.449440  -24.357110    4.014000
  C     16.652330  -25.228220    4.112980
  O     17.465120  -25.247950    5.004840
  C     16.660750  -26.008160    2.853520
  C     15.489360  -25.736720    2.123620
  C     15.283710  -26.328400    0.888220
  C     16.262610  -27.186710    0.409950
  C     17.417150  -27.462720    1.145260
  C     17.629000  -26.872570    2.381200
  F     18.330300  -28.303220    0.648060
  F     16.095170  -27.758640   -0.785830
  C     14.647780  -24.833260    2.906920
  C     13.289620  -24.712000    2.780100
  C     12.479410  -24.073570    3.742710
  N     11.788720  -23.596350    4.525350
  C     12.543670  -25.285890    1.729830
  N     11.895250  -25.718760    0.888320
  H     -1.756010   -0.209280   -3.451210
  H      1.135260    0.140790    0.596260
  H      0.952920   -4.961600   -3.067660
  H      2.198850   -4.608180    0.655950
  H      5.914080   -9.234630    2.432140
  H      6.824620  -11.971390   -1.455760
  H     10.441550  -16.697690    0.252040
  H     11.201650  -16.405890    5.026700
  H     14.548560  -21.350090    6.710410
  H     15.989630  -23.288420    5.703590
  H     14.409310  -26.141560    0.286070
  H     18.520700  -27.085560    2.948940

 Total Charge           Charge          ....    0
 Multiplicity           Mult            ....    1
 Number of Electrons    NEL             ....  602
 Basis Dimension        Dim             .... 1260

ORBITAL ENERGIES
----------------

  NO   OCC          E(Eh)            E(eV)
   0   2.0000     -89.009719     -2422.0776
   1   2.0000     -89.009467     -2422.0707
   2   2.0000     -89.008839     -2422.0537
   3   2.0000     -89.008779     -2422.0520
   4   2.0000     -89.007102     -2422.0064
   5   2.0000     -89.005878     -2421.9731
   6   2.0000     -24.809544      -675.1020
   7   2.0000     -24.809376      -675.0974
   8   2.0000     -24.806634      -675.0228
   9   2.0000     -24.805458      -674.9908
  10   2.0000     -19.230786      -523.2963
  11   2.0000     -19.229320      -523.2564
  12   2.0000     -14.446095      -393.0982
  13   2.0000     -14.445980      -393.0951
  14   2.0000     -14.443981      -393.0407
  15   2.0000     -14.443551      -393.0290
  16   2.0000     -14.442637      -393.0041
  17   2.0000     -14.439213      -392.9110
  18   2.0000     -14.428481      -392.6189
  19   2.0000     -14.427793      -392.6002
  20   2.0000     -14.426816      -392.5736
  21   2.0000     -14.423248      -392.4765
  22   2.0000     -10.396173      -282.8943
  23   2.0000     -10.395290      -282.8702
  24   2.0000     -10.392390      -282.7913
  25   2.0000     -10.391976      -282.7800
  26   2.0000     -10.382606      -282.5251
  27   2.0000     -10.382226      -282.5147
  28   2.0000     -10.381554      -282.4965
  29   2.0000     -10.380167      -282.4587
  30   2.0000     -10.379625      -282.4440
  31   2.0000     -10.368594      -282.1438
  32   2.0000     -10.367097      -282.1030
  33   2.0000     -10.365936      -282.0715
  34   2.0000     -10.358907      -281.8802
  35   2.0000     -10.357752      -281.8488
  36   2.0000     -10.357203      -281.8338
  37   2.0000     -10.356764      -281.8219
  38   2.0000     -10.353881      -281.7434
  39   2.0000     -10.353028      -281.7202
  40   2.0000     -10.351898      -281.6895
  41   2.0000     -10.351462      -281.6776
  42   2.0000     -10.351190      -281.6702
  43   2.0000     -10.351126      -281.6684
  44   2.0000     -10.348128      -281.5869
  45   2.0000     -10.347961      -281.5823
  46   2.0000     -10.347931      -281.5815
  47   2.0000     -10.347809      -281.5782
  48   2.0000     -10.346019      -281.5295
  49   2.0000     -10.345906      -281.5264
  50   2.0000     -10.343949      -281.4732
  51   2.0000     -10.343442      -281.4594
  52   2.0000     -10.342217      -281.4260
  53   2.0000     -10.339114      -281.3416
  54   2.0000     -10.338142      -281.3152
  55   2.0000     -10.338051      -281.3127
  56   2.0000     -10.337717      -281.3036
  57   2.0000     -10.336849      -281.2800
  58   2.0000     -10.330334      -281.1027
  59   2.0000     -10.329439      -281.0783
  60   2.0000     -10.329400      -281.0773
  61   2.0000     -10.327826      -281.0344
  62   2.0000     -10.325973      -280.9840
  63   2.0000     -10.325764      -280.9783
  64   2.0000     -10.325284      -280.9653
  65   2.0000     -10.325228      -280.9637
  66   2.0000     -10.323336      -280.9123
  67   2.0000     -10.322045      -280.8771
  68   2.0000     -10.321973      -280.8752
  69   2.0000     -10.321385      -280.8592
  70   2.0000     -10.321049      -280.8500
  71   2.0000     -10.320252      -280.8283
  72   2.0000     -10.320231      -280.8278
  73   2.0000     -10.319321      -280.8030
  74   2.0000     -10.318914      -280.7919
  75   2.0000     -10.318702      -280.7861
  76   2.0000     -10.318426      -280.7787
  77   2.0000     -10.317742      -280.7600
  78   2.0000     -10.314650      -280.6759
  79   2.0000     -10.314433      -280.6700
  80   2.0000     -10.313251      -280.6378
  81   2.0000     -10.311507      -280.5904
  82   2.0000     -10.311275      -280.5841
  83   2.0000     -10.309027      -280.5229
  84   2.0000      -8.104042      -220.5222
  85   2.0000      -8.103795      -220.5155
  86   2.0000      -8.103256      -220.5008
  87   2.0000      -8.103232      -220.5002
  88   2.0000      -8.101259      -220.4465
  89   2.0000      -8.100709      -220.4315
  90   2.0000      -6.073337      -165.2639
  91   2.0000      -6.073080      -165.2569
  92   2.0000      -6.072580      -165.2433
  93   2.0000      -6.072526      -165.2418
  94   2.0000      -6.070516      -165.1871
  95   2.0000      -6.069793      -165.1675
  96   2.0000      -6.069147      -165.1499
  97   2.0000      -6.068930      -165.1440
  98   2.0000      -6.068386      -165.1292
  99   2.0000      -6.068373      -165.1288
 100   2.0000      -6.066322      -165.0730
 101   2.0000      -6.066276      -165.0718
 102   2.0000      -6.066081      -165.0665
 103   2.0000      -6.065676      -165.0554
 104   2.0000      -6.065473      -165.0499
 105   2.0000      -6.065455      -165.0494
 106   2.0000      -6.063686      -165.0013
 107   2.0000      -6.063244      -164.9892
 108   2.0000      -1.333711       -36.2921
 109   2.0000      -1.330220       -36.1971
 110   2.0000      -1.318413       -35.8758
 111   2.0000      -1.314924       -35.7809
 112   2.0000      -1.147027       -31.2122
 113   2.0000      -1.145619       -31.1739
 114   2.0000      -1.065012       -28.9804
 115   2.0000      -1.062636       -28.9158
 116   2.0000      -1.060475       -28.8570
 117   2.0000      -1.038369       -28.2554
 118   2.0000      -1.036328       -28.1999
 119   2.0000      -1.034644       -28.1541
 120   2.0000      -1.034078       -28.1387
 121   2.0000      -1.030631       -28.0449
 122   2.0000      -1.026300       -27.9270
 123   2.0000      -1.023294       -27.8452
 124   2.0000      -1.020857       -27.7789
 125   2.0000      -1.018485       -27.7144
 126   2.0000      -1.016488       -27.6601
 127   2.0000      -1.013863       -27.5886
 128   2.0000      -1.011492       -27.5241
 129   2.0000      -1.007904       -27.4265
 130   2.0000      -1.005009       -27.3477
 131   2.0000      -1.003251       -27.2998
 132   2.0000      -0.982460       -26.7341
 133   2.0000      -0.975277       -26.5386
 134   2.0000      -0.970674       -26.4134
 135   2.0000      -0.966954       -26.3121
 136   2.0000      -0.964818       -26.2540
 137   2.0000      -0.939610       -25.5681
 138   2.0000      -0.933617       -25.4050
 139   2.0000      -0.923872       -25.1398
 140   2.0000      -0.915522       -24.9126
 141   2.0000      -0.911706       -24.8088
 142   2.0000      -0.897039       -24.4097
 143   2.0000      -0.896169       -24.3860
 144   2.0000      -0.888606       -24.1802
 145   2.0000      -0.888142       -24.1676
 146   2.0000      -0.884977       -24.0814
 147   2.0000      -0.881860       -23.9966
 148   2.0000      -0.880289       -23.9539
 149   2.0000      -0.878685       -23.9102
 150   2.0000      -0.872298       -23.7364
 151   2.0000      -0.867835       -23.6150
 152   2.0000      -0.854030       -23.2393
 153   2.0000      -0.834278       -22.7018
 154   2.0000      -0.820486       -22.3266
 155   2.0000      -0.807454       -21.9719
 156   2.0000      -0.797486       -21.7007
 157   2.0000      -0.792241       -21.5580
 158   2.0000      -0.788309       -21.4510
 159   2.0000      -0.784867       -21.3573
 160   2.0000      -0.782081       -21.2815
 161   2.0000      -0.776684       -21.1346
 162   2.0000      -0.761564       -20.7232
 163   2.0000      -0.745913       -20.2973
 164   2.0000      -0.733825       -19.9684
 165   2.0000      -0.725460       -19.7408
 166   2.0000      -0.721258       -19.6264
 167   2.0000      -0.716959       -19.5095
 168   2.0000      -0.713361       -19.4115
 169   2.0000      -0.711295       -19.3553
 170   2.0000      -0.706515       -19.2252
 171   2.0000      -0.704296       -19.1649
 172   2.0000      -0.701633       -19.0924
 173   2.0000      -0.697213       -18.9721
 174   2.0000      -0.694228       -18.8909
 175   2.0000      -0.691678       -18.8215
 176   2.0000      -0.679666       -18.4946
 177   2.0000      -0.673677       -18.3317
 178   2.0000      -0.660645       -17.9771
 179   2.0000      -0.657025       -17.8785
 180   2.0000      -0.652440       -17.7538
 181   2.0000      -0.651117       -17.7178
 182   2.0000      -0.650768       -17.7083
 183   2.0000      -0.649081       -17.6624
 184   2.0000      -0.645026       -17.5520
 185   2.0000      -0.642203       -17.4752
 186   2.0000      -0.637371       -17.3438
 187   2.0000      -0.636269       -17.3138
 188   2.0000      -0.632437       -17.2095
 189   2.0000      -0.628229       -17.0950
 190   2.0000      -0.624391       -16.9905
 191   2.0000      -0.620486       -16.8843
 192   2.0000      -0.615618       -16.7518
 193   2.0000      -0.607913       -16.5422
 194   2.0000      -0.604595       -16.4519
 195   2.0000      -0.601695       -16.3730
 196   2.0000      -0.598320       -16.2811
 197   2.0000      -0.595114       -16.1939
 198   2.0000      -0.592174       -16.1139
 199   2.0000      -0.579735       -15.7754
 200   2.0000      -0.577369       -15.7110
 201   2.0000      -0.567764       -15.4496
 202   2.0000      -0.564611       -15.3638
 203   2.0000      -0.564379       -15.3575
 204   2.0000      -0.562321       -15.3015
 205   2.0000      -0.561636       -15.2829
 206   2.0000      -0.561075       -15.2676
 207   2.0000      -0.558160       -15.1883
 208   2.0000      -0.558131       -15.1875
 209   2.0000      -0.554805       -15.0970
 210   2.0000      -0.551451       -15.0058
 211   2.0000      -0.547792       -14.9062
 212   2.0000      -0.547062       -14.8863
 213   2.0000      -0.545368       -14.8402
 214   2.0000      -0.540177       -14.6990
 215   2.0000      -0.538185       -14.6448
 216   2.0000      -0.536355       -14.5950
 217   2.0000      -0.532575       -14.4921
 218   2.0000      -0.527162       -14.3448
 219   2.0000      -0.524767       -14.2796
 220   2.0000      -0.524328       -14.2677
 221   2.0000      -0.522947       -14.2301
 222   2.0000      -0.522008       -14.2046
 223   2.0000      -0.519709       -14.1420
 224   2.0000      -0.517017       -14.0687
 225   2.0000      -0.515889       -14.0381
 226   2.0000      -0.512696       -13.9512
 227   2.0000      -0.509320       -13.8593
 228   2.0000      -0.509222       -13.8566
 229   2.0000      -0.508451       -13.8357
 230   2.0000      -0.505540       -13.7564
 231   2.0000      -0.504999       -13.7417
 232   2.0000      -0.504122       -13.7178
 233   2.0000      -0.502917       -13.6851
 234   2.0000      -0.499933       -13.6039
 235   2.0000      -0.498844       -13.5742
 236   2.0000      -0.498088       -13.5537
 237   2.0000      -0.493384       -13.4257
 238   2.0000      -0.490125       -13.3370
 239   2.0000      -0.487131       -13.2555
 240   2.0000      -0.483189       -13.1482
 241   2.0000      -0.476394       -12.9633
 242   2.0000      -0.473790       -12.8925
 243   2.0000      -0.473379       -12.8813
 244   2.0000      -0.473085       -12.8733
 245   2.0000      -0.472757       -12.8644
 246   2.0000      -0.470218       -12.7953
 247   2.0000      -0.468641       -12.7524
 248   2.0000      -0.466883       -12.7045
 249   2.0000      -0.465057       -12.6549
 250   2.0000      -0.464520       -12.6402
 251   2.0000      -0.463567       -12.6143
 252   2.0000      -0.462420       -12.5831
 253   2.0000      -0.460926       -12.5424
 254   2.0000      -0.458969       -12.4892
 255   2.0000      -0.458038       -12.4639
 256   2.0000      -0.457530       -12.4500
 257   2.0000      -0.457200       -12.4410
 258   2.0000      -0.456207       -12.4140
 259   2.0000      -0.455933       -12.4066
 260   2.0000      -0.455266       -12.3884
 261   2.0000      -0.453198       -12.3321
 262   2.0000      -0.453047       -12.3280
 263   2.0000      -0.452498       -12.3131
 264   2.0000      -0.451487       -12.2856
 265   2.0000      -0.451398       -12.2832
 266   2.0000      -0.450780       -12.2663
 267   2.0000      -0.449580       -12.2337
 268   2.0000      -0.442300       -12.0356
 269   2.0000      -0.441791       -12.0217
 270   2.0000      -0.440830       -11.9956
 271   2.0000      -0.438978       -11.9452
 272   2.0000      -0.437232       -11.8977
 273   2.0000      -0.436425       -11.8757
 274   2.0000      -0.435264       -11.8441
 275   2.0000      -0.434301       -11.8179
 276   2.0000      -0.427483       -11.6324
 277   2.0000      -0.421749       -11.4764
 278   2.0000      -0.420654       -11.4466
 279   2.0000      -0.417080       -11.3493
 280   2.0000      -0.414538       -11.2801
 281   2.0000      -0.408643       -11.1197
 282   2.0000      -0.400713       -10.9039
 283   2.0000      -0.387177       -10.5356
 284   2.0000      -0.370251       -10.0750
 285   2.0000      -0.368822       -10.0362
 286   2.0000      -0.366422        -9.9708
 287   2.0000      -0.363569        -9.8932
 288   2.0000      -0.360086        -9.7984
 289   2.0000      -0.356741        -9.7074
 290   2.0000      -0.353510        -9.6195
 291   2.0000      -0.350856        -9.5473
 292   2.0000      -0.344084        -9.3630
 293   2.0000      -0.338131        -9.2010
 294   2.0000      -0.337183        -9.1752
 295   2.0000      -0.334428        -9.1003
 296   2.0000      -0.326117        -8.8741
 297   2.0000      -0.322154        -8.7663
 298   2.0000      -0.307509        -8.3677
 299   2.0000      -0.281273        -7.6538
 300   2.0000      -0.255984        -6.9657
 301   0.0000      -0.130556        -3.5526
 302   0.0000      -0.122830        -3.3424
 303   0.0000      -0.118512        -3.2249
 304   0.0000      -0.098281        -2.6744
 305   0.0000      -0.097144        -2.6434

MULLIKEN ATOMIC CHARGES
-----------------------
   0 C :   -0.091674
   1 C :    0.238469
   2 F :   -0.162460
   3 C :    0.238673
   4 F :   -0.165725
   5 C :   -0.102669
   6 C :   -0.010290
   7 C :    0.044527
   8 C :    0.299088
   9 C :   -0.341923
  10 C :   -0.191634
  11 N :    0.161832
  12 C :   -0.199628
  13 N :    0.159965
  14 C :   -0.095267
  15 C :    0.153098
  16 O :   -0.144208
  17 C :    0.039745
  18 C :   -0.114224
  19 C :    0.007163
  20 C :   -0.009417
  21 C :   -0.077701
  22 S :    0.212822
  23 C :   -0.104902
  24 C :    0.025996
  25 C :    0.302744
  26 C :   -0.287785
  27 C :   -0.189406
  28 N :    0.174634
  29 C :   -0.190081
  30 N :    0.195105
  31 C :   -0.066034
  32 C :   -0.044166
  33 S :    0.205781
  34 C :   -0.053878
  35 C :   -0.060719
  36 C :    0.015995
  37 C :   -0.097889
  38 S :    0.209463
  39 C :   -0.096603
  40 C :    0.019203
  41 C :    0.296987
  42 C :   -0.286321
  43 C :   -0.187301
  44 N :    0.176477
  45 C :   -0.187660
  46 N :    0.179213
  47 C :   -0.062013
  48 C :   -0.053038
  49 S :    0.208744
  50 C :   -0.044882
  51 C :   -0.067028
  52 C :    0.028671
  53 C :   -0.102042
  54 S :    0.207410
  55 C :   -0.076285
  56 C :    0.022644
  57 C :    0.295960
  58 C :   -0.285790
  59 C :   -0.189398
  60 N :    0.184761
  61 C :   -0.188482
  62 N :    0.176980
  63 C :    0.008467
  64 C :   -0.093049
  65 S :    0.208578
  66 C :    0.045892
  67 C :   -0.135826
  68 C :    0.137202
  69 O :   -0.131251
  70 C :    0.008751
  71 C :    0.027684
  72 C :   -0.088704
  73 C :    0.238092
  74 C :    0.235479
  75 C :   -0.098712
  76 F :   -0.166037
  77 F :   -0.162017
  78 C :    0.234859
  79 C :   -0.319301
  80 C :   -0.206774
  81 N :    0.175755
  82 C :   -0.177583
  83 N :    0.164824
  84 H :    0.018045
  85 H :    0.016194
  86 H :    0.014818
  87 H :    0.038329
  88 H :    0.014008
  89 H :    0.015455
  90 H :    0.015659
  91 H :    0.014635
  92 H :    0.020521
  93 H :    0.036715
  94 H :    0.019903
  95 H :    0.015764
Sum of atomic charges:    0.0000000

LOEWDIN ATOMIC CHARGES
----------------------
   0 C :   -0.017735
   1 C :    0.074749
   2 F :   -0.041465
   3 C :    0.072068
   4 F :   -0.042722
   5 C :   -0.003426
   6 C :   -0.044420
   7 C :   -0.015775
   8 C :    0.075334
   9 C :   -0.136594
  10 C :   -0.020440
  11 N :   -0.044596
  12 C :   -0.024708
  13 N :   -0.047151
  14 C :   -0.099721
  15 C :    0.086167
  16 O :   -0.132249
  17 C :    0.043993
  18 C :   -0.178010
  19 C :    0.021943
  20 C :   -0.075194
  21 C :   -0.156916
  22 S :    0.500492
  23 C :   -0.191088
  24 C :   -0.049168
  25 C :    0.075190
  26 C :   -0.090347
  27 C :   -0.015025
  28 N :   -0.028849
  29 C :   -0.022122
  30 N :   -0.012259
  31 C :   -0.040517
  32 C :   -0.166402
  33 S :    0.492211
  34 C :   -0.182777
  35 C :   -0.032257
  36 C :   -0.065962
  37 C :   -0.176776
  38 S :    0.493278
  39 C :   -0.177415
  40 C :   -0.065475
  41 C :    0.080188
  42 C :   -0.095391
  43 C :   -0.016528
  44 N :   -0.026546
  45 C :   -0.016485
  46 N :   -0.026765
  47 C :   -0.032787
  48 C :   -0.181489
  49 S :    0.493172
  50 C :   -0.167795
  51 C :   -0.039177
  52 C :   -0.049998
  53 C :   -0.188429
  54 S :    0.494166
  55 C :   -0.149001
  56 C :   -0.073949
  57 C :    0.079045
  58 C :   -0.093100
  59 C :   -0.017921
  60 N :   -0.022047
  61 C :   -0.015855
  62 N :   -0.027654
  63 C :    0.017673
  64 C :   -0.180025
  65 S :    0.511963
  66 C :    0.053098
  67 C :   -0.104370
  68 C :    0.083680
  69 O :   -0.133347
  70 C :   -0.046629
  71 C :   -0.012914
  72 C :   -0.019981
  73 C :    0.075679
  74 C :    0.071128
  75 C :   -0.003085
  76 F :   -0.042728
  77 F :   -0.040410
  78 C :    0.059219
  79 C :   -0.140236
  80 C :   -0.036876
  81 N :   -0.043405
  82 C :   -0.023267
  83 N :   -0.041146
  84 H :    0.051963
  85 H :    0.053898
  86 H :    0.043516
  87 H :    0.044753
  88 H :    0.037251
  89 H :    0.036709
  90 H :    0.036858
  91 H :    0.037274
  92 H :    0.048174
  93 H :    0.056459
  94 H :    0.051940
  95 H :    0.053664

  Mayer bond orders larger than 0.100000
B(  0-C ,  1-C ) :   1.3378 B(  0-C ,  5-C ) :   0.1051 B(  0-C ,  7-C ) :   1.3091
B(  0-C , 84-H ) :   0.9926 B(  1-C ,  2-F ) :   1.1483 B(  1-C ,  3-C ) :   1.2876
B(  3-C ,  4-F ) :   1.1340 B(  3-C ,  5-C ) :   1.3149 B(  5-C ,  6-C ) :   1.3200
B(  5-C , 85-H ) :   1.0210 B(  6-C ,  7-C ) :   1.3412 B(  6-C , 15-C ) :   0.9587
B(  7-C ,  8-C ) :   1.0040 B(  8-C ,  9-C ) :   1.6377 B(  8-C , 14-C ) :   1.0819
B(  9-C , 10-C ) :   1.1401 B(  9-C , 12-C ) :   1.1386 B( 10-C , 11-N ) :   2.9808
B( 12-C , 13-N ) :   2.9832 B( 14-C , 15-C ) :   0.9475 B( 14-C , 17-C ) :   1.5885
B( 15-C , 16-O ) :   2.1893 B( 17-C , 18-C ) :   1.2157 B( 17-C , 86-H ) :   0.9159
B( 18-C , 19-C ) :   1.3951 B( 18-C , 22-S ) :   1.0732 B( 19-C , 20-C ) :   1.3302
B( 19-C , 87-H ) :   0.9725 B( 20-C , 21-C ) :   1.3749 B( 20-C , 25-C ) :   0.9960
B( 21-C , 22-S ) :   1.1715 B( 21-C , 23-C ) :   1.2053 B( 23-C , 24-C ) :   1.4379
B( 23-C , 33-S ) :   1.1071 B( 24-C , 25-C ) :   0.9904 B( 24-C , 31-C ) :   1.3119
B( 25-C , 26-C ) :   1.7215 B( 26-C , 27-C ) :   1.1339 B( 26-C , 29-C ) :   1.1336
B( 27-C , 28-N ) :   2.9882 B( 29-C , 30-N ) :   2.9958 B( 31-C , 32-C ) :   1.4438
B( 31-C , 88-H ) :   0.9869 B( 32-C , 33-S ) :   1.1231 B( 32-C , 34-C ) :   1.1735
B( 34-C , 35-C ) :   1.4484 B( 34-C , 38-S ) :   1.1086 B( 35-C , 36-C ) :   1.3111
B( 35-C , 89-H ) :   0.9853 B( 36-C , 37-C ) :   1.4399 B( 36-C , 41-C ) :   0.9925
B( 37-C , 38-S ) :   1.1246 B( 37-C , 39-C ) :   1.1900 B( 39-C , 40-C ) :   1.4398
B( 39-C , 49-S ) :   1.1250 B( 40-C , 41-C ) :   0.9939 B( 40-C , 47-C ) :   1.3115
B( 41-C , 42-C ) :   1.7207 B( 42-C , 43-C ) :   1.1318 B( 42-C , 45-C ) :   1.1314
B( 43-C , 44-N ) :   2.9898 B( 45-C , 46-N ) :   2.9910 B( 47-C , 48-C ) :   1.4496
B( 47-C , 90-H ) :   0.9846 B( 48-C , 49-S ) :   1.1083 B( 48-C , 50-C ) :   1.1754
B( 50-C , 51-C ) :   1.4427 B( 50-C , 54-S ) :   1.1231 B( 51-C , 52-C ) :   1.3153
B( 51-C , 91-H ) :   0.9863 B( 52-C , 53-C ) :   1.4357 B( 52-C , 57-C ) :   0.9922
B( 53-C , 54-S ) :   1.1094 B( 53-C , 55-C ) :   1.2131 B( 55-C , 56-C ) :   1.3929
B( 55-C , 65-S ) :   1.1616 B( 56-C , 57-C ) :   0.9915 B( 56-C , 63-C ) :   1.3110
B( 57-C , 58-C ) :   1.7232 B( 58-C , 59-C ) :   1.1309 B( 58-C , 61-C ) :   1.1342
B( 59-C , 60-N ) :   2.9955 B( 61-C , 62-N ) :   2.9895 B( 63-C , 64-C ) :   1.3924
B( 63-C , 92-H ) :   1.0009 B( 64-C , 65-S ) :   1.0804 B( 64-C , 66-C ) :   1.1538
B( 66-C , 67-C ) :   1.6294 B( 66-C , 93-H ) :   0.9470 B( 67-C , 68-C ) :   0.9442
B( 67-C , 78-C ) :   1.0401 B( 68-C , 69-O ) :   2.2796 B( 68-C , 70-C ) :   0.9302
B( 70-C , 71-C ) :   1.3423 B( 70-C , 75-C ) :   1.3249 B( 71-C , 72-C ) :   1.3179
B( 71-C , 78-C ) :   1.0185 B( 72-C , 73-C ) :   1.3379 B( 72-C , 75-C ) :   0.1040
B( 72-C , 94-H ) :   0.9953 B( 73-C , 74-C ) :   1.2872 B( 73-C , 77-F ) :   1.1441
B( 74-C , 75-C ) :   1.3211 B( 74-C , 76-F ) :   1.1340 B( 75-C , 95-H ) :   1.0197
B( 78-C , 79-C ) :   1.6620 B( 79-C , 80-C ) :   1.1532 B( 79-C , 82-C ) :   1.1268
B( 80-C , 81-N ) :   3.0230 B( 82-C , 83-N ) :   3.0003

-----------------------------------------------------------------------------
         ABSORPTION SPECTRUM VIA TRANSITION ELECTRIC DIPOLE MOMENTS
-----------------------------------------------------------------------------
State   Energy  Wavelength   fosc         T2         TX        TY        TZ
        (cm-1)    (nm)                  (au**2)     (au)      (au)      (au)
-----------------------------------------------------------------------------
   0   11254.9    888.5   0.730222130  21.35946   2.55996  -3.69432   1.07612
   1   12682.4    788.5   0.127315551   3.30488  -0.86246   1.56385  -0.33976
   2   13240.5    755.3   0.111425850   2.77049   1.07813  -1.19883   0.41343
   3   19582.3    510.7   1.381989694  23.23365   2.27851  -4.21755   0.50431
   4   20169.7    495.8   0.074711777   1.21945   0.80706  -0.57424   0.48822
   5   20718.4    482.7   0.442084756   7.02467  -1.87605   1.30622  -1.34123
   6   22068.6    453.1   0.123721910   1.84565  -0.59310   1.20866  -0.18173
   7   22762.1    439.3   0.123764153   1.79002  -0.89108   0.76216  -0.64428
   8   25622.0    390.3   0.309278024   3.97385   1.05923  -1.59531   0.55395
   9   26630.7    375.5   0.037621023   0.46507   0.32406  -0.56400  -0.20485
  10   26848.8    372.5   0.176765027   2.16744  -0.86781   1.13844  -0.34395
  11   27255.2    366.9   0.125594370   1.51704   1.04979  -0.49369   0.41383
  12   27750.1    360.4   0.070314417   0.83417   0.48701  -0.71579  -0.29091
  13   28095.8    355.9   0.021100574   0.24725   0.22732   0.39050   0.20755
  14   28311.4    353.2   0.035057828   0.40766  -0.37406  -0.33148  -0.39732
  15   29307.6    341.2   0.207914473   2.33550   0.96503  -1.16504   0.21658
  16   29476.4    339.3   0.011652247   0.13014   0.23190   0.27376  -0.03769
  17   29596.2    337.9   0.083318255   0.92679  -0.37729   0.19378  -0.86423
  18   30225.1    330.9   0.140137468   1.52638   0.50785  -0.81595   0.77634
  19   30466.3    328.2   0.475118344   5.13402  -0.63439   1.60285   1.47052
  20   30727.1    325.4   0.014891008   0.15954   0.08618   0.30046   0.24868
  21   30929.9    323.3   0.122021623   1.29877   0.41909   0.03787   1.05910
  22   31459.3    317.9   0.385587071   4.03505   0.13053   0.66548   1.89081
  23   31609.6    316.4   1.011139053  10.53094   0.22081  -1.06734  -3.05663
  24   32410.1    308.5   0.112879019   1.14659  -0.47480   0.95129   0.12728
  25   32767.6    305.2   0.233750299   2.34846   0.08851   0.65585   1.38220
  26   32956.8    303.4   0.065482614   0.65412   0.43986  -0.00090   0.67871
  27   33039.1    302.7   0.154392011   1.53841  -0.59257   1.04724   0.30093
  28   33086.8    302.2   0.089027958   0.88582  -0.72000   0.60047  -0.08283
  29   33253.2    300.7   0.054508804   0.53965  -0.16638   0.08479   0.71047
  30   33403.3    299.4   0.048213618   0.47518  -0.46139  -0.39467   0.32638
  31   33633.1    297.3   0.218623105   2.13995  -0.92422   0.96639  -0.59318
  32   33994.6    294.2   0.011511262   0.11148   0.28369   0.10017   0.14479
  33   34191.1    292.5   0.032081352   0.30890   0.34118   0.18746   0.39667
  34   34303.4    291.5   0.015924173   0.15283   0.12474  -0.06198   0.36527
  35   34389.0    290.8   0.118571971   1.13511   0.43894  -0.02907   0.97036
  36   34643.9    288.7   0.082806810   0.78689   0.37572  -0.77003   0.22973
  37   34678.6    288.4   0.248519191   2.35925  -0.81398   1.20885   0.48513
  38   34863.8    286.8   0.022362418   0.21116   0.09935   0.08636   0.44027
  39   35207.7    284.0   0.135843357   1.27021   0.14199   0.40067   1.04380
  40   35346.7    282.9   0.025295282   0.23560   0.07268  -0.36620   0.31018
  41   35625.3    280.7   0.087858147   0.81189   0.34610  -0.56364  -0.61189
  42   35856.2    278.9   0.275273319   2.52741   0.60755  -1.37715  -0.51162
  43   35904.3    278.5   0.099677085   0.91396   0.85904  -0.06707  -0.41413
  44   36000.2    277.8   0.024191334   0.22122  -0.30311   0.29819   0.20108
  45   36238.9    275.9   0.031734185   0.28829   0.04377  -0.49459  -0.20433
  46   36799.6    271.7   0.005856214   0.05239   0.12174   0.13760   0.13650
  47   36938.5    270.7   0.025800149   0.22994  -0.31897  -0.22672  -0.27713
  48   37296.9    268.1   0.192749291   1.70136  -0.90554  -0.47069  -0.81228
  49   37433.7    267.1   0.403680874   3.55018  -0.30708  -0.98754  -1.57501
  50   37618.2    265.8   0.047929970   0.41945   0.45392   0.15009   0.43691
  51   37838.9    264.3   0.144080295   1.25355  -1.04921   0.37459  -0.11135
  52   38034.2    262.9   0.221482752   1.91709  -1.33417   0.31851  -0.18876
  53   38504.9    259.7   0.004653064   0.03978   0.17529  -0.07560  -0.05781
  54   38686.9    258.5   0.015390796   0.13097  -0.29065   0.20527  -0.06599
  55   38782.7    257.8   0.007364539   0.06251   0.19458  -0.07680   0.13695
  56   38988.2    256.5   0.002721082   0.02298  -0.01483   0.14656   0.03574
  57   39199.5    255.1   0.000625091   0.00525  -0.02428   0.00065   0.06826
  58   39471.1    253.3   0.002241440   0.01869   0.04301  -0.06823  -0.11040
  59   39486.2    253.3   0.043226777   0.36040   0.39228  -0.45355  -0.02845
  60   39790.8    251.3   0.043719389   0.36172   0.51799  -0.29945   0.06103
  61   40017.2    249.9   0.023589367   0.19406  -0.09380   0.27719  -0.32929
  62   40081.9    249.5   0.095729196   0.78627   0.44382  -0.23579   0.73055
  63   40183.9    248.9   0.041302869   0.33838   0.30016   0.02099   0.49784

FINAL SINGLE POINT ENERGY     -5851.000706443083

DIPOLE MOMENT
-------------
                                X             Y             Z
Electronic contribution:     -0.38167       1.64112      -8.98602
Nuclear contribution   :      2.82576      -1.57465       8.85297
                        -----------------------------------------
Total Dipole Moment    :      2.44409       0.06647      -0.13305
                        -----------------------------------------
Magnitude (a.u.)       :      2.44861
Magnitude (Debye)      :      6.22387

Rotational constants in cm-1:     0.001991     0.000123     0.000117
Rotational constants in MHz :    59.694544     3.681283     3.504592

                             ****ORCA TERMINATED NORMALLY****
TOTAL RUN TIME: 0 days 0 hours 10 minutes 42 seconds 259 msec
