                         Program Version 4.2.0 -  RELEASE  -
|  1> # ORCA input file
|  2> # SCF done       -202.154866932317          0.000817377466
|  3> ! CAM-B3LYP def2-SVP def2/J RIJCOSX Grid4 TightSCF
|  4> %maxcore 5000
|  5> %tddft
|  6>     Mode sTDDFT
|  7>     Ethresh 5.0
|  8>     maxcore 5000
|  9> end
| 10>
| 11> %pal
| 12>   nprocs 6
| 13>   end
| 14> * xyz 0 1
| 15>    C      -13.19522        -3.25889        -1.47840
| 16>    C      -12.90964        -4.25540        -2.40195
| 17>    C      -11.56242        -4.47754        -2.87136
| 18>    N      -11.31219        -5.44605        -3.75717
| 19>    C      -12.29542        -6.19410        -4.19739
| 20>    C      -13.63765        -5.97095        -3.73056
| 21>    N      -13.91250        -5.03298        -2.86682
| 22>    C      -14.68573        -6.79548        -4.21903
| 23>    N      -15.50306        -7.48025        -4.63518
| 24>    C      -12.02005        -7.22228        -5.12947
| 25>    N      -11.82525        -8.06259        -5.88352
| 26>    C      -10.46680        -3.70360        -2.41812
| 27>    C      -10.77507        -2.69581        -1.47880
| 28>    C      -12.13478        -2.48429        -1.02061
| 29>    N      -12.20269        -1.48253        -0.13405
| 30>    S      -10.73883        -0.88337         0.09282
| 31>    N       -9.92729        -1.84021        -0.90410
| 32>    C       -9.15227        -3.96309        -2.88414
| 33>    C       -7.98565        -3.32162        -2.48530
| 34>    C       -6.86520        -3.84640        -3.11224
| 35>    C       -7.18099        -4.89175        -4.00910
| 36>    S       -8.85592        -5.22906        -4.06717
| 37>    C       -5.97324        -5.37929        -4.55863
| 38>    C       -4.89544        -4.65816        -4.00795
| 39>    C       -5.42524        -3.65740        -3.09362
| 40>    C       -4.71676        -2.74166        -2.37291
| 41>    C       -3.30969        -2.66422        -2.44388
| 42>    N       -2.16620        -2.60527        -2.50392
| 43>    C       -5.34091        -1.81220        -1.51367
| 44>    N       -5.83811        -1.05398        -0.81216
| 45>    C       -3.65621        -5.10953        -4.45146
| 46>    C       -3.77928        -6.16331        -5.34287
| 47>    S       -5.45674        -6.59280        -5.64487
| 48>    C       -2.73452        -6.91447        -5.93411
| 49>    C       -2.84425        -7.91250        -6.88724
| 50>    C       -1.61282        -8.49929        -7.17023
| 51>    C       -0.55748        -7.94689        -6.42092
| 52>    S       -1.07600        -6.68556        -5.39398
| 53>    C        0.62813        -8.66351        -6.71283
| 54>    C        0.32698        -9.66519        -7.65389
| 55>    C       -1.08542        -9.57796        -7.99163
| 56>    C       -1.76899       -10.34659        -8.88633
| 57>    C       -1.13910       -11.36784        -9.62905
| 58>    N       -0.62628       -12.19875       -10.22956
| 59>    C       -3.14699       -10.16430        -9.13088
| 60>    N       -4.26584       -10.01345        -9.32860
| 61>    C        1.41833       -10.47927        -7.94773
| 62>    C        2.54494       -10.11257        -7.23117
| 63>    S        2.25625        -8.71686        -6.20066
| 64>    C        3.79773       -10.77132        -7.19903
| 65>    C        4.89868       -10.44875        -6.42243
| 66>    C        5.92700       -11.37534        -6.56851
| 67>    C        5.61136       -12.40964        -7.47028
| 68>    S        4.05132       -12.23111        -8.14481
| 69>    C        6.68507       -13.32878        -7.50680
| 70>    C        7.68646       -12.87458        -6.62074
| 71>    C        7.25521       -11.62115        -6.02562
| 72>    C        7.95053       -10.83269        -5.15764
| 73>    C        9.26051       -11.15236        -4.73805
| 74>    N       10.33158       -11.39663        -4.41196
| 75>    C        7.41117        -9.63331        -4.64620
| 76>    N        6.96403        -8.66117        -4.23445
| 77>    C        8.76402       -13.74539        -6.53403
| 78>    C        8.60364       -14.85735        -7.35022
| 79>    S        7.09749       -14.80166        -8.26113
| 80>    C        9.46903       -15.97517        -7.50738
| 81>    C       10.59095       -16.23480        -6.67813
| 82>    C       11.44323       -17.37965        -6.91529
| 83>    N       12.52071       -17.59151        -6.12659
| 84>    C       12.75080       -16.77717        -5.13526
| 85>    C       11.86794       -15.67476        -4.86086
| 86>    N       10.83918       -15.43127        -5.63342
| 87>    C       12.09661       -14.85624        -3.72677
| 88>    N       12.30937       -14.23353        -2.78942
| 89>    C       13.88236       -16.99152        -4.30492
| 90>    N       14.78304       -17.13534        -3.61302
| 91>    C       11.19664       -18.29031        -7.93641
| 92>    C       10.08143       -18.07109        -8.73350
| 93>    C        9.22472       -16.92709        -8.51858
| 94>    N        8.21072       -16.89897        -9.38583
| 95>    S        8.32264       -18.16996       -10.36150
| 96>    N        9.64603       -18.82373        -9.75369
| 97>    H      -14.20237        -3.10029        -1.13423
| 98>    H       -7.99336        -2.52353        -1.76560
| 99>    H       -2.70430        -4.71034        -4.14991
|100>    H       -3.78252        -8.19036        -7.33297
|101>    H        1.40773       -11.31109        -8.62901
|102>    H        4.92441        -9.58825        -5.77806
|103>    H        9.62810       -13.61052        -5.91062
|104>    H       11.85115       -19.13116        -8.08683
|105> *
|106>
|107>                          ****END OF INPUT****

CARTESIAN COORDINATES (ANGSTROEM)
---------------------------------
  C    -13.195220   -3.258890   -1.478400
  C    -12.909640   -4.255400   -2.401950
  C    -11.562420   -4.477540   -2.871360
  N    -11.312190   -5.446050   -3.757170
  C    -12.295420   -6.194100   -4.197390
  C    -13.637650   -5.970950   -3.730560
  N    -13.912500   -5.032980   -2.866820
  C    -14.685730   -6.795480   -4.219030
  N    -15.503060   -7.480250   -4.635180
  C    -12.020050   -7.222280   -5.129470
  N    -11.825250   -8.062590   -5.883520
  C    -10.466800   -3.703600   -2.418120
  C    -10.775070   -2.695810   -1.478800
  C    -12.134780   -2.484290   -1.020610
  N    -12.202690   -1.482530   -0.134050
  S    -10.738830   -0.883370    0.092820
  N     -9.927290   -1.840210   -0.904100
  C     -9.152270   -3.963090   -2.884140
  C     -7.985650   -3.321620   -2.485300
  C     -6.865200   -3.846400   -3.112240
  C     -7.180990   -4.891750   -4.009100
  S     -8.855920   -5.229060   -4.067170
  C     -5.973240   -5.379290   -4.558630
  C     -4.895440   -4.658160   -4.007950
  C     -5.425240   -3.657400   -3.093620
  C     -4.716760   -2.741660   -2.372910
  C     -3.309690   -2.664220   -2.443880
  N     -2.166200   -2.605270   -2.503920
  C     -5.340910   -1.812200   -1.513670
  N     -5.838110   -1.053980   -0.812160
  C     -3.656210   -5.109530   -4.451460
  C     -3.779280   -6.163310   -5.342870
  S     -5.456740   -6.592800   -5.644870
  C     -2.734520   -6.914470   -5.934110
  C     -2.844250   -7.912500   -6.887240
  C     -1.612820   -8.499290   -7.170230
  C     -0.557480   -7.946890   -6.420920
  S     -1.076000   -6.685560   -5.393980
  C      0.628130   -8.663510   -6.712830
  C      0.326980   -9.665190   -7.653890
  C     -1.085420   -9.577960   -7.991630
  C     -1.768990  -10.346590   -8.886330
  C     -1.139100  -11.367840   -9.629050
  N     -0.626280  -12.198750  -10.229560
  C     -3.146990  -10.164300   -9.130880
  N     -4.265840  -10.013450   -9.328600
  C      1.418330  -10.479270   -7.947730
  C      2.544940  -10.112570   -7.231170
  S      2.256250   -8.716860   -6.200660
  C      3.797730  -10.771320   -7.199030
  C      4.898680  -10.448750   -6.422430
  C      5.927000  -11.375340   -6.568510
  C      5.611360  -12.409640   -7.470280
  S      4.051320  -12.231110   -8.144810
  C      6.685070  -13.328780   -7.506800
  C      7.686460  -12.874580   -6.620740
  C      7.255210  -11.621150   -6.025620
  C      7.950530  -10.832690   -5.157640
  C      9.260510  -11.152360   -4.738050
  N     10.331580  -11.396630   -4.411960
  C      7.411170   -9.633310   -4.646200
  N      6.964030   -8.661170   -4.234450
  C      8.764020  -13.745390   -6.534030
  C      8.603640  -14.857350   -7.350220
  S      7.097490  -14.801660   -8.261130
  C      9.469030  -15.975170   -7.507380
  C     10.590950  -16.234800   -6.678130
  C     11.443230  -17.379650   -6.915290
  N     12.520710  -17.591510   -6.126590
  C     12.750800  -16.777170   -5.135260
  C     11.867940  -15.674760   -4.860860
  N     10.839180  -15.431270   -5.633420
  C     12.096610  -14.856240   -3.726770
  N     12.309370  -14.233530   -2.789420
  C     13.882360  -16.991520   -4.304920
  N     14.783040  -17.135340   -3.613020
  C     11.196640  -18.290310   -7.936410
  C     10.081430  -18.071090   -8.733500
  C      9.224720  -16.927090   -8.518580
  N      8.210720  -16.898970   -9.385830
  S      8.322640  -18.169960  -10.361500
  N      9.646030  -18.823730   -9.753690
  H    -14.202370   -3.100290   -1.134230
  H     -7.993360   -2.523530   -1.765600
  H     -2.704300   -4.710340   -4.149910
  H     -3.782520   -8.190360   -7.332970
  H      1.407730  -11.311090   -8.629010
  H      4.924410   -9.588250   -5.778060
  H      9.628100  -13.610520   -5.910620
  H     11.851150  -19.131160   -8.086830

 Total Charge           Charge          ....    0
 Multiplicity           Mult            ....    1
 Number of Electrons    NEL             ....  598
 Basis Dimension        Dim             .... 1220

ORBITAL ENERGIES
----------------

  NO   OCC          E(Eh)            E(eV)
   0   2.0000     -89.059255     -2423.4255
   1   2.0000     -89.055464     -2423.3224
   2   2.0000     -89.002258     -2421.8746
   3   2.0000     -89.002178     -2421.8724
   4   2.0000     -89.000455     -2421.8255
   5   2.0000     -89.000423     -2421.8246
   6   2.0000     -88.993052     -2421.6240
   7   2.0000     -88.992661     -2421.6134
   8   2.0000     -14.478315      -393.9750
   9   2.0000     -14.469307      -393.7299
  10   2.0000     -14.468129      -393.6978
  11   2.0000     -14.467646      -393.6847
  12   2.0000     -14.465090      -393.6151
  13   2.0000     -14.463685      -393.5769
  14   2.0000     -14.462979      -393.5577
  15   2.0000     -14.459419      -393.4608
  16   2.0000     -14.440867      -392.9560
  17   2.0000     -14.440005      -392.9325
  18   2.0000     -14.438852      -392.9011
  19   2.0000     -14.437084      -392.8530
  20   2.0000     -14.436045      -392.8248
  21   2.0000     -14.435798      -392.8180
  22   2.0000     -14.435695      -392.8152
  23   2.0000     -14.432124      -392.7181
  24   2.0000     -14.432012      -392.7150
  25   2.0000     -14.428841      -392.6287
  26   2.0000     -10.392638      -282.7981
  27   2.0000     -10.391741      -282.7737
  28   2.0000     -10.386775      -282.6385
  29   2.0000     -10.385578      -282.6060
  30   2.0000     -10.375969      -282.3445
  31   2.0000     -10.371234      -282.2156
  32   2.0000     -10.370157      -282.1863
  33   2.0000     -10.362710      -281.9837
  34   2.0000     -10.358547      -281.8704
  35   2.0000     -10.356942      -281.8267
  36   2.0000     -10.356864      -281.8246
  37   2.0000     -10.356296      -281.8091
  38   2.0000     -10.355755      -281.7944
  39   2.0000     -10.353851      -281.7426
  40   2.0000     -10.353774      -281.7405
  41   2.0000     -10.353626      -281.7365
  42   2.0000     -10.351318      -281.6737
  43   2.0000     -10.350714      -281.6572
  44   2.0000     -10.344065      -281.4763
  45   2.0000     -10.343701      -281.4664
  46   2.0000     -10.342477      -281.4331
  47   2.0000     -10.342216      -281.4260
  48   2.0000     -10.341100      -281.3956
  49   2.0000     -10.341010      -281.3932
  50   2.0000     -10.340713      -281.3851
  51   2.0000     -10.340026      -281.3664
  52   2.0000     -10.339970      -281.3649
  53   2.0000     -10.339657      -281.3564
  54   2.0000     -10.339463      -281.3511
  55   2.0000     -10.338318      -281.3199
  56   2.0000     -10.337653      -281.3018
  57   2.0000     -10.337450      -281.2963
  58   2.0000     -10.335926      -281.2549
  59   2.0000     -10.335892      -281.2539
  60   2.0000     -10.335373      -281.2398
  61   2.0000     -10.332369      -281.1580
  62   2.0000     -10.331517      -281.1349
  63   2.0000     -10.331323      -281.1296
  64   2.0000     -10.330360      -281.1034
  65   2.0000     -10.328868      -281.0628
  66   2.0000     -10.324770      -280.9513
  67   2.0000     -10.321315      -280.8572
  68   2.0000     -10.315708      -280.7047
  69   2.0000     -10.315288      -280.6933
  70   2.0000     -10.315172      -280.6901
  71   2.0000     -10.315150      -280.6895
  72   2.0000     -10.314242      -280.6648
  73   2.0000     -10.314134      -280.6619
  74   2.0000     -10.312455      -280.6162
  75   2.0000     -10.312247      -280.6105
  76   2.0000     -10.308623      -280.5119
  77   2.0000     -10.308540      -280.5096
  78   2.0000     -10.307407      -280.4788
  79   2.0000     -10.306335      -280.4496
  80   2.0000     -10.306303      -280.4488
  81   2.0000     -10.305486      -280.4265
  82   2.0000      -8.150256      -221.7797
  83   2.0000      -8.146622      -221.6808
  84   2.0000      -8.096693      -220.3222
  85   2.0000      -8.096628      -220.3204
  86   2.0000      -8.094892      -220.2732
  87   2.0000      -8.094850      -220.2721
  88   2.0000      -8.086342      -220.0406
  89   2.0000      -8.085088      -220.0064
  90   2.0000      -6.121173      -166.5656
  91   2.0000      -6.117554      -166.4671
  92   2.0000      -6.113458      -166.3556
  93   2.0000      -6.113354      -166.3528
  94   2.0000      -6.109813      -166.2565
  95   2.0000      -6.109663      -166.2524
  96   2.0000      -6.065959      -165.0631
  97   2.0000      -6.065937      -165.0625
  98   2.0000      -6.064207      -165.0155
  99   2.0000      -6.064107      -165.0127
 100   2.0000      -6.061795      -164.9498
 101   2.0000      -6.061775      -164.9493
 102   2.0000      -6.060030      -164.9018
 103   2.0000      -6.059961      -164.8999
 104   2.0000      -6.058937      -164.8721
 105   2.0000      -6.058903      -164.8711
 106   2.0000      -6.057148      -164.8234
 107   2.0000      -6.057124      -164.8227
 108   2.0000      -6.055771      -164.7859
 109   2.0000      -6.054665      -164.7558
 110   2.0000      -6.051148      -164.6601
 111   2.0000      -6.049788      -164.6231
 112   2.0000      -6.048783      -164.5958
 113   2.0000      -6.047559      -164.5625
 114   2.0000      -1.154388       -31.4125
 115   2.0000      -1.151231       -31.3266
 116   2.0000      -1.131931       -30.8014
 117   2.0000      -1.124799       -30.6073
 118   2.0000      -1.060062       -28.8457
 119   2.0000      -1.057232       -28.7688
 120   2.0000      -1.053162       -28.6580
 121   2.0000      -1.050978       -28.5986
 122   2.0000      -1.049870       -28.5684
 123   2.0000      -1.032608       -28.0987
 124   2.0000      -1.028530       -27.9877
 125   2.0000      -1.026580       -27.9347
 126   2.0000      -1.022967       -27.8363
 127   2.0000      -1.019526       -27.7427
 128   2.0000      -1.017831       -27.6966
 129   2.0000      -1.015344       -27.6289
 130   2.0000      -1.013945       -27.5908
 131   2.0000      -1.012666       -27.5560
 132   2.0000      -1.011148       -27.5147
 133   2.0000      -1.011118       -27.5139
 134   2.0000      -1.006804       -27.3965
 135   2.0000      -1.003649       -27.3107
 136   2.0000      -1.000821       -27.2337
 137   2.0000      -0.995974       -27.1018
 138   2.0000      -0.985043       -26.8044
 139   2.0000      -0.981830       -26.7169
 140   2.0000      -0.970029       -26.3958
 141   2.0000      -0.961760       -26.1708
 142   2.0000      -0.960316       -26.1315
 143   2.0000      -0.931078       -25.3359
 144   2.0000      -0.922356       -25.0986
 145   2.0000      -0.916526       -24.9399
 146   2.0000      -0.914339       -24.8804
 147   2.0000      -0.911617       -24.8064
 148   2.0000      -0.891876       -24.2692
 149   2.0000      -0.891066       -24.2471
 150   2.0000      -0.880824       -23.9684
 151   2.0000      -0.880119       -23.9492
 152   2.0000      -0.873758       -23.7762
 153   2.0000      -0.868455       -23.6319
 154   2.0000      -0.860918       -23.4268
 155   2.0000      -0.859051       -23.3760
 156   2.0000      -0.847440       -23.0600
 157   2.0000      -0.842986       -22.9388
 158   2.0000      -0.840083       -22.8598
 159   2.0000      -0.822856       -22.3910
 160   2.0000      -0.810561       -22.0565
 161   2.0000      -0.804010       -21.8782
 162   2.0000      -0.790831       -21.5196
 163   2.0000      -0.788162       -21.4470
 164   2.0000      -0.783123       -21.3099
 165   2.0000      -0.779149       -21.2017
 166   2.0000      -0.767030       -20.8719
 167   2.0000      -0.752206       -20.4686
 168   2.0000      -0.745076       -20.2745
 169   2.0000      -0.736408       -20.0387
 170   2.0000      -0.723939       -19.6994
 171   2.0000      -0.716774       -19.5044
 172   2.0000      -0.710819       -19.3424
 173   2.0000      -0.709735       -19.3129
 174   2.0000      -0.705619       -19.2009
 175   2.0000      -0.702500       -19.1160
 176   2.0000      -0.700305       -19.0563
 177   2.0000      -0.697002       -18.9664
 178   2.0000      -0.694382       -18.8951
 179   2.0000      -0.686786       -18.6884
 180   2.0000      -0.684034       -18.6135
 181   2.0000      -0.679716       -18.4960
 182   2.0000      -0.664216       -18.0742
 183   2.0000      -0.662028       -18.0147
 184   2.0000      -0.656563       -17.8660
 185   2.0000      -0.653281       -17.7767
 186   2.0000      -0.642063       -17.4714
 187   2.0000      -0.641039       -17.4436
 188   2.0000      -0.636780       -17.3277
 189   2.0000      -0.634249       -17.2588
 190   2.0000      -0.632983       -17.2243
 191   2.0000      -0.629806       -17.1379
 192   2.0000      -0.627383       -17.0720
 193   2.0000      -0.624775       -17.0010
 194   2.0000      -0.618568       -16.8321
 195   2.0000      -0.618276       -16.8241
 196   2.0000      -0.606869       -16.5137
 197   2.0000      -0.601085       -16.3563
 198   2.0000      -0.589419       -16.0389
 199   2.0000      -0.586582       -15.9617
 200   2.0000      -0.584851       -15.9146
 201   2.0000      -0.577978       -15.7276
 202   2.0000      -0.568426       -15.4677
 203   2.0000      -0.566022       -15.4023
 204   2.0000      -0.565667       -15.3926
 205   2.0000      -0.560404       -15.2494
 206   2.0000      -0.554512       -15.0890
 207   2.0000      -0.554110       -15.0781
 208   2.0000      -0.552432       -15.0324
 209   2.0000      -0.548641       -14.9293
 210   2.0000      -0.545201       -14.8357
 211   2.0000      -0.544271       -14.8104
 212   2.0000      -0.540298       -14.7022
 213   2.0000      -0.535006       -14.5582
 214   2.0000      -0.530166       -14.4265
 215   2.0000      -0.525550       -14.3009
 216   2.0000      -0.518611       -14.1121
 217   2.0000      -0.517047       -14.0696
 218   2.0000      -0.515762       -14.0346
 219   2.0000      -0.511770       -13.9260
 220   2.0000      -0.509696       -13.8695
 221   2.0000      -0.508982       -13.8501
 222   2.0000      -0.505887       -13.7659
 223   2.0000      -0.503581       -13.7031
 224   2.0000      -0.502631       -13.6773
 225   2.0000      -0.500382       -13.6161
 226   2.0000      -0.499164       -13.5829
 227   2.0000      -0.495802       -13.4915
 228   2.0000      -0.493557       -13.4304
 229   2.0000      -0.492743       -13.4082
 230   2.0000      -0.490858       -13.3569
 231   2.0000      -0.489278       -13.3139
 232   2.0000      -0.488864       -13.3027
 233   2.0000      -0.483697       -13.1621
 234   2.0000      -0.481547       -13.1036
 235   2.0000      -0.480581       -13.0773
 236   2.0000      -0.476218       -12.9586
 237   2.0000      -0.473025       -12.8717
 238   2.0000      -0.471164       -12.8210
 239   2.0000      -0.468132       -12.7385
 240   2.0000      -0.467708       -12.7270
 241   2.0000      -0.467401       -12.7186
 242   2.0000      -0.466041       -12.6816
 243   2.0000      -0.463346       -12.6083
 244   2.0000      -0.463105       -12.6017
 245   2.0000      -0.462374       -12.5818
 246   2.0000      -0.460171       -12.5219
 247   2.0000      -0.458830       -12.4854
 248   2.0000      -0.456463       -12.4210
 249   2.0000      -0.454826       -12.3764
 250   2.0000      -0.453726       -12.3465
 251   2.0000      -0.452123       -12.3029
 252   2.0000      -0.452085       -12.3018
 253   2.0000      -0.450954       -12.2711
 254   2.0000      -0.450683       -12.2637
 255   2.0000      -0.449239       -12.2244
 256   2.0000      -0.448262       -12.1978
 257   2.0000      -0.446613       -12.1530
 258   2.0000      -0.446367       -12.1463
 259   2.0000      -0.444913       -12.1067
 260   2.0000      -0.444601       -12.0982
 261   2.0000      -0.443688       -12.0734
 262   2.0000      -0.441870       -12.0239
 263   2.0000      -0.437453       -11.9037
 264   2.0000      -0.437076       -11.8935
 265   2.0000      -0.436003       -11.8642
 266   2.0000      -0.433527       -11.7969
 267   2.0000      -0.432958       -11.7814
 268   2.0000      -0.430871       -11.7246
 269   2.0000      -0.427462       -11.6318
 270   2.0000      -0.422776       -11.5043
 271   2.0000      -0.422192       -11.4884
 272   2.0000      -0.421649       -11.4736
 273   2.0000      -0.421276       -11.4635
 274   2.0000      -0.420254       -11.4357
 275   2.0000      -0.414156       -11.2698
 276   2.0000      -0.412574       -11.2267
 277   2.0000      -0.412399       -11.2220
 278   2.0000      -0.409123       -11.1328
 279   2.0000      -0.400418       -10.8959
 280   2.0000      -0.390145       -10.6164
 281   2.0000      -0.388324       -10.5668
 282   2.0000      -0.386517       -10.5177
 283   2.0000      -0.368448       -10.0260
 284   2.0000      -0.364409        -9.9161
 285   2.0000      -0.364248        -9.9117
 286   2.0000      -0.362634        -9.8678
 287   2.0000      -0.357171        -9.7191
 288   2.0000      -0.356212        -9.6930
 289   2.0000      -0.354931        -9.6582
 290   2.0000      -0.353686        -9.6243
 291   2.0000      -0.342138        -9.3100
 292   2.0000      -0.334553        -9.1036
 293   2.0000      -0.328814        -8.9475
 294   2.0000      -0.327248        -8.9049
 295   2.0000      -0.318530        -8.6677
 296   2.0000      -0.293028        -7.9737
 297   2.0000      -0.265816        -7.2332
 298   2.0000      -0.244231        -6.6459
 299   0.0000      -0.134522        -3.6605
 300   0.0000      -0.130001        -3.5375
 301   0.0000      -0.114918        -3.1271
 302   0.0000      -0.107166        -2.9161
 303   0.0000      -0.106222        -2.8905

MULLIKEN ATOMIC CHARGES
-----------------------
   0 C :   -0.081310
   1 C :    0.023433
   2 C :   -0.061643
   3 N :   -0.012534
   4 C :   -0.094793
   5 C :   -0.150660
   6 N :    0.061816
   7 C :   -0.207440
   8 N :    0.239334
   9 C :   -0.233264
  10 N :    0.247424
  11 C :    0.217850
  12 C :   -0.046081
  13 C :    0.100108
  14 N :   -0.267065
  15 S :    0.567428
  16 N :   -0.281843
  17 C :   -0.176923
  18 C :   -0.054404
  19 C :    0.031153
  20 C :   -0.053903
  21 S :    0.213427
  22 C :   -0.109351
  23 C :    0.023793
  24 C :    0.302869
  25 C :   -0.297998
  26 C :   -0.190689
  27 N :    0.171975
  28 C :   -0.184990
  29 N :    0.175995
  30 C :   -0.066368
  31 C :   -0.048755
  32 S :    0.207598
  33 C :   -0.056017
  34 C :   -0.058712
  35 C :    0.015743
  36 C :   -0.097954
  37 S :    0.202433
  38 C :   -0.096698
  39 C :    0.017871
  40 C :    0.297551
  41 C :   -0.287107
  42 C :   -0.187165
  43 N :    0.173966
  44 C :   -0.190189
  45 N :    0.178823
  46 C :   -0.067332
  47 C :   -0.052118
  48 S :    0.203487
  49 C :   -0.045573
  50 C :   -0.070175
  51 C :    0.026020
  52 C :   -0.105638
  53 S :    0.197503
  54 C :   -0.065151
  55 C :    0.033231
  56 C :    0.296944
  57 C :   -0.294065
  58 C :   -0.192020
  59 N :    0.192526
  60 C :   -0.188526
  61 N :    0.174185
  62 C :   -0.035938
  63 C :   -0.184112
  64 S :    0.212710
  65 C :    0.227372
  66 C :   -0.077976
  67 C :    0.012062
  68 N :    0.057627
  69 C :   -0.152450
  70 C :   -0.114171
  71 N :    0.042398
  72 C :   -0.208900
  73 N :    0.245565
  74 C :   -0.201435
  75 N :    0.238562
  76 C :   -0.084103
  77 C :    0.117755
  78 C :   -0.055716
  79 N :   -0.329030
  80 S :    0.561165
  81 N :   -0.262936
  82 H :   -0.016950
  83 H :    0.025132
  84 H :    0.013167
  85 H :    0.014262
  86 H :    0.013307
  87 H :    0.013805
  88 H :    0.023446
  89 H :   -0.014646
Sum of atomic charges:   -0.0000000

LOEWDIN ATOMIC CHARGES
----------------------
   0 C :   -0.017066
   1 C :   -0.007520
   2 C :   -0.024066
   3 N :   -0.019563
   4 C :   -0.027816
   5 C :   -0.023528
   6 N :    0.003764
   7 C :   -0.035467
   8 N :    0.000957
   9 C :   -0.041068
  10 N :   -0.001121
  11 C :   -0.016179
  12 C :   -0.044168
  13 C :   -0.043517
  14 N :   -0.283148
  15 S :    0.700927
  16 N :   -0.277533
  17 C :   -0.174557
  18 C :    0.001169
  19 C :   -0.079406
  20 C :   -0.168925
  21 S :    0.516363
  22 C :   -0.184308
  23 C :   -0.056327
  24 C :    0.080632
  25 C :   -0.100847
  26 C :   -0.016468
  27 N :   -0.033146
  28 C :   -0.016904
  29 N :   -0.029744
  30 C :   -0.040350
  31 C :   -0.172893
  32 S :    0.491693
  33 C :   -0.180739
  34 C :   -0.033909
  35 C :   -0.067170
  36 C :   -0.178008
  37 S :    0.489932
  38 C :   -0.179031
  39 C :   -0.066541
  40 C :    0.081387
  41 C :   -0.097589
  42 C :   -0.015932
  43 N :   -0.030298
  44 C :   -0.017543
  45 N :   -0.026770
  46 C :   -0.035736
  47 C :   -0.179815
  48 S :    0.490170
  49 C :   -0.173505
  50 C :   -0.039722
  51 C :   -0.056325
  52 C :   -0.184153
  53 S :    0.484856
  54 C :   -0.171851
  55 C :   -0.076313
  56 C :    0.077996
  57 C :   -0.096601
  58 C :   -0.020158
  59 N :   -0.018344
  60 C :   -0.015667
  61 N :   -0.032250
  62 C :    0.000684
  63 C :   -0.171054
  64 S :    0.515456
  65 C :   -0.020504
  66 C :   -0.014587
  67 C :   -0.006113
  68 N :    0.001606
  69 C :   -0.023514
  70 C :   -0.025787
  71 N :    0.006923
  72 C :   -0.040717
  73 N :    0.006632
  74 C :   -0.034831
  75 N :    0.000992
  76 C :   -0.014969
  77 C :   -0.045069
  78 C :   -0.053262
  79 N :   -0.308272
  80 S :    0.693295
  81 N :   -0.279946
  82 H :    0.048772
  83 H :    0.039693
  84 H :    0.036288
  85 H :    0.037354
  86 H :    0.036134
  87 H :    0.036305
  88 H :    0.039294
  89 H :    0.048955

  Mayer bond orders larger than 0.100000
B(  0-C ,  1-C ) :   1.3198 B(  0-C , 11-C ) :   0.1267 B(  0-C , 13-C ) :   1.1747
B(  0-C , 82-H ) :   1.0586 B(  1-C ,  2-C ) :   1.1266 B(  1-C ,  6-N ) :   1.3338
B(  2-C ,  3-N ) :   1.3980 B(  2-C , 11-C ) :   1.2431 B(  3-N ,  4-C ) :   1.6958
B(  4-C ,  5-C ) :   1.1921 B(  4-C ,  9-C ) :   1.1582 B(  5-C ,  6-N ) :   1.7860
B(  5-C ,  7-C ) :   1.1589 B(  7-C ,  8-N ) :   3.0516 B(  9-C , 10-N ) :   3.0384
B( 11-C , 12-C ) :   1.2166 B( 11-C , 17-C ) :   1.2057 B( 12-C , 13-C ) :   1.1180
B( 12-C , 16-N ) :   1.5066 B( 13-C , 14-N ) :   1.4612 B( 14-N , 15-S ) :   1.3113
B( 14-N , 16-N ) :   0.1549 B( 15-S , 16-N ) :   1.2860 B( 17-C , 18-C ) :   1.4091
B( 17-C , 21-S ) :   1.0781 B( 18-C , 19-C ) :   1.2858 B( 18-C , 83-H ) :   0.9831
B( 19-C , 20-C ) :   1.3885 B( 19-C , 24-C ) :   0.9952 B( 20-C , 21-S ) :   1.0987
B( 20-C , 22-C ) :   1.2087 B( 22-C , 23-C ) :   1.4278 B( 22-C , 32-S ) :   1.1129
B( 23-C , 24-C ) :   0.9901 B( 23-C , 30-C ) :   1.3113 B( 24-C , 25-C ) :   1.7135
B( 25-C , 26-C ) :   1.1324 B( 25-C , 28-C ) :   1.1378 B( 26-C , 27-N ) :   2.9903
B( 28-C , 29-N ) :   2.9876 B( 30-C , 31-C ) :   1.4403 B( 30-C , 84-H ) :   0.9874
B( 31-C , 32-S ) :   1.1177 B( 31-C , 33-C ) :   1.1719 B( 33-C , 34-C ) :   1.4504
B( 33-C , 37-S ) :   1.1077 B( 34-C , 35-C ) :   1.3065 B( 34-C , 85-H ) :   0.9884
B( 35-C , 36-C ) :   1.4366 B( 35-C , 40-C ) :   0.9944 B( 36-C , 37-S ) :   1.1247
B( 36-C , 38-C ) :   1.1932 B( 38-C , 39-C ) :   1.4375 B( 38-C , 48-S ) :   1.1232
B( 39-C , 40-C ) :   0.9940 B( 39-C , 46-C ) :   1.3066 B( 40-C , 41-C ) :   1.7192
B( 41-C , 42-C ) :   1.1315 B( 41-C , 44-C ) :   1.1308 B( 42-C , 43-N ) :   2.9919
B( 44-C , 45-N ) :   2.9939 B( 46-C , 47-C ) :   1.4492 B( 46-C , 86-H ) :   0.9877
B( 47-C , 48-S ) :   1.1092 B( 47-C , 49-C ) :   1.1758 B( 49-C , 50-C ) :   1.4431
B( 49-C , 53-S ) :   1.1150 B( 50-C , 51-C ) :   1.3105 B( 50-C , 87-H ) :   0.9868
B( 51-C , 52-C ) :   1.4331 B( 51-C , 56-C ) :   0.9902 B( 52-C , 53-S ) :   1.1103
B( 52-C , 54-C ) :   1.2018 B( 54-C , 55-C ) :   1.3886 B( 54-C , 64-S ) :   1.1172
B( 55-C , 56-C ) :   0.9957 B( 55-C , 62-C ) :   1.2870 B( 56-C , 57-C ) :   1.7181
B( 57-C , 58-C ) :   1.1356 B( 57-C , 60-C ) :   1.1332 B( 58-C , 59-N ) :   2.9942
B( 60-C , 61-N ) :   2.9905 B( 62-C , 63-C ) :   1.4110 B( 62-C , 88-H ) :   0.9841
B( 63-C , 64-S ) :   1.0889 B( 63-C , 65-C ) :   1.1823 B( 65-C , 66-C ) :   1.2589
B( 65-C , 76-C ) :   0.1294 B( 65-C , 78-C ) :   1.2110 B( 66-C , 67-C ) :   1.1219
B( 66-C , 71-N ) :   1.4395 B( 67-C , 68-N ) :   1.3332 B( 67-C , 76-C ) :   1.3159
B( 68-N , 69-C ) :   1.7906 B( 69-C , 70-C ) :   1.1844 B( 69-C , 74-C ) :   1.1536
B( 70-C , 71-N ) :   1.7373 B( 70-C , 72-C ) :   1.1453 B( 72-C , 73-N ) :   3.0354
B( 74-C , 75-N ) :   3.0540 B( 76-C , 77-C ) :   1.1771 B( 76-C , 89-H ) :   1.0585
B( 77-C , 78-C ) :   1.1298 B( 77-C , 81-N ) :   1.4539 B( 78-C , 79-N ) :   1.4676
B( 79-N , 80-S ) :   1.2754 B( 79-N , 81-N ) :   0.1583 B( 80-S , 81-N ) :   1.3180

-----------------------------------------------------------------------------
         ABSORPTION SPECTRUM VIA TRANSITION ELECTRIC DIPOLE MOMENTS
-----------------------------------------------------------------------------
State   Energy  Wavelength   fosc         T2         TX        TY        TZ
        (cm-1)    (nm)                  (au**2)     (au)      (au)      (au)
-----------------------------------------------------------------------------
   0    9933.8   1006.7   1.102690608  36.54392   5.23899  -2.75911  -1.21828
   1   11378.8    878.8   0.042593411   1.23232  -0.56798  -0.75951   0.57694
   2   11791.1    848.1   0.159926963   4.46522  -1.44188   1.54285  -0.07609
   3   14004.7    714.0   0.083064695   1.95262   1.36174  -0.01576  -0.31310
   4   14177.3    705.4   0.101563711   2.35842  -0.95353   1.20142   0.07613
   5   17978.8    556.2   0.017585179   0.32200  -0.14489   0.54852  -0.01185
   6   19103.1    523.5   0.053997874   0.93057   0.79615  -0.43145  -0.33250
   7   20621.1    484.9   0.006094831   0.09730  -0.20530  -0.08842  -0.21757
   8   22718.0    440.2   0.008645427   0.12528  -0.31585   0.15626   0.03326
   9   22953.8    435.7   0.004981674   0.07145   0.18430  -0.15821  -0.11159
  10   23456.9    426.3   0.169779964   2.38282  -1.32959   0.75531   0.21098
  11   24392.5    410.0   0.180963260   2.44236  -1.19457   0.89013   0.47227
  12   25086.6    398.6   0.735078408   9.64643  -2.72255   1.42164   0.46159
  13   25697.9    389.1   0.024401547   0.31260  -0.45023  -0.24618  -0.22201
  14   25959.3    385.2   0.029566948   0.37496   0.17638  -0.53486  -0.24038
  15   26263.9    380.8   0.019186825   0.24050  -0.47553  -0.10884   0.05031
  16   26343.1    379.6   0.316236628   3.95203  -1.66532   0.99476   0.43497
  17   26735.4    374.0   0.004842875   0.05963  -0.01601   0.08801   0.22723
  18   26860.9    372.3   0.214038283   2.62330  -1.27822   0.98859   0.11021
  19   27553.6    362.9   0.119192221   1.42412   1.03479  -0.40829  -0.43199
  20   28318.0    353.1   0.031835473   0.37010  -0.21118   0.38998  -0.41644
  21   28545.4    350.3   0.007377611   0.08509   0.24235  -0.13722  -0.08673
  22   28883.7    346.2   0.038082650   0.43406  -0.62581   0.10825  -0.17522
  23   29034.9    344.4   0.042379835   0.48052  -0.11036  -0.35254  -0.58657
  24   29288.5    341.4   0.013062792   0.14683  -0.25202   0.28834   0.01307
  25   29751.3    336.1   0.007862114   0.08700  -0.11166  -0.21413  -0.16935
  26   30531.4    327.5   0.237228266   2.55797  -0.81106  -0.26267  -1.35320
  27   31050.8    322.1   0.018691647   0.19818  -0.31769  -0.26673  -0.16157
  28   31387.5    318.6   0.007482265   0.07848  -0.01718  -0.01593  -0.27916
  29   31549.9    317.0   0.384319601   4.01024  -0.75198  -1.16934  -1.44133
  30   31678.2    315.7   0.000351716   0.00366   0.03748   0.02222   0.04192
  31   31771.3    314.7   0.091132037   0.94430  -0.46170   0.85502   0.00827
  32   31899.9    313.5   0.386162390   3.98525  -0.07157  -1.67903  -1.07749
  33   32143.3    311.1   0.511890485   5.24279  -1.00250  -1.14054  -1.71375
  34   32183.8    310.7   0.523987094   5.35993   1.72069   1.37004   0.72260
  35   32418.5    308.5   0.546545199   5.55020   1.38077   1.22911   1.46046
  36   32754.7    305.3   0.271207109   2.72586   1.57676  -0.34058   0.35171
  37   32831.9    304.6   0.207874885   2.08440  -0.11777   0.95803   1.07364
  38   33305.8    300.2   0.103223355   1.02031   0.18203   0.71274   0.69223
  39   33647.5    297.2   0.001586335   0.01552   0.05744  -0.09014   0.06400
  40   33801.3    295.8   0.072321083   0.70438   0.18481  -0.69259  -0.43652
  41   33898.5    295.0   0.029735071   0.28878   0.42368  -0.11266   0.31077
  42   34116.6    293.1   0.098494630   0.95043   0.72741   0.38401   0.52330
  43   34168.2    292.7   0.171658325   1.65393   1.25528  -0.26079  -0.10092
  44   34325.5    291.3   0.267911220   2.56951  -0.64533  -1.01829  -1.05647
  45   35028.9    285.5   0.014619410   0.13740   0.35077   0.02453  -0.11729
  46   35456.7    282.0   0.039594290   0.36763  -0.13512  -0.35899  -0.46957
  47   35566.8    281.2   0.046849096   0.43364  -0.24069   0.59543   0.14553
  48   35946.0    278.2   0.196410436   1.79883  -0.90420  -0.82111  -0.55410
  49   36362.3    275.0   0.397905644   3.60250   1.01315   0.92444   1.31203
  50   36643.1    272.9   0.004992290   0.04485   0.04704  -0.07731  -0.19148
  51   36739.2    272.2   0.217760979   1.95131  -1.02461   0.94670   0.07246
  52   37376.7    267.5   0.144087889   1.26912  -0.10660  -0.40070  -1.04747
  53   37462.9    266.9   0.037411817   0.32876  -0.55731  -0.10671  -0.08232
  54   37608.6    265.9   0.044396920   0.38863   0.38856  -0.48099  -0.07939
  55   37736.1    265.0   0.194085714   1.69321   0.46511   0.88845   0.82918
  56   37882.5    264.0   0.060908463   0.52932   0.09744   0.44432   0.56780
  57   38119.5    262.3   0.032064511   0.27692   0.04623  -0.28422  -0.44046
  58   38172.5    262.0   0.060941753   0.52558   0.41373  -0.41527  -0.42657
  59   38394.2    260.5   0.003005663   0.02577   0.04851  -0.12823   0.08352
  60   38543.9    259.4   0.068080530   0.58149   0.68952  -0.31882  -0.06643
  61   38702.3    258.4   0.010692473   0.09095   0.02126  -0.29345  -0.06623
  62   38859.0    257.3   0.038544820   0.32655  -0.07481   0.52887   0.20311
  63   38906.0    257.0   0.024309726   0.20570   0.43467   0.01166  -0.12894
  64   39090.5    255.8   0.118159985   0.99512   0.35639   0.53436   0.76326
  65   39213.5    255.0   0.063737822   0.53510   0.66735   0.08273   0.28792
  66   39470.5    253.4   0.027171174   0.22663   0.05846  -0.38092  -0.27948
  67   39505.1    253.1   0.013724016   0.11437   0.15421   0.27273   0.12730
  68   39658.7    252.2   0.023741489   0.19708   0.05902   0.41144   0.15593
  69   39752.1    251.6   0.019406825   0.16072   0.25736  -0.29314  -0.09250
  70   40147.5    249.1   0.096711404   0.79304   0.14800   0.54182   0.69106
  71   40200.0    248.8   0.020468333   0.16762  -0.30153   0.27609   0.02191

FINAL SINGLE POINT ENERGY     -6304.630783248836

DIPOLE MOMENT
-------------
                                X             Y             Z
Electronic contribution:     -2.22553      -2.00211      -2.04500
Nuclear contribution   :      0.75863       2.21182       0.56773
                        -----------------------------------------
Total Dipole Moment    :     -1.46690       0.20971      -1.47727
                        -----------------------------------------
Magnitude (a.u.)       :      2.09239
Magnitude (Debye)      :      5.31844

Rotational constants in cm-1:     0.001548     0.000143     0.000136
Rotational constants in MHz :    46.405060     4.300544     4.067204

                             ****ORCA TERMINATED NORMALLY****
TOTAL RUN TIME: 0 days 0 hours 9 minutes 46 seconds 380 msec
