                         Program Version 4.2.0 -  RELEASE  -
|  1> # ORCA input file
|  2> # SCF done       -222.592663451936          0.000835884327
|  3> ! CAM-B3LYP def2-SVP def2/J RIJCOSX Grid4 TightSCF
|  4> %maxcore 5000
|  5> %tddft
|  6>     Mode sTDDFT
|  7>     Ethresh 5.0
|  8>     maxcore 5000
|  9> end
| 10>
| 11> %pal
| 12>   nprocs 6
| 13>   end
| 14> * xyz 0 1
| 15>    C       -6.61187        -0.69612         1.93722
| 16>    O       -7.33012         0.28322         1.88189
| 17>    C       -6.75175        -1.84311         2.86022
| 18>    C       -5.71371        -2.76281         2.62514
| 19>    C       -5.63156        -3.93052         3.36418
| 20>    C       -6.59754        -4.15966         4.33441
| 21>    C       -7.63067        -3.25708         4.58010
| 22>    C       -7.70859        -2.08072         3.83133
| 23>    F       -8.69392        -1.22034         4.06363
| 24>    F       -8.53959        -3.51494         5.52223
| 25>    F       -6.53814        -5.28003         5.05525
| 26>    C       -4.86370        -2.24420         1.55009
| 27>    C       -3.72006        -2.84492         1.09474
| 28>    C       -3.21564        -4.06842         1.58748
| 29>    N       -2.75220        -5.05564         1.94381
| 30>    C       -2.86632        -2.33499         0.09202
| 31>    N       -2.11816        -1.98845        -0.70670
| 32>    C       -5.44217        -0.99201         1.10700
| 33>    C       -5.00527        -0.22684         0.05159
| 34>    C       -5.48815         0.98606        -0.45405
| 35>    C       -4.92087         1.58818        -1.58770
| 36>    C       -5.53544         2.77729        -1.91911
| 37>    C       -6.58322         3.10702        -1.02149
| 38>    S       -6.81653         1.94766         0.20144
| 39>    C       -7.14344         4.33471        -1.44199
| 40>    C       -6.46897         4.78206        -2.59430
| 41>    C       -5.43211         3.81855        -2.93024
| 42>    C       -4.55226         3.88178        -3.96918
| 43>    C       -4.54742         4.95863        -4.88190
| 44>    N       -4.54768         5.83524        -5.62036
| 45>    C       -3.58712         2.87757        -4.19971
| 46>    N       -2.80423         2.06311        -4.39262
| 47>    C       -6.96303         5.98927        -3.08240
| 48>    C       -8.00592         6.47043        -2.30531
| 49>    S       -8.37854         5.41044        -0.95720
| 50>    C       -8.73918         7.66930        -2.50242
| 51>    C       -8.65023         8.54287        -3.57424
| 52>    C       -9.51617         9.62557        -3.43485
| 53>    C      -10.26603         9.58071        -2.24523
| 54>    S       -9.91311         8.20007        -1.30747
| 55>    C      -11.09678        10.72692        -2.18934
| 56>    C      -10.87749        11.49555        -3.34680
| 57>    C       -9.88304        10.82592        -4.17114
| 58>    C       -9.40497        11.23593        -5.37979
| 59>    C       -9.84860        12.42810        -5.99160
| 60>    N      -10.21250        13.39708        -6.48399
| 61>    C       -8.44181        10.49441        -6.09772
| 62>    N       -7.66223         9.89070        -6.68177
| 63>    C      -11.64444        12.65802        -3.37905
| 64>    C      -12.44182        12.78280        -2.25468
| 65>    S      -12.24488        11.43520        -1.14284
| 66>    C      -13.32941        13.84238        -1.94263
| 67>    C      -14.10279        13.98665        -0.80244
| 68>    C      -14.84094        15.16729        -0.82250
| 69>    C      -14.63147        15.92606        -1.98939
| 70>    S      -13.52522        15.18325        -3.05903
| 71>    C      -15.41519        17.10178        -1.91489
| 72>    C      -16.11968        17.08817        -0.69041
| 73>    C      -15.79116        15.86901         0.02694
| 74>    C      -16.29673        15.46409         1.22692
| 75>    C      -17.23912        16.24906         1.92521
| 76>    N      -18.00074        16.90507         2.47655
| 77>    C      -15.91027        14.24937         1.83150
| 78>    N      -15.58346        13.26461         2.31871
| 79>    C      -16.93536        18.19614        -0.52350
| 80>    C      -16.87397        19.06391        -1.60823
| 81>    S      -15.74981        18.48829        -2.83854
| 82>    C      -17.51638        20.30139        -1.79753
| 83>    C      -18.58214        20.83777        -1.13257
| 84>    C      -18.78366        22.31160        -1.21231
| 85>    O      -18.23660        23.07225        -1.96974
| 86>    C      -19.75332        22.61990        -0.13300
| 87>    C      -20.20157        21.42220         0.45403
| 88>    C      -19.59298        20.29394        -0.25644
| 89>    C      -20.09418        19.01828        -0.25980
| 90>    C      -21.18091        18.59222         0.53429
| 91>    N      -22.05998        18.19400         1.15388
| 92>    C      -19.64795        18.00316        -1.12894
| 93>    N      -19.32917        17.15529        -1.83412
| 94>    C      -21.08458        21.44127         1.51903
| 95>    C      -21.51824        22.67580         1.98205
| 96>    C      -21.09701        23.87225         1.40380
| 97>    C      -20.20100        23.84426         0.33224
| 98>    F      -19.79609        24.98640        -0.21068
| 99>    F      -21.54249        25.03842         1.87489
|100>    F      -22.36111        22.72290         3.01400
|101>    H       -4.85862        -4.66696         3.22014
|102>    H       -4.15693        -0.60638        -0.50503
|103>    H       -4.09780         1.14366        -2.11903
|104>    H       -6.58779         6.50210        -3.94833
|105>    H       -7.99175         8.38702        -4.40843
|106>    H      -11.63284        13.38813        -4.16836
|107>    H      -14.11226        13.26187        -0.00808
|108>    H      -17.51126        18.40319         0.35970
|109>    H      -17.06314        20.96751        -2.52607
|110>    H      -21.43619        20.54712         2.00703
|111> *
|112>
|113>                          ****END OF INPUT****

CARTESIAN COORDINATES (ANGSTROEM)
---------------------------------
  C     -6.611870   -0.696120    1.937220
  O     -7.330120    0.283220    1.881890
  C     -6.751750   -1.843110    2.860220
  C     -5.713710   -2.762810    2.625140
  C     -5.631560   -3.930520    3.364180
  C     -6.597540   -4.159660    4.334410
  C     -7.630670   -3.257080    4.580100
  C     -7.708590   -2.080720    3.831330
  F     -8.693920   -1.220340    4.063630
  F     -8.539590   -3.514940    5.522230
  F     -6.538140   -5.280030    5.055250
  C     -4.863700   -2.244200    1.550090
  C     -3.720060   -2.844920    1.094740
  C     -3.215640   -4.068420    1.587480
  N     -2.752200   -5.055640    1.943810
  C     -2.866320   -2.334990    0.092020
  N     -2.118160   -1.988450   -0.706700
  C     -5.442170   -0.992010    1.107000
  C     -5.005270   -0.226840    0.051590
  C     -5.488150    0.986060   -0.454050
  C     -4.920870    1.588180   -1.587700
  C     -5.535440    2.777290   -1.919110
  C     -6.583220    3.107020   -1.021490
  S     -6.816530    1.947660    0.201440
  C     -7.143440    4.334710   -1.441990
  C     -6.468970    4.782060   -2.594300
  C     -5.432110    3.818550   -2.930240
  C     -4.552260    3.881780   -3.969180
  C     -4.547420    4.958630   -4.881900
  N     -4.547680    5.835240   -5.620360
  C     -3.587120    2.877570   -4.199710
  N     -2.804230    2.063110   -4.392620
  C     -6.963030    5.989270   -3.082400
  C     -8.005920    6.470430   -2.305310
  S     -8.378540    5.410440   -0.957200
  C     -8.739180    7.669300   -2.502420
  C     -8.650230    8.542870   -3.574240
  C     -9.516170    9.625570   -3.434850
  C    -10.266030    9.580710   -2.245230
  S     -9.913110    8.200070   -1.307470
  C    -11.096780   10.726920   -2.189340
  C    -10.877490   11.495550   -3.346800
  C     -9.883040   10.825920   -4.171140
  C     -9.404970   11.235930   -5.379790
  C     -9.848600   12.428100   -5.991600
  N    -10.212500   13.397080   -6.483990
  C     -8.441810   10.494410   -6.097720
  N     -7.662230    9.890700   -6.681770
  C    -11.644440   12.658020   -3.379050
  C    -12.441820   12.782800   -2.254680
  S    -12.244880   11.435200   -1.142840
  C    -13.329410   13.842380   -1.942630
  C    -14.102790   13.986650   -0.802440
  C    -14.840940   15.167290   -0.822500
  C    -14.631470   15.926060   -1.989390
  S    -13.525220   15.183250   -3.059030
  C    -15.415190   17.101780   -1.914890
  C    -16.119680   17.088170   -0.690410
  C    -15.791160   15.869010    0.026940
  C    -16.296730   15.464090    1.226920
  C    -17.239120   16.249060    1.925210
  N    -18.000740   16.905070    2.476550
  C    -15.910270   14.249370    1.831500
  N    -15.583460   13.264610    2.318710
  C    -16.935360   18.196140   -0.523500
  C    -16.873970   19.063910   -1.608230
  S    -15.749810   18.488290   -2.838540
  C    -17.516380   20.301390   -1.797530
  C    -18.582140   20.837770   -1.132570
  C    -18.783660   22.311600   -1.212310
  O    -18.236600   23.072250   -1.969740
  C    -19.753320   22.619900   -0.133000
  C    -20.201570   21.422200    0.454030
  C    -19.592980   20.293940   -0.256440
  C    -20.094180   19.018280   -0.259800
  C    -21.180910   18.592220    0.534290
  N    -22.059980   18.194000    1.153880
  C    -19.647950   18.003160   -1.128940
  N    -19.329170   17.155290   -1.834120
  C    -21.084580   21.441270    1.519030
  C    -21.518240   22.675800    1.982050
  C    -21.097010   23.872250    1.403800
  C    -20.201000   23.844260    0.332240
  F    -19.796090   24.986400   -0.210680
  F    -21.542490   25.038420    1.874890
  F    -22.361110   22.722900    3.014000
  H     -4.858620   -4.666960    3.220140
  H     -4.156930   -0.606380   -0.505030
  H     -4.097800    1.143660   -2.119030
  H     -6.587790    6.502100   -3.948330
  H     -7.991750    8.387020   -4.408430
  H    -11.632840   13.388130   -4.168360
  H    -14.112260   13.261870   -0.008080
  H    -17.511260   18.403190    0.359700
  H    -17.063140   20.967510   -2.526070
  H    -21.436190   20.547120    2.007030

 Total Charge           Charge          ....    0
 Multiplicity           Mult            ....    1
 Number of Electrons    NEL             ....  618
 Basis Dimension        Dim             .... 1278

ORBITAL ENERGIES
----------------

  NO   OCC          E(Eh)            E(eV)
   0   2.0000     -89.010249     -2422.0920
   1   2.0000     -89.009712     -2422.0774
   2   2.0000     -89.009637     -2422.0754
   3   2.0000     -89.009036     -2422.0590
   4   2.0000     -89.008364     -2422.0407
   5   2.0000     -89.001723     -2421.8600
   6   2.0000     -24.818979      -675.3588
   7   2.0000     -24.818708      -675.3514
   8   2.0000     -24.815423      -675.2620
   9   2.0000     -24.815393      -675.2612
  10   2.0000     -24.815167      -675.2550
  11   2.0000     -24.812991      -675.1958
  12   2.0000     -19.239456      -523.5322
  13   2.0000     -19.228902      -523.2450
  14   2.0000     -14.445730      -393.0883
  15   2.0000     -14.445119      -393.0717
  16   2.0000     -14.445039      -393.0695
  17   2.0000     -14.443838      -393.0368
  18   2.0000     -14.440894      -392.9567
  19   2.0000     -14.440350      -392.9419
  20   2.0000     -14.431105      -392.6903
  21   2.0000     -14.430209      -392.6659
  22   2.0000     -14.427238      -392.5851
  23   2.0000     -14.425917      -392.5492
  24   2.0000     -10.407771      -283.2098
  25   2.0000     -10.404530      -283.1217
  26   2.0000     -10.403887      -283.1042
  27   2.0000     -10.401985      -283.0524
  28   2.0000     -10.401437      -283.0375
  29   2.0000     -10.398829      -282.9665
  30   2.0000     -10.392147      -282.7847
  31   2.0000     -10.384805      -282.5849
  32   2.0000     -10.381866      -282.5049
  33   2.0000     -10.380976      -282.4807
  34   2.0000     -10.378084      -282.4020
  35   2.0000     -10.367918      -282.1254
  36   2.0000     -10.367810      -282.1225
  37   2.0000     -10.365323      -282.0548
  38   2.0000     -10.359465      -281.8954
  39   2.0000     -10.358797      -281.8772
  40   2.0000     -10.358383      -281.8659
  41   2.0000     -10.357975      -281.8548
  42   2.0000     -10.357287      -281.8361
  43   2.0000     -10.352576      -281.7079
  44   2.0000     -10.351691      -281.6838
  45   2.0000     -10.351594      -281.6812
  46   2.0000     -10.351085      -281.6674
  47   2.0000     -10.349444      -281.6227
  48   2.0000     -10.348403      -281.5944
  49   2.0000     -10.348320      -281.5921
  50   2.0000     -10.347930      -281.5815
  51   2.0000     -10.346936      -281.5544
  52   2.0000     -10.345572      -281.5173
  53   2.0000     -10.345087      -281.5041
  54   2.0000     -10.345030      -281.5026
  55   2.0000     -10.343258      -281.4544
  56   2.0000     -10.340509      -281.3796
  57   2.0000     -10.340467      -281.3784
  58   2.0000     -10.339688      -281.3572
  59   2.0000     -10.339505      -281.3522
  60   2.0000     -10.338275      -281.3188
  61   2.0000     -10.337794      -281.3057
  62   2.0000     -10.335481      -281.2427
  63   2.0000     -10.333524      -281.1895
  64   2.0000     -10.332003      -281.1481
  65   2.0000     -10.331744      -281.1410
  66   2.0000     -10.329601      -281.0827
  67   2.0000     -10.327801      -281.0337
  68   2.0000     -10.326101      -280.9875
  69   2.0000     -10.325698      -280.9765
  70   2.0000     -10.325627      -280.9746
  71   2.0000     -10.325617      -280.9743
  72   2.0000     -10.322147      -280.8799
  73   2.0000     -10.322117      -280.8791
  74   2.0000     -10.321318      -280.8573
  75   2.0000     -10.321137      -280.8524
  76   2.0000     -10.320994      -280.8485
  77   2.0000     -10.320053      -280.8229
  78   2.0000     -10.319378      -280.8046
  79   2.0000     -10.319219      -280.8002
  80   2.0000     -10.318855      -280.7903
  81   2.0000     -10.317417      -280.7512
  82   2.0000     -10.317097      -280.7425
  83   2.0000     -10.316180      -280.7175
  84   2.0000     -10.312869      -280.6274
  85   2.0000     -10.312612      -280.6205
  86   2.0000      -8.105026      -220.5490
  87   2.0000      -8.104076      -220.5231
  88   2.0000      -8.103997      -220.5210
  89   2.0000      -8.103827      -220.5164
  90   2.0000      -8.103068      -220.4957
  91   2.0000      -8.094026      -220.2496
  92   2.0000      -6.074320      -165.2907
  93   2.0000      -6.073381      -165.2651
  94   2.0000      -6.073302      -165.2629
  95   2.0000      -6.073134      -165.2584
  96   2.0000      -6.072211      -165.2333
  97   2.0000      -6.070104      -165.1759
  98   2.0000      -6.069199      -165.1513
  99   2.0000      -6.069127      -165.1494
 100   2.0000      -6.068899      -165.1431
 101   2.0000      -6.068058      -165.1203
 102   2.0000      -6.067297      -165.0995
 103   2.0000      -6.066337      -165.0734
 104   2.0000      -6.066267      -165.0715
 105   2.0000      -6.066086      -165.0666
 106   2.0000      -6.065568      -165.0525
 107   2.0000      -6.063487      -164.9959
 108   2.0000      -6.058680      -164.8651
 109   2.0000      -6.056556      -164.8073
 110   2.0000      -1.345838       -36.6221
 111   2.0000      -1.342713       -36.5371
 112   2.0000      -1.335032       -36.3281
 113   2.0000      -1.332083       -36.2478
 114   2.0000      -1.323951       -36.0265
 115   2.0000      -1.320926       -35.9442
 116   2.0000      -1.157367       -31.4936
 117   2.0000      -1.147153       -31.2156
 118   2.0000      -1.065270       -28.9875
 119   2.0000      -1.062697       -28.9174
 120   2.0000      -1.059502       -28.8305
 121   2.0000      -1.037763       -28.2390
 122   2.0000      -1.037150       -28.2223
 123   2.0000      -1.036384       -28.2014
 124   2.0000      -1.035484       -28.1770
 125   2.0000      -1.033315       -28.1179
 126   2.0000      -1.026452       -27.9312
 127   2.0000      -1.022693       -27.8289
 128   2.0000      -1.021983       -27.8096
 129   2.0000      -1.018445       -27.7133
 130   2.0000      -1.018161       -27.7056
 131   2.0000      -1.016904       -27.6714
 132   2.0000      -1.015795       -27.6412
 133   2.0000      -1.007537       -27.4165
 134   2.0000      -1.006834       -27.3973
 135   2.0000      -1.005113       -27.3505
 136   2.0000      -0.982908       -26.7463
 137   2.0000      -0.976581       -26.5741
 138   2.0000      -0.972507       -26.4633
 139   2.0000      -0.969479       -26.3809
 140   2.0000      -0.968094       -26.3432
 141   2.0000      -0.939898       -25.5759
 142   2.0000      -0.934348       -25.4249
 143   2.0000      -0.924728       -25.1631
 144   2.0000      -0.918377       -24.9903
 145   2.0000      -0.916363       -24.9355
 146   2.0000      -0.900147       -24.4943
 147   2.0000      -0.898635       -24.4531
 148   2.0000      -0.892289       -24.2804
 149   2.0000      -0.887059       -24.1381
 150   2.0000      -0.885506       -24.0958
 151   2.0000      -0.883309       -24.0361
 152   2.0000      -0.882191       -24.0056
 153   2.0000      -0.877514       -23.8784
 154   2.0000      -0.872895       -23.7527
 155   2.0000      -0.868078       -23.6216
 156   2.0000      -0.855706       -23.2849
 157   2.0000      -0.838286       -22.8109
 158   2.0000      -0.825248       -22.4561
 159   2.0000      -0.810944       -22.0669
 160   2.0000      -0.797308       -21.6958
 161   2.0000      -0.794083       -21.6081
 162   2.0000      -0.792248       -21.5582
 163   2.0000      -0.789427       -21.4814
 164   2.0000      -0.787919       -21.4404
 165   2.0000      -0.777970       -21.1696
 166   2.0000      -0.764116       -20.7927
 167   2.0000      -0.747851       -20.3501
 168   2.0000      -0.736556       -20.0427
 169   2.0000      -0.734508       -19.9870
 170   2.0000      -0.730604       -19.8808
 171   2.0000      -0.724464       -19.7137
 172   2.0000      -0.715832       -19.4788
 173   2.0000      -0.714137       -19.4327
 174   2.0000      -0.710614       -19.3368
 175   2.0000      -0.707297       -19.2465
 176   2.0000      -0.703238       -19.1361
 177   2.0000      -0.699580       -19.0365
 178   2.0000      -0.696482       -18.9522
 179   2.0000      -0.693260       -18.8646
 180   2.0000      -0.685541       -18.6545
 181   2.0000      -0.677913       -18.4470
 182   2.0000      -0.670843       -18.2546
 183   2.0000      -0.666653       -18.1405
 184   2.0000      -0.664973       -18.0948
 185   2.0000      -0.659851       -17.9555
 186   2.0000      -0.656574       -17.8663
 187   2.0000      -0.652168       -17.7464
 188   2.0000      -0.650788       -17.7088
 189   2.0000      -0.649518       -17.6743
 190   2.0000      -0.645511       -17.5652
 191   2.0000      -0.643781       -17.5182
 192   2.0000      -0.638496       -17.3744
 193   2.0000      -0.635026       -17.2799
 194   2.0000      -0.633093       -17.2273
 195   2.0000      -0.630015       -17.1436
 196   2.0000      -0.624939       -17.0055
 197   2.0000      -0.620394       -16.8818
 198   2.0000      -0.618850       -16.8398
 199   2.0000      -0.615892       -16.7593
 200   2.0000      -0.612733       -16.6733
 201   2.0000      -0.610709       -16.6182
 202   2.0000      -0.601253       -16.3609
 203   2.0000      -0.597412       -16.2564
 204   2.0000      -0.594496       -16.1771
 205   2.0000      -0.587453       -15.9854
 206   2.0000      -0.580353       -15.7922
 207   2.0000      -0.579458       -15.7679
 208   2.0000      -0.577152       -15.7051
 209   2.0000      -0.573678       -15.6106
 210   2.0000      -0.567954       -15.4548
 211   2.0000      -0.564839       -15.3700
 212   2.0000      -0.563108       -15.3229
 213   2.0000      -0.562703       -15.3119
 214   2.0000      -0.560931       -15.2637
 215   2.0000      -0.560390       -15.2490
 216   2.0000      -0.558464       -15.1966
 217   2.0000      -0.552853       -15.0439
 218   2.0000      -0.549579       -14.9548
 219   2.0000      -0.549231       -14.9453
 220   2.0000      -0.547699       -14.9037
 221   2.0000      -0.543255       -14.7827
 222   2.0000      -0.541955       -14.7473
 223   2.0000      -0.538140       -14.6435
 224   2.0000      -0.533853       -14.5269
 225   2.0000      -0.533361       -14.5135
 226   2.0000      -0.530319       -14.4307
 227   2.0000      -0.526078       -14.3153
 228   2.0000      -0.525060       -14.2876
 229   2.0000      -0.523775       -14.2527
 230   2.0000      -0.520474       -14.1628
 231   2.0000      -0.519269       -14.1300
 232   2.0000      -0.516132       -14.0447
 233   2.0000      -0.515390       -14.0245
 234   2.0000      -0.513544       -13.9742
 235   2.0000      -0.512898       -13.9567
 236   2.0000      -0.511493       -13.9184
 237   2.0000      -0.509427       -13.8622
 238   2.0000      -0.507898       -13.8206
 239   2.0000      -0.507402       -13.8071
 240   2.0000      -0.506138       -13.7727
 241   2.0000      -0.502597       -13.6764
 242   2.0000      -0.499685       -13.5971
 243   2.0000      -0.497280       -13.5317
 244   2.0000      -0.492711       -13.4073
 245   2.0000      -0.491112       -13.3638
 246   2.0000      -0.487547       -13.2668
 247   2.0000      -0.486596       -13.2410
 248   2.0000      -0.482973       -13.1424
 249   2.0000      -0.480296       -13.0695
 250   2.0000      -0.479363       -13.0441
 251   2.0000      -0.477282       -12.9875
 252   2.0000      -0.475414       -12.9367
 253   2.0000      -0.474885       -12.9223
 254   2.0000      -0.472744       -12.8640
 255   2.0000      -0.471872       -12.8403
 256   2.0000      -0.470164       -12.7938
 257   2.0000      -0.468717       -12.7544
 258   2.0000      -0.468241       -12.7415
 259   2.0000      -0.465157       -12.6576
 260   2.0000      -0.463279       -12.6065
 261   2.0000      -0.462918       -12.5966
 262   2.0000      -0.461170       -12.5491
 263   2.0000      -0.460847       -12.5403
 264   2.0000      -0.457319       -12.4443
 265   2.0000      -0.456817       -12.4306
 266   2.0000      -0.455456       -12.3936
 267   2.0000      -0.454902       -12.3785
 268   2.0000      -0.454628       -12.3711
 269   2.0000      -0.454530       -12.3684
 270   2.0000      -0.453031       -12.3276
 271   2.0000      -0.452557       -12.3147
 272   2.0000      -0.452052       -12.3010
 273   2.0000      -0.450243       -12.2517
 274   2.0000      -0.449448       -12.2301
 275   2.0000      -0.448557       -12.2058
 276   2.0000      -0.443498       -12.0682
 277   2.0000      -0.441647       -12.0178
 278   2.0000      -0.440132       -11.9766
 279   2.0000      -0.439660       -11.9638
 280   2.0000      -0.439205       -11.9514
 281   2.0000      -0.438082       -11.9208
 282   2.0000      -0.436600       -11.8805
 283   2.0000      -0.430908       -11.7256
 284   2.0000      -0.427255       -11.6262
 285   2.0000      -0.423416       -11.5217
 286   2.0000      -0.420489       -11.4421
 287   2.0000      -0.419734       -11.4215
 288   2.0000      -0.418146       -11.3783
 289   2.0000      -0.408787       -11.1237
 290   2.0000      -0.398359       -10.8399
 291   2.0000      -0.386649       -10.5213
 292   2.0000      -0.372070       -10.1245
 293   2.0000      -0.368549       -10.0287
 294   2.0000      -0.364551        -9.9199
 295   2.0000      -0.363706        -9.8969
 296   2.0000      -0.356644        -9.7048
 297   2.0000      -0.356201        -9.6927
 298   2.0000      -0.352981        -9.6051
 299   2.0000      -0.352531        -9.5929
 300   2.0000      -0.346259        -9.4222
 301   2.0000      -0.340014        -9.2523
 302   2.0000      -0.338196        -9.2028
 303   2.0000      -0.333954        -9.0873
 304   2.0000      -0.331169        -9.0116
 305   2.0000      -0.326125        -8.8743
 306   2.0000      -0.308202        -8.3866
 307   2.0000      -0.281182        -7.6513
 308   2.0000      -0.255898        -6.9633
 309   0.0000      -0.131249        -3.5715
 310   0.0000      -0.122857        -3.3431
 311   0.0000      -0.115963        -3.1555
 312   0.0000      -0.099849        -2.7170
 313   0.0000      -0.099409        -2.7051

MULLIKEN ATOMIC CHARGES
-----------------------
   0 C :    0.165279
   1 O :   -0.168113
   2 C :   -0.088840
   3 C :    0.060201
   4 C :   -0.099175
   5 C :    0.237706
   6 C :    0.151453
   7 C :    0.156186
   8 F :   -0.138839
   9 F :   -0.151606
  10 F :   -0.155896
  11 C :    0.308208
  12 C :   -0.341960
  13 C :   -0.189313
  14 N :    0.168199
  15 C :   -0.194609
  16 N :    0.159728
  17 C :   -0.098249
  18 C :   -0.024017
  19 C :   -0.055914
  20 C :   -0.059211
  21 C :    0.049922
  22 C :   -0.066425
  23 S :    0.247110
  24 C :   -0.109842
  25 C :    0.028277
  26 C :    0.302054
  27 C :   -0.288581
  28 C :   -0.190835
  29 N :    0.184904
  30 C :   -0.193162
  31 N :    0.187290
  32 C :   -0.053464
  33 C :   -0.047586
  34 S :    0.198675
  35 C :   -0.060943
  36 C :   -0.046047
  37 C :    0.018666
  38 C :   -0.097258
  39 S :    0.194898
  40 C :   -0.098054
  41 C :    0.017000
  42 C :    0.298744
  43 C :   -0.288014
  44 C :   -0.187017
  45 N :    0.179795
  46 C :   -0.189108
  47 N :    0.185685
  48 C :   -0.064563
  49 C :   -0.052506
  50 S :    0.203861
  51 C :   -0.044798
  52 C :   -0.069059
  53 C :    0.026851
  54 C :   -0.106697
  55 S :    0.208204
  56 C :   -0.067468
  57 C :   -0.005462
  58 C :    0.300730
  59 C :   -0.279779
  60 C :   -0.183329
  61 N :    0.172474
  62 C :   -0.187786
  63 N :    0.179231
  64 C :    0.002999
  65 C :   -0.112667
  66 S :    0.221908
  67 C :    0.083090
  68 C :   -0.139630
  69 C :    0.128136
  70 O :   -0.117779
  71 C :   -0.061326
  72 C :    0.034728
  73 C :    0.257636
  74 C :   -0.318222
  75 C :   -0.175062
  76 N :    0.169366
  77 C :   -0.202008
  78 N :    0.169773
  79 C :   -0.090611
  80 C :    0.233706
  81 C :    0.152376
  82 C :    0.155778
  83 F :   -0.137264
  84 F :   -0.151745
  85 F :   -0.157113
  86 H :    0.018324
  87 H :    0.018270
  88 H :    0.030143
  89 H :    0.016755
  90 H :    0.017633
  91 H :    0.015919
  92 H :    0.015370
  93 H :    0.025732
  94 H :    0.025893
  95 H :    0.022088
Sum of atomic charges:   -0.0000000

LOEWDIN ATOMIC CHARGES
----------------------
   0 C :    0.086240
   1 O :   -0.161407
   2 C :   -0.080914
   3 C :   -0.002183
   4 C :   -0.028309
   5 C :    0.080548
   6 C :    0.040148
   7 C :    0.086606
   8 F :   -0.021843
   9 F :   -0.032037
  10 F :   -0.034190
  11 C :    0.073488
  12 C :   -0.131896
  13 C :   -0.020552
  14 N :   -0.041989
  15 C :   -0.023236
  16 N :   -0.039000
  17 C :   -0.117003
  18 C :    0.059344
  19 C :   -0.185463
  20 C :    0.017115
  21 C :   -0.078094
  22 C :   -0.162249
  23 S :    0.548208
  24 C :   -0.191377
  25 C :   -0.047400
  26 C :    0.075105
  27 C :   -0.093813
  28 C :   -0.018785
  29 N :   -0.022278
  30 C :   -0.019719
  31 N :   -0.019153
  32 C :   -0.028046
  33 C :   -0.168353
  34 S :    0.475080
  35 C :   -0.184608
  36 C :   -0.018342
  37 C :   -0.064735
  38 C :   -0.178121
  39 S :    0.474003
  40 C :   -0.178466
  41 C :   -0.064876
  42 C :    0.078688
  43 C :   -0.092900
  44 C :   -0.015722
  45 N :   -0.026876
  46 C :   -0.019497
  47 N :   -0.019099
  48 C :   -0.033156
  49 C :   -0.181014
  50 S :    0.490100
  51 C :   -0.168924
  52 C :   -0.039191
  53 C :   -0.051916
  54 C :   -0.186929
  55 S :    0.494130
  56 C :   -0.155115
  57 C :   -0.067771
  58 C :    0.081348
  59 C :   -0.093920
  60 C :   -0.012706
  61 N :   -0.027992
  62 C :   -0.016300
  63 N :   -0.027506
  64 C :    0.014180
  65 C :   -0.182960
  66 S :    0.505357
  67 C :    0.046189
  68 C :   -0.096966
  69 C :    0.083933
  70 O :   -0.126497
  71 C :   -0.082874
  72 C :   -0.001375
  73 C :    0.062938
  74 C :   -0.130156
  75 C :   -0.021678
  76 N :   -0.036518
  77 C :   -0.014842
  78 N :   -0.039925
  79 C :   -0.028977
  80 C :    0.081247
  81 C :    0.039485
  82 C :    0.087031
  83 F :   -0.020207
  84 F :   -0.032282
  85 F :   -0.033975
  86 H :    0.053274
  87 H :    0.054483
  88 H :    0.049020
  89 H :    0.043844
  90 H :    0.044391
  91 H :    0.036951
  92 H :    0.037097
  93 H :    0.042957
  94 H :    0.047672
  95 H :    0.054004

  Mayer bond orders larger than 0.100000
B(  0-C ,  1-O ) :   2.1500 B(  0-C ,  2-C ) :   0.9568 B(  0-C , 17-C ) :   0.9941
B(  2-C ,  3-C ) :   1.3557 B(  2-C ,  7-C ) :   1.2669 B(  3-C ,  4-C ) :   1.3308
B(  3-C , 11-C ) :   1.0000 B(  4-C ,  5-C ) :   1.3214 B(  4-C , 86-H ) :   0.9968
B(  5-C ,  6-C ) :   1.2969 B(  5-C , 10-F ) :   1.1547 B(  6-C ,  7-C ) :   1.2565
B(  6-C ,  9-F ) :   1.1753 B(  7-C ,  8-F ) :   1.2462 B( 11-C , 12-C ) :   1.6390
B( 11-C , 17-C ) :   1.0941 B( 12-C , 13-C ) :   1.1390 B( 12-C , 15-C ) :   1.1446
B( 13-C , 14-N ) :   2.9779 B( 15-C , 16-N ) :   2.9638 B( 17-C , 18-C ) :   1.4725
B( 18-C , 19-C ) :   1.2883 B( 18-C , 87-H ) :   0.9399 B( 19-C , 20-C ) :   1.3164
B( 19-C , 23-S ) :   1.0618 B( 20-C , 21-C ) :   1.3419 B( 20-C , 88-H ) :   1.0082
B( 21-C , 22-C ) :   1.3424 B( 21-C , 26-C ) :   0.9867 B( 22-C , 23-S ) :   1.1338
B( 22-C , 24-C ) :   1.2176 B( 24-C , 25-C ) :   1.4264 B( 24-C , 34-S ) :   1.1084
B( 25-C , 26-C ) :   0.9951 B( 25-C , 32-C ) :   1.2984 B( 26-C , 27-C ) :   1.7208
B( 27-C , 28-C ) :   1.1334 B( 27-C , 30-C ) :   1.1349 B( 28-C , 29-N ) :   2.9905
B( 30-C , 31-N ) :   2.9938 B( 32-C , 33-C ) :   1.4716 B( 32-C , 89-H ) :   0.9927
B( 33-C , 34-S ) :   1.1133 B( 33-C , 35-C ) :   1.1278 B( 35-C , 36-C ) :   1.4803
B( 35-C , 39-S ) :   1.0968 B( 36-C , 37-C ) :   1.2974 B( 36-C , 90-H ) :   0.9919
B( 37-C , 38-C ) :   1.4350 B( 37-C , 42-C ) :   0.9927 B( 38-C , 39-S ) :   1.1265
B( 38-C , 40-C ) :   1.1961 B( 40-C , 41-C ) :   1.4383 B( 40-C , 50-S ) :   1.1223
B( 41-C , 42-C ) :   0.9940 B( 41-C , 48-C ) :   1.3090 B( 42-C , 43-C ) :   1.7226
B( 43-C , 44-C ) :   1.1330 B( 43-C , 46-C ) :   1.1318 B( 44-C , 45-N ) :   2.9908
B( 46-C , 47-N ) :   2.9915 B( 48-C , 49-C ) :   1.4523 B( 48-C , 91-H ) :   0.9853
B( 49-C , 50-S ) :   1.1086 B( 49-C , 51-C ) :   1.1728 B( 51-C , 52-C ) :   1.4457
B( 51-C , 55-S ) :   1.1222 B( 52-C , 53-C ) :   1.3132 B( 52-C , 92-H ) :   0.9864
B( 53-C , 54-C ) :   1.4366 B( 53-C , 58-C ) :   0.9904 B( 54-C , 55-S ) :   1.1111
B( 54-C , 56-C ) :   1.2025 B( 56-C , 57-C ) :   1.3979 B( 56-C , 66-S ) :   1.1623
B( 57-C , 58-C ) :   1.0003 B( 57-C , 64-C ) :   1.3729 B( 58-C , 59-C ) :   1.7228
B( 59-C , 60-C ) :   1.1327 B( 59-C , 62-C ) :   1.1314 B( 60-C , 61-N ) :   2.9829
B( 62-C , 63-N ) :   2.9923 B( 64-C , 65-C ) :   1.3788 B( 64-C , 93-H ) :   0.9770
B( 65-C , 66-S ) :   1.0841 B( 65-C , 67-C ) :   1.1572 B( 67-C , 68-C ) :   1.6497
B( 67-C , 94-H ) :   0.9266 B( 68-C , 69-C ) :   0.9532 B( 68-C , 73-C ) :   1.0554
B( 69-C , 70-O ) :   2.3021 B( 69-C , 71-C ) :   0.9098 B( 71-C , 72-C ) :   1.3549
B( 71-C , 82-C ) :   1.2718 B( 72-C , 73-C ) :   1.0107 B( 72-C , 79-C ) :   1.3366
B( 73-C , 74-C ) :   1.6523 B( 74-C , 75-C ) :   1.1197 B( 74-C , 77-C ) :   1.1749
B( 75-C , 76-N ) :   2.9979 B( 77-C , 78-N ) :   2.9915 B( 79-C , 80-C ) :   1.3251
B( 79-C , 95-H ) :   0.9995 B( 80-C , 81-C ) :   1.2955 B( 80-C , 85-F ) :   1.1479
B( 81-C , 82-C ) :   1.2597 B( 81-C , 84-F ) :   1.1747 B( 82-C , 83-F ) :   1.2479

-----------------------------------------------------------------------------
         ABSORPTION SPECTRUM VIA TRANSITION ELECTRIC DIPOLE MOMENTS
-----------------------------------------------------------------------------
State   Energy  Wavelength   fosc         T2         TX        TY        TZ
        (cm-1)    (nm)                  (au**2)     (au)      (au)      (au)
-----------------------------------------------------------------------------
   0   11224.0    891.0   0.773935957  22.70047  -2.62296   3.97225  -0.20438
   1   12703.9    787.2   0.077420130   2.00628  -0.97203   0.97161   0.34265
   2   13812.0    724.0   0.158760806   3.78410   0.53241  -1.66705   0.84947
   3   19182.8    521.3   1.427312065  24.49527  -3.09078   3.86509  -0.05869
   4   20138.3    496.6   0.025030525   0.40919   0.14062   0.41735  -0.46393
   5   20409.4    490.0   0.580958993   9.37109   0.18446  -2.56738   1.65700
   6   21988.0    454.8   0.077540851   1.16097   0.55627  -0.77590   0.49951
   7   23246.5    430.2   0.032053940   0.45394  -0.00512   0.52388  -0.42363
   8   24865.6    402.2   0.252250987   3.33972   0.60852  -1.68691   0.35179
   9   25906.6    386.0   0.326042767   4.14323   1.40130  -1.10241  -0.98197
  10   26722.4    374.2   0.106915770   1.31717   0.53799  -0.96014  -0.32537
  11   27417.3    364.7   0.044166230   0.53032   0.32270  -0.58791  -0.28381
  12   28006.9    357.1   0.044569138   0.52389  -0.07619   0.12768   0.70837
  13   28252.6    353.9   0.066987880   0.78057  -0.04689  -0.85161   0.23052
  14   28785.2    347.4   0.088844840   1.01611   0.66765  -0.15811  -0.73848
  15   29354.1    340.7   0.224678375   2.51981  -0.71412   1.39336  -0.26150
  16   29466.8    339.4   0.299484355   3.34593   1.44379  -0.69608  -0.88140
  17   29537.4    338.6   0.059002464   0.65762  -0.32208   0.73198  -0.13448
  18   30271.4    330.3   0.044532551   0.48431  -0.57119   0.09112   0.38697
  19   30410.5    328.8   0.091268135   0.98803  -0.08399  -0.55778   0.81845
  20   30892.2    323.7   0.099353479   1.05879   0.18220   0.27243  -0.97538
  21   30996.4    322.6   0.058261654   0.61879   0.69800  -0.26422  -0.24854
  22   31326.5    319.2   0.907282984   9.53468  -1.06385  -0.99180   2.72383
  23   31668.5    315.8   0.103657991   1.07758   0.46392  -0.60046  -0.70838
  24   32354.9    309.1   0.004978468   0.05066  -0.09802   0.15004   0.13615
  25   32365.3    309.0   0.057810807   0.58804   0.25671   0.70973  -0.13570
  26   32447.6    308.2   0.080107766   0.81277   0.09215  -0.82753  -0.34566
  27   32804.7    304.8   0.178734938   1.79370  -0.93487   0.79479   0.53668
  28   32879.5    304.1   0.014374921   0.14393   0.05260   0.34964   0.13754
  29   33135.5    301.8   0.021991866   0.21850   0.05214   0.33399  -0.32284
  30   33425.9    299.2   0.194583696   1.91646  -0.03089   1.08416  -0.86029
  31   33689.5    296.8   0.562645256   5.49813   1.57824  -0.12091  -1.72993
  32   33953.0    294.5   0.006978299   0.06766   0.06133  -0.25090  -0.03085
  33   34141.7    292.9   0.024435673   0.23562   0.09406  -0.05603  -0.47290
  34   34250.6    292.0   0.063844052   0.61366  -0.40297   0.41345   0.52947
  35   34354.8    291.1   0.151704560   1.45374  -0.02317  -1.13201   0.41444
  36   34464.4    290.2   0.150179245   1.43455  -0.30115   1.05424  -0.48211
  37   34589.8    289.1   0.039647787   0.37735  -0.15245   0.38761  -0.45152
  38   34759.1    287.7   0.110134237   1.04311   0.63560  -0.74777  -0.28279
  39   34848.2    287.0   0.136263954   1.28729  -0.42579  -0.81819   0.66072
  40   35493.8    281.7   0.437433413   4.05728   1.26384   0.33229  -1.53283
  41   35672.7    280.3   0.034094788   0.31465  -0.19965   0.45468  -0.26088
  42   35925.7    278.4   0.064026885   0.58672   0.05109  -0.73283  -0.21696
  43   36206.1    276.2   0.148403639   1.34939  -0.10063  -0.99567   0.58984
  44   36453.3    274.3   0.005893767   0.05323   0.05520  -0.07660   0.21050
  45   36552.9    273.6   0.024467160   0.22036  -0.38872   0.07086   0.25345
  46   36571.6    273.4   0.033877872   0.30496  -0.43239   0.33266   0.08569
  47   36602.8    273.2   0.281301756   2.53008   1.20441   0.05958  -1.03727
  48   36808.3    271.7   0.157349914   1.40733   0.36510  -1.02180  -0.47954
  49   36998.3    270.3   0.140860607   1.25338  -0.68323   0.79025   0.40258
  50   37148.9    269.2   0.129820356   1.15046   0.22308   1.03753   0.15565
  51   37335.8    267.8   0.017753996   0.15655  -0.18515  -0.34953  -0.00975
  52   37562.1    266.2   0.004398472   0.03855  -0.16576   0.03411   0.09956
  53   38245.0    261.5   0.032115156   0.27645  -0.21828  -0.33666   0.33980
  54   38513.3    259.7   0.002467304   0.02109  -0.01461  -0.14386   0.01345
  55   38949.3    256.7   0.090230082   0.76265   0.24131   0.81850  -0.18569
  56   39165.3    255.3   0.086756118   0.72925  -0.06868   0.71059  -0.46861
  57   39271.3    254.6   0.031666200   0.26546  -0.36261   0.35404  -0.09288
  58   39473.0    253.3   0.001840159   0.01535   0.10629  -0.01191   0.06251
  59   39542.7    252.9   0.001599829   0.01332   0.10305  -0.01760  -0.04889
  60   39633.3    252.3   0.038900965   0.32313  -0.05434   0.49358  -0.27669
  61   39838.2    251.0   0.037244014   0.30777   0.15519  -0.46655   0.25695
  62   39920.3    250.5   0.076131127   0.62783   0.47405  -0.62744   0.09710
  63   40186.4    248.8   0.010964423   0.08982   0.22910   0.13898  -0.13423

FINAL SINGLE POINT ENERGY     -6049.259649110798

DIPOLE MOMENT
-------------
                                X             Y             Z
Electronic contribution:    -23.11486       5.70923      27.49038
Nuclear contribution   :     22.62680      -4.62642     -26.66341
                        -----------------------------------------
Total Dipole Moment    :     -0.48806       1.08282       0.82697
                        -----------------------------------------
Magnitude (a.u.)       :      1.44726
Magnitude (Debye)      :      3.67865

Rotational constants in cm-1:     0.001250     0.000123     0.000113
Rotational constants in MHz :    37.472616     3.695807     3.389113

                             ****ORCA TERMINATED NORMALLY****
TOTAL RUN TIME: 0 days 0 hours 11 minutes 15 seconds 654 msec
