                         Program Version 4.2.0 -  RELEASE  -
|  1> # ORCA input file
|  2> # SCF done       -201.237045640552          0.000855495671
|  3> ! CAM-B3LYP def2-SVP def2/J RIJCOSX Grid4 TightSCF
|  4> %maxcore 5000
|  5> %tddft
|  6>     Mode sTDDFT
|  7>     Ethresh 5.0
|  8>     maxcore 5000
|  9> end
| 10>
| 11> %pal
| 12>   nprocs 6
| 13>   end
| 14> * xyz 0 1
| 15>    C       -0.37837        -2.11571         7.58989
| 16>    C       -1.39994        -2.26208         8.47500
| 17>    S       -1.21772        -3.70463         9.40685
| 18>    C        0.26828        -4.12362         8.58719
| 19>   Cl        1.12715        -5.53001         8.97902
| 20>    C        0.57746        -3.18104         7.65273
| 21>    C        1.63550        -2.94393         6.67101
| 22>    O        2.60488        -3.64491         6.44144
| 23>    C        1.28497        -1.67162         6.01463
| 24>    C        0.03938        -1.16951         6.57155
| 25>    C       -0.65613        -0.03647         6.24005
| 26>    C       -1.86010         0.29858         6.89512
| 27>    N       -2.83936         0.58638         7.41905
| 28>    C       -0.29665         0.90192         5.25284
| 29>    N       -0.06318         1.70214         4.46296
| 30>    C        2.03074        -1.04398         5.04985
| 31>    C        3.24357        -1.41380         4.44890
| 32>    C        3.87340        -0.59605         3.50158
| 33>    C        5.06131        -1.13217         3.04539
| 34>    C        5.34547        -2.38639         3.63950
| 35>    S        4.16370        -2.88727         4.75799
| 36>    C        6.58257        -2.84113         3.12317
| 37>    C        7.08452        -1.88534         2.22078
| 38>    C        6.13881        -0.78422         2.13248
| 39>    C        6.24500         0.32962         1.35348
| 40>    C        5.25672         1.33718         1.33723
| 41>    N        4.45901         2.15988         1.31973
| 42>    C        7.35309         0.54334         0.50625
| 43>    N        8.25845         0.71168        -0.17689
| 44>    C        8.31751        -2.24233         1.67955
| 45>    C        8.75412        -3.46668         2.15538
| 46>    S        7.62260        -4.18746         3.28910
| 47>    C        9.96742        -4.12675         1.83580
| 48>    C       10.36915        -5.39436         2.21742
| 49>    C       11.63852        -5.70587         1.73203
| 50>    C       12.20896        -4.66114         0.98369
| 51>    S       11.17915        -3.30611         0.86100
| 52>    C       13.50020        -5.06151         0.55840
| 53>    C       13.74381        -6.36407         1.02823
| 54>    C       12.58030        -6.81407         1.77719
| 55>    C       12.40953        -8.01909         2.39153
| 56>    C       11.22754        -8.34139         3.09194
| 57>    N       10.26573        -8.60305         3.65813
| 58>    C       13.40511        -9.01903         2.36608
| 59>    N       14.21336        -9.83160         2.34398
| 60>    C       15.00360        -6.84236         0.67084
| 61>    C       15.72201        -5.91057        -0.05707
| 62>    S       14.82037        -4.42311        -0.31434
| 63>    C       17.03909        -6.03511        -0.56588
| 64>    C       17.78497        -5.06097        -1.20746
| 65>    C       19.05210        -5.52240        -1.55550
| 66>    C       19.27001        -6.86169        -1.18447
| 67>    S       17.91584        -7.54748        -0.39942
| 68>    C       20.57580        -7.23719        -1.58452
| 69>    C       21.18765        -6.12492        -2.20003
| 70>    C       20.24942        -5.01727        -2.20966
| 71>    C       20.44797        -3.77938        -2.74593
| 72>    C       19.45656        -2.77663        -2.70404
| 73>    N       18.64905        -1.96430        -2.65684
| 74>    C       21.66646        -3.43609        -3.36963
| 75>    N       22.66502        -3.17184        -3.86717
| 76>    C       22.46909        -6.39601        -2.65833
| 77>    C       22.84899        -7.70836        -2.41212
| 78>    S       21.59179        -8.60052        -1.55782
| 79>    C       24.07112        -8.35045        -2.69981
| 80>    C       25.05288        -7.98846        -3.57390
| 81>    C       26.41391        -8.58379        -3.37838
| 82>    O       26.69151        -9.50805        -2.65254
| 83>    C       27.29594        -7.76270        -4.21401
| 84>    C       28.63196        -7.65559        -4.46021
| 85>    S       28.94145        -6.37804        -5.61291
| 86>    C       27.26009        -6.01340        -5.75740
| 87>    C       26.51288        -6.82178        -4.96048
| 88>    C       25.10671        -7.04052        -4.66972
| 89>    C       24.08528        -6.59803        -5.47084
| 90>    C       24.32815        -5.75067        -6.57266
| 91>    N       24.50862        -5.06186        -7.47173
| 92>    C       22.74069        -6.99025        -5.35113
| 93>    N       21.63798        -7.30728        -5.30236
| 94>   Cl       29.89371        -8.57409        -3.80204
| 95>    H       -2.24679        -1.62877         8.64999
| 96>    H        1.64935        -0.09884         4.68114
| 97>    H        3.45481         0.34440         3.18900
| 98>    H        8.88037        -1.65637         0.97522
| 99>    H        9.75584        -6.04378         2.81602
|100>    H       15.39588        -7.81071         0.92510
|101>    H       17.41114        -4.07092        -1.39827
|102>    H       23.12378        -5.67093        -3.10599
|103>    H       24.30430        -9.22492        -2.09915
|104>    H       26.94676        -5.22243        -6.40946
|105> *
|106>
|107>                          ****END OF INPUT****

CARTESIAN COORDINATES (ANGSTROEM)
---------------------------------
  C     -0.378370   -2.115710    7.589890
  C     -1.399940   -2.262080    8.475000
  S     -1.217720   -3.704630    9.406850
  C      0.268280   -4.123620    8.587190
  Cl     1.127150   -5.530010    8.979020
  C      0.577460   -3.181040    7.652730
  C      1.635500   -2.943930    6.671010
  O      2.604880   -3.644910    6.441440
  C      1.284970   -1.671620    6.014630
  C      0.039380   -1.169510    6.571550
  C     -0.656130   -0.036470    6.240050
  C     -1.860100    0.298580    6.895120
  N     -2.839360    0.586380    7.419050
  C     -0.296650    0.901920    5.252840
  N     -0.063180    1.702140    4.462960
  C      2.030740   -1.043980    5.049850
  C      3.243570   -1.413800    4.448900
  C      3.873400   -0.596050    3.501580
  C      5.061310   -1.132170    3.045390
  C      5.345470   -2.386390    3.639500
  S      4.163700   -2.887270    4.757990
  C      6.582570   -2.841130    3.123170
  C      7.084520   -1.885340    2.220780
  C      6.138810   -0.784220    2.132480
  C      6.245000    0.329620    1.353480
  C      5.256720    1.337180    1.337230
  N      4.459010    2.159880    1.319730
  C      7.353090    0.543340    0.506250
  N      8.258450    0.711680   -0.176890
  C      8.317510   -2.242330    1.679550
  C      8.754120   -3.466680    2.155380
  S      7.622600   -4.187460    3.289100
  C      9.967420   -4.126750    1.835800
  C     10.369150   -5.394360    2.217420
  C     11.638520   -5.705870    1.732030
  C     12.208960   -4.661140    0.983690
  S     11.179150   -3.306110    0.861000
  C     13.500200   -5.061510    0.558400
  C     13.743810   -6.364070    1.028230
  C     12.580300   -6.814070    1.777190
  C     12.409530   -8.019090    2.391530
  C     11.227540   -8.341390    3.091940
  N     10.265730   -8.603050    3.658130
  C     13.405110   -9.019030    2.366080
  N     14.213360   -9.831600    2.343980
  C     15.003600   -6.842360    0.670840
  C     15.722010   -5.910570   -0.057070
  S     14.820370   -4.423110   -0.314340
  C     17.039090   -6.035110   -0.565880
  C     17.784970   -5.060970   -1.207460
  C     19.052100   -5.522400   -1.555500
  C     19.270010   -6.861690   -1.184470
  S     17.915840   -7.547480   -0.399420
  C     20.575800   -7.237190   -1.584520
  C     21.187650   -6.124920   -2.200030
  C     20.249420   -5.017270   -2.209660
  C     20.447970   -3.779380   -2.745930
  C     19.456560   -2.776630   -2.704040
  N     18.649050   -1.964300   -2.656840
  C     21.666460   -3.436090   -3.369630
  N     22.665020   -3.171840   -3.867170
  C     22.469090   -6.396010   -2.658330
  C     22.848990   -7.708360   -2.412120
  S     21.591790   -8.600520   -1.557820
  C     24.071120   -8.350450   -2.699810
  C     25.052880   -7.988460   -3.573900
  C     26.413910   -8.583790   -3.378380
  O     26.691510   -9.508050   -2.652540
  C     27.295940   -7.762700   -4.214010
  C     28.631960   -7.655590   -4.460210
  S     28.941450   -6.378040   -5.612910
  C     27.260090   -6.013400   -5.757400
  C     26.512880   -6.821780   -4.960480
  C     25.106710   -7.040520   -4.669720
  C     24.085280   -6.598030   -5.470840
  C     24.328150   -5.750670   -6.572660
  N     24.508620   -5.061860   -7.471730
  C     22.740690   -6.990250   -5.351130
  N     21.637980   -7.307280   -5.302360
  Cl    29.893710   -8.574090   -3.802040
  H     -2.246790   -1.628770    8.649990
  H      1.649350   -0.098840    4.681140
  H      3.454810    0.344400    3.189000
  H      8.880370   -1.656370    0.975220
  H      9.755840   -6.043780    2.816020
  H     15.395880   -7.810710    0.925100
  H     17.411140   -4.070920   -1.398270
  H     23.123780   -5.670930   -3.105990
  H     24.304300   -9.224920   -2.099150
  H     26.946760   -5.222430   -6.409460

 Total Charge           Charge          ....    0
 Multiplicity           Mult            ....    1
 Number of Electrons    NEL             ....  606
 Basis Dimension        Dim             .... 1210

ORBITAL ENERGIES
----------------

  NO   OCC          E(Eh)            E(eV)
   0   2.0000    -101.621241     -2765.2546
   1   2.0000    -101.617479     -2765.1522
   2   2.0000     -89.006237     -2421.9828
   3   2.0000     -89.005879     -2421.9731
   4   2.0000     -89.005588     -2421.9652
   5   2.0000     -89.004757     -2421.9426
   6   2.0000     -89.003561     -2421.9100
   7   2.0000     -88.997338     -2421.7407
   8   2.0000     -88.995635     -2421.6943
   9   2.0000     -88.992795     -2421.6171
  10   2.0000     -19.231653      -523.3199
  11   2.0000     -19.220127      -523.0063
  12   2.0000     -14.443457      -393.0265
  13   2.0000     -14.443391      -393.0246
  14   2.0000     -14.440512      -392.9463
  15   2.0000     -14.440402      -392.9433
  16   2.0000     -14.439739      -392.9253
  17   2.0000     -14.437288      -392.8586
  18   2.0000     -14.424465      -392.5096
  19   2.0000     -14.422738      -392.4626
  20   2.0000     -14.419537      -392.3755
  21   2.0000     -14.418882      -392.3577
  22   2.0000     -10.385177      -282.5950
  23   2.0000     -10.379799      -282.4487
  24   2.0000     -10.379178      -282.4318
  25   2.0000     -10.376893      -282.3696
  26   2.0000     -10.376264      -282.3525
  27   2.0000     -10.376218      -282.3513
  28   2.0000     -10.374746      -282.3112
  29   2.0000     -10.366016      -282.0736
  30   2.0000     -10.363045      -281.9928
  31   2.0000     -10.362444      -281.9764
  32   2.0000     -10.351875      -281.6888
  33   2.0000     -10.351817      -281.6873
  34   2.0000     -10.350805      -281.6597
  35   2.0000     -10.349365      -281.6205
  36   2.0000     -10.347944      -281.5819
  37   2.0000     -10.347718      -281.5757
  38   2.0000     -10.347574      -281.5718
  39   2.0000     -10.347296      -281.5642
  40   2.0000     -10.346998      -281.5561
  41   2.0000     -10.345310      -281.5102
  42   2.0000     -10.344674      -281.4929
  43   2.0000     -10.344382      -281.4849
  44   2.0000     -10.343603      -281.4637
  45   2.0000     -10.343413      -281.4586
  46   2.0000     -10.343377      -281.4576
  47   2.0000     -10.342748      -281.4405
  48   2.0000     -10.340485      -281.3789
  49   2.0000     -10.340355      -281.3754
  50   2.0000     -10.339901      -281.3630
  51   2.0000     -10.336721      -281.2765
  52   2.0000     -10.334833      -281.2251
  53   2.0000     -10.334770      -281.2234
  54   2.0000     -10.334015      -281.2028
  55   2.0000     -10.331789      -281.1423
  56   2.0000     -10.331649      -281.1385
  57   2.0000     -10.328650      -281.0569
  58   2.0000     -10.325597      -280.9738
  59   2.0000     -10.324958      -280.9564
  60   2.0000     -10.322120      -280.8792
  61   2.0000     -10.321287      -280.8565
  62   2.0000     -10.320918      -280.8465
  63   2.0000     -10.320855      -280.8447
  64   2.0000     -10.320654      -280.8393
  65   2.0000     -10.320541      -280.8362
  66   2.0000     -10.318811      -280.7891
  67   2.0000     -10.318772      -280.7881
  68   2.0000     -10.318281      -280.7747
  69   2.0000     -10.317835      -280.7626
  70   2.0000     -10.316516      -280.7267
  71   2.0000     -10.316167      -280.7172
  72   2.0000     -10.314877      -280.6821
  73   2.0000     -10.314865      -280.6817
  74   2.0000     -10.313245      -280.6377
  75   2.0000     -10.312861      -280.6272
  76   2.0000     -10.308661      -280.5129
  77   2.0000     -10.308336      -280.5041
  78   2.0000     -10.303418      -280.3703
  79   2.0000     -10.300442      -280.2893
  80   2.0000      -9.576013      -260.5766
  81   2.0000      -9.572278      -260.4749
  82   2.0000      -8.100539      -220.4269
  83   2.0000      -8.100272      -220.4196
  84   2.0000      -8.099965      -220.4113
  85   2.0000      -8.099122      -220.3883
  86   2.0000      -8.098166      -220.3623
  87   2.0000      -8.091338      -220.1765
  88   2.0000      -8.089597      -220.1291
  89   2.0000      -8.088497      -220.0992
  90   2.0000      -7.346651      -199.9126
  91   2.0000      -7.342917      -199.8109
  92   2.0000      -7.336050      -199.6241
  93   2.0000      -7.335512      -199.6094
  94   2.0000      -7.332314      -199.5224
  95   2.0000      -7.331770      -199.5076
  96   2.0000      -6.069831      -165.1685
  97   2.0000      -6.069566      -165.1613
  98   2.0000      -6.069286      -165.1537
  99   2.0000      -6.068416      -165.1300
 100   2.0000      -6.067347      -165.1009
 101   2.0000      -6.065633      -165.0543
 102   2.0000      -6.065386      -165.0475
 103   2.0000      -6.065093      -165.0396
 104   2.0000      -6.064221      -165.0158
 105   2.0000      -6.063157      -164.9869
 106   2.0000      -6.062855      -164.9787
 107   2.0000      -6.062555      -164.9705
 108   2.0000      -6.062203      -164.9609
 109   2.0000      -6.061418      -164.9396
 110   2.0000      -6.060764      -164.9218
 111   2.0000      -6.060669      -164.9192
 112   2.0000      -6.059050      -164.8751
 113   2.0000      -6.057905      -164.8440
 114   2.0000      -6.056124      -164.7955
 115   2.0000      -6.054235      -164.7441
 116   2.0000      -6.053532      -164.7250
 117   2.0000      -6.053277      -164.7180
 118   2.0000      -6.052139      -164.6871
 119   2.0000      -6.050718      -164.6484
 120   2.0000      -1.148720       -31.2583
 121   2.0000      -1.137443       -30.9514
 122   2.0000      -1.061471       -28.8841
 123   2.0000      -1.058447       -28.8018
 124   2.0000      -1.055791       -28.7295
 125   2.0000      -1.041351       -28.3366
 126   2.0000      -1.038533       -28.2599
 127   2.0000      -1.035689       -28.1825
 128   2.0000      -1.032667       -28.1003
 129   2.0000      -1.030962       -28.0539
 130   2.0000      -1.023442       -27.8493
 131   2.0000      -1.020829       -27.7782
 132   2.0000      -1.019497       -27.7419
 133   2.0000      -1.018701       -27.7203
 134   2.0000      -1.017873       -27.6977
 135   2.0000      -1.015934       -27.6450
 136   2.0000      -1.011765       -27.5315
 137   2.0000      -1.002850       -27.2889
 138   2.0000      -1.000004       -27.2115
 139   2.0000      -0.999659       -27.2021
 140   2.0000      -0.991418       -26.9778
 141   2.0000      -0.988899       -26.9093
 142   2.0000      -0.977908       -26.6102
 143   2.0000      -0.970059       -26.3966
 144   2.0000      -0.966436       -26.2981
 145   2.0000      -0.957021       -26.0419
 146   2.0000      -0.954659       -25.9776
 147   2.0000      -0.936015       -25.4703
 148   2.0000      -0.929507       -25.2932
 149   2.0000      -0.919959       -25.0334
 150   2.0000      -0.909819       -24.7574
 151   2.0000      -0.908406       -24.7190
 152   2.0000      -0.893015       -24.3002
 153   2.0000      -0.892272       -24.2800
 154   2.0000      -0.884980       -24.0815
 155   2.0000      -0.884026       -24.0556
 156   2.0000      -0.876455       -23.8495
 157   2.0000      -0.874717       -23.8023
 158   2.0000      -0.868266       -23.6267
 159   2.0000      -0.864031       -23.5115
 160   2.0000      -0.849516       -23.1165
 161   2.0000      -0.835660       -22.7395
 162   2.0000      -0.833225       -22.6732
 163   2.0000      -0.828299       -22.5392
 164   2.0000      -0.812206       -22.1013
 165   2.0000      -0.799775       -21.7630
 166   2.0000      -0.793714       -21.5980
 167   2.0000      -0.787588       -21.4314
 168   2.0000      -0.782638       -21.2967
 169   2.0000      -0.770027       -20.9535
 170   2.0000      -0.760074       -20.6827
 171   2.0000      -0.756595       -20.5880
 172   2.0000      -0.744122       -20.2486
 173   2.0000      -0.726416       -19.7668
 174   2.0000      -0.717402       -19.5215
 175   2.0000      -0.714672       -19.4472
 176   2.0000      -0.710160       -19.3244
 177   2.0000      -0.704143       -19.1607
 178   2.0000      -0.700815       -19.0702
 179   2.0000      -0.694947       -18.9105
 180   2.0000      -0.693662       -18.8755
 181   2.0000      -0.689345       -18.7580
 182   2.0000      -0.683986       -18.6122
 183   2.0000      -0.680470       -18.5165
 184   2.0000      -0.676272       -18.4023
 185   2.0000      -0.675424       -18.3792
 186   2.0000      -0.653174       -17.7738
 187   2.0000      -0.646975       -17.6051
 188   2.0000      -0.646032       -17.5794
 189   2.0000      -0.642593       -17.4858
 190   2.0000      -0.638661       -17.3789
 191   2.0000      -0.635193       -17.2845
 192   2.0000      -0.632517       -17.2117
 193   2.0000      -0.630604       -17.1596
 194   2.0000      -0.625576       -17.0228
 195   2.0000      -0.624374       -16.9901
 196   2.0000      -0.618916       -16.8416
 197   2.0000      -0.614584       -16.7237
 198   2.0000      -0.612466       -16.6661
 199   2.0000      -0.608773       -16.5656
 200   2.0000      -0.592145       -16.1131
 201   2.0000      -0.584517       -15.9055
 202   2.0000      -0.576508       -15.6876
 203   2.0000      -0.567213       -15.4347
 204   2.0000      -0.564309       -15.3556
 205   2.0000      -0.561921       -15.2906
 206   2.0000      -0.560141       -15.2422
 207   2.0000      -0.558591       -15.2000
 208   2.0000      -0.554433       -15.0869
 209   2.0000      -0.552236       -15.0271
 210   2.0000      -0.550271       -14.9736
 211   2.0000      -0.549116       -14.9422
 212   2.0000      -0.542359       -14.7583
 213   2.0000      -0.536844       -14.6083
 214   2.0000      -0.533268       -14.5110
 215   2.0000      -0.530679       -14.4405
 216   2.0000      -0.528336       -14.3768
 217   2.0000      -0.525362       -14.2958
 218   2.0000      -0.522627       -14.2214
 219   2.0000      -0.521930       -14.2024
 220   2.0000      -0.521767       -14.1980
 221   2.0000      -0.520059       -14.1515
 222   2.0000      -0.516931       -14.0664
 223   2.0000      -0.515291       -14.0218
 224   2.0000      -0.512696       -13.9512
 225   2.0000      -0.511883       -13.9290
 226   2.0000      -0.507942       -13.8218
 227   2.0000      -0.507840       -13.8190
 228   2.0000      -0.505953       -13.7677
 229   2.0000      -0.504960       -13.7407
 230   2.0000      -0.503588       -13.7033
 231   2.0000      -0.502780       -13.6813
 232   2.0000      -0.501022       -13.6335
 233   2.0000      -0.497677       -13.5425
 234   2.0000      -0.496121       -13.5001
 235   2.0000      -0.493181       -13.4201
 236   2.0000      -0.492744       -13.4082
 237   2.0000      -0.488903       -13.3037
 238   2.0000      -0.484954       -13.1963
 239   2.0000      -0.484435       -13.1821
 240   2.0000      -0.479342       -13.0436
 241   2.0000      -0.473964       -12.8972
 242   2.0000      -0.471655       -12.8344
 243   2.0000      -0.470758       -12.8100
 244   2.0000      -0.470579       -12.8051
 245   2.0000      -0.469198       -12.7675
 246   2.0000      -0.467954       -12.7337
 247   2.0000      -0.464741       -12.6463
 248   2.0000      -0.461708       -12.5637
 249   2.0000      -0.457265       -12.4428
 250   2.0000      -0.457141       -12.4394
 251   2.0000      -0.456582       -12.4242
 252   2.0000      -0.455678       -12.3996
 253   2.0000      -0.454444       -12.3660
 254   2.0000      -0.454194       -12.3592
 255   2.0000      -0.453407       -12.3378
 256   2.0000      -0.452983       -12.3263
 257   2.0000      -0.450767       -12.2660
 258   2.0000      -0.450188       -12.2502
 259   2.0000      -0.450071       -12.2470
 260   2.0000      -0.448489       -12.2040
 261   2.0000      -0.448268       -12.1980
 262   2.0000      -0.448198       -12.1961
 263   2.0000      -0.448138       -12.1945
 264   2.0000      -0.446957       -12.1623
 265   2.0000      -0.446302       -12.1445
 266   2.0000      -0.445158       -12.1134
 267   2.0000      -0.443600       -12.0710
 268   2.0000      -0.439203       -11.9513
 269   2.0000      -0.437273       -11.8988
 270   2.0000      -0.436314       -11.8727
 271   2.0000      -0.435317       -11.8456
 272   2.0000      -0.433253       -11.7894
 273   2.0000      -0.432878       -11.7792
 274   2.0000      -0.430668       -11.7191
 275   2.0000      -0.425671       -11.5831
 276   2.0000      -0.422458       -11.4957
 277   2.0000      -0.418894       -11.3987
 278   2.0000      -0.416457       -11.3324
 279   2.0000      -0.416173       -11.3246
 280   2.0000      -0.412007       -11.2113
 281   2.0000      -0.406394       -11.0586
 282   2.0000      -0.404013       -10.9937
 283   2.0000      -0.403242       -10.9728
 284   2.0000      -0.394474       -10.7342
 285   2.0000      -0.383437       -10.4339
 286   2.0000      -0.366416        -9.9707
 287   2.0000      -0.365209        -9.9378
 288   2.0000      -0.361348        -9.8328
 289   2.0000      -0.358751        -9.7621
 290   2.0000      -0.348623        -9.4865
 291   2.0000      -0.346061        -9.4168
 292   2.0000      -0.345195        -9.3932
 293   2.0000      -0.339532        -9.2391
 294   2.0000      -0.336301        -9.1512
 295   2.0000      -0.334543        -9.1034
 296   2.0000      -0.332319        -9.0428
 297   2.0000      -0.330460        -8.9923
 298   2.0000      -0.319121        -8.6837
 299   2.0000      -0.313521        -8.5313
 300   2.0000      -0.301979        -8.2173
 301   2.0000      -0.276634        -7.5276
 302   2.0000      -0.252341        -6.8666
 303   0.0000      -0.125948        -3.4272
 304   0.0000      -0.118126        -3.2144
 305   0.0000      -0.115000        -3.1293
 306   0.0000      -0.095224        -2.5912
 307   0.0000      -0.094827        -2.5804

MULLIKEN ATOMIC CHARGES
-----------------------
   0 C :    0.026731
   1 C :   -0.130779
   2 S :    0.185183
   3 C :   -0.172108
   4 Cl:   -0.001621
   5 C :    0.080488
   6 C :    0.171537
   7 O :   -0.179815
   8 C :   -0.111005
   9 C :    0.309441
  10 C :   -0.336749
  11 C :   -0.194409
  12 N :    0.156345
  13 C :   -0.186617
  14 N :    0.152936
  15 C :   -0.029367
  16 C :   -0.055416
  17 C :   -0.054378
  18 C :    0.044608
  19 C :   -0.068276
  20 S :    0.247999
  21 C :   -0.107318
  22 C :    0.030069
  23 C :    0.301003
  24 C :   -0.292902
  25 C :   -0.193042
  26 N :    0.190596
  27 C :   -0.187426
  28 N :    0.172729
  29 C :   -0.075039
  30 C :   -0.040720
  31 S :    0.210101
  32 C :   -0.053988
  33 C :   -0.065908
  34 C :    0.019688
  35 C :   -0.094426
  36 S :    0.205935
  37 C :   -0.097259
  38 C :    0.016450
  39 C :    0.296810
  40 C :   -0.293978
  41 C :   -0.188124
  42 N :    0.177955
  43 C :   -0.184726
  44 N :    0.177765
  45 C :   -0.059272
  46 C :   -0.056024
  47 S :    0.204681
  48 C :   -0.045857
  49 C :   -0.065661
  50 C :    0.026970
  51 C :   -0.106872
  52 S :    0.206011
  53 C :   -0.067342
  54 C :   -0.003985
  55 C :    0.303176
  56 C :   -0.286688
  57 C :   -0.186057
  58 N :    0.177342
  59 C :   -0.185474
  60 N :    0.177037
  61 C :   -0.004134
  62 C :   -0.106222
  63 S :    0.217622
  64 C :    0.077724
  65 C :   -0.152344
  66 C :    0.128863
  67 O :   -0.134862
  68 C :    0.099158
  69 C :   -0.173973
  70 S :    0.184017
  71 C :   -0.125968
  72 C :    0.009765
  73 C :    0.274085
  74 C :   -0.326046
  75 C :   -0.174809
  76 N :    0.157701
  77 C :   -0.199381
  78 N :    0.170480
  79 Cl:   -0.001198
  80 H :    0.055229
  81 H :    0.015792
  82 H :    0.029265
  83 H :    0.015817
  84 H :    0.015294
  85 H :    0.013407
  86 H :    0.014752
  87 H :    0.027323
  88 H :    0.025093
  89 H :    0.056592
Sum of atomic charges:   -0.0000000

LOEWDIN ATOMIC CHARGES
----------------------
   0 C :   -0.057792
   1 C :   -0.147181
   2 S :    0.473634
   3 C :   -0.271945
   4 Cl:    0.191066
   5 C :   -0.116776
   6 C :    0.083628
   7 O :   -0.169562
   8 C :   -0.109935
   9 C :    0.075368
  10 C :   -0.141689
  11 C :   -0.015538
  12 N :   -0.053586
  13 C :   -0.024867
  14 N :   -0.045817
  15 C :    0.056761
  16 C :   -0.184390
  17 C :    0.014514
  18 C :   -0.078734
  19 C :   -0.164767
  20 S :    0.550624
  21 C :   -0.187696
  22 C :   -0.050994
  23 C :    0.077275
  24 C :   -0.097492
  25 C :   -0.020728
  26 N :   -0.019953
  27 C :   -0.015615
  28 N :   -0.030795
  29 C :   -0.042180
  30 C :   -0.168431
  31 S :    0.492522
  32 C :   -0.181620
  33 C :   -0.032589
  34 C :   -0.067131
  35 C :   -0.176710
  36 S :    0.493261
  37 C :   -0.178593
  38 C :   -0.066055
  39 C :    0.080978
  40 C :   -0.096969
  41 C :   -0.016613
  42 N :   -0.027731
  43 C :   -0.016357
  44 N :   -0.028363
  45 C :   -0.033978
  46 C :   -0.179835
  47 S :    0.492909
  48 C :   -0.171408
  49 C :   -0.038733
  50 C :   -0.053096
  51 C :   -0.185309
  52 S :    0.491546
  53 C :   -0.157011
  54 C :   -0.067421
  55 C :    0.081822
  56 C :   -0.094226
  57 C :   -0.016135
  58 N :   -0.028189
  59 C :   -0.013384
  60 N :   -0.027542
  61 C :    0.012729
  62 C :   -0.182124
  63 S :    0.501461
  64 C :    0.044058
  65 C :   -0.091680
  66 C :    0.080200
  67 O :   -0.137354
  68 C :   -0.118464
  69 C :   -0.272478
  70 S :    0.473730
  71 C :   -0.149565
  72 C :   -0.056865
  73 C :    0.065422
  74 C :   -0.138127
  75 C :   -0.016037
  76 N :   -0.046485
  77 C :   -0.016543
  78 N :   -0.045529
  79 Cl:    0.191183
  80 H :    0.038280
  81 H :    0.054393
  82 H :    0.048591
  83 H :    0.036607
  84 H :    0.037485
  85 H :    0.036864
  86 H :    0.036737
  87 H :    0.043399
  88 H :    0.046827
  89 H :    0.038836

  Mayer bond orders larger than 0.100000
B(  0-C ,  1-C ) :   1.5531 B(  0-C ,  5-C ) :   1.2248 B(  0-C ,  9-C ) :   0.9906
B(  1-C ,  2-S ) :   1.1572 B(  1-C , 80-H ) :   0.9536 B(  2-S ,  3-C ) :   1.1486
B(  3-C ,  4-Cl) :   1.1274 B(  3-C ,  5-C ) :   1.4722 B(  5-C ,  6-C ) :   0.9732
B(  6-C ,  7-O ) :   2.1195 B(  6-C ,  8-C ) :   0.9821 B(  8-C ,  9-C ) :   1.0881
B(  8-C , 15-C ) :   1.4984 B(  9-C , 10-C ) :   1.6377 B( 10-C , 11-C ) :   1.1512
B( 10-C , 13-C ) :   1.1396 B( 11-C , 12-N ) :   2.9886 B( 13-C , 14-N ) :   2.9604
B( 15-C , 16-C ) :   1.2710 B( 15-C , 81-H ) :   0.9412 B( 16-C , 17-C ) :   1.3253
B( 16-C , 20-S ) :   1.0677 B( 17-C , 18-C ) :   1.3354 B( 17-C , 82-H ) :   1.0083
B( 18-C , 19-C ) :   1.3515 B( 18-C , 23-C ) :   0.9864 B( 19-C , 20-S ) :   1.1288
B( 19-C , 21-C ) :   1.2085 B( 21-C , 22-C ) :   1.4319 B( 21-C , 31-S ) :   1.1108
B( 22-C , 23-C ) :   0.9957 B( 22-C , 29-C ) :   1.3087 B( 23-C , 24-C ) :   1.7200
B( 24-C , 25-C ) :   1.1334 B( 24-C , 27-C ) :   1.1337 B( 25-C , 26-N ) :   2.9973
B( 27-C , 28-N ) :   2.9881 B( 29-C , 30-C ) :   1.4461 B( 29-C , 83-H ) :   0.9863
B( 30-C , 31-S ) :   1.1204 B( 30-C , 32-C ) :   1.1683 B( 32-C , 33-C ) :   1.4547
B( 32-C , 36-S ) :   1.1078 B( 33-C , 34-C ) :   1.3062 B( 33-C , 84-H ) :   0.9874
B( 34-C , 35-C ) :   1.4384 B( 34-C , 39-C ) :   0.9930 B( 35-C , 36-S ) :   1.1270
B( 35-C , 37-C ) :   1.1883 B( 37-C , 38-C ) :   1.4450 B( 37-C , 47-S ) :   1.1239
B( 38-C , 39-C ) :   0.9929 B( 38-C , 45-C ) :   1.3044 B( 39-C , 40-C ) :   1.7209
B( 40-C , 41-C ) :   1.1340 B( 40-C , 43-C ) :   1.1308 B( 41-C , 42-N ) :   2.9922
B( 43-C , 44-N ) :   2.9929 B( 45-C , 46-C ) :   1.4541 B( 45-C , 85-H ) :   0.9870
B( 46-C , 47-S ) :   1.1101 B( 46-C , 48-C ) :   1.1721 B( 48-C , 49-C ) :   1.4467
B( 48-C , 52-S ) :   1.1199 B( 49-C , 50-C ) :   1.3095 B( 49-C , 86-H ) :   0.9862
B( 50-C , 51-C ) :   1.4440 B( 50-C , 55-C ) :   0.9915 B( 51-C , 52-S ) :   1.1112
B( 51-C , 53-C ) :   1.1978 B( 53-C , 54-C ) :   1.4043 B( 53-C , 63-S ) :   1.1570
B( 54-C , 55-C ) :   1.0010 B( 54-C , 61-C ) :   1.3638 B( 55-C , 56-C ) :   1.7216
B( 56-C , 57-C ) :   1.1309 B( 56-C , 59-C ) :   1.1362 B( 57-C , 58-N ) :   2.9918
B( 59-C , 60-N ) :   2.9840 B( 61-C , 62-C ) :   1.3895 B( 61-C , 87-H ) :   0.9783
B( 62-C , 63-S ) :   1.0864 B( 62-C , 64-C ) :   1.1414 B( 64-C , 65-C ) :   1.6693
B( 64-C , 88-H ) :   0.9273 B( 65-C , 66-C ) :   0.9439 B( 65-C , 73-C ) :   1.0435
B( 66-C , 67-O ) :   2.2680 B( 66-C , 68-C ) :   0.9277 B( 68-C , 69-C ) :   1.4811
B( 68-C , 72-C ) :   1.2231 B( 69-C , 70-S ) :   1.1506 B( 69-C , 79-Cl) :   1.1286
B( 70-S , 71-C ) :   1.1570 B( 71-C , 72-C ) :   1.5545 B( 71-C , 89-H ) :   0.9559
B( 72-C , 73-C ) :   1.0082 B( 73-C , 74-C ) :   1.6520 B( 74-C , 75-C ) :   1.1295
B( 74-C , 77-C ) :   1.1714 B( 75-C , 76-N ) :   2.9991 B( 77-C , 78-N ) :   2.9922

-----------------------------------------------------------------------------
         ABSORPTION SPECTRUM VIA TRANSITION ELECTRIC DIPOLE MOMENTS
-----------------------------------------------------------------------------
State   Energy  Wavelength   fosc         T2         TX        TY        TZ
        (cm-1)    (nm)                  (au**2)     (au)      (au)      (au)
-----------------------------------------------------------------------------
   0   11302.2    884.8   0.646587992  18.83395  -3.91372   1.00919   1.58060
   1   12751.7    784.2   0.174031482   4.49300   1.90027  -0.34500  -0.87347
   2   13487.5    741.4   0.147497351   3.60022   1.64598  -0.57649  -0.74742
   3   19290.5    518.4   1.638661787  27.96538   4.61087  -0.94634  -2.41033
   4   20210.3    494.8   0.043109114   0.70222  -0.73739   0.29685   0.26525
   5   20510.7    487.6   0.308219966   4.94716  -1.99293   0.59156   0.79085
   6   22174.6    451.0   0.136941548   2.03309  -1.01361   0.05670   1.00123
   7   22764.9    439.3   0.076338213   1.10396  -0.91292   0.13978   0.50100
   8   25791.4    387.7   0.113609042   1.45015  -1.11715   0.34649   0.28648
   9   26742.8    373.9   0.062806301   0.77316   0.84672  -0.22090   0.08622
  10   27458.9    364.2   0.215242270   2.58060   1.54602  -0.43215   0.06064
  11   27739.4    360.5   0.001703717   0.02022  -0.08384   0.03273  -0.11009
  12   27921.3    358.1   0.004249780   0.05011   0.13279   0.02862   0.17792
  13   28240.8    354.1   0.034541159   0.40266  -0.59057   0.02987   0.23020
  14   28659.4    348.9   0.055069451   0.63258  -0.79318   0.05846   0.00502
  15   28736.0    348.0   0.002999528   0.03436  -0.02437   0.01252  -0.18334
  16   29028.5    344.5   0.010413875   0.11810  -0.24538  -0.07107   0.22988
  17   29502.5    339.0   0.563078567   6.28326   2.24381  -0.85530  -0.71905
  18   30072.8    332.5   0.046600870   0.51015   0.30505   0.63511  -0.11713
  19   30147.0    331.7   0.245916843   2.68547   0.77351   0.88546  -1.14155
  20   30636.9    326.4   0.149654102   1.60812   0.54450   0.85518  -0.76178
  21   30670.5    326.0   0.068707732   0.73750   0.09729  -0.85214   0.04348
  22   30903.0    323.6   0.099892080   1.06416   0.40259  -0.92445   0.21790
  23   31563.3    316.8   0.063343902   0.66069  -0.21991  -0.66208   0.41711
  24   31787.7    314.6   1.088236316  11.27040   0.42061   2.98543  -1.47672
  25   32365.3    309.0   0.007456589   0.07585   0.00770  -0.18797  -0.20113
  26   32686.8    305.9   0.072512059   0.73032   0.70437  -0.38445   0.29391
  27   32796.4    304.9   0.170882053   1.71533   0.03815  -1.13452   0.65324
  28   32960.1    303.4   0.342025858   3.41622  -1.74273  -0.32284   0.52428
  29   33251.0    300.7   0.008330267   0.08248   0.09493  -0.25794  -0.08325
  30   33526.0    298.3   0.212629821   2.08794   0.57329  -1.19536   0.57480
  31   33712.4    296.6   0.240897419   2.35244  -1.25795  -0.03262   0.87689
  32   34042.0    293.8   0.078961942   0.76362   0.67938   0.23320  -0.49768
  33   34343.9    291.2   0.042130792   0.40385   0.52293  -0.15193  -0.32760
  34   34427.3    290.5   0.075849230   0.72531  -0.32367   0.77298  -0.15181
  35   34550.0    289.4   0.006722992   0.06406  -0.04401   0.21041  -0.13361
  36   34593.4    289.1   0.014078685   0.13398   0.27515   0.23817   0.03937
  37   34666.5    288.5   0.060691870   0.57636  -0.68031   0.20895   0.26436
  38   35003.1    285.7   0.363546343   3.41924  -0.69517  -1.36855   1.03104
  39   35096.9    284.9   0.038120702   0.35758   0.02398  -0.38880   0.45369
  40   35225.7    283.9   0.133389115   1.24663   0.71061  -0.85011   0.13773
  41   35407.0    282.4   0.122295858   1.13710  -0.58496   0.70676  -0.54352
  42   35560.1    281.2   0.020107791   0.18616  -0.42500   0.01361   0.07310
  43   35998.1    277.8   0.009268164   0.08476   0.14544  -0.18304   0.17350
  44   36253.3    275.8   0.163742497   1.48693  -0.06490  -0.93462   0.78051
  45   36340.8    275.2   0.030410437   0.27549   0.22547  -0.46786   0.07587
  46   36530.9    273.7   0.002531698   0.02282  -0.03786   0.12114  -0.08189
  47   36581.1    273.4   0.046032904   0.41427   0.14074   0.51135  -0.36468
  48   36679.3    272.6   0.192487393   1.72765  -0.04969  -1.09898   0.71932
  49   36831.2    271.5   0.075915378   0.67856  -0.26373  -0.59854   0.50076
  50   37103.1    269.5   0.003028094   0.02687  -0.04531  -0.09039   0.12901
  51   37712.8    265.2   0.095665046   0.83510  -0.62463   0.61419  -0.26020
  52   38024.7    263.0   0.019232342   0.16651   0.19351   0.34695  -0.09321
  53   38296.8    261.1   0.081234656   0.69832  -0.80520   0.14378  -0.17115
  54   38400.1    260.4   0.453917978   3.89154  -1.93928   0.30464  -0.19473
  55   38559.7    259.3   0.024262327   0.20715   0.42558  -0.16094  -0.01110
  56   38758.7    258.0   0.028026232   0.23805  -0.27375   0.25508  -0.31312
  57   38784.9    257.8   0.109841372   0.93235   0.01455  -0.74395   0.61537
  58   38931.1    256.9   0.069303258   0.58605  -0.48578   0.51936  -0.28342
  59   39009.2    256.4   0.016126004   0.13609   0.21009  -0.24881   0.17335
  60   39325.0    254.3   0.001959706   0.01641  -0.05830   0.11253  -0.01854
  61   39379.2    253.9   0.013165875   0.11007   0.00792   0.30295  -0.13501
  62   39794.8    251.3   0.028983423   0.23977  -0.43302   0.22861  -0.00270
  63   39938.6    250.4   0.052519900   0.43292  -0.34357   0.17941   0.53169
  64   40042.9    249.7   0.084807644   0.69724   0.52798  -0.63678   0.11402
  65   40271.5    248.3   0.060633911   0.49567  -0.41701  -0.49449   0.27795

FINAL SINGLE POINT ENERGY     -7014.852598901191

DIPOLE MOMENT
-------------
                                X             Y             Z
Electronic contribution:      9.93374     -13.59695       7.76349
Nuclear contribution   :     -8.53123      11.32601      -5.72817
                        -----------------------------------------
Total Dipole Moment    :      1.40251      -2.27094       2.03532
                        -----------------------------------------
Magnitude (a.u.)       :      3.35659
Magnitude (Debye)      :      8.53177

Rotational constants in cm-1:     0.002177     0.000121     0.000116
Rotational constants in MHz :    65.276174     3.633018     3.469525

                             ****ORCA TERMINATED NORMALLY****
TOTAL RUN TIME: 0 days 0 hours 9 minutes 26 seconds 435 msec
