                         Program Version 4.2.0 -  RELEASE  -
|  1> # ORCA input file
|  2> # SCF done       -209.959512715558          0.000679597632
|  3> ! CAM-B3LYP def2-SVP def2/J RIJCOSX Grid4 TightSCF
|  4> %maxcore 5000
|  5> %tddft
|  6>     Mode sTDDFT
|  7>     Ethresh 5.0
|  8>     maxcore 5000
|  9> end
| 10>
| 11> %pal
| 12>   nprocs 6
| 13>   end
| 14> * xyz 0 1
| 15>    C       -2.28647        -0.84888        -0.87187
| 16>    C       -3.05129        -0.27101         0.13735
| 17>    C       -4.00111         0.83163        -0.20518
| 18>    C       -2.93773        -0.71598         1.46462
| 19>    C       -3.76509        -0.09734         2.54460
| 20>    C       -2.04831        -1.74003         1.77115
| 21>    C       -1.29504        -2.30720         0.76348
| 22>    C       -1.40496        -1.87344        -0.56719
| 23>    C       -0.50577        -2.66581        -1.39709
| 24>    C       -0.41802        -2.58142        -2.76251
| 25>    C       -1.15966        -1.67016        -3.54503
| 26>    N       -1.72381        -0.95569        -4.24445
| 27>    C        0.38280        -3.38335        -3.60292
| 28>    N        0.98464        -3.99844        -4.36423
| 29>    C        0.21095        -3.58410        -0.52139
| 30>    C       -0.30515        -3.38994         0.85989
| 31>    O        0.02465        -3.96418         1.87622
| 32>    C        1.22616        -4.39629        -0.94145
| 33>    C        1.96756        -5.38886        -0.26640
| 34>    C        1.85397        -5.95970         0.99423
| 35>    C        2.78875        -6.96534         1.20078
| 36>    C        3.63895        -7.17230         0.09054
| 37>    S        3.27550        -6.13326        -1.20266
| 38>    C        4.54227        -8.21597         0.40449
| 39>    C        4.26546        -8.67351         1.70457
| 40>    C        3.15558        -7.90313         2.24826
| 41>    C        2.58610        -8.05304         3.47737
| 42>    C        3.05674        -9.01355         4.39892
| 43>    N        3.44019        -9.79257         5.14782
| 44>    C        1.48883        -7.28644         3.92829
| 45>    N        0.58953        -6.69893         4.32716
| 46>    C        5.09389        -9.72127         2.09880
| 47>    C        6.00104       -10.06374         1.11078
| 48>    S        5.82935        -9.07229        -0.32799
| 49>    C        6.97506       -11.09181         1.16976
| 50>    C        7.91542       -11.43429         0.21481
| 51>    C        8.70012       -12.51360         0.62106
| 52>    C        8.34789       -12.99568         1.89358
| 53>    S        7.06143       -12.12115         2.59340
| 54>    C        9.19031       -14.08879         2.21382
| 55>    C       10.08112       -14.29771         1.14710
| 56>    C        9.80131       -13.31600         0.10958
| 57>    C       10.43382       -13.18070        -1.09061
| 58>    C       11.49205       -14.02977        -1.47868
| 59>    N       12.35047       -14.72177        -1.79269
| 60>    C       10.06775       -12.18520        -2.02136
| 61>    N        9.77121       -11.37697        -2.77833
| 62>    C       10.95630       -15.36019         1.37283
| 63>    C       10.73217       -15.96168         2.59814
| 64>    S        9.42110       -15.19961         3.48814
| 65>    C       11.41664       -17.06391         3.16926
| 66>    C       11.13088       -17.69130         4.36921
| 67>    C       12.00618       -18.74373         4.62684
| 68>    C       12.97105       -18.91566         3.61863
| 69>    S       12.79268       -17.78522         2.34967
| 70>    C       13.81667       -19.99530         3.97937
| 71>    C       13.37360       -20.51019         5.21385
| 72>    C       12.23087       -19.73759         5.66483
| 73>    C       11.54303       -19.89594         6.83171
| 74>    C       11.89182       -20.89869         7.76119
| 75>    N       12.18439       -21.72030         8.50569
| 76>    C       10.44874       -19.07474         7.17495
| 77>    N        9.55361       -18.41165         7.44598
| 78>    C       14.15764       -21.55915         5.67687
| 79>    C       15.20707       -21.84809         4.81893
| 80>    S       15.18532       -20.81841         3.39182
| 81>    C       16.20084       -22.84688         4.94412
| 82>    C       16.58647       -23.51688         6.06190
| 83>    C       17.32515       -24.80861         5.90908
| 84>    O       17.84780       -25.21864         4.89873
| 85>    C       17.21399       -25.46690         7.22015
| 86>    C       16.59770       -24.59397         8.13519
| 87>    C       16.34767       -25.02149         9.42703
| 88>    C       16.72188       -26.30591         9.81169
| 89>    C       17.35656       -27.16612         8.90048
| 90>    C       17.59649       -26.73824         7.59868
| 91>    C       17.76919       -28.53978         9.32133
| 92>    C       16.44169       -26.76321        11.20678
| 93>    C       16.34758       -23.31583         7.47777
| 94>    C       16.18336       -22.11981         8.12554
| 95>    C       16.16917       -20.86768         7.48114
| 96>    N       16.17324       -19.82342         7.00338
| 97>    C       16.10267       -21.99379         9.52873
| 98>    N       16.03860       -21.83316        10.66298
| 99>    H       -2.39198        -0.48514        -1.88107
|100>    H       -3.96722         1.05454        -1.26792
|101>    H       -3.75322         1.73623         0.34909
|102>    H       -5.02057         0.55328         0.05977
|103>    H       -4.82652        -0.21549         2.32889
|104>    H       -3.56235         0.97063         2.61861
|105>    H       -3.55201        -0.55918         3.50460
|106>    H       -1.94100        -2.10027         2.78336
|107>    H        1.53150        -4.27978        -1.97484
|108>    H        1.12049        -5.63343         1.70988
|109>    H        5.05331       -10.22143         3.04968
|110>    H        8.01065       -10.91409        -0.72148
|111>    H       11.71895       -15.69314         0.69185
|112>    H       10.32246       -17.38648         5.00945
|113>    H       13.96067       -22.12003         6.57206
|114>    H       16.67732       -23.17255         4.02457
|115>    H       15.85162       -24.37874        10.13716
|116>    H       18.07778       -27.38734         6.88255
|117>    H       16.90443       -29.11478         9.65113
|118>    H       18.46819       -28.49099        10.15556
|119>    H       18.24489       -29.06810         8.49977
|120>    H       15.95111       -25.98023        11.77799
|121>    H       17.36731       -27.03490        11.71290
|122>    H       15.80067       -27.64423        11.19916
|123> *
|124>
|125>                          ****END OF INPUT****

CARTESIAN COORDINATES (ANGSTROEM)
---------------------------------
  C     -2.286470   -0.848880   -0.871870
  C     -3.051290   -0.271010    0.137350
  C     -4.001110    0.831630   -0.205180
  C     -2.937730   -0.715980    1.464620
  C     -3.765090   -0.097340    2.544600
  C     -2.048310   -1.740030    1.771150
  C     -1.295040   -2.307200    0.763480
  C     -1.404960   -1.873440   -0.567190
  C     -0.505770   -2.665810   -1.397090
  C     -0.418020   -2.581420   -2.762510
  C     -1.159660   -1.670160   -3.545030
  N     -1.723810   -0.955690   -4.244450
  C      0.382800   -3.383350   -3.602920
  N      0.984640   -3.998440   -4.364230
  C      0.210950   -3.584100   -0.521390
  C     -0.305150   -3.389940    0.859890
  O      0.024650   -3.964180    1.876220
  C      1.226160   -4.396290   -0.941450
  C      1.967560   -5.388860   -0.266400
  C      1.853970   -5.959700    0.994230
  C      2.788750   -6.965340    1.200780
  C      3.638950   -7.172300    0.090540
  S      3.275500   -6.133260   -1.202660
  C      4.542270   -8.215970    0.404490
  C      4.265460   -8.673510    1.704570
  C      3.155580   -7.903130    2.248260
  C      2.586100   -8.053040    3.477370
  C      3.056740   -9.013550    4.398920
  N      3.440190   -9.792570    5.147820
  C      1.488830   -7.286440    3.928290
  N      0.589530   -6.698930    4.327160
  C      5.093890   -9.721270    2.098800
  C      6.001040  -10.063740    1.110780
  S      5.829350   -9.072290   -0.327990
  C      6.975060  -11.091810    1.169760
  C      7.915420  -11.434290    0.214810
  C      8.700120  -12.513600    0.621060
  C      8.347890  -12.995680    1.893580
  S      7.061430  -12.121150    2.593400
  C      9.190310  -14.088790    2.213820
  C     10.081120  -14.297710    1.147100
  C      9.801310  -13.316000    0.109580
  C     10.433820  -13.180700   -1.090610
  C     11.492050  -14.029770   -1.478680
  N     12.350470  -14.721770   -1.792690
  C     10.067750  -12.185200   -2.021360
  N      9.771210  -11.376970   -2.778330
  C     10.956300  -15.360190    1.372830
  C     10.732170  -15.961680    2.598140
  S      9.421100  -15.199610    3.488140
  C     11.416640  -17.063910    3.169260
  C     11.130880  -17.691300    4.369210
  C     12.006180  -18.743730    4.626840
  C     12.971050  -18.915660    3.618630
  S     12.792680  -17.785220    2.349670
  C     13.816670  -19.995300    3.979370
  C     13.373600  -20.510190    5.213850
  C     12.230870  -19.737590    5.664830
  C     11.543030  -19.895940    6.831710
  C     11.891820  -20.898690    7.761190
  N     12.184390  -21.720300    8.505690
  C     10.448740  -19.074740    7.174950
  N      9.553610  -18.411650    7.445980
  C     14.157640  -21.559150    5.676870
  C     15.207070  -21.848090    4.818930
  S     15.185320  -20.818410    3.391820
  C     16.200840  -22.846880    4.944120
  C     16.586470  -23.516880    6.061900
  C     17.325150  -24.808610    5.909080
  O     17.847800  -25.218640    4.898730
  C     17.213990  -25.466900    7.220150
  C     16.597700  -24.593970    8.135190
  C     16.347670  -25.021490    9.427030
  C     16.721880  -26.305910    9.811690
  C     17.356560  -27.166120    8.900480
  C     17.596490  -26.738240    7.598680
  C     17.769190  -28.539780    9.321330
  C     16.441690  -26.763210   11.206780
  C     16.347580  -23.315830    7.477770
  C     16.183360  -22.119810    8.125540
  C     16.169170  -20.867680    7.481140
  N     16.173240  -19.823420    7.003380
  C     16.102670  -21.993790    9.528730
  N     16.038600  -21.833160   10.662980
  H     -2.391980   -0.485140   -1.881070
  H     -3.967220    1.054540   -1.267920
  H     -3.753220    1.736230    0.349090
  H     -5.020570    0.553280    0.059770
  H     -4.826520   -0.215490    2.328890
  H     -3.562350    0.970630    2.618610
  H     -3.552010   -0.559180    3.504600
  H     -1.941000   -2.100270    2.783360
  H      1.531500   -4.279780   -1.974840
  H      1.120490   -5.633430    1.709880
  H      5.053310  -10.221430    3.049680
  H      8.010650  -10.914090   -0.721480
  H     11.718950  -15.693140    0.691850
  H     10.322460  -17.386480    5.009450
  H     13.960670  -22.120030    6.572060
  H     16.677320  -23.172550    4.024570
  H     15.851620  -24.378740   10.137160
  H     18.077780  -27.387340    6.882550
  H     16.904430  -29.114780    9.651130
  H     18.468190  -28.490990   10.155560
  H     18.244890  -29.068100    8.499770
  H     15.951110  -25.980230   11.777990
  H     17.367310  -27.034900   11.712900
  H     15.800670  -27.644230   11.199160

 Total Charge           Charge          ....    0
 Multiplicity           Mult            ....    1
 Number of Electrons    NEL             ....  602
 Basis Dimension        Dim             .... 1320

ORBITAL ENERGIES
----------------

  NO   OCC          E(Eh)            E(eV)
   0   2.0000     -89.001824     -2421.8628
   1   2.0000     -89.001560     -2421.8556
   2   2.0000     -89.001314     -2421.8489
   3   2.0000     -89.000848     -2421.8362
   4   2.0000     -88.997910     -2421.7563
   5   2.0000     -88.996827     -2421.7268
   6   2.0000     -19.218563      -522.9637
   7   2.0000     -19.215671      -522.8850
   8   2.0000     -14.439972      -392.9316
   9   2.0000     -14.439878      -392.9291
  10   2.0000     -14.436848      -392.8466
  11   2.0000     -14.436577      -392.8392
  12   2.0000     -14.436515      -392.8375
  13   2.0000     -14.431789      -392.7089
  14   2.0000     -14.418159      -392.3380
  15   2.0000     -14.417705      -392.3257
  16   2.0000     -14.413065      -392.1994
  17   2.0000     -14.412921      -392.1955
  18   2.0000     -10.375361      -282.3279
  19   2.0000     -10.371925      -282.2344
  20   2.0000     -10.371551      -282.2243
  21   2.0000     -10.369148      -282.1589
  22   2.0000     -10.366605      -282.0897
  23   2.0000     -10.362363      -281.9742
  24   2.0000     -10.358409      -281.8666
  25   2.0000     -10.358085      -281.8578
  26   2.0000     -10.347904      -281.5808
  27   2.0000     -10.345010      -281.5020
  28   2.0000     -10.344039      -281.4756
  29   2.0000     -10.343838      -281.4702
  30   2.0000     -10.343700      -281.4664
  31   2.0000     -10.342778      -281.4413
  32   2.0000     -10.342677      -281.4386
  33   2.0000     -10.341538      -281.4076
  34   2.0000     -10.341459      -281.4054
  35   2.0000     -10.340906      -281.3904
  36   2.0000     -10.340904      -281.3903
  37   2.0000     -10.340733      -281.3856
  38   2.0000     -10.340596      -281.3819
  39   2.0000     -10.340463      -281.3783
  40   2.0000     -10.340032      -281.3666
  41   2.0000     -10.339915      -281.3634
  42   2.0000     -10.336949      -281.2827
  43   2.0000     -10.336722      -281.2765
  44   2.0000     -10.336615      -281.2736
  45   2.0000     -10.330686      -281.1123
  46   2.0000     -10.329212      -281.0722
  47   2.0000     -10.328861      -281.0626
  48   2.0000     -10.326571      -281.0003
  49   2.0000     -10.324220      -280.9363
  50   2.0000     -10.320720      -280.8411
  51   2.0000     -10.319610      -280.8109
  52   2.0000     -10.317336      -280.7490
  53   2.0000     -10.316301      -280.7208
  54   2.0000     -10.315669      -280.7036
  55   2.0000     -10.314908      -280.6829
  56   2.0000     -10.314873      -280.6820
  57   2.0000     -10.314760      -280.6789
  58   2.0000     -10.314445      -280.6703
  59   2.0000     -10.313424      -280.6425
  60   2.0000     -10.312883      -280.6278
  61   2.0000     -10.312334      -280.6129
  62   2.0000     -10.311742      -280.5968
  63   2.0000     -10.309839      -280.5450
  64   2.0000     -10.309272      -280.5296
  65   2.0000     -10.306041      -280.4416
  66   2.0000     -10.302122      -280.3350
  67   2.0000     -10.301590      -280.3205
  68   2.0000     -10.300853      -280.3005
  69   2.0000     -10.300169      -280.2819
  70   2.0000     -10.297380      -280.2059
  71   2.0000     -10.297005      -280.1957
  72   2.0000     -10.296284      -280.1761
  73   2.0000     -10.295841      -280.1641
  74   2.0000     -10.289992      -280.0049
  75   2.0000     -10.289076      -279.9800
  76   2.0000     -10.288209      -279.9564
  77   2.0000     -10.287942      -279.9491
  78   2.0000     -10.287789      -279.9450
  79   2.0000     -10.285843      -279.8920
  80   2.0000     -10.277372      -279.6615
  81   2.0000     -10.276269      -279.6315
  82   2.0000     -10.274999      -279.5969
  83   2.0000     -10.274560      -279.5850
  84   2.0000      -8.096314      -220.3119
  85   2.0000      -8.096037      -220.3044
  86   2.0000      -8.095782      -220.2974
  87   2.0000      -8.095255      -220.2831
  88   2.0000      -8.092590      -220.2106
  89   2.0000      -8.091647      -220.1849
  90   2.0000      -6.065603      -165.0534
  91   2.0000      -6.065363      -165.0469
  92   2.0000      -6.065067      -165.0389
  93   2.0000      -6.064555      -165.0249
  94   2.0000      -6.061757      -164.9488
  95   2.0000      -6.061413      -164.9394
  96   2.0000      -6.061180      -164.9331
  97   2.0000      -6.060904      -164.9256
  98   2.0000      -6.060728      -164.9208
  99   2.0000      -6.060396      -164.9117
 100   2.0000      -6.058566      -164.8620
 101   2.0000      -6.058220      -164.8525
 102   2.0000      -6.058045      -164.8478
 103   2.0000      -6.057574      -164.8350
 104   2.0000      -6.057503      -164.8330
 105   2.0000      -6.056605      -164.8086
 106   2.0000      -6.055088      -164.7673
 107   2.0000      -6.054187      -164.7428
 108   2.0000      -1.133731       -30.8504
 109   2.0000      -1.130843       -30.7718
 110   2.0000      -1.057299       -28.7706
 111   2.0000      -1.053950       -28.6794
 112   2.0000      -1.052338       -28.6356
 113   2.0000      -1.032046       -28.0834
 114   2.0000      -1.028573       -27.9889
 115   2.0000      -1.027320       -27.9548
 116   2.0000      -1.020663       -27.7737
 117   2.0000      -1.018703       -27.7203
 118   2.0000      -1.017807       -27.6959
 119   2.0000      -1.016352       -27.6563
 120   2.0000      -1.014015       -27.5927
 121   2.0000      -1.010970       -27.5099
 122   2.0000      -1.007719       -27.4214
 123   2.0000      -0.998805       -27.1789
 124   2.0000      -0.997390       -27.1404
 125   2.0000      -0.996632       -27.1197
 126   2.0000      -0.992793       -27.0153
 127   2.0000      -0.992298       -27.0018
 128   2.0000      -0.974255       -26.5108
 129   2.0000      -0.966311       -26.2947
 130   2.0000      -0.962706       -26.1966
 131   2.0000      -0.955622       -26.0038
 132   2.0000      -0.954772       -25.9807
 133   2.0000      -0.931870       -25.3575
 134   2.0000      -0.925108       -25.1735
 135   2.0000      -0.915340       -24.9077
 136   2.0000      -0.905453       -24.6386
 137   2.0000      -0.904142       -24.6030
 138   2.0000      -0.893276       -24.3073
 139   2.0000      -0.892194       -24.2778
 140   2.0000      -0.881182       -23.9782
 141   2.0000      -0.880728       -23.9658
 142   2.0000      -0.874558       -23.7979
 143   2.0000      -0.872224       -23.7344
 144   2.0000      -0.870774       -23.6950
 145   2.0000      -0.869926       -23.6719
 146   2.0000      -0.863305       -23.4917
 147   2.0000      -0.860085       -23.4041
 148   2.0000      -0.850126       -23.1331
 149   2.0000      -0.838988       -22.8300
 150   2.0000      -0.827397       -22.5146
 151   2.0000      -0.810043       -22.0424
 152   2.0000      -0.808687       -22.0055
 153   2.0000      -0.806998       -21.9595
 154   2.0000      -0.789858       -21.4931
 155   2.0000      -0.787061       -21.4170
 156   2.0000      -0.782950       -21.3051
 157   2.0000      -0.777053       -21.1447
 158   2.0000      -0.764003       -20.7896
 159   2.0000      -0.756472       -20.5847
 160   2.0000      -0.752185       -20.4680
 161   2.0000      -0.745683       -20.2911
 162   2.0000      -0.731327       -19.9004
 163   2.0000      -0.718529       -19.5522
 164   2.0000      -0.711548       -19.3622
 165   2.0000      -0.710411       -19.3313
 166   2.0000      -0.705369       -19.1941
 167   2.0000      -0.700080       -19.0501
 168   2.0000      -0.696391       -18.9498
 169   2.0000      -0.692696       -18.8492
 170   2.0000      -0.690524       -18.7901
 171   2.0000      -0.687016       -18.6946
 172   2.0000      -0.683370       -18.5954
 173   2.0000      -0.680428       -18.5154
 174   2.0000      -0.673837       -18.3360
 175   2.0000      -0.671909       -18.2836
 176   2.0000      -0.653497       -17.7826
 177   2.0000      -0.650636       -17.7047
 178   2.0000      -0.643209       -17.5026
 179   2.0000      -0.641401       -17.4534
 180   2.0000      -0.638033       -17.3618
 181   2.0000      -0.636211       -17.3122
 182   2.0000      -0.630439       -17.1551
 183   2.0000      -0.629762       -17.1367
 184   2.0000      -0.624033       -16.9808
 185   2.0000      -0.620478       -16.8841
 186   2.0000      -0.613018       -16.6811
 187   2.0000      -0.608665       -16.5626
 188   2.0000      -0.606281       -16.4978
 189   2.0000      -0.602452       -16.3936
 190   2.0000      -0.590905       -16.0793
 191   2.0000      -0.585933       -15.9441
 192   2.0000      -0.579078       -15.7575
 193   2.0000      -0.573535       -15.6067
 194   2.0000      -0.564560       -15.3625
 195   2.0000      -0.560683       -15.2569
 196   2.0000      -0.560229       -15.2446
 197   2.0000      -0.556287       -15.1373
 198   2.0000      -0.554578       -15.0908
 199   2.0000      -0.553623       -15.0648
 200   2.0000      -0.550191       -14.9715
 201   2.0000      -0.541909       -14.7461
 202   2.0000      -0.541112       -14.7244
 203   2.0000      -0.540182       -14.6991
 204   2.0000      -0.539074       -14.6689
 205   2.0000      -0.534249       -14.5376
 206   2.0000      -0.529448       -14.4070
 207   2.0000      -0.527306       -14.3487
 208   2.0000      -0.526596       -14.3294
 209   2.0000      -0.525891       -14.3102
 210   2.0000      -0.525611       -14.3026
 211   2.0000      -0.522736       -14.2244
 212   2.0000      -0.520066       -14.1517
 213   2.0000      -0.518079       -14.0976
 214   2.0000      -0.517879       -14.0922
 215   2.0000      -0.516563       -14.0564
 216   2.0000      -0.511096       -13.9076
 217   2.0000      -0.509846       -13.8736
 218   2.0000      -0.508305       -13.8317
 219   2.0000      -0.506394       -13.7797
 220   2.0000      -0.505229       -13.7480
 221   2.0000      -0.502080       -13.6623
 222   2.0000      -0.501336       -13.6420
 223   2.0000      -0.497666       -13.5422
 224   2.0000      -0.496058       -13.4984
 225   2.0000      -0.495256       -13.4766
 226   2.0000      -0.492427       -13.3996
 227   2.0000      -0.490892       -13.3578
 228   2.0000      -0.489104       -13.3092
 229   2.0000      -0.488433       -13.2909
 230   2.0000      -0.487536       -13.2665
 231   2.0000      -0.485810       -13.2196
 232   2.0000      -0.482218       -13.1218
 233   2.0000      -0.478722       -13.0267
 234   2.0000      -0.477775       -13.0009
 235   2.0000      -0.475647       -12.9430
 236   2.0000      -0.475329       -12.9344
 237   2.0000      -0.473468       -12.8837
 238   2.0000      -0.472466       -12.8564
 239   2.0000      -0.470520       -12.8035
 240   2.0000      -0.467172       -12.7124
 241   2.0000      -0.467068       -12.7096
 242   2.0000      -0.466312       -12.6890
 243   2.0000      -0.464757       -12.6467
 244   2.0000      -0.463728       -12.6187
 245   2.0000      -0.459485       -12.5032
 246   2.0000      -0.456389       -12.4190
 247   2.0000      -0.452018       -12.3000
 248   2.0000      -0.451492       -12.2857
 249   2.0000      -0.450439       -12.2571
 250   2.0000      -0.449933       -12.2433
 251   2.0000      -0.449844       -12.2409
 252   2.0000      -0.449410       -12.2291
 253   2.0000      -0.448820       -12.2130
 254   2.0000      -0.448072       -12.1927
 255   2.0000      -0.446941       -12.1619
 256   2.0000      -0.446051       -12.1377
 257   2.0000      -0.445831       -12.1317
 258   2.0000      -0.445003       -12.1091
 259   2.0000      -0.444092       -12.0844
 260   2.0000      -0.444015       -12.0823
 261   2.0000      -0.443681       -12.0732
 262   2.0000      -0.442996       -12.0545
 263   2.0000      -0.442326       -12.0363
 264   2.0000      -0.440910       -11.9978
 265   2.0000      -0.440651       -11.9907
 266   2.0000      -0.438259       -11.9256
 267   2.0000      -0.438106       -11.9215
 268   2.0000      -0.435380       -11.8473
 269   2.0000      -0.432218       -11.7613
 270   2.0000      -0.431015       -11.7285
 271   2.0000      -0.429064       -11.6754
 272   2.0000      -0.427092       -11.6218
 273   2.0000      -0.426588       -11.6080
 274   2.0000      -0.421744       -11.4762
 275   2.0000      -0.420374       -11.4390
 276   2.0000      -0.418075       -11.3764
 277   2.0000      -0.411108       -11.1868
 278   2.0000      -0.410563       -11.1720
 279   2.0000      -0.405850       -11.0437
 280   2.0000      -0.405283       -11.0283
 281   2.0000      -0.399500       -10.8709
 282   2.0000      -0.387852       -10.5540
 283   2.0000      -0.375081       -10.2065
 284   2.0000      -0.362536        -9.8651
 285   2.0000      -0.358700        -9.7607
 286   2.0000      -0.357359        -9.7242
 287   2.0000      -0.353748        -9.6260
 288   2.0000      -0.341119        -9.2823
 289   2.0000      -0.338366        -9.2074
 290   2.0000      -0.337555        -9.1853
 291   2.0000      -0.333678        -9.0798
 292   2.0000      -0.333605        -9.0779
 293   2.0000      -0.329662        -8.9706
 294   2.0000      -0.329217        -8.9585
 295   2.0000      -0.324928        -8.8417
 296   2.0000      -0.309656        -8.4262
 297   2.0000      -0.307455        -8.3663
 298   2.0000      -0.298586        -8.1249
 299   2.0000      -0.272196        -7.4068
 300   2.0000      -0.247758        -6.7418
 301   0.0000      -0.121011        -3.2929
 302   0.0000      -0.113284        -3.0826
 303   0.0000      -0.111055        -3.0220
 304   0.0000      -0.086841        -2.3631
 305   0.0000      -0.085898        -2.3374

MULLIKEN ATOMIC CHARGES
-----------------------
   0 C :   -0.075657
   1 C :   -0.079602
   2 C :    0.112988
   3 C :   -0.078006
   4 C :    0.116246
   5 C :   -0.074931
   6 C :   -0.010401
   7 C :    0.040834
   8 C :    0.315429
   9 C :   -0.362856
  10 C :   -0.180725
  11 N :    0.147538
  12 C :   -0.187773
  13 N :    0.149371
  14 C :   -0.086582
  15 C :    0.156177
  16 O :   -0.148841
  17 C :    0.033881
  18 C :   -0.113844
  19 C :   -0.009280
  20 C :   -0.009692
  21 C :   -0.079419
  22 S :    0.207727
  23 C :   -0.106336
  24 C :    0.022959
  25 C :    0.312662
  26 C :   -0.295185
  27 C :   -0.191605
  28 N :    0.169841
  29 C :   -0.192706
  30 N :    0.199551
  31 C :   -0.070759
  32 C :   -0.040766
  33 S :    0.206865
  34 C :   -0.056115
  35 C :   -0.059161
  36 C :    0.014384
  37 C :   -0.094337
  38 S :    0.201809
  39 C :   -0.095848
  40 C :    0.015056
  41 C :    0.297157
  42 C :   -0.288868
  43 C :   -0.186705
  44 N :    0.174691
  45 C :   -0.188657
  46 N :    0.175605
  47 C :   -0.062635
  48 C :   -0.051622
  49 S :    0.202303
  50 C :   -0.044646
  51 C :   -0.067210
  52 C :    0.021759
  53 C :   -0.105083
  54 S :    0.205364
  55 C :   -0.072043
  56 C :   -0.007568
  57 C :    0.307224
  58 C :   -0.284944
  59 C :   -0.184147
  60 N :    0.170396
  61 C :   -0.187814
  62 N :    0.174075
  63 C :   -0.002916
  64 C :   -0.113085
  65 S :    0.216950
  66 C :    0.082420
  67 C :   -0.134106
  68 C :    0.133070
  69 O :   -0.142487
  70 C :    0.010345
  71 C :    0.022518
  72 C :   -0.073293
  73 C :   -0.082922
  74 C :   -0.081094
  75 C :   -0.081263
  76 C :    0.118247
  77 C :    0.116967
  78 C :    0.263925
  79 C :   -0.331708
  80 C :   -0.198865
  81 N :    0.164879
  82 C :   -0.172744
  83 N :    0.159982
  84 H :   -0.014440
  85 H :    0.026245
  86 H :    0.026660
  87 H :    0.027701
  88 H :    0.029348
  89 H :    0.028438
  90 H :    0.018037
  91 H :   -0.014188
  92 H :    0.005133
  93 H :    0.037420
  94 H :    0.014939
  95 H :    0.012433
  96 H :    0.012367
  97 H :    0.014547
  98 H :    0.025490
  99 H :    0.019892
 100 H :   -0.004481
 101 H :   -0.017087
 102 H :    0.027698
 103 H :    0.030308
 104 H :    0.016804
 105 H :    0.026166
 106 H :    0.028043
 107 H :    0.028186
Sum of atomic charges:   -0.0000000

LOEWDIN ATOMIC CHARGES
----------------------
   0 C :   -0.005244
   1 C :   -0.003170
   2 C :   -0.042007
   3 C :   -0.005178
   4 C :   -0.042577
   5 C :    0.008865
   6 C :   -0.047326
   7 C :   -0.019532
   8 C :    0.079370
   9 C :   -0.143562
  10 C :   -0.017031
  11 N :   -0.055247
  12 C :   -0.023452
  13 N :   -0.054837
  14 C :   -0.093676
  15 C :    0.087625
  16 O :   -0.136433
  17 C :    0.037395
  18 C :   -0.176443
  19 C :    0.015289
  20 C :   -0.076666
  21 C :   -0.160521
  22 S :    0.497744
  23 C :   -0.189733
  24 C :   -0.051907
  25 C :    0.076006
  26 C :   -0.092507
  27 C :   -0.014462
  28 N :   -0.032049
  29 C :   -0.023788
  30 N :   -0.012016
  31 C :   -0.042220
  32 C :   -0.170362
  33 S :    0.488739
  34 C :   -0.181190
  35 C :   -0.032837
  36 C :   -0.067986
  37 C :   -0.176593
  38 S :    0.492231
  39 C :   -0.179862
  40 C :   -0.066291
  41 C :    0.081539
  42 C :   -0.097649
  43 C :   -0.016300
  44 N :   -0.029087
  45 C :   -0.016773
  46 N :   -0.028546
  47 C :   -0.035546
  48 C :   -0.178109
  49 S :    0.491807
  50 C :   -0.174733
  51 C :   -0.038776
  52 C :   -0.056898
  53 C :   -0.182707
  54 S :    0.490123
  55 C :   -0.161361
  56 C :   -0.067431
  57 C :    0.083073
  58 C :   -0.096557
  59 C :   -0.013202
  60 N :   -0.029989
  61 C :   -0.016251
  62 N :   -0.030149
  63 C :    0.005989
  64 C :   -0.180942
  65 S :    0.500720
  66 C :    0.037338
  67 C :   -0.086081
  68 C :    0.083971
  69 O :   -0.142904
  70 C :   -0.050735
  71 C :   -0.014717
  72 C :   -0.004584
  73 C :   -0.001343
  74 C :   -0.007086
  75 C :    0.007843
  76 C :   -0.042650
  77 C :   -0.041619
  78 C :    0.067320
  79 C :   -0.137275
  80 C :   -0.015960
  81 N :   -0.048557
  82 C :   -0.018873
  83 N :   -0.047011
  84 H :    0.035963
  85 H :    0.036124
  86 H :    0.037883
  87 H :    0.038341
  88 H :    0.038988
  89 H :    0.038655
  90 H :    0.033686
  91 H :    0.037339
  92 H :    0.041923
  93 H :    0.042859
  94 H :    0.035719
  95 H :    0.037211
  96 H :    0.036957
  97 H :    0.036182
  98 H :    0.042298
  99 H :    0.045483
 100 H :    0.037850
 101 H :    0.036201
 102 H :    0.038479
 103 H :    0.039084
 104 H :    0.033056
 105 H :    0.036633
 106 H :    0.038917
 107 H :    0.038286

  Mayer bond orders larger than 0.100000
B(  0-C ,  1-C ) :   1.3798 B(  0-C ,  7-C ) :   1.3454 B(  0-C , 84-H ) :   0.9835
B(  1-C ,  2-C ) :   1.0939 B(  1-C ,  3-C ) :   1.3733 B(  2-C , 85-H ) :   0.9508
B(  2-C , 86-H ) :   0.9402 B(  2-C , 87-H ) :   0.9402 B(  3-C ,  4-C ) :   1.0934
B(  3-C ,  5-C ) :   1.3484 B(  4-C , 88-H ) :   0.9403 B(  4-C , 89-H ) :   0.9401
B(  4-C , 90-H ) :   0.9515 B(  5-C ,  6-C ) :   1.3601 B(  5-C , 91-H ) :   1.0110
B(  6-C ,  7-C ) :   1.3336 B(  6-C , 15-C ) :   0.9576 B(  7-C ,  8-C ) :   0.9857
B(  8-C ,  9-C ) :   1.6218 B(  8-C , 14-C ) :   1.0772 B(  9-C , 10-C ) :   1.1487
B(  9-C , 12-C ) :   1.1384 B( 10-C , 11-N ) :   2.9660 B( 12-C , 13-N ) :   2.9690
B( 14-C , 15-C ) :   0.9300 B( 14-C , 17-C ) :   1.6122 B( 15-C , 16-O ) :   2.1650
B( 17-C , 18-C ) :   1.2096 B( 17-C , 92-H ) :   0.9071 B( 18-C , 19-C ) :   1.4067
B( 18-C , 22-S ) :   1.0775 B( 19-C , 20-C ) :   1.3058 B( 19-C , 93-H ) :   0.9695
B( 20-C , 21-C ) :   1.3830 B( 20-C , 25-C ) :   0.9998 B( 21-C , 22-S ) :   1.1657
B( 21-C , 23-C ) :   1.1994 B( 23-C , 24-C ) :   1.4412 B( 23-C , 33-S ) :   1.1070
B( 24-C , 25-C ) :   0.9915 B( 24-C , 31-C ) :   1.3104 B( 25-C , 26-C ) :   1.7137
B( 26-C , 27-C ) :   1.1372 B( 26-C , 29-C ) :   1.1353 B( 27-C , 28-N ) :   2.9846
B( 29-C , 30-N ) :   2.9995 B( 31-C , 32-C ) :   1.4464 B( 31-C , 94-H ) :   0.9841
B( 32-C , 33-S ) :   1.1196 B( 32-C , 34-C ) :   1.1713 B( 34-C , 35-C ) :   1.4569
B( 34-C , 38-S ) :   1.1075 B( 35-C , 36-C ) :   1.3033 B( 35-C , 95-H ) :   0.9877
B( 36-C , 37-C ) :   1.4417 B( 36-C , 41-C ) :   0.9938 B( 37-C , 38-S ) :   1.1259
B( 37-C , 39-C ) :   1.1848 B( 39-C , 40-C ) :   1.4454 B( 39-C , 49-S ) :   1.1234
B( 40-C , 41-C ) :   0.9943 B( 40-C , 47-C ) :   1.3025 B( 41-C , 42-C ) :   1.7167
B( 42-C , 43-C ) :   1.1308 B( 42-C , 45-C ) :   1.1331 B( 43-C , 44-N ) :   2.9916
B( 45-C , 46-N ) :   2.9915 B( 47-C , 48-C ) :   1.4559 B( 47-C , 96-H ) :   0.9883
B( 48-C , 49-S ) :   1.1100 B( 48-C , 50-C ) :   1.1703 B( 50-C , 51-C ) :   1.4486
B( 50-C , 54-S ) :   1.1162 B( 51-C , 52-C ) :   1.3098 B( 51-C , 97-H ) :   0.9858
B( 52-C , 53-C ) :   1.4461 B( 52-C , 57-C ) :   0.9923 B( 53-C , 54-S ) :   1.1146
B( 53-C , 55-C ) :   1.1916 B( 55-C , 56-C ) :   1.4153 B( 55-C , 65-S ) :   1.1523
B( 56-C , 57-C ) :   1.0025 B( 56-C , 63-C ) :   1.3505 B( 57-C , 58-C ) :   1.7158
B( 58-C , 59-C ) :   1.1357 B( 58-C , 61-C ) :   1.1312 B( 59-C , 60-N ) :   2.9805
B( 61-C , 62-N ) :   2.9902 B( 63-C , 64-C ) :   1.4098 B( 63-C , 98-H ) :   0.9802
B( 64-C , 65-S ) :   1.0918 B( 64-C , 66-C ) :   1.1196 B( 66-C , 67-C ) :   1.6959
B( 66-C , 99-H ) :   0.9295 B( 67-C , 68-C ) :   0.9335 B( 67-C , 78-C ) :   1.0257
B( 68-C , 69-O ) :   2.2672 B( 68-C , 70-C ) :   0.9247 B( 70-C , 71-C ) :   1.3317
B( 70-C , 75-C ) :   1.3609 B( 71-C , 72-C ) :   1.3568 B( 71-C , 78-C ) :   0.9994
B( 72-C , 73-C ) :   1.3756 B( 72-C ,100-H ) :   0.9862 B( 73-C , 74-C ) :   1.3716
B( 73-C , 77-C ) :   1.0952 B( 74-C , 75-C ) :   1.3586 B( 74-C , 76-C ) :   1.0950
B( 75-C ,101-H ) :   1.0089 B( 76-C ,102-H ) :   0.9395 B( 76-C ,103-H ) :   0.9400
B( 76-C ,104-H ) :   0.9513 B( 77-C ,105-H ) :   0.9507 B( 77-C ,106-H ) :   0.9386
B( 77-C ,107-H ) :   0.9400 B( 78-C , 79-C ) :   1.6538 B( 79-C , 80-C ) :   1.1676
B( 79-C , 82-C ) :   1.1284 B( 80-C , 81-N ) :   2.9997 B( 82-C , 83-N ) :   2.9953

-----------------------------------------------------------------------------
         ABSORPTION SPECTRUM VIA TRANSITION ELECTRIC DIPOLE MOMENTS
-----------------------------------------------------------------------------
State   Energy  Wavelength   fosc         T2         TX        TY        TZ
        (cm-1)    (nm)                  (au**2)     (au)      (au)      (au)
-----------------------------------------------------------------------------
   0   11170.8    895.2   0.555677785  16.37630  -2.43874   3.04444  -1.07714
   1   12681.4    788.6   0.202097975   5.24650   1.34216  -1.67914   0.79095
   2   13156.8    760.1   0.094463300   2.36367  -1.06295   1.10525  -0.11061
   3   19940.8    501.5   1.538949381  25.40724  -3.02610   3.56436  -1.88289
   4   20204.1    494.9   0.184148588   3.00057  -1.11823   1.24781  -0.43944
   5   21176.8    472.2   0.212363456   3.30137   1.11771  -1.42839  -0.10870
   6   22374.0    446.9   0.253967917   3.73690   1.20082  -1.17054   0.96164
   7   22666.6    441.2   0.246661144   3.58254   1.17103  -1.41697   0.45101
   8   25685.4    389.3   0.197834972   2.53567   0.91964  -1.26455   0.30141
   9   26686.6    374.7   0.027196109   0.33550  -0.13990   0.56173   0.01967
  10   27146.2    368.4   0.237671496   2.88233   0.96255  -1.39851   0.00016
  11   27339.8    365.8   0.183870893   2.21408  -0.75446   1.27429   0.14515
  12   27694.2    361.1   0.036948560   0.43922   0.18533   0.09802  -0.62870
  13   28281.6    353.6   0.038716442   0.45068  -0.21655   0.58822   0.24038
  14   28714.4    348.3   0.046584467   0.53409  -0.03286   0.36455  -0.63255
  15   28912.5    345.9   0.018580518   0.21157   0.24920  -0.38650   0.00939
  16   29410.7    340.0   0.032797390   0.36712   0.59520  -0.07890   0.08142
  17   29745.5    336.2   0.004241026   0.04694  -0.12432  -0.16823  -0.05639
  18   30213.2    331.0   0.171829483   1.87231   0.77041  -1.00775   0.51306
  19   30365.5    329.3   0.254411341   2.75823   1.00085  -1.17697   0.60931
  20   30940.7    323.2   0.631666164   6.72098  -0.87931  -1.18089   2.13384
  21   31198.7    320.5   0.012645518   0.13344  -0.23823   0.02244  -0.27601
  22   31250.4    320.0   0.156632125   1.65007  -0.77535   0.93472   0.41857
  23   31621.0    316.2   0.067741391   0.70527  -0.41812   0.33349   0.64748
  24   31800.2    314.5   1.091710216  11.30194   1.65372   0.24519  -2.91668
  25   32299.2    309.6   0.135847965   1.38464  -0.64033   0.43144   0.88796
  26   32640.5    306.4   0.062543181   0.63081  -0.23593   0.12659   0.74774
  27   32987.2    303.1   0.088926312   0.88748   0.27493   0.09157  -0.89639
  28   33052.6    302.5   0.020445232   0.20364  -0.23029   0.37305   0.10694
  29   33076.3    302.3   0.128256478   1.27655   0.22544  -0.92231   0.61243
  30   33161.3    301.6   0.042442855   0.42136  -0.37394   0.18218  -0.49833
  31   33258.1    300.7   0.062906485   0.62269   0.52619  -0.58306  -0.07656
  32   33375.4    299.6   0.021765289   0.21469   0.07355  -0.36212   0.27955
  33   33551.9    298.0   0.093080890   0.91331  -0.38592   0.85902  -0.16270
  34   33706.8    296.7   0.201946544   1.97239  -0.96051   1.00833   0.18191
  35   34169.3    292.7   0.028337700   0.27303   0.10154   0.27828  -0.43044
  36   34294.0    291.6   0.056869517   0.54593  -0.35995   0.63985  -0.08343
  37   34499.6    289.9   0.032750031   0.31252  -0.46780   0.22957   0.20244
  38   34583.7    289.2   0.144962158   1.37994  -0.71465   0.91064  -0.19984
  39   34677.2    288.4   0.068364928   0.64903  -0.35423   0.72315  -0.02470
  40   34895.5    286.6   0.193346337   1.82407  -0.70485   0.10775   1.14702
  41   35197.5    284.1   0.039614214   0.37052  -0.45943   0.39273  -0.07220
  42   35475.6    281.9   0.038771670   0.35980  -0.31538  -0.00946   0.51014
  43   35659.8    280.4   0.137550749   1.26987   0.56746  -0.38125  -0.89583
  44   35726.9    279.9   0.006630724   0.06110  -0.01723   0.22389  -0.10332
  45   36041.9    277.5   0.149573652   1.36623  -0.40607   0.57718   0.93177
  46   36149.8    276.6   0.169618332   1.54469   0.57944  -0.36073  -1.03866
  47   36430.2    274.5   0.266409576   2.40749   0.36039  -1.41208   0.53257
  48   36477.5    274.1   0.151411788   1.36650   0.44187  -0.77589  -0.75448
  49   36532.2    273.7   0.051923853   0.46791   0.01672   0.66172   0.17251
  50   36942.2    270.7   0.007933879   0.07070   0.03030  -0.23928   0.11193
  51   37293.2    268.1   0.082551022   0.72873  -0.22068  -0.09900   0.81868
  52   37455.6    267.0   0.234322369   2.05955   0.20700   0.29034  -1.39011
  53   37684.8    265.4   0.038666256   0.33779   0.15157  -0.45344   0.33046
  54   37827.1    264.4   0.216809915   1.88691   0.47092  -1.00671  -0.80727
  55   37949.2    263.5   0.051933709   0.45053   0.11468  -0.48660   0.44789
  56   38251.8    261.4   0.035437188   0.30499   0.19869  -0.08832   0.50765
  57   38667.6    258.6   0.001323087   0.01126   0.08800   0.03978   0.04403
  58   38948.0    256.8   0.008462985   0.07153   0.11044  -0.10627  -0.21919
  59   39147.0    255.4   0.003417756   0.02874   0.09884  -0.11432   0.07684
  60   39181.5    255.2   0.005178356   0.04351  -0.16367   0.11740   0.05423
  61   39405.4    253.8   0.003966311   0.03314   0.05720  -0.16832   0.03914
  62   39831.0    251.1   0.011877999   0.09817   0.11488  -0.28284   0.07057
  63   39942.4    250.4   0.038204802   0.31489  -0.12863   0.28509  -0.46591

FINAL SINGLE POINT ENERGY     -5611.511664090710

DIPOLE MOMENT
-------------
                                X             Y             Z
Electronic contribution:     20.11073       2.90599     -34.35996
Nuclear contribution   :    -20.16509      -4.36638      35.09273
                        -----------------------------------------
Total Dipole Moment    :     -0.05435      -1.46040       0.73277
                        -----------------------------------------
Magnitude (a.u.)       :      1.63483
Magnitude (Debye)      :      4.15540

Rotational constants in cm-1:     0.002237     0.000122     0.000117
Rotational constants in MHz :    67.062374     3.670893     3.503778

                             ****ORCA TERMINATED NORMALLY****
TOTAL RUN TIME: 0 days 0 hours 10 minutes 45 seconds 92 msec
