                         Program Version 4.2.0 -  RELEASE  -
|  1> # ORCA input file
|  2> # SCF done       -205.376821533811          0.000935199627
|  3> ! CAM-B3LYP def2-SVP def2/J RIJCOSX Grid4 TightSCF
|  4> %maxcore 5000
|  5> %tddft
|  6>     Mode sTDDFT
|  7>     Ethresh 5.0
|  8>     maxcore 5000
|  9> end
| 10>
| 11> %pal
| 12>   nprocs 6
| 13>   end
| 14> * xyz 0 1
| 15>    C       -2.92706        -1.67356         3.79088
| 16>    C       -3.38984        -2.55378         4.86859
| 17>    O       -3.86306        -3.67137         4.76118
| 18>    C       -3.15661        -1.81892         6.12562
| 19>    C       -2.62315        -0.55145         5.83057
| 20>    C       -2.50295        -0.41493         4.38076
| 21>    C       -2.10070         0.71674         3.72288
| 22>    C       -1.71401         1.91063         4.36973
| 23>    N       -1.38700         2.90869         4.83224
| 24>    C       -2.03556         0.87424         2.32165
| 25>    N       -1.96656         1.08396         1.19484
| 26>    C       -2.31169         0.31255         6.87070
| 27>    C       -2.53801        -0.10061         8.17480
| 28>    C       -3.07028        -1.35682         8.44605
| 29>    C       -3.38886        -2.23841         7.41897
| 30>   Cl       -3.33552        -1.82757        10.08050
| 31>    C       -2.83902        -2.01531         2.46600
| 32>    C       -3.20308        -3.20070         1.80841
| 33>    C       -2.95235        -3.39264         0.44377
| 34>    C       -3.38286        -4.62564        -0.00559
| 35>    C       -3.99281        -5.38595         1.02188
| 36>    S       -4.00481        -4.59689         2.52986
| 37>    C       -4.39004        -6.62630         0.46722
| 38>    C       -4.03234        -6.65894        -0.89297
| 39>    C       -3.39049        -5.40004        -1.23694
| 40>    C       -2.89480        -5.03549        -2.45355
| 41>    C       -2.96371        -5.89144        -3.57331
| 42>    N       -3.02195        -6.59053        -4.48017
| 43>    C       -2.27664        -3.78566        -2.67249
| 44>    N       -1.76761        -2.77495        -2.85462
| 45>    C       -4.37116        -7.85837        -1.51617
| 46>    C       -4.99028        -8.73562        -0.64274
| 47>    S       -5.15704        -8.06704         0.97313
| 48>    C       -5.44950       -10.04766        -0.92128
| 49>    C       -6.13924       -10.89729        -0.07497
| 50>    C       -6.40784       -12.12571        -0.67661
| 51>    C       -5.91159       -12.21219        -1.98933
| 52>    S       -5.13008       -10.77900        -2.48800
| 53>    C       -6.20907       -13.50021        -2.50120
| 54>    C       -6.90136       -14.22558        -1.51560
| 55>    C       -7.05318       -13.38477        -0.33816
| 56>    C       -7.66539       -13.71040         0.83560
| 57>    C       -8.25828       -14.97400         1.04382
| 58>    N       -8.73372       -16.00238         1.21885
| 59>    C       -7.74491       -12.80481         1.91506
| 60>    N       -7.80821       -12.06755         2.79070
| 61>    C       -7.22174       -15.52059        -1.91964
| 62>    C       -6.77079       -15.78847        -3.19984
| 63>    S       -5.94865       -14.41161        -3.92078
| 64>    C       -6.88645       -17.00376        -3.92022
| 65>    C       -6.35581       -17.29726        -5.16472
| 66>    C       -6.63907       -18.60426        -5.55479
| 67>    C       -7.39920       -19.30862        -4.60370
| 68>    S       -7.75923       -18.36151        -3.22797
| 69>    C       -7.63052       -20.61991        -5.08694
| 70>    C       -7.00254       -20.74583        -6.34380
| 71>    C       -6.37196       -19.48289        -6.68329
| 72>    C       -5.70018       -19.18594        -7.83223
| 73>    C       -5.53628       -20.14498        -8.85446
| 74>    N       -5.40768       -20.93852        -9.67195
| 75>    C       -5.13160       -17.91544        -8.06158
| 76>    N       -4.66737       -16.88179        -8.23594
| 77>    C       -7.18368       -21.99665        -6.91691
| 78>    C       -7.95497       -22.83273        -6.12141
| 79>    S       -8.42573       -22.04723        -4.61629
| 80>    C       -8.33560       -24.17285        -6.34382
| 81>    C       -8.32669       -24.88921        -7.50266
| 82>    C       -8.35425       -26.37744        -7.41528
| 83>    O       -8.61293       -27.03777        -6.43755
| 84>    C       -7.94449       -26.84833        -8.75553
| 85>    C       -7.81582       -25.74526        -9.61975
| 86>    C       -8.20056       -24.53242        -8.90109
| 87>    C       -8.61361       -23.36963        -9.49700
| 88>    C       -8.58332       -23.14623       -10.89042
| 89>    N       -8.58447       -22.91294       -12.01351
| 90>    C       -9.20697       -22.29676        -8.80370
| 91>    N       -9.71721       -21.41073        -8.28126
| 92>    C       -7.39577       -25.94201       -10.92666
| 93>    C       -7.12493       -27.23328       -11.35206
| 94>    C       -7.27646       -28.31573       -10.49106
| 95>    C       -7.68657       -28.13738        -9.17419
| 96>   Cl       -6.94331       -29.90386       -11.06615
| 97>    H       -1.89608         1.29002         6.68970
| 98>    H       -2.29802         0.55936         8.99354
| 99>    H       -3.80072        -3.21529         7.61687
|100>    H       -2.40285        -1.28170         1.79857
|101>    H       -2.47055        -2.64419        -0.16034
|102>    H       -4.18591        -8.09689        -2.54818
|103>    H       -6.42287       -10.61957         0.92433
|104>    H       -7.74692       -16.24530        -1.32365
|105>    H       -5.78970       -16.58680        -5.74015
|106>    H       -6.74201       -22.31316        -7.84391
|107>    H       -8.61252       -24.74324        -5.46205
|108>    H       -7.26310       -25.11601       -11.60648
|109>    H       -6.79232       -27.40532       -12.36361
|110>    H       -7.80123       -28.97033        -8.49886
|111> *
|112>
|113>                          ****END OF INPUT****

CARTESIAN COORDINATES (ANGSTROEM)
---------------------------------
  C     -2.927060   -1.673560    3.790880
  C     -3.389840   -2.553780    4.868590
  O     -3.863060   -3.671370    4.761180
  C     -3.156610   -1.818920    6.125620
  C     -2.623150   -0.551450    5.830570
  C     -2.502950   -0.414930    4.380760
  C     -2.100700    0.716740    3.722880
  C     -1.714010    1.910630    4.369730
  N     -1.387000    2.908690    4.832240
  C     -2.035560    0.874240    2.321650
  N     -1.966560    1.083960    1.194840
  C     -2.311690    0.312550    6.870700
  C     -2.538010   -0.100610    8.174800
  C     -3.070280   -1.356820    8.446050
  C     -3.388860   -2.238410    7.418970
  Cl    -3.335520   -1.827570   10.080500
  C     -2.839020   -2.015310    2.466000
  C     -3.203080   -3.200700    1.808410
  C     -2.952350   -3.392640    0.443770
  C     -3.382860   -4.625640   -0.005590
  C     -3.992810   -5.385950    1.021880
  S     -4.004810   -4.596890    2.529860
  C     -4.390040   -6.626300    0.467220
  C     -4.032340   -6.658940   -0.892970
  C     -3.390490   -5.400040   -1.236940
  C     -2.894800   -5.035490   -2.453550
  C     -2.963710   -5.891440   -3.573310
  N     -3.021950   -6.590530   -4.480170
  C     -2.276640   -3.785660   -2.672490
  N     -1.767610   -2.774950   -2.854620
  C     -4.371160   -7.858370   -1.516170
  C     -4.990280   -8.735620   -0.642740
  S     -5.157040   -8.067040    0.973130
  C     -5.449500  -10.047660   -0.921280
  C     -6.139240  -10.897290   -0.074970
  C     -6.407840  -12.125710   -0.676610
  C     -5.911590  -12.212190   -1.989330
  S     -5.130080  -10.779000   -2.488000
  C     -6.209070  -13.500210   -2.501200
  C     -6.901360  -14.225580   -1.515600
  C     -7.053180  -13.384770   -0.338160
  C     -7.665390  -13.710400    0.835600
  C     -8.258280  -14.974000    1.043820
  N     -8.733720  -16.002380    1.218850
  C     -7.744910  -12.804810    1.915060
  N     -7.808210  -12.067550    2.790700
  C     -7.221740  -15.520590   -1.919640
  C     -6.770790  -15.788470   -3.199840
  S     -5.948650  -14.411610   -3.920780
  C     -6.886450  -17.003760   -3.920220
  C     -6.355810  -17.297260   -5.164720
  C     -6.639070  -18.604260   -5.554790
  C     -7.399200  -19.308620   -4.603700
  S     -7.759230  -18.361510   -3.227970
  C     -7.630520  -20.619910   -5.086940
  C     -7.002540  -20.745830   -6.343800
  C     -6.371960  -19.482890   -6.683290
  C     -5.700180  -19.185940   -7.832230
  C     -5.536280  -20.144980   -8.854460
  N     -5.407680  -20.938520   -9.671950
  C     -5.131600  -17.915440   -8.061580
  N     -4.667370  -16.881790   -8.235940
  C     -7.183680  -21.996650   -6.916910
  C     -7.954970  -22.832730   -6.121410
  S     -8.425730  -22.047230   -4.616290
  C     -8.335600  -24.172850   -6.343820
  C     -8.326690  -24.889210   -7.502660
  C     -8.354250  -26.377440   -7.415280
  O     -8.612930  -27.037770   -6.437550
  C     -7.944490  -26.848330   -8.755530
  C     -7.815820  -25.745260   -9.619750
  C     -8.200560  -24.532420   -8.901090
  C     -8.613610  -23.369630   -9.497000
  C     -8.583320  -23.146230  -10.890420
  N     -8.584470  -22.912940  -12.013510
  C     -9.206970  -22.296760   -8.803700
  N     -9.717210  -21.410730   -8.281260
  C     -7.395770  -25.942010  -10.926660
  C     -7.124930  -27.233280  -11.352060
  C     -7.276460  -28.315730  -10.491060
  C     -7.686570  -28.137380   -9.174190
  Cl    -6.943310  -29.903860  -11.066150
  H     -1.896080    1.290020    6.689700
  H     -2.298020    0.559360    8.993540
  H     -3.800720   -3.215290    7.616870
  H     -2.402850   -1.281700    1.798570
  H     -2.470550   -2.644190   -0.160340
  H     -4.185910   -8.096890   -2.548180
  H     -6.422870  -10.619570    0.924330
  H     -7.746920  -16.245300   -1.323650
  H     -5.789700  -16.586800   -5.740150
  H     -6.742010  -22.313160   -7.843910
  H     -8.612520  -24.743240   -5.462050
  H     -7.263100  -25.116010  -11.606480
  H     -6.792320  -27.405320  -12.363610
  H     -7.801230  -28.970330   -8.498860

 Total Charge           Charge          ....    0
 Multiplicity           Mult            ....    1
 Number of Electrons    NEL             ....  602
 Basis Dimension        Dim             .... 1250

ORBITAL ENERGIES
----------------

  NO   OCC          E(Eh)            E(eV)
   0   2.0000    -101.601716     -2764.7233
   1   2.0000    -101.599023     -2764.6500
   2   2.0000     -89.006373     -2421.9865
   3   2.0000     -89.006203     -2421.9819
   4   2.0000     -89.005696     -2421.9681
   5   2.0000     -89.004755     -2421.9425
   6   2.0000     -89.003773     -2421.9158
   7   2.0000     -88.997884     -2421.7555
   8   2.0000     -19.236070      -523.4401
   9   2.0000     -19.225382      -523.1492
  10   2.0000     -14.443806      -393.0359
  11   2.0000     -14.443705      -393.0332
  12   2.0000     -14.440978      -392.9590
  13   2.0000     -14.440919      -392.9574
  14   2.0000     -14.440042      -392.9335
  15   2.0000     -14.437892      -392.8750
  16   2.0000     -14.424814      -392.5191
  17   2.0000     -14.424349      -392.5065
  18   2.0000     -14.421127      -392.4188
  19   2.0000     -14.419445      -392.3730
  20   2.0000     -10.383522      -282.5500
  21   2.0000     -10.379415      -282.4382
  22   2.0000     -10.376647      -282.3629
  23   2.0000     -10.376193      -282.3506
  24   2.0000     -10.375094      -282.3207
  25   2.0000     -10.366100      -282.0759
  26   2.0000     -10.363442      -282.0036
  27   2.0000     -10.362798      -281.9861
  28   2.0000     -10.355527      -281.7882
  29   2.0000     -10.352822      -281.7146
  30   2.0000     -10.351852      -281.6882
  31   2.0000     -10.351769      -281.6859
  32   2.0000     -10.351376      -281.6753
  33   2.0000     -10.350606      -281.6543
  34   2.0000     -10.350334      -281.6469
  35   2.0000     -10.348206      -281.5890
  36   2.0000     -10.347981      -281.5829
  37   2.0000     -10.347645      -281.5737
  38   2.0000     -10.347110      -281.5592
  39   2.0000     -10.345641      -281.5192
  40   2.0000     -10.344890      -281.4988
  41   2.0000     -10.344644      -281.4921
  42   2.0000     -10.343813      -281.4695
  43   2.0000     -10.343806      -281.4693
  44   2.0000     -10.343657      -281.4652
  45   2.0000     -10.343200      -281.4528
  46   2.0000     -10.340968      -281.3920
  47   2.0000     -10.340898      -281.3901
  48   2.0000     -10.340155      -281.3699
  49   2.0000     -10.337407      -281.2951
  50   2.0000     -10.335470      -281.2424
  51   2.0000     -10.334810      -281.2245
  52   2.0000     -10.334370      -281.2125
  53   2.0000     -10.332237      -281.1545
  54   2.0000     -10.326484      -280.9979
  55   2.0000     -10.325878      -280.9814
  56   2.0000     -10.323830      -280.9257
  57   2.0000     -10.321619      -280.8655
  58   2.0000     -10.321586      -280.8646
  59   2.0000     -10.321217      -280.8546
  60   2.0000     -10.320779      -280.8427
  61   2.0000     -10.320345      -280.8309
  62   2.0000     -10.318974      -280.7936
  63   2.0000     -10.318917      -280.7920
  64   2.0000     -10.318381      -280.7774
  65   2.0000     -10.318031      -280.7679
  66   2.0000     -10.316881      -280.7366
  67   2.0000     -10.316871      -280.7363
  68   2.0000     -10.316531      -280.7271
  69   2.0000     -10.315298      -280.6935
  70   2.0000     -10.315284      -280.6931
  71   2.0000     -10.313588      -280.6470
  72   2.0000     -10.310701      -280.5684
  73   2.0000     -10.309051      -280.5235
  74   2.0000     -10.308615      -280.5117
  75   2.0000     -10.307912      -280.4925
  76   2.0000     -10.307765      -280.4885
  77   2.0000     -10.307686      -280.4864
  78   2.0000     -10.307071      -280.4697
  79   2.0000     -10.307030      -280.4685
  80   2.0000     -10.306612      -280.4572
  81   2.0000     -10.304807      -280.4081
  82   2.0000      -9.556841      -260.0549
  83   2.0000      -9.554137      -259.9813
  84   2.0000      -8.100752      -220.4327
  85   2.0000      -8.100567      -220.4276
  86   2.0000      -8.100110      -220.4152
  87   2.0000      -8.099233      -220.3913
  88   2.0000      -8.098459      -220.3703
  89   2.0000      -8.090294      -220.1481
  90   2.0000      -7.327038      -199.3788
  91   2.0000      -7.324321      -199.3049
  92   2.0000      -7.317108      -199.1086
  93   2.0000      -7.316574      -199.0941
  94   2.0000      -7.314405      -199.0351
  95   2.0000      -7.313892      -199.0211
  96   2.0000      -6.070032      -165.1740
  97   2.0000      -6.069872      -165.1696
  98   2.0000      -6.069417      -165.1572
  99   2.0000      -6.068520      -165.1328
 100   2.0000      -6.067606      -165.1079
 101   2.0000      -6.065859      -165.0604
 102   2.0000      -6.065677      -165.0555
 103   2.0000      -6.065236      -165.0435
 104   2.0000      -6.064340      -165.0191
 105   2.0000      -6.063455      -164.9950
 106   2.0000      -6.063036      -164.9836
 107   2.0000      -6.062856      -164.9787
 108   2.0000      -6.062351      -164.9649
 109   2.0000      -6.061496      -164.9417
 110   2.0000      -6.060966      -164.9273
 111   2.0000      -6.059724      -164.8935
 112   2.0000      -6.054937      -164.7632
 113   2.0000      -6.052827      -164.7058
 114   2.0000      -1.151712       -31.3397
 115   2.0000      -1.141099       -31.0509
 116   2.0000      -1.061668       -28.8895
 117   2.0000      -1.058675       -28.8080
 118   2.0000      -1.056117       -28.7384
 119   2.0000      -1.035965       -28.1900
 120   2.0000      -1.033129       -28.1129
 121   2.0000      -1.031384       -28.0654
 122   2.0000      -1.028723       -27.9930
 123   2.0000      -1.028168       -27.9779
 124   2.0000      -1.022678       -27.8285
 125   2.0000      -1.020728       -27.7754
 126   2.0000      -1.018453       -27.7135
 127   2.0000      -1.016428       -27.6584
 128   2.0000      -1.013905       -27.5897
 129   2.0000      -1.012887       -27.5621
 130   2.0000      -1.011386       -27.5212
 131   2.0000      -1.003154       -27.2972
 132   2.0000      -1.001108       -27.2415
 133   2.0000      -0.999566       -27.1996
 134   2.0000      -0.990538       -26.9539
 135   2.0000      -0.988260       -26.8919
 136   2.0000      -0.978055       -26.6142
 137   2.0000      -0.970143       -26.3989
 138   2.0000      -0.966571       -26.3017
 139   2.0000      -0.942116       -25.6363
 140   2.0000      -0.940913       -25.6036
 141   2.0000      -0.934665       -25.4335
 142   2.0000      -0.928237       -25.2586
 143   2.0000      -0.920148       -25.0385
 144   2.0000      -0.909540       -24.7498
 145   2.0000      -0.907357       -24.6905
 146   2.0000      -0.890886       -24.2423
 147   2.0000      -0.889408       -24.2020
 148   2.0000      -0.884901       -24.0794
 149   2.0000      -0.883505       -24.0414
 150   2.0000      -0.876449       -23.8494
 151   2.0000      -0.875094       -23.8125
 152   2.0000      -0.869148       -23.6507
 153   2.0000      -0.866927       -23.5903
 154   2.0000      -0.864976       -23.5372
 155   2.0000      -0.864011       -23.5109
 156   2.0000      -0.847721       -23.0677
 157   2.0000      -0.826572       -22.4922
 158   2.0000      -0.810283       -22.0489
 159   2.0000      -0.798971       -21.7411
 160   2.0000      -0.794017       -21.6063
 161   2.0000      -0.787812       -21.4375
 162   2.0000      -0.782709       -21.2986
 163   2.0000      -0.778671       -21.1887
 164   2.0000      -0.774882       -21.0856
 165   2.0000      -0.768573       -20.9139
 166   2.0000      -0.750628       -20.4256
 167   2.0000      -0.732503       -19.9324
 168   2.0000      -0.721668       -19.6376
 169   2.0000      -0.717275       -19.5181
 170   2.0000      -0.711540       -19.3620
 171   2.0000      -0.708734       -19.2856
 172   2.0000      -0.707015       -19.2389
 173   2.0000      -0.702777       -19.1235
 174   2.0000      -0.701940       -19.1008
 175   2.0000      -0.696046       -18.9404
 176   2.0000      -0.695380       -18.9222
 177   2.0000      -0.691002       -18.8031
 178   2.0000      -0.686966       -18.6933
 179   2.0000      -0.685382       -18.6502
 180   2.0000      -0.665911       -18.1204
 181   2.0000      -0.661749       -18.0071
 182   2.0000      -0.650227       -17.6936
 183   2.0000      -0.647170       -17.6104
 184   2.0000      -0.643149       -17.5010
 185   2.0000      -0.640778       -17.4365
 186   2.0000      -0.635706       -17.2984
 187   2.0000      -0.633562       -17.2401
 188   2.0000      -0.631841       -17.1933
 189   2.0000      -0.630530       -17.1576
 190   2.0000      -0.624277       -16.9874
 191   2.0000      -0.623287       -16.9605
 192   2.0000      -0.621865       -16.9218
 193   2.0000      -0.615745       -16.7553
 194   2.0000      -0.599914       -16.3245
 195   2.0000      -0.594735       -16.1836
 196   2.0000      -0.591398       -16.0928
 197   2.0000      -0.585765       -15.9395
 198   2.0000      -0.579486       -15.7686
 199   2.0000      -0.568049       -15.4574
 200   2.0000      -0.565362       -15.3843
 201   2.0000      -0.564562       -15.3625
 202   2.0000      -0.561557       -15.2808
 203   2.0000      -0.560011       -15.2387
 204   2.0000      -0.558539       -15.1986
 205   2.0000      -0.553159       -15.0522
 206   2.0000      -0.551532       -15.0079
 207   2.0000      -0.551061       -14.9951
 208   2.0000      -0.547822       -14.9070
 209   2.0000      -0.545406       -14.8412
 210   2.0000      -0.543447       -14.7880
 211   2.0000      -0.540052       -14.6956
 212   2.0000      -0.537076       -14.6146
 213   2.0000      -0.535130       -14.5616
 214   2.0000      -0.527920       -14.3654
 215   2.0000      -0.527332       -14.3494
 216   2.0000      -0.522960       -14.2305
 217   2.0000      -0.522196       -14.2097
 218   2.0000      -0.521148       -14.1812
 219   2.0000      -0.516625       -14.0581
 220   2.0000      -0.516131       -14.0446
 221   2.0000      -0.515498       -14.0274
 222   2.0000      -0.512603       -13.9486
 223   2.0000      -0.511723       -13.9247
 224   2.0000      -0.507247       -13.8029
 225   2.0000      -0.506390       -13.7796
 226   2.0000      -0.504591       -13.7306
 227   2.0000      -0.504540       -13.7292
 228   2.0000      -0.501800       -13.6547
 229   2.0000      -0.500351       -13.6152
 230   2.0000      -0.496617       -13.5136
 231   2.0000      -0.494479       -13.4555
 232   2.0000      -0.492922       -13.4131
 233   2.0000      -0.491510       -13.3747
 234   2.0000      -0.488543       -13.2939
 235   2.0000      -0.485416       -13.2089
 236   2.0000      -0.481768       -13.1096
 237   2.0000      -0.478850       -13.0302
 238   2.0000      -0.474299       -12.9063
 239   2.0000      -0.473904       -12.8956
 240   2.0000      -0.471699       -12.8356
 241   2.0000      -0.471141       -12.8204
 242   2.0000      -0.470771       -12.8103
 243   2.0000      -0.469658       -12.7801
 244   2.0000      -0.468483       -12.7481
 245   2.0000      -0.467841       -12.7306
 246   2.0000      -0.465059       -12.6549
 247   2.0000      -0.464838       -12.6489
 248   2.0000      -0.461357       -12.5541
 249   2.0000      -0.456866       -12.4320
 250   2.0000      -0.456328       -12.4173
 251   2.0000      -0.455480       -12.3942
 252   2.0000      -0.454592       -12.3701
 253   2.0000      -0.453704       -12.3459
 254   2.0000      -0.453242       -12.3333
 255   2.0000      -0.451362       -12.2822
 256   2.0000      -0.450781       -12.2664
 257   2.0000      -0.450274       -12.2526
 258   2.0000      -0.449739       -12.2380
 259   2.0000      -0.448790       -12.2122
 260   2.0000      -0.448601       -12.2070
 261   2.0000      -0.447369       -12.1735
 262   2.0000      -0.446853       -12.1595
 263   2.0000      -0.443962       -12.0808
 264   2.0000      -0.442744       -12.0477
 265   2.0000      -0.439484       -11.9590
 266   2.0000      -0.438580       -11.9344
 267   2.0000      -0.437181       -11.8963
 268   2.0000      -0.436632       -11.8814
 269   2.0000      -0.435354       -11.8466
 270   2.0000      -0.433519       -11.7966
 271   2.0000      -0.432532       -11.7698
 272   2.0000      -0.429444       -11.6858
 273   2.0000      -0.426032       -11.5929
 274   2.0000      -0.422224       -11.4893
 275   2.0000      -0.417847       -11.3702
 276   2.0000      -0.415056       -11.2943
 277   2.0000      -0.412549       -11.2260
 278   2.0000      -0.408814       -11.1244
 279   2.0000      -0.402849       -10.9621
 280   2.0000      -0.398899       -10.8546
 281   2.0000      -0.396628       -10.7928
 282   2.0000      -0.390359       -10.6222
 283   2.0000      -0.378252       -10.2928
 284   2.0000      -0.366770        -9.9803
 285   2.0000      -0.363913        -9.9026
 286   2.0000      -0.361962        -9.8495
 287   2.0000      -0.359077        -9.7710
 288   2.0000      -0.357352        -9.7240
 289   2.0000      -0.355685        -9.6787
 290   2.0000      -0.351146        -9.5552
 291   2.0000      -0.347069        -9.4442
 292   2.0000      -0.341743        -9.2993
 293   2.0000      -0.335027        -9.1166
 294   2.0000      -0.333834        -9.0841
 295   2.0000      -0.330163        -8.9842
 296   2.0000      -0.318372        -8.6633
 297   2.0000      -0.315142        -8.5755
 298   2.0000      -0.304490        -8.2856
 299   2.0000      -0.277578        -7.5533
 300   2.0000      -0.252707        -6.8765
 301   0.0000      -0.125909        -3.4262
 302   0.0000      -0.118154        -3.2151
 303   0.0000      -0.115267        -3.1366
 304   0.0000      -0.093856        -2.5539
 305   0.0000      -0.093444        -2.5427

MULLIKEN ATOMIC CHARGES
-----------------------
   0 C :   -0.093328
   1 C :    0.168308
   2 O :   -0.184653
   3 C :   -0.027815
   4 C :    0.029549
   5 C :    0.318449
   6 C :   -0.345461
   7 C :   -0.189902
   8 N :    0.160987
   9 C :   -0.195963
  10 N :    0.158856
  11 C :   -0.027125
  12 C :    0.049151
  13 C :    0.071308
  14 C :   -0.008112
  15 Cl:   -0.065497
  16 C :   -0.027398
  17 C :   -0.054314
  18 C :   -0.060100
  19 C :    0.046284
  20 C :   -0.065808
  21 S :    0.246478
  22 C :   -0.107306
  23 C :    0.025130
  24 C :    0.302295
  25 C :   -0.294760
  26 C :   -0.184868
  27 N :    0.173521
  28 C :   -0.195537
  29 N :    0.190114
  30 C :   -0.069193
  31 C :   -0.043075
  32 S :    0.207768
  33 C :   -0.055888
  34 C :   -0.059826
  35 C :    0.013776
  36 C :   -0.096449
  37 S :    0.206320
  38 C :   -0.096212
  39 C :    0.021086
  40 C :    0.298230
  41 C :   -0.295090
  42 C :   -0.189440
  43 N :    0.179785
  44 C :   -0.184503
  45 N :    0.178011
  46 C :   -0.067499
  47 C :   -0.051089
  48 S :    0.205597
  49 C :   -0.044527
  50 C :   -0.070928
  51 C :    0.029248
  52 C :   -0.105114
  53 S :    0.205036
  54 C :   -0.069869
  55 C :   -0.007655
  56 C :    0.301668
  57 C :   -0.286160
  58 C :   -0.180388
  59 N :    0.173646
  60 C :   -0.189198
  61 N :    0.179113
  62 C :    0.000226
  63 C :   -0.112104
  64 S :    0.218692
  65 C :    0.086089
  66 C :   -0.139371
  67 C :    0.136845
  68 O :   -0.137247
  69 C :   -0.009365
  70 C :    0.015183
  71 C :    0.264565
  72 C :   -0.327290
  73 C :   -0.173658
  74 N :    0.165132
  75 C :   -0.202417
  76 N :    0.169922
  77 C :   -0.026493
  78 C :    0.050778
  79 C :    0.067909
  80 C :   -0.011262
  81 Cl:   -0.066484
  82 H :    0.009042
  83 H :    0.001161
  84 H :   -0.003177
  85 H :    0.019677
  86 H :    0.028948
  87 H :    0.014958
  88 H :    0.014567
  89 H :    0.014229
  90 H :    0.015059
  91 H :    0.026281
  92 H :    0.021511
  93 H :    0.016962
  94 H :    0.001950
  95 H :   -0.000483
Sum of atomic charges:   -0.0000000

LOEWDIN ATOMIC CHARGES
----------------------
   0 C :   -0.112880
   1 C :    0.087184
   2 O :   -0.168482
   3 C :   -0.038250
   4 C :   -0.017369
   5 C :    0.075238
   6 C :   -0.135885
   7 C :   -0.019256
   8 N :   -0.047366
   9 C :   -0.023365
  10 N :   -0.043754
  11 C :    0.010167
  12 C :   -0.016852
  13 C :   -0.106171
  14 C :   -0.004904
  15 Cl:    0.146147
  16 C :    0.057150
  17 C :   -0.184818
  18 C :    0.013762
  19 C :   -0.078829
  20 C :   -0.165202
  21 S :    0.549186
  22 C :   -0.187735
  23 C :   -0.051453
  24 C :    0.077459
  25 C :   -0.097590
  26 C :   -0.015802
  27 N :   -0.030600
  28 C :   -0.020337
  29 N :   -0.020404
  30 C :   -0.041700
  31 C :   -0.168241
  32 S :    0.492231
  33 C :   -0.182027
  34 C :   -0.032637
  35 C :   -0.067100
  36 C :   -0.176772
  37 S :    0.492753
  38 C :   -0.178443
  39 C :   -0.066149
  40 C :    0.080993
  41 C :   -0.097052
  42 C :   -0.016544
  43 N :   -0.028082
  44 C :   -0.016409
  45 N :   -0.027966
  46 C :   -0.034628
  47 C :   -0.179884
  48 S :    0.492469
  49 C :   -0.171345
  50 C :   -0.038855
  51 C :   -0.053864
  52 C :   -0.184974
  53 S :    0.491634
  54 C :   -0.158138
  55 C :   -0.067356
  56 C :    0.081819
  57 C :   -0.094640
  58 C :   -0.012973
  59 N :   -0.028409
  60 C :   -0.016390
  61 N :   -0.027856
  62 C :    0.011107
  63 C :   -0.182274
  64 S :    0.502558
  65 C :    0.042963
  66 C :   -0.092905
  67 C :    0.084826
  68 O :   -0.136000
  69 C :   -0.040341
  70 C :   -0.015499
  71 C :    0.064740
  72 C :   -0.134238
  73 C :   -0.020180
  74 N :   -0.041550
  75 C :   -0.015531
  76 N :   -0.044188
  77 C :    0.009171
  78 C :   -0.015533
  79 C :   -0.106682
  80 C :   -0.004445
  81 Cl:    0.145234
  82 H :    0.043525
  83 H :    0.040452
  84 H :    0.043375
  85 H :    0.054308
  86 H :    0.048496
  87 H :    0.036751
  88 H :    0.037068
  89 H :    0.036724
  90 H :    0.036922
  91 H :    0.042827
  92 H :    0.046393
  93 H :    0.044892
  94 H :    0.040505
  95 H :    0.044071

  Mayer bond orders larger than 0.100000
B(  0-C ,  1-C ) :   0.9883 B(  0-C ,  5-C ) :   1.0708 B(  0-C , 16-C ) :   1.4969
B(  1-C ,  2-O ) :   2.1149 B(  1-C ,  3-C ) :   0.9600 B(  3-C ,  4-C ) :   1.3314
B(  3-C , 14-C ) :   1.3642 B(  4-C ,  5-C ) :   0.9907 B(  4-C , 11-C ) :   1.3679
B(  5-C ,  6-C ) :   1.6376 B(  6-C ,  7-C ) :   1.1437 B(  6-C ,  9-C ) :   1.1418
B(  7-C ,  8-N ) :   2.9770 B(  9-C , 10-N ) :   2.9694 B( 11-C , 12-C ) :   1.3715
B( 11-C , 82-H ) :   0.9814 B( 12-C , 13-C ) :   1.3824 B( 12-C , 83-H ) :   0.9877
B( 13-C , 14-C ) :   1.3306 B( 13-C , 15-Cl) :   0.9900 B( 14-C , 84-H ) :   1.0110
B( 16-C , 17-C ) :   1.2689 B( 16-C , 85-H ) :   0.9404 B( 17-C , 18-C ) :   1.3284
B( 17-C , 21-S ) :   1.0685 B( 18-C , 19-C ) :   1.3341 B( 18-C , 86-H ) :   1.0082
B( 19-C , 20-C ) :   1.3509 B( 19-C , 24-C ) :   0.9874 B( 20-C , 21-S ) :   1.1318
B( 20-C , 22-C ) :   1.2047 B( 22-C , 23-C ) :   1.4364 B( 22-C , 32-S ) :   1.1106
B( 23-C , 24-C ) :   0.9953 B( 23-C , 30-C ) :   1.3056 B( 24-C , 25-C ) :   1.7192
B( 25-C , 26-C ) :   1.1318 B( 25-C , 28-C ) :   1.1366 B( 26-C , 27-N ) :   2.9893
B( 28-C , 29-N ) :   2.9957 B( 30-C , 31-C ) :   1.4470 B( 30-C , 87-H ) :   0.9868
B( 31-C , 32-S ) :   1.1214 B( 31-C , 33-C ) :   1.1711 B( 33-C , 34-C ) :   1.4539
B( 33-C , 37-S ) :   1.1085 B( 34-C , 35-C ) :   1.3044 B( 34-C , 88-H ) :   0.9867
B( 35-C , 36-C ) :   1.4441 B( 35-C , 40-C ) :   0.9937 B( 36-C , 37-S ) :   1.1254
B( 36-C , 38-C ) :   1.1879 B( 38-C , 39-C ) :   1.4405 B( 38-C , 48-S ) :   1.1241
B( 39-C , 40-C ) :   0.9923 B( 39-C , 46-C ) :   1.3067 B( 40-C , 41-C ) :   1.7207
B( 41-C , 42-C ) :   1.1357 B( 41-C , 44-C ) :   1.1304 B( 42-C , 43-N ) :   2.9915
B( 44-C , 45-N ) :   2.9930 B( 46-C , 47-C ) :   1.4554 B( 46-C , 89-H ) :   0.9859
B( 47-C , 48-S ) :   1.1093 B( 47-C , 49-C ) :   1.1699 B( 49-C , 50-C ) :   1.4488
B( 49-C , 53-S ) :   1.1191 B( 50-C , 51-C ) :   1.3107 B( 50-C , 90-H ) :   0.9863
B( 51-C , 52-C ) :   1.4407 B( 51-C , 56-C ) :   0.9900 B( 52-C , 53-S ) :   1.1125
B( 52-C , 54-C ) :   1.1963 B( 54-C , 55-C ) :   1.4091 B( 54-C , 64-S ) :   1.1574
B( 55-C , 56-C ) :   1.0000 B( 55-C , 62-C ) :   1.3618 B( 56-C , 57-C ) :   1.7231
B( 57-C , 58-C ) :   1.1311 B( 57-C , 60-C ) :   1.1338 B( 58-C , 59-N ) :   2.9836
B( 60-C , 61-N ) :   2.9916 B( 62-C , 63-C ) :   1.3918 B( 62-C , 91-H ) :   0.9783
B( 63-C , 64-S ) :   1.0879 B( 63-C , 65-C ) :   1.1419 B( 65-C , 66-C ) :   1.6695
B( 65-C , 92-H ) :   0.9273 B( 66-C , 67-C ) :   0.9480 B( 66-C , 71-C ) :   1.0358
B( 67-C , 68-O ) :   2.2665 B( 67-C , 69-C ) :   0.9178 B( 69-C , 70-C ) :   1.3346
B( 69-C , 80-C ) :   1.3707 B( 70-C , 71-C ) :   1.0047 B( 70-C , 77-C ) :   1.3656
B( 71-C , 72-C ) :   1.6529 B( 72-C , 73-C ) :   1.1245 B( 72-C , 75-C ) :   1.1723
B( 73-C , 74-N ) :   2.9993 B( 75-C , 76-N ) :   2.9962 B( 77-C , 78-C ) :   1.3718
B( 77-C , 93-H ) :   0.9861 B( 78-C , 79-C ) :   1.3840 B( 78-C , 94-H ) :   0.9879
B( 79-C , 80-C ) :   1.3338 B( 79-C , 81-Cl) :   0.9906 B( 80-C , 95-H ) :   1.0114

-----------------------------------------------------------------------------
         ABSORPTION SPECTRUM VIA TRANSITION ELECTRIC DIPOLE MOMENTS
-----------------------------------------------------------------------------
State   Energy  Wavelength   fosc         T2         TX        TY        TZ
        (cm-1)    (nm)                  (au**2)     (au)      (au)      (au)
-----------------------------------------------------------------------------
   0   11287.9    885.9   0.617376173  18.00581   0.85279   3.73361   1.82721
   1   12764.3    783.4   0.175461303   4.52543  -0.35372  -1.82082  -1.04160
   2   13496.7    740.9   0.146333064   3.56937  -0.53850  -1.61962  -0.81007
   3   19633.5    509.3   1.714734287  28.75240  -1.12001  -4.45629  -2.76396
   4   20293.0    492.8   0.009857358   0.15992   0.14908   0.34556   0.13519
   5   20891.3    478.7   0.292746182   4.61319   0.51158   1.89642   0.86895
   6   22294.0    448.6   0.154205016   2.27712  -0.38606  -0.96727  -1.09200
   7   22840.0    437.8   0.119346838   1.72025   0.24654   1.05063   0.74541
   8   25268.5    395.7   0.193680258   2.52337   0.25198   1.36214   0.77747
   9   26007.0    384.5   0.100500948   1.27220  -0.17607  -1.10739  -0.12204
  10   26867.8    372.2   0.027870479   0.34150   0.12108   0.53472   0.20226
  11   27171.8    368.0   0.223029359   2.70221  -0.04561   1.63203   0.19135
  12   28102.0    355.8   0.040596462   0.47558   0.01715  -0.68822  -0.04055
  13   28131.1    355.5   0.024965967   0.29217   0.09251  -0.46863   0.25298
  14   28626.1    349.3   0.028975377   0.33323   0.07243  -0.57248  -0.01590
  15   29260.6    341.8   0.028612092   0.32192   0.36261   0.41527   0.13408
  16   29374.8    340.4   0.007480695   0.08384  -0.03791  -0.15422   0.24211
  17   29758.8    336.0   0.325364352   3.59940   0.41964   1.79470   0.44984
  18   30019.9    333.1   0.200194573   2.19542   0.05814   0.58047   1.36202
  19   30135.0    331.8   0.017977252   0.19639  -0.01980   0.23028   0.37812
  20   30768.6    325.0   0.338808600   3.62512   0.63995  -0.14005  -1.78773
  21   30984.0    322.7   0.137831131   1.46449  -0.94076  -0.42284   0.63298
  22   31323.0    319.3   0.390849450   4.10792   1.02037  -0.71445  -1.59885
  23   31669.2    315.8   0.982349752  10.21184  -1.27044  -1.18462   2.68225
  24   31802.6    314.4   0.075672561   0.78334  -0.29977   0.03711   0.83193
  25   32553.7    307.2   0.003626402   0.03667   0.09540   0.05129  -0.15793
  26   32624.5    306.5   0.076378161   0.77073   0.07131  -0.25790   0.83614
  27   32819.4    304.7   0.052428988   0.52592  -0.12604   0.59104   0.40088
  28   33058.3    302.5   0.153578076   1.52941   0.61798   0.64798  -0.85301
  29   33171.4    301.5   0.165900861   1.64649  -0.00470   1.06289   0.71884
  30   33262.2    300.6   0.118214417   1.17003  -0.00355  -0.76107  -0.76862
  31   33674.8    297.0   0.136863730   1.33801   0.15865   0.49196   1.03480
  32   33822.2    295.7   0.035568063   0.34621  -0.09388  -0.45528  -0.36071
  33   34126.5    293.0   0.147207700   1.42009  -0.37083  -0.27215   1.09932
  34   34265.4    291.8   0.255474025   2.45452  -0.43962  -1.25044   0.83526
  35   34498.2    289.9   0.040644195   0.38786  -0.09426  -0.60338  -0.12209
  36   34566.1    289.3   0.303302549   2.88869  -0.37805  -1.64872   0.16583
  37   34749.1    287.8   0.115960853   1.09861  -0.32553   0.57584   0.81305
  38   34869.9    286.8   0.262538051   2.47866  -0.01131   1.47501  -0.55035
  39   34973.6    285.9   0.206745012   1.94612  -0.33646   1.12212  -0.75748
  40   35053.0    285.3   0.273966989   2.57305   0.54978  -0.20920  -1.49232
  41   35166.1    284.4   0.299261495   2.80157  -0.51131  -0.87889   1.32955
  42   35451.8    282.1   0.061095575   0.56734   0.41831   0.44100  -0.44484
  43   35915.0    278.4   0.042748452   0.39185  -0.12214   0.60370   0.11170
  44   36098.0    277.0   0.027647622   0.25215  -0.04325  -0.34753  -0.35985
  45   36390.0    274.8   0.041442272   0.37492   0.25533   0.15542  -0.53439
  46   36413.2    274.6   0.013933014   0.12597   0.02756   0.05812  -0.34904
  47   36690.5    272.6   0.045875438   0.41163  -0.22728  -0.44930   0.39761
  48   37083.0    269.7   0.021512931   0.19099   0.28884  -0.05501  -0.32331
  49   37214.3    268.7   0.091333675   0.80797  -0.02897  -0.78475   0.43738
  50   37327.5    267.9   0.049476407   0.43636  -0.14014  -0.64494   0.02772
  51   37432.1    267.2   0.082757355   0.72784   0.13644  -0.83126   0.13501
  52   37547.9    266.3   0.039658027   0.34771   0.13722   0.44576  -0.36081
  53   38186.8    261.9   0.003271235   0.02820  -0.02723   0.06191   0.15371
  54   38407.5    260.4   0.002310807   0.01981  -0.02472  -0.13249   0.04051
  55   38543.6    259.4   0.007941626   0.06783   0.06758   0.08164   0.23791
  56   39005.0    256.4   0.026136839   0.22060   0.09687   0.43263   0.15509
  57   39136.8    255.5   0.007736290   0.06508   0.09958   0.08409  -0.21929
  58   39410.7    253.7   0.007097693   0.05929   0.01825  -0.11555   0.21355
  59   39464.2    253.4   0.001433514   0.01196  -0.00781   0.09702  -0.04986
  60   39594.5    252.6   0.015147437   0.12594   0.07486   0.03907  -0.34469
  61   39936.1    250.4   0.042760971   0.35250  -0.05497  -0.04308   0.58959
  62   40128.0    249.2   0.042818681   0.35129  -0.25123  -0.53389  -0.05597

FINAL SINGLE POINT ENERGY     -6373.387831273787

DIPOLE MOMENT
-------------
                                X             Y             Z
Electronic contribution:     -2.69086      -7.09301       5.51955
Nuclear contribution   :      2.69456       4.76168      -3.11396
                        -----------------------------------------
Total Dipole Moment    :      0.00371      -2.33133       2.40559
                        -----------------------------------------
Magnitude (a.u.)       :      3.34992
Magnitude (Debye)      :      8.51483

Rotational constants in cm-1:     0.002097     0.000121     0.000116
Rotational constants in MHz :    62.873750     3.623197     3.462727

                             ****ORCA TERMINATED NORMALLY****
TOTAL RUN TIME: 0 days 0 hours 9 minutes 37 seconds 410 msec
