                         Program Version 4.2.0 -  RELEASE  -
|  1> # ORCA input file
|  2> # SCF done       -191.384978126988          0.000934409637
|  3> ! CAM-B3LYP def2-SVP def2/J RIJCOSX Grid4 TightSCF
|  4> %maxcore 5000
|  5> %tddft
|  6>     Mode sTDDFT
|  7>     Ethresh 5.0
|  8>     maxcore 5000
|  9> end
| 10>
| 11> %pal
| 12>   nprocs 6
| 13>   end
| 14> * xyz 0 1
| 15>    C       -1.31639         5.63363         2.29503
| 16>    C       -2.15489         5.86700         3.35521
| 17>    C       -1.79648         5.44601         4.65308
| 18>    N       -1.49673         5.09878         5.70443
| 19>    C       -3.40214         6.51080         3.27896
| 20>    N       -4.42839         7.02608         3.27953
| 21>    C       -1.48740         5.96774         0.90470
| 22>    C       -0.40107         5.55060         0.10767
| 23>    C       -0.41371         5.79946        -1.26209
| 24>    C       -1.49399         6.45139        -1.82251
| 25>    C       -2.56584         6.85973        -1.03536
| 26>    C       -2.57173         6.62336         0.32489
| 27>    C        0.63487         4.87655         0.85028
| 28>    S        0.20670         4.81482         2.55634
| 29>    C        1.77127         4.33222         0.34009
| 30>    C        2.78479         3.62873         1.02471
| 31>    C        3.87889         3.02004         0.41879
| 32>    C        4.68717         2.35721         1.33408
| 33>    C        4.21756         2.46934         2.65767
| 34>    S        2.78175         3.38307         2.76765
| 35>    C        5.07822         1.73118         3.50486
| 36>    C        6.08771         1.14435         2.72092
| 37>    C        5.88229         1.52690         1.33337
| 38>    C        6.63733         1.16600         0.25645
| 39>    C        7.77374         0.33927         0.38120
| 40>    N        8.69557        -0.33488         0.48183
| 41>    C        6.32600         1.59097        -1.05218
| 42>    N        6.07006         1.93452        -2.11583
| 43>    C        6.95481         0.34372         3.46328
| 44>    C        6.61431         0.31870         4.80386
| 45>    S        5.20987         1.31670         5.15655
| 46>    C        7.20357        -0.46040         5.83083
| 47>    C        6.85842        -0.49043         7.16999
| 48>    C        7.56133        -1.47208         7.86705
| 49>    C        8.45204        -2.19098         7.05133
| 50>    S        8.44410        -1.64251         5.43396
| 51>    C        9.02836        -3.23277         7.81969
| 52>    C        8.49972        -3.17601         9.12082
| 53>    C        7.59248        -2.04191         9.20550
| 54>    C        6.91700        -1.60424        10.30578
| 55>    C        7.03799        -2.24055        11.55957
| 56>    N        7.14052        -2.75770        12.57748
| 57>    C        6.06511        -0.48002        10.26192
| 58>    N        5.37424         0.43394        10.22293
| 59>    C        8.91893        -4.23611         9.92394
| 60>    C        9.76336        -5.09556         9.24537
| 61>    S       10.07049        -4.56691         7.59574
| 62>    C       10.27813        -6.33861         9.69296
| 63>    C       11.17560        -7.16335         9.03958
| 64>    C       11.35742        -8.37114         9.71219
| 65>    C       10.58568        -8.46722        10.88399
| 66>    S        9.66490        -7.05831        11.17605
| 67>    C       10.77241        -9.75339        11.44565
| 68>    C       11.67362       -10.46974        10.63351
| 69>    C       12.08357        -9.61685         9.52807
| 70>    C       12.95478        -9.92540         8.52522
| 71>    C       13.59556       -11.18002         8.45046
| 72>    N       14.11310       -12.20131         8.38831
| 73>    C       13.27103        -9.01008         7.49908
| 74>    N       13.52781        -8.26670         6.66472
| 75>    C       11.87645       -11.77180        11.07325
| 76>    C       11.12713       -12.06860        12.20673
| 77>    S       10.17760       -10.68722        12.74356
| 78>    C       11.08545       -13.33117        12.83484
| 79>    C       10.31767       -13.72471        13.88521
| 80>    C       10.26633       -15.04635        14.45938
| 81>    C        9.34093       -15.16735        15.51667
| 82>    C        8.65398       -13.93296        15.79701
| 83>    C        7.69308       -13.66781        16.73919
| 84>    C        7.17490       -14.59929        17.65550
| 85>    N        6.71396       -15.31489        18.42672
| 86>    C        7.13665       -12.37595        16.84681
| 87>    N        6.68905       -11.32271        16.92659
| 88>    S        9.19537       -12.66103        14.72569
| 89>    C        9.16966       -16.39052        16.16180
| 90>    C        9.91682       -17.47719        15.75300
| 91>    C       10.83099       -17.35913        14.71125
| 92>    C       11.01080       -16.15390        14.06257
| 93>    H        0.41205         5.48779        -1.88219
| 94>    H       -1.50655         6.64597        -2.88410
| 95>    H       -3.40248         7.36671        -1.49020
| 96>    H       -3.40508         6.94215         0.92904
| 97>    H        1.92724         4.41756        -0.72723
| 98>    H        4.05036         3.06005        -0.64167
| 99>    H        7.78660        -0.20809         3.06326
|100>    H        6.11664         0.16179         7.59502
|101>    H        8.62074        -4.39762        10.94437
|102>    H       11.65337        -6.88867         8.11623
|103>    H       12.51862       -12.49131        10.59854
|104>    H       11.73665       -14.07286        12.39132
|105>    H        8.46297       -16.48914        16.96915
|106>    H        9.78829       -18.42697        16.24814
|107>    H       11.40605       -18.21971        14.40522
|108>    H       11.72206       -16.07419        13.25559
|109> *
|110>
|111>                          ****END OF INPUT****

CARTESIAN COORDINATES (ANGSTROEM)
---------------------------------
  C     -1.316390    5.633630    2.295030
  C     -2.154890    5.867000    3.355210
  C     -1.796480    5.446010    4.653080
  N     -1.496730    5.098780    5.704430
  C     -3.402140    6.510800    3.278960
  N     -4.428390    7.026080    3.279530
  C     -1.487400    5.967740    0.904700
  C     -0.401070    5.550600    0.107670
  C     -0.413710    5.799460   -1.262090
  C     -1.493990    6.451390   -1.822510
  C     -2.565840    6.859730   -1.035360
  C     -2.571730    6.623360    0.324890
  C      0.634870    4.876550    0.850280
  S      0.206700    4.814820    2.556340
  C      1.771270    4.332220    0.340090
  C      2.784790    3.628730    1.024710
  C      3.878890    3.020040    0.418790
  C      4.687170    2.357210    1.334080
  C      4.217560    2.469340    2.657670
  S      2.781750    3.383070    2.767650
  C      5.078220    1.731180    3.504860
  C      6.087710    1.144350    2.720920
  C      5.882290    1.526900    1.333370
  C      6.637330    1.166000    0.256450
  C      7.773740    0.339270    0.381200
  N      8.695570   -0.334880    0.481830
  C      6.326000    1.590970   -1.052180
  N      6.070060    1.934520   -2.115830
  C      6.954810    0.343720    3.463280
  C      6.614310    0.318700    4.803860
  S      5.209870    1.316700    5.156550
  C      7.203570   -0.460400    5.830830
  C      6.858420   -0.490430    7.169990
  C      7.561330   -1.472080    7.867050
  C      8.452040   -2.190980    7.051330
  S      8.444100   -1.642510    5.433960
  C      9.028360   -3.232770    7.819690
  C      8.499720   -3.176010    9.120820
  C      7.592480   -2.041910    9.205500
  C      6.917000   -1.604240   10.305780
  C      7.037990   -2.240550   11.559570
  N      7.140520   -2.757700   12.577480
  C      6.065110   -0.480020   10.261920
  N      5.374240    0.433940   10.222930
  C      8.918930   -4.236110    9.923940
  C      9.763360   -5.095560    9.245370
  S     10.070490   -4.566910    7.595740
  C     10.278130   -6.338610    9.692960
  C     11.175600   -7.163350    9.039580
  C     11.357420   -8.371140    9.712190
  C     10.585680   -8.467220   10.883990
  S      9.664900   -7.058310   11.176050
  C     10.772410   -9.753390   11.445650
  C     11.673620  -10.469740   10.633510
  C     12.083570   -9.616850    9.528070
  C     12.954780   -9.925400    8.525220
  C     13.595560  -11.180020    8.450460
  N     14.113100  -12.201310    8.388310
  C     13.271030   -9.010080    7.499080
  N     13.527810   -8.266700    6.664720
  C     11.876450  -11.771800   11.073250
  C     11.127130  -12.068600   12.206730
  S     10.177600  -10.687220   12.743560
  C     11.085450  -13.331170   12.834840
  C     10.317670  -13.724710   13.885210
  C     10.266330  -15.046350   14.459380
  C      9.340930  -15.167350   15.516670
  C      8.653980  -13.932960   15.797010
  C      7.693080  -13.667810   16.739190
  C      7.174900  -14.599290   17.655500
  N      6.713960  -15.314890   18.426720
  C      7.136650  -12.375950   16.846810
  N      6.689050  -11.322710   16.926590
  S      9.195370  -12.661030   14.725690
  C      9.169660  -16.390520   16.161800
  C      9.916820  -17.477190   15.753000
  C     10.830990  -17.359130   14.711250
  C     11.010800  -16.153900   14.062570
  H      0.412050    5.487790   -1.882190
  H     -1.506550    6.645970   -2.884100
  H     -3.402480    7.366710   -1.490200
  H     -3.405080    6.942150    0.929040
  H      1.927240    4.417560   -0.727230
  H      4.050360    3.060050   -0.641670
  H      7.786600   -0.208090    3.063260
  H      6.116640    0.161790    7.595020
  H      8.620740   -4.397620   10.944370
  H     11.653370   -6.888670    8.116230
  H     12.518620  -12.491310   10.598540
  H     11.736650  -14.072860   12.391320
  H      8.462970  -16.489140   16.969150
  H      9.788290  -18.426970   16.248140
  H     11.406050  -18.219710   14.405220
  H     11.722060  -16.074190   13.255590

 Total Charge           Charge          ....    0
 Multiplicity           Mult            ....    1
 Number of Electrons    NEL             ....  574
 Basis Dimension        Dim             .... 1204

ORBITAL ENERGIES
----------------

  NO   OCC          E(Eh)            E(eV)
   0   2.0000     -89.000906     -2421.8378
   1   2.0000     -89.000762     -2421.8339
   2   2.0000     -89.000359     -2421.8229
   3   2.0000     -89.000128     -2421.8166
   4   2.0000     -88.999955     -2421.8119
   5   2.0000     -88.999870     -2421.8096
   6   2.0000     -88.982047     -2421.3246
   7   2.0000     -88.981813     -2421.3182
   8   2.0000     -14.439739      -392.9253
   9   2.0000     -14.439694      -392.9240
  10   2.0000     -14.439446      -392.9173
  11   2.0000     -14.439427      -392.9168
  12   2.0000     -14.437595      -392.8669
  13   2.0000     -14.437517      -392.8648
  14   2.0000     -14.416887      -392.3034
  15   2.0000     -14.416867      -392.3029
  16   2.0000     -14.414153      -392.2291
  17   2.0000     -14.414005      -392.2250
  18   2.0000     -10.374482      -282.3040
  19   2.0000     -10.374424      -282.3024
  20   2.0000     -10.373467      -282.2764
  21   2.0000     -10.365197      -282.0514
  22   2.0000     -10.365140      -282.0498
  23   2.0000     -10.361895      -281.9615
  24   2.0000     -10.361740      -281.9573
  25   2.0000     -10.360087      -281.9123
  26   2.0000     -10.346218      -281.5349
  27   2.0000     -10.346210      -281.5347
  28   2.0000     -10.343214      -281.4531
  29   2.0000     -10.343066      -281.4491
  30   2.0000     -10.341566      -281.4083
  31   2.0000     -10.341516      -281.4069
  32   2.0000     -10.341504      -281.4066
  33   2.0000     -10.341296      -281.4010
  34   2.0000     -10.340320      -281.3744
  35   2.0000     -10.340135      -281.3694
  36   2.0000     -10.339983      -281.3652
  37   2.0000     -10.339874      -281.3623
  38   2.0000     -10.339589      -281.3545
  39   2.0000     -10.339576      -281.3542
  40   2.0000     -10.338865      -281.3348
  41   2.0000     -10.338625      -281.3283
  42   2.0000     -10.337531      -281.2985
  43   2.0000     -10.337490      -281.2974
  44   2.0000     -10.335816      -281.2519
  45   2.0000     -10.335812      -281.2517
  46   2.0000     -10.335499      -281.2432
  47   2.0000     -10.335460      -281.2422
  48   2.0000     -10.320548      -280.8364
  49   2.0000     -10.320547      -280.8364
  50   2.0000     -10.320379      -280.8318
  51   2.0000     -10.320327      -280.8304
  52   2.0000     -10.317604      -280.7563
  53   2.0000     -10.317501      -280.7535
  54   2.0000     -10.315528      -280.6998
  55   2.0000     -10.315306      -280.6938
  56   2.0000     -10.314388      -280.6688
  57   2.0000     -10.314385      -280.6687
  58   2.0000     -10.314123      -280.6616
  59   2.0000     -10.314098      -280.6609
  60   2.0000     -10.314008      -280.6584
  61   2.0000     -10.313933      -280.6564
  62   2.0000     -10.312860      -280.6272
  63   2.0000     -10.312827      -280.6263
  64   2.0000     -10.312766      -280.6246
  65   2.0000     -10.312711      -280.6231
  66   2.0000     -10.311961      -280.6027
  67   2.0000     -10.311780      -280.5978
  68   2.0000     -10.311711      -280.5959
  69   2.0000     -10.311647      -280.5942
  70   2.0000     -10.302796      -280.3533
  71   2.0000     -10.302742      -280.3519
  72   2.0000     -10.302237      -280.3381
  73   2.0000     -10.302101      -280.3344
  74   2.0000     -10.301627      -280.3215
  75   2.0000     -10.301614      -280.3212
  76   2.0000     -10.296033      -280.1693
  77   2.0000     -10.295839      -280.1640
  78   2.0000      -8.095161      -220.2805
  79   2.0000      -8.095133      -220.2798
  80   2.0000      -8.094769      -220.2699
  81   2.0000      -8.094650      -220.2666
  82   2.0000      -8.094438      -220.2608
  83   2.0000      -8.094358      -220.2587
  84   2.0000      -8.077636      -219.8037
  85   2.0000      -8.077507      -219.8001
  86   2.0000      -6.064426      -165.0214
  87   2.0000      -6.064393      -165.0205
  88   2.0000      -6.064089      -165.0123
  89   2.0000      -6.063954      -165.0086
  90   2.0000      -6.063741      -165.0028
  91   2.0000      -6.063681      -165.0011
  92   2.0000      -6.060129      -164.9045
  93   2.0000      -6.060099      -164.9037
  94   2.0000      -6.059880      -164.8977
  95   2.0000      -6.059762      -164.8945
  96   2.0000      -6.059551      -164.8888
  97   2.0000      -6.059493      -164.8872
  98   2.0000      -6.057566      -164.8348
  99   2.0000      -6.057507      -164.8332
 100   2.0000      -6.057019      -164.8199
 101   2.0000      -6.056884      -164.8162
 102   2.0000      -6.056653      -164.8099
 103   2.0000      -6.056621      -164.8090
 104   2.0000      -6.047448      -164.5594
 105   2.0000      -6.047293      -164.5552
 106   2.0000      -6.043150      -164.4425
 107   2.0000      -6.043030      -164.4392
 108   2.0000      -6.038598      -164.3186
 109   2.0000      -6.038444      -164.3144
 110   2.0000      -1.056540       -28.7499
 111   2.0000      -1.055025       -28.7087
 112   2.0000      -1.052385       -28.6369
 113   2.0000      -1.032285       -28.0899
 114   2.0000      -1.032257       -28.0891
 115   2.0000      -1.030794       -28.0493
 116   2.0000      -1.030712       -28.0471
 117   2.0000      -1.029268       -28.0078
 118   2.0000      -1.018373       -27.7113
 119   2.0000      -1.017199       -27.6794
 120   2.0000      -1.016599       -27.6631
 121   2.0000      -1.014765       -27.6132
 122   2.0000      -1.010294       -27.4915
 123   2.0000      -1.006517       -27.3887
 124   2.0000      -1.004787       -27.3416
 125   2.0000      -0.998026       -27.1577
 126   2.0000      -0.993657       -27.0388
 127   2.0000      -0.993618       -27.0377
 128   2.0000      -0.975402       -26.5420
 129   2.0000      -0.968767       -26.3615
 130   2.0000      -0.962580       -26.1931
 131   2.0000      -0.957676       -26.0597
 132   2.0000      -0.957645       -26.0588
 133   2.0000      -0.939637       -25.5688
 134   2.0000      -0.939206       -25.5571
 135   2.0000      -0.928026       -25.2529
 136   2.0000      -0.919267       -25.0145
 137   2.0000      -0.910000       -24.7624
 138   2.0000      -0.887021       -24.1371
 139   2.0000      -0.886494       -24.1227
 140   2.0000      -0.880366       -23.9560
 141   2.0000      -0.879790       -23.9403
 142   2.0000      -0.875619       -23.8268
 143   2.0000      -0.871396       -23.7119
 144   2.0000      -0.866766       -23.5859
 145   2.0000      -0.866051       -23.5665
 146   2.0000      -0.861405       -23.4400
 147   2.0000      -0.859799       -23.3963
 148   2.0000      -0.855249       -23.2725
 149   2.0000      -0.854553       -23.2536
 150   2.0000      -0.839380       -22.8407
 151   2.0000      -0.816510       -22.2184
 152   2.0000      -0.795010       -21.6333
 153   2.0000      -0.790261       -21.5041
 154   2.0000      -0.785973       -21.3874
 155   2.0000      -0.785896       -21.3853
 156   2.0000      -0.776452       -21.1283
 157   2.0000      -0.759016       -20.6539
 158   2.0000      -0.742193       -20.1961
 159   2.0000      -0.734563       -19.9885
 160   2.0000      -0.733308       -19.9543
 161   2.0000      -0.721838       -19.6422
 162   2.0000      -0.715745       -19.4764
 163   2.0000      -0.714755       -19.4495
 164   2.0000      -0.708164       -19.2701
 165   2.0000      -0.707976       -19.2650
 166   2.0000      -0.705305       -19.1923
 167   2.0000      -0.697643       -18.9838
 168   2.0000      -0.694069       -18.8866
 169   2.0000      -0.693217       -18.8634
 170   2.0000      -0.685648       -18.6574
 171   2.0000      -0.682471       -18.5710
 172   2.0000      -0.668505       -18.1909
 173   2.0000      -0.663580       -18.0569
 174   2.0000      -0.647526       -17.6201
 175   2.0000      -0.643960       -17.5230
 176   2.0000      -0.642791       -17.4912
 177   2.0000      -0.642074       -17.4717
 178   2.0000      -0.636792       -17.3280
 179   2.0000      -0.636332       -17.3155
 180   2.0000      -0.629917       -17.1409
 181   2.0000      -0.629145       -17.1199
 182   2.0000      -0.626955       -17.0603
 183   2.0000      -0.626256       -17.0413
 184   2.0000      -0.619213       -16.8496
 185   2.0000      -0.616363       -16.7721
 186   2.0000      -0.592478       -16.1221
 187   2.0000      -0.586058       -15.9474
 188   2.0000      -0.583108       -15.8672
 189   2.0000      -0.578771       -15.7492
 190   2.0000      -0.575384       -15.6570
 191   2.0000      -0.570247       -15.5172
 192   2.0000      -0.568671       -15.4743
 193   2.0000      -0.560031       -15.2392
 194   2.0000      -0.557647       -15.1743
 195   2.0000      -0.554545       -15.0899
 196   2.0000      -0.553763       -15.0687
 197   2.0000      -0.547548       -14.8995
 198   2.0000      -0.541528       -14.7357
 199   2.0000      -0.541074       -14.7234
 200   2.0000      -0.538476       -14.6527
 201   2.0000      -0.536923       -14.6104
 202   2.0000      -0.536908       -14.6100
 203   2.0000      -0.534026       -14.5316
 204   2.0000      -0.530681       -14.4406
 205   2.0000      -0.527465       -14.3531
 206   2.0000      -0.518435       -14.1073
 207   2.0000      -0.517823       -14.0907
 208   2.0000      -0.517561       -14.0835
 209   2.0000      -0.517208       -14.0739
 210   2.0000      -0.513691       -13.9782
 211   2.0000      -0.512687       -13.9509
 212   2.0000      -0.509858       -13.8740
 213   2.0000      -0.508741       -13.8435
 214   2.0000      -0.507424       -13.8077
 215   2.0000      -0.502709       -13.6794
 216   2.0000      -0.500637       -13.6230
 217   2.0000      -0.499202       -13.5840
 218   2.0000      -0.498543       -13.5661
 219   2.0000      -0.493234       -13.4216
 220   2.0000      -0.490568       -13.3490
 221   2.0000      -0.490393       -13.3443
 222   2.0000      -0.488920       -13.3042
 223   2.0000      -0.482307       -13.1242
 224   2.0000      -0.479485       -13.0474
 225   2.0000      -0.470533       -12.8038
 226   2.0000      -0.470502       -12.8030
 227   2.0000      -0.469123       -12.7655
 228   2.0000      -0.469001       -12.7622
 229   2.0000      -0.468018       -12.7354
 230   2.0000      -0.467913       -12.7325
 231   2.0000      -0.465837       -12.6761
 232   2.0000      -0.464629       -12.6432
 233   2.0000      -0.464159       -12.6304
 234   2.0000      -0.457671       -12.4539
 235   2.0000      -0.457545       -12.4504
 236   2.0000      -0.455377       -12.3914
 237   2.0000      -0.455185       -12.3862
 238   2.0000      -0.454208       -12.3596
 239   2.0000      -0.453950       -12.3526
 240   2.0000      -0.450245       -12.2518
 241   2.0000      -0.449885       -12.2420
 242   2.0000      -0.449697       -12.2369
 243   2.0000      -0.449365       -12.2278
 244   2.0000      -0.448246       -12.1974
 245   2.0000      -0.447290       -12.1714
 246   2.0000      -0.446986       -12.1631
 247   2.0000      -0.446685       -12.1549
 248   2.0000      -0.446635       -12.1536
 249   2.0000      -0.445879       -12.1330
 250   2.0000      -0.444629       -12.0990
 251   2.0000      -0.443282       -12.0623
 252   2.0000      -0.443218       -12.0606
 253   2.0000      -0.437764       -11.9122
 254   2.0000      -0.437583       -11.9072
 255   2.0000      -0.434460       -11.8223
 256   2.0000      -0.433414       -11.7938
 257   2.0000      -0.432031       -11.7562
 258   2.0000      -0.431566       -11.7435
 259   2.0000      -0.428110       -11.6495
 260   2.0000      -0.426490       -11.6054
 261   2.0000      -0.422944       -11.5089
 262   2.0000      -0.419202       -11.4071
 263   2.0000      -0.419059       -11.4032
 264   2.0000      -0.416308       -11.3283
 265   2.0000      -0.411078       -11.1860
 266   2.0000      -0.411056       -11.1854
 267   2.0000      -0.409851       -11.1526
 268   2.0000      -0.409768       -11.1504
 269   2.0000      -0.398914       -10.8550
 270   2.0000      -0.387441       -10.5428
 271   2.0000      -0.370102       -10.0710
 272   2.0000      -0.363195        -9.8830
 273   2.0000      -0.361060        -9.8249
 274   2.0000      -0.358117        -9.7449
 275   2.0000      -0.347168        -9.4469
 276   2.0000      -0.346763        -9.4359
 277   2.0000      -0.346167        -9.4197
 278   2.0000      -0.337151        -9.1744
 279   2.0000      -0.332572        -9.0497
 280   2.0000      -0.330539        -8.9944
 281   2.0000      -0.328958        -8.9514
 282   2.0000      -0.322642        -8.7795
 283   2.0000      -0.308338        -8.3903
 284   2.0000      -0.284956        -7.7541
 285   2.0000      -0.261170        -7.1068
 286   2.0000      -0.242359        -6.5949
 287   0.0000      -0.120719        -3.2849
 288   0.0000      -0.115816        -3.1515
 289   0.0000      -0.111136        -3.0242
 290   0.0000      -0.085760        -2.3336
 291   0.0000      -0.085329        -2.3219

MULLIKEN ATOMIC CHARGES
-----------------------
   0 C :    0.095778
   1 C :   -0.289025
   2 C :   -0.205799
   3 N :    0.154608
   4 C :   -0.177338
   5 N :    0.158825
   6 C :    0.042447
   7 C :    0.148990
   8 C :   -0.056005
   9 C :    0.050008
  10 C :    0.031874
  11 C :   -0.021927
  12 C :   -0.041310
  13 S :    0.098238
  14 C :   -0.025546
  15 C :   -0.060428
  16 C :   -0.051188
  17 C :    0.030937
  18 C :   -0.084102
  19 S :    0.178809
  20 C :   -0.094848
  21 C :    0.017846
  22 C :    0.297598
  23 C :   -0.293714
  24 C :   -0.187472
  25 N :    0.174517
  26 C :   -0.186122
  27 N :    0.174711
  28 C :   -0.066133
  29 C :   -0.049810
  30 S :    0.204480
  31 C :   -0.053589
  32 C :   -0.058955
  33 C :    0.013585
  34 C :   -0.095694
  35 S :    0.197383
  36 C :   -0.097500
  37 C :    0.013172
  38 C :    0.293132
  39 C :   -0.286001
  40 C :   -0.187418
  41 N :    0.176090
  42 C :   -0.188805
  43 N :    0.177936
  44 C :   -0.057873
  45 C :   -0.054706
  46 S :    0.199007
  47 C :   -0.049047
  48 C :   -0.062553
  49 C :    0.013675
  50 C :   -0.097194
  51 S :    0.205849
  52 C :   -0.082453
  53 C :    0.032254
  54 C :    0.298175
  55 C :   -0.292658
  56 C :   -0.187517
  57 N :    0.174421
  58 C :   -0.186636
  59 N :    0.173528
  60 C :   -0.051121
  61 C :   -0.059700
  62 S :    0.179508
  63 C :   -0.027175
  64 C :   -0.041727
  65 C :    0.150697
  66 C :    0.046090
  67 C :    0.093878
  68 C :   -0.284985
  69 C :   -0.175678
  70 N :    0.155606
  71 C :   -0.206796
  72 N :    0.152859
  73 S :    0.100385
  74 C :   -0.025098
  75 C :    0.031825
  76 C :    0.052574
  77 C :   -0.059519
  78 H :   -0.014779
  79 H :    0.001768
  80 H :    0.001678
  81 H :    0.007919
  82 H :    0.002277
  83 H :    0.009762
  84 H :    0.012747
  85 H :    0.014495
  86 H :    0.014042
  87 H :    0.012472
  88 H :    0.009044
  89 H :    0.001656
  90 H :    0.008305
  91 H :    0.001499
  92 H :    0.000930
  93 H :   -0.013949
Sum of atomic charges:   -0.0000000

LOEWDIN ATOMIC CHARGES
----------------------
   0 C :   -0.061645
   1 C :   -0.165548
   2 C :   -0.039331
   3 N :   -0.041370
   4 C :   -0.023497
   5 N :   -0.049592
   6 C :   -0.051555
   7 C :   -0.014824
   8 C :   -0.012894
   9 C :    0.005203
  10 C :   -0.012952
  11 C :    0.011781
  12 C :   -0.158401
  13 S :    0.415461
  14 C :   -0.042066
  15 C :   -0.174150
  16 C :   -0.017488
  17 C :   -0.071863
  18 C :   -0.175728
  19 S :    0.482140
  20 C :   -0.181190
  21 C :   -0.064473
  22 C :    0.082242
  23 C :   -0.099774
  24 C :   -0.016482
  25 N :   -0.030153
  26 C :   -0.015976
  27 N :   -0.031418
  28 C :   -0.039663
  29 C :   -0.175667
  30 S :    0.490818
  31 C :   -0.180413
  32 C :   -0.036122
  33 C :   -0.066756
  34 C :   -0.179051
  35 S :    0.486373
  36 C :   -0.178693
  37 C :   -0.067129
  38 C :    0.080794
  39 C :   -0.096718
  40 C :   -0.016970
  41 N :   -0.027316
  42 C :   -0.017124
  43 N :   -0.027247
  44 C :   -0.036020
  45 C :   -0.180610
  46 S :    0.486372
  47 C :   -0.175870
  48 C :   -0.039715
  49 C :   -0.064475
  50 C :   -0.181385
  51 S :    0.490477
  52 C :   -0.175476
  53 C :   -0.071828
  54 C :    0.082160
  55 C :   -0.099738
  56 C :   -0.016081
  57 N :   -0.031217
  58 C :   -0.016526
  59 N :   -0.030038
  60 C :   -0.017368
  61 C :   -0.174236
  62 S :    0.481940
  63 C :   -0.041884
  64 C :   -0.158612
  65 C :   -0.014776
  66 C :   -0.051447
  67 C :   -0.061769
  68 C :   -0.165625
  69 C :   -0.023213
  70 N :   -0.049952
  71 C :   -0.039337
  72 N :   -0.041371
  73 S :    0.415650
  74 C :    0.011752
  75 C :   -0.013016
  76 C :    0.005262
  77 C :   -0.012953
  78 H :    0.031619
  79 H :    0.036422
  80 H :    0.036762
  81 H :    0.042007
  82 H :    0.046604
  83 H :    0.042197
  84 H :    0.036124
  85 H :    0.036777
  86 H :    0.037175
  87 H :    0.036371
  88 H :    0.042060
  89 H :    0.046542
  90 H :    0.042006
  91 H :    0.036746
  92 H :    0.036292
  93 H :    0.031644

  Mayer bond orders larger than 0.100000
B(  0-C ,  1-C ) :   1.6378 B(  0-C ,  6-C ) :   1.0785 B(  0-C , 13-S ) :   1.1016
B(  1-C ,  2-C ) :   1.1300 B(  1-C ,  4-C ) :   1.1680 B(  2-C ,  3-N ) :   3.0321
B(  4-C ,  5-N ) :   2.9706 B(  6-C ,  7-C ) :   1.3213 B(  6-C , 11-C ) :   1.3420
B(  7-C ,  8-C ) :   1.3523 B(  7-C , 12-C ) :   1.0621 B(  8-C ,  9-C ) :   1.4142
B(  8-C , 78-H ) :   0.9903 B(  9-C , 10-C ) :   1.3443 B(  9-C , 79-H ) :   0.9866
B( 10-C , 11-C ) :   1.4152 B( 10-C , 80-H ) :   0.9870 B( 11-C , 81-H ) :   0.9811
B( 12-C , 13-S ) :   0.9880 B( 12-C , 14-C ) :   1.6506 B( 14-C , 15-C ) :   1.1805
B( 14-C , 82-H ) :   0.9631 B( 15-C , 16-C ) :   1.4020 B( 15-C , 19-S ) :   1.0823
B( 16-C , 17-C ) :   1.3014 B( 16-C , 83-H ) :   1.0054 B( 17-C , 18-C ) :   1.4122
B( 17-C , 22-C ) :   0.9899 B( 18-C , 19-S ) :   1.1428 B( 18-C , 20-C ) :   1.1934
B( 20-C , 21-C ) :   1.4365 B( 20-C , 30-S ) :   1.1190 B( 21-C , 22-C ) :   0.9999
B( 21-C , 28-C ) :   1.2999 B( 22-C , 23-C ) :   1.7167 B( 23-C , 24-C ) :   1.1333
B( 23-C , 26-C ) :   1.1323 B( 24-C , 25-N ) :   2.9911 B( 26-C , 27-N ) :   2.9924
B( 28-C , 29-C ) :   1.4551 B( 28-C , 84-H ) :   0.9878 B( 29-C , 30-S ) :   1.1115
B( 29-C , 31-C ) :   1.1710 B( 31-C , 32-C ) :   1.4544 B( 31-C , 35-S ) :   1.1088
B( 32-C , 33-C ) :   1.3030 B( 32-C , 85-H ) :   0.9879 B( 33-C , 34-C ) :   1.4444
B( 33-C , 38-C ) :   0.9952 B( 34-C , 35-S ) :   1.1217 B( 34-C , 36-C ) :   1.1874
B( 36-C , 37-C ) :   1.4426 B( 36-C , 46-S ) :   1.1230 B( 37-C , 38-C ) :   0.9956
B( 37-C , 44-C ) :   1.3020 B( 38-C , 39-C ) :   1.7192 B( 39-C , 40-C ) :   1.1312
B( 39-C , 42-C ) :   1.1309 B( 40-C , 41-N ) :   2.9931 B( 42-C , 43-N ) :   2.9937
B( 44-C , 45-C ) :   1.4582 B( 44-C , 86-H ) :   0.9877 B( 45-C , 46-S ) :   1.1084
B( 45-C , 47-C ) :   1.1653 B( 47-C , 48-C ) :   1.4552 B( 47-C , 51-S ) :   1.1127
B( 48-C , 49-C ) :   1.2981 B( 48-C , 87-H ) :   0.9888 B( 49-C , 50-C ) :   1.4378
B( 49-C , 54-C ) :   0.9987 B( 50-C , 51-S ) :   1.1194 B( 50-C , 52-C ) :   1.1919
B( 52-C , 53-C ) :   1.4105 B( 52-C , 62-S ) :   1.1433 B( 53-C , 54-C ) :   0.9913
B( 53-C , 60-C ) :   1.3007 B( 54-C , 55-C ) :   1.7168 B( 55-C , 56-C ) :   1.1333
B( 55-C , 58-C ) :   1.1309 B( 56-C , 57-N ) :   2.9914 B( 58-C , 59-N ) :   2.9914
B( 60-C , 61-C ) :   1.4013 B( 60-C , 88-H ) :   1.0058 B( 61-C , 62-S ) :   1.0823
B( 61-C , 63-C ) :   1.1814 B( 63-C , 64-C ) :   1.6501 B( 63-C , 89-H ) :   0.9633
B( 64-C , 65-C ) :   1.0612 B( 64-C , 73-S ) :   0.9877 B( 65-C , 66-C ) :   1.3222
B( 65-C , 77-C ) :   1.3502 B( 66-C , 67-C ) :   1.0799 B( 66-C , 74-C ) :   1.3383
B( 67-C , 68-C ) :   1.6368 B( 67-C , 73-S ) :   1.1009 B( 68-C , 69-C ) :   1.1656
B( 68-C , 71-C ) :   1.1300 B( 69-C , 70-N ) :   2.9699 B( 71-C , 72-N ) :   3.0319
B( 74-C , 75-C ) :   1.4154 B( 74-C , 90-H ) :   0.9830 B( 75-C , 76-C ) :   1.3427
B( 75-C , 91-H ) :   0.9877 B( 76-C , 77-C ) :   1.4144 B( 76-C , 92-H ) :   0.9865
B( 77-C , 93-H ) :   0.9920

-----------------------------------------------------------------------------
         ABSORPTION SPECTRUM VIA TRANSITION ELECTRIC DIPOLE MOMENTS
-----------------------------------------------------------------------------
State   Energy  Wavelength   fosc         T2         TX        TY        TZ
        (cm-1)    (nm)                  (au**2)     (au)      (au)      (au)
-----------------------------------------------------------------------------
   0   10600.9    943.3   0.638329001  19.82345  -1.76898   3.34276  -2.34950
   1   11490.5    870.3   0.050254777   1.43984  -1.08188  -0.43954   0.27598
   2   11620.5    860.6   0.007453991   0.21117   0.06038  -0.39526   0.22648
   3   18817.8    531.4   0.052650430   0.92111   0.88658   0.15292  -0.33421
   4   19371.4    516.2   0.754142974  12.81646   1.39424  -2.70399   1.88706
   5   20445.9    489.1   0.118775919   1.91249   1.34640   0.15841  -0.27314
   6   20834.2    480.0   1.112354877  17.57688   1.53218  -3.26548   2.13681
   7   21513.4    464.8   0.726292723  11.11421   2.86834   0.38109  -1.65579
   8   23862.8    419.1   0.045907780   0.63334  -0.35002   0.57088  -0.43004
   9   24921.4    401.3   0.074842439   0.98867  -0.74343   0.06792   0.65679
  10   25428.1    393.3   0.000172656   0.00224  -0.02953  -0.03224  -0.01800
  11   26536.9    376.8   0.693187768   8.59955   1.25305  -2.08717   1.63497
  12   28105.6    355.8   0.206074577   2.41384   1.30432   0.11359  -0.83647
  13   28576.6    349.9   0.104613205   1.20518   0.29682  -0.82743   0.65760
  14   28728.6    348.1   0.199423910   2.28527   0.73515  -0.62209  -1.16526
  15   29569.8    338.2   0.055608386   0.61911  -0.32989   0.54945  -0.45649
  16   30102.9    332.2   0.254145394   2.77939   0.34556  -0.85515  -1.38878
  17   30417.4    328.8   0.050760003   0.54938  -0.54423   0.10626   0.49184
  18   30972.0    322.9   0.007645599   0.08127   0.03262  -0.27914   0.04777
  19   31562.9    316.8   0.269396591   2.80990   0.91773  -0.45419  -1.32717
  20   31710.3    315.4   1.656097630  17.19335  -2.38712   1.12357   3.19884
  21   31908.5    313.4   0.021964196   0.22661  -0.09124  -0.28341   0.37144
  22   32425.4    308.4   0.083100780   0.84371  -0.51554   0.26153   0.71382
  23   32607.8    306.7   0.046054469   0.46497  -0.32566   0.47653  -0.36309
  24   33024.8    302.8   0.101929081   1.01609   0.08824  -0.33021  -0.94830
  25   33094.3    302.2   0.257499546   2.56153  -0.69190   1.22116  -0.76914
  26   33484.5    298.6   0.198629977   1.95288   0.99882  -0.15218  -0.96545
  27   33644.9    297.2   0.103532360   1.01305  -0.44779   0.74378  -0.50924
  28   33989.1    294.2   0.253514342   2.45549   0.70208  -1.15514   0.79260
  29   33990.2    294.2   0.046865376   0.45391   0.11938   0.60213  -0.27768
  30   34241.2    292.0   0.040156575   0.38609  -0.06905   0.24617  -0.56632
  31   34290.0    291.6   0.433942299   4.16619  -1.06044   0.69797   1.59828
  32   34483.8    290.0   0.050379371   0.48096   0.61381   0.04106  -0.32019
  33   34648.2    288.6   0.003030545   0.02879   0.10206  -0.11287   0.07509
  34   34769.0    287.6   0.091504062   0.86641   0.20592  -0.46960  -0.77684
  35   35069.7    285.1   0.245908857   2.30844  -0.59001   1.14324  -0.80829
  36   35396.8    282.5   0.021499019   0.19995  -0.29722  -0.28411  -0.17576
  37   35525.9    281.5   0.019673784   0.18231  -0.18581   0.29883  -0.24183
  38   36195.1    276.3   0.074455670   0.67721  -0.50743   0.17739   0.62310
  39   36248.9    275.9   0.004053342   0.03681  -0.06262   0.14085  -0.11425
  40   37213.6    268.7   0.049614849   0.43892  -0.26334   0.50084  -0.34457
  41   37510.5    266.6   0.134305536   1.17874  -0.42501   0.81326  -0.58026
  42   37561.8    266.2   0.017748306   0.15556   0.07801   0.26907   0.27762
  43   38104.9    262.4   0.007463307   0.06448  -0.24221  -0.04703   0.06000
  44   38719.6    258.3   0.059419833   0.50522   0.16607  -0.01730  -0.69090
  45   38734.0    258.2   0.051073451   0.43409   0.41927  -0.41602  -0.29194
  46   38932.4    256.9   0.000478972   0.00405  -0.05031   0.03157   0.02287
  47   39054.9    256.0   0.137046220   1.15523   0.55720  -0.32236  -0.86072
  48   39134.3    255.5   0.000343202   0.00289   0.00624  -0.02929  -0.04462
  49   39233.4    254.9   0.002076380   0.01742  -0.04883   0.07944  -0.09343
  50   39359.1    254.1   0.023044277   0.19275  -0.03920  -0.26837  -0.34524
  51   39533.6    252.9   0.002085269   0.01736   0.05027  -0.11608   0.03691
  52   39788.0    251.3   0.009215522   0.07625   0.16459  -0.08259  -0.20576
  53   39909.7    250.6   0.023820012   0.19649   0.17416  -0.31912   0.25361
  54   40018.1    249.9   0.100279359   0.82496  -0.35564   0.67525  -0.49246
  55   40285.4    248.2   0.036984809   0.30224   0.21151  -0.42052   0.28401

FINAL SINGLE POINT ENERGY     -6024.212110690953

DIPOLE MOMENT
-------------
                                X             Y             Z
Electronic contribution:     10.41101      11.77409       9.43258
Nuclear contribution   :     -8.28451     -12.94764     -12.71541
                        -----------------------------------------
Total Dipole Moment    :      2.12649      -1.17355      -3.28283
                        -----------------------------------------
Magnitude (a.u.)       :      4.08365
Magnitude (Debye)      :     10.37981

Rotational constants in cm-1:     0.001287     0.000158     0.000147
Rotational constants in MHz :    38.592023     4.724180     4.397467

                             ****ORCA TERMINATED NORMALLY****
TOTAL RUN TIME: 0 days 0 hours 9 minutes 34 seconds 556 msec
