                         Program Version 4.2.0 -  RELEASE  -
|  1> # ORCA input file
|  2> # SCF done       -187.338673110995          0.000474244155
|  3> ! CAM-B3LYP def2-SVP def2/J RIJCOSX Grid4 TightSCF
|  4> %maxcore 5000
|  5> %tddft
|  6>     Mode sTDDFT
|  7>     Ethresh 5.0
|  8>     maxcore 5000
|  9> end
| 10>
| 11> %pal
| 12>   nprocs 6
| 13>   end
| 14> * xyz 0 1
| 15>    C       -0.36537        -1.64279         1.41180
| 16>    S       -1.48955        -0.76313         2.44157
| 17>    C       -0.42569         0.67286         2.49509
| 18>    O       -0.67256         1.68070         3.08761
| 19>    N        0.69061         0.41317         1.75397
| 20>    C        0.81063        -0.81818         1.13047
| 21>    O        1.77508        -1.10821         0.45913
| 22>    C        1.72527         1.41811         1.62890
| 23>    C       -0.68533        -2.90074         1.00375
| 24>    C        0.00254        -3.82646         0.18704
| 25>    C        1.23615        -3.79174        -0.44671
| 26>    C        1.49074        -4.95601        -1.16328
| 27>    C        0.44314        -5.89818        -1.08401
| 28>    S       -0.84563        -5.34924        -0.12141
| 29>    C        0.79319        -7.03053        -1.85755
| 30>    C        2.06072        -6.81310        -2.42412
| 31>    C        2.54174        -5.50293        -2.00682
| 32>    C        3.72608        -4.92373        -2.35174
| 33>    C        4.65073        -5.57745        -3.19532
| 34>    N        5.39819        -6.10880        -3.88354
| 35>    C        4.12830        -3.64445        -1.90827
| 36>    N        4.49378        -2.61254        -1.56986
| 37>    C        2.48836        -7.87527        -3.21882
| 38>    C        1.55363        -8.89454        -3.26666
| 39>    S        0.12675        -8.53973        -2.30538
| 40>    C        1.63669       -10.10567        -3.99849
| 41>    C        0.67034       -11.08820        -4.11694
| 42>    C        1.08251       -12.12554        -4.95234
| 43>    C        2.37660       -11.93323        -5.46619
| 44>    S        3.08456       -10.47715        -4.92465
| 45>    C        2.69097       -13.02134        -6.31888
| 46>    C        1.59271       -13.89813        -6.35024
| 47>    C        0.54903       -13.36923        -5.48602
| 48>    C       -0.67306       -13.91890        -5.23451
| 49>    C       -1.08152       -15.13607        -5.82011
| 50>    N       -1.41352       -16.12494        -6.29573
| 51>    C       -1.60734       -13.30459        -4.37393
| 52>    N       -2.36742       -12.80460        -3.67626
| 53>    C        1.79522       -14.99174        -7.19099
| 54>    C        3.03944       -14.95610        -7.79413
| 55>    S        3.97666       -13.54932        -7.31018
| 56>    C        3.57428       -15.88009        -8.72702
| 57>    C        4.84147       -15.87740        -9.28283
| 58>    C        5.01213       -16.92174       -10.19007
| 59>    C        3.86389       -17.72166       -10.32904
| 60>    S        2.57985       -17.19623        -9.33206
| 61>    C        4.11774       -18.73708       -11.28305
| 62>    C        5.44532       -18.57618       -11.74547
| 63>    C        6.04792       -17.43650       -11.07200
| 64>    C        7.30894       -16.94373       -11.23377
| 65>    C        8.23572       -17.52033       -12.12834
| 66>    N        8.99279       -17.98046       -12.85561
| 67>    C        7.76670       -15.81804       -10.51691
| 68>    N        8.13427       -14.90185        -9.93368
| 69>    C        5.78235       -19.51803       -12.69936
| 70>    C        4.72585       -20.38836       -12.99090
| 71>    S        3.29041       -20.02153       -12.03503
| 72>    C        4.85314       -21.40925       -13.94863
| 73>    C        3.92445       -22.29575       -14.42399
| 74>    C        4.14465       -23.30236       -15.44798
| 75>    C        5.33923       -23.67441       -16.00365
| 76>    C        6.60343       -23.14463       -15.66659
| 77>    N        7.66685       -22.77454       -15.44143
| 78>    C        5.47561       -24.67639       -16.98866
| 79>    N        5.65766       -25.47749       -17.79032
| 80>    C        2.84455       -23.89550       -15.76001
| 81>    C        1.87305       -23.33057       -14.91405
| 82>    C        2.50578       -22.33622       -14.04010
| 83>    O        1.95876       -21.67036       -13.17657
| 84>    C        0.54730       -23.71506       -14.98374
| 85>    C        0.19042       -24.67345       -15.91780
| 86>    C        1.13533       -25.24022       -16.77193
| 87>    C        2.47157       -24.84921       -16.69096
| 88>    C        0.71385       -26.24945       -17.79108
| 89>    H        1.31286         2.32129         1.17960
| 90>    H        2.50604         1.00167         0.99445
| 91>    H        2.12666         1.66259         2.61221
| 92>    H       -1.64358        -3.26184         1.36146
| 93>    H        1.89571        -2.94615        -0.37621
| 94>    H        3.42312        -7.91884        -3.74829
| 95>    H       -0.28208       -11.03114        -3.62110
| 96>    H        1.08519       -15.77961        -7.36764
| 97>    H        5.58732       -15.14528        -9.02993
| 98>    H        6.73839       -19.59454       -13.18662
| 99>    H        5.84706       -21.46087       -14.37699
|100>    H       -0.18087       -23.27174       -14.32224
|101>    H       -0.83962       -24.99004       -15.99175
|102>    H        3.19193       -25.29365       -17.35839
|103>    H        0.29805       -25.74057       -18.66135
|104>    H       -0.05518       -26.90663       -17.39159
|105>    H        1.55919       -26.84707       -18.12140
|106> *
|107>
|108>                          ****END OF INPUT****

CARTESIAN COORDINATES (ANGSTROEM)
---------------------------------
  C     -0.365370   -1.642790    1.411800
  S     -1.489550   -0.763130    2.441570
  C     -0.425690    0.672860    2.495090
  O     -0.672560    1.680700    3.087610
  N      0.690610    0.413170    1.753970
  C      0.810630   -0.818180    1.130470
  O      1.775080   -1.108210    0.459130
  C      1.725270    1.418110    1.628900
  C     -0.685330   -2.900740    1.003750
  C      0.002540   -3.826460    0.187040
  C      1.236150   -3.791740   -0.446710
  C      1.490740   -4.956010   -1.163280
  C      0.443140   -5.898180   -1.084010
  S     -0.845630   -5.349240   -0.121410
  C      0.793190   -7.030530   -1.857550
  C      2.060720   -6.813100   -2.424120
  C      2.541740   -5.502930   -2.006820
  C      3.726080   -4.923730   -2.351740
  C      4.650730   -5.577450   -3.195320
  N      5.398190   -6.108800   -3.883540
  C      4.128300   -3.644450   -1.908270
  N      4.493780   -2.612540   -1.569860
  C      2.488360   -7.875270   -3.218820
  C      1.553630   -8.894540   -3.266660
  S      0.126750   -8.539730   -2.305380
  C      1.636690  -10.105670   -3.998490
  C      0.670340  -11.088200   -4.116940
  C      1.082510  -12.125540   -4.952340
  C      2.376600  -11.933230   -5.466190
  S      3.084560  -10.477150   -4.924650
  C      2.690970  -13.021340   -6.318880
  C      1.592710  -13.898130   -6.350240
  C      0.549030  -13.369230   -5.486020
  C     -0.673060  -13.918900   -5.234510
  C     -1.081520  -15.136070   -5.820110
  N     -1.413520  -16.124940   -6.295730
  C     -1.607340  -13.304590   -4.373930
  N     -2.367420  -12.804600   -3.676260
  C      1.795220  -14.991740   -7.190990
  C      3.039440  -14.956100   -7.794130
  S      3.976660  -13.549320   -7.310180
  C      3.574280  -15.880090   -8.727020
  C      4.841470  -15.877400   -9.282830
  C      5.012130  -16.921740  -10.190070
  C      3.863890  -17.721660  -10.329040
  S      2.579850  -17.196230   -9.332060
  C      4.117740  -18.737080  -11.283050
  C      5.445320  -18.576180  -11.745470
  C      6.047920  -17.436500  -11.072000
  C      7.308940  -16.943730  -11.233770
  C      8.235720  -17.520330  -12.128340
  N      8.992790  -17.980460  -12.855610
  C      7.766700  -15.818040  -10.516910
  N      8.134270  -14.901850   -9.933680
  C      5.782350  -19.518030  -12.699360
  C      4.725850  -20.388360  -12.990900
  S      3.290410  -20.021530  -12.035030
  C      4.853140  -21.409250  -13.948630
  C      3.924450  -22.295750  -14.423990
  C      4.144650  -23.302360  -15.447980
  C      5.339230  -23.674410  -16.003650
  C      6.603430  -23.144630  -15.666590
  N      7.666850  -22.774540  -15.441430
  C      5.475610  -24.676390  -16.988660
  N      5.657660  -25.477490  -17.790320
  C      2.844550  -23.895500  -15.760010
  C      1.873050  -23.330570  -14.914050
  C      2.505780  -22.336220  -14.040100
  O      1.958760  -21.670360  -13.176570
  C      0.547300  -23.715060  -14.983740
  C      0.190420  -24.673450  -15.917800
  C      1.135330  -25.240220  -16.771930
  C      2.471570  -24.849210  -16.690960
  C      0.713850  -26.249450  -17.791080
  H      1.312860    2.321290    1.179600
  H      2.506040    1.001670    0.994450
  H      2.126660    1.662590    2.612210
  H     -1.643580   -3.261840    1.361460
  H      1.895710   -2.946150   -0.376210
  H      3.423120   -7.918840   -3.748290
  H     -0.282080  -11.031140   -3.621100
  H      1.085190  -15.779610   -7.367640
  H      5.587320  -15.145280   -9.029930
  H      6.738390  -19.594540  -13.186620
  H      5.847060  -21.460870  -14.376990
  H     -0.180870  -23.271740  -14.322240
  H     -0.839620  -24.990040  -15.991750
  H      3.191930  -25.293650  -17.358390
  H      0.298050  -25.740570  -18.661350
  H     -0.055180  -26.906630  -17.391590
  H      1.559190  -26.847070  -18.121400

 Total Charge           Charge          ....    0
 Multiplicity           Mult            ....    1
 Number of Electrons    NEL             ....  546
 Basis Dimension        Dim             .... 1149

ORBITAL ENERGIES
----------------

  NO   OCC          E(Eh)            E(eV)
   0   2.0000     -89.002332     -2421.8766
   1   2.0000     -89.001647     -2421.8579
   2   2.0000     -89.000384     -2421.8236
   3   2.0000     -89.000057     -2421.8147
   4   2.0000     -88.995799     -2421.6988
   5   2.0000     -88.992627     -2421.6125
   6   2.0000     -88.954798     -2420.5831
   7   2.0000     -19.228021      -523.2211
   8   2.0000     -19.218787      -522.9698
   9   2.0000     -19.217237      -522.9276
  10   2.0000     -14.473879      -393.8543
  11   2.0000     -14.440833      -392.9550
  12   2.0000     -14.440661      -392.9504
  13   2.0000     -14.436408      -392.8346
  14   2.0000     -14.435857      -392.8196
  15   2.0000     -14.434115      -392.7722
  16   2.0000     -14.430902      -392.6848
  17   2.0000     -14.420313      -392.3967
  18   2.0000     -14.417099      -392.3092
  19   2.0000     -10.412628      -283.3420
  20   2.0000     -10.406230      -283.1679
  21   2.0000     -10.375854      -282.3414
  22   2.0000     -10.375415      -282.3294
  23   2.0000     -10.370877      -282.2059
  24   2.0000     -10.370541      -282.1968
  25   2.0000     -10.362811      -281.9864
  26   2.0000     -10.358872      -281.8792
  27   2.0000     -10.356715      -281.8206
  28   2.0000     -10.346616      -281.5457
  29   2.0000     -10.344838      -281.4974
  30   2.0000     -10.344279      -281.4821
  31   2.0000     -10.343464      -281.4600
  32   2.0000     -10.343008      -281.4476
  33   2.0000     -10.342410      -281.4313
  34   2.0000     -10.340970      -281.3921
  35   2.0000     -10.340813      -281.3878
  36   2.0000     -10.340677      -281.3841
  37   2.0000     -10.340591      -281.3818
  38   2.0000     -10.340438      -281.3776
  39   2.0000     -10.339897      -281.3629
  40   2.0000     -10.339514      -281.3525
  41   2.0000     -10.337286      -281.2918
  42   2.0000     -10.336708      -281.2761
  43   2.0000     -10.336014      -281.2572
  44   2.0000     -10.333767      -281.1961
  45   2.0000     -10.329920      -281.0914
  46   2.0000     -10.329875      -281.0902
  47   2.0000     -10.329534      -281.0809
  48   2.0000     -10.329154      -281.0706
  49   2.0000     -10.327361      -281.0218
  50   2.0000     -10.325792      -280.9791
  51   2.0000     -10.322525      -280.8902
  52   2.0000     -10.320011      -280.8218
  53   2.0000     -10.316907      -280.7373
  54   2.0000     -10.315859      -280.7088
  55   2.0000     -10.314909      -280.6829
  56   2.0000     -10.314871      -280.6819
  57   2.0000     -10.314436      -280.6701
  58   2.0000     -10.313818      -280.6532
  59   2.0000     -10.313283      -280.6387
  60   2.0000     -10.312396      -280.6146
  61   2.0000     -10.311200      -280.5820
  62   2.0000     -10.308941      -280.5205
  63   2.0000     -10.308664      -280.5130
  64   2.0000     -10.308593      -280.5111
  65   2.0000     -10.307890      -280.4920
  66   2.0000     -10.303810      -280.3809
  67   2.0000     -10.302089      -280.3341
  68   2.0000     -10.301523      -280.3187
  69   2.0000     -10.298556      -280.2380
  70   2.0000     -10.293617      -280.1036
  71   2.0000     -10.293324      -280.0956
  72   2.0000     -10.292686      -280.0782
  73   2.0000     -10.277340      -279.6606
  74   2.0000      -8.096789      -220.3248
  75   2.0000      -8.096079      -220.3055
  76   2.0000      -8.094935      -220.2744
  77   2.0000      -8.094516      -220.2630
  78   2.0000      -8.090684      -220.1587
  79   2.0000      -8.084962      -220.0030
  80   2.0000      -8.052574      -219.1217
  81   2.0000      -6.066088      -165.0667
  82   2.0000      -6.065391      -165.0477
  83   2.0000      -6.064223      -165.0159
  84   2.0000      -6.063850      -165.0058
  85   2.0000      -6.061893      -164.9525
  86   2.0000      -6.061186      -164.9333
  87   2.0000      -6.060039      -164.9021
  88   2.0000      -6.059796      -164.8954
  89   2.0000      -6.059652      -164.8915
  90   2.0000      -6.059046      -164.8750
  91   2.0000      -6.058344      -164.8559
  92   2.0000      -6.057178      -164.8242
  93   2.0000      -6.056740      -164.8123
  94   2.0000      -6.055726      -164.7847
  95   2.0000      -6.054403      -164.7487
  96   2.0000      -6.053164      -164.7150
  97   2.0000      -6.049611      -164.6183
  98   2.0000      -6.047481      -164.5603
  99   2.0000      -6.022159      -163.8713
 100   2.0000      -6.018654      -163.7759
 101   2.0000      -6.012817      -163.6171
 102   2.0000      -1.171651       -31.8822
 103   2.0000      -1.147301       -31.2197
 104   2.0000      -1.143283       -31.1103
 105   2.0000      -1.058557       -28.8048
 106   2.0000      -1.057256       -28.7694
 107   2.0000      -1.052306       -28.6347
 108   2.0000      -1.050923       -28.5971
 109   2.0000      -1.032770       -28.1031
 110   2.0000      -1.027687       -27.9648
 111   2.0000      -1.026300       -27.9270
 112   2.0000      -1.022090       -27.8125
 113   2.0000      -1.018850       -27.7243
 114   2.0000      -1.016863       -27.6703
 115   2.0000      -1.012712       -27.5573
 116   2.0000      -1.010177       -27.4883
 117   2.0000      -1.006631       -27.3918
 118   2.0000      -1.001015       -27.2390
 119   2.0000      -0.997753       -27.1502
 120   2.0000      -0.996439       -27.1145
 121   2.0000      -0.974204       -26.5094
 122   2.0000      -0.965822       -26.2814
 123   2.0000      -0.962661       -26.1953
 124   2.0000      -0.954931       -25.9850
 125   2.0000      -0.949097       -25.8262
 126   2.0000      -0.931208       -25.3395
 127   2.0000      -0.922644       -25.1064
 128   2.0000      -0.912781       -24.8380
 129   2.0000      -0.907710       -24.7000
 130   2.0000      -0.891805       -24.2672
 131   2.0000      -0.882991       -24.0274
 132   2.0000      -0.880221       -23.9520
 133   2.0000      -0.877893       -23.8887
 134   2.0000      -0.869638       -23.6640
 135   2.0000      -0.868712       -23.6388
 136   2.0000      -0.866257       -23.5721
 137   2.0000      -0.861727       -23.4488
 138   2.0000      -0.858654       -23.3652
 139   2.0000      -0.845282       -23.0013
 140   2.0000      -0.829124       -22.5616
 141   2.0000      -0.811742       -22.0886
 142   2.0000      -0.807423       -21.9711
 143   2.0000      -0.793382       -21.5890
 144   2.0000      -0.789325       -21.4786
 145   2.0000      -0.787883       -21.4394
 146   2.0000      -0.782283       -21.2870
 147   2.0000      -0.775856       -21.1121
 148   2.0000      -0.765224       -20.8228
 149   2.0000      -0.751959       -20.4618
 150   2.0000      -0.739382       -20.1196
 151   2.0000      -0.726517       -19.7695
 152   2.0000      -0.717130       -19.5141
 153   2.0000      -0.713801       -19.4235
 154   2.0000      -0.705570       -19.1995
 155   2.0000      -0.700473       -19.0608
 156   2.0000      -0.697767       -18.9872
 157   2.0000      -0.693555       -18.8726
 158   2.0000      -0.692460       -18.8428
 159   2.0000      -0.688162       -18.7258
 160   2.0000      -0.683809       -18.6074
 161   2.0000      -0.677459       -18.4346
 162   2.0000      -0.668692       -18.1960
 163   2.0000      -0.656213       -17.8565
 164   2.0000      -0.645930       -17.5766
 165   2.0000      -0.641104       -17.4453
 166   2.0000      -0.637628       -17.3508
 167   2.0000      -0.634531       -17.2665
 168   2.0000      -0.631625       -17.1874
 169   2.0000      -0.628783       -17.1100
 170   2.0000      -0.624678       -16.9984
 171   2.0000      -0.624396       -16.9907
 172   2.0000      -0.618488       -16.8299
 173   2.0000      -0.613454       -16.6929
 174   2.0000      -0.609517       -16.5858
 175   2.0000      -0.591072       -16.0839
 176   2.0000      -0.588000       -16.0003
 177   2.0000      -0.587387       -15.9836
 178   2.0000      -0.580123       -15.7859
 179   2.0000      -0.572432       -15.5767
 180   2.0000      -0.569030       -15.4841
 181   2.0000      -0.561920       -15.2906
 182   2.0000      -0.560234       -15.2448
 183   2.0000      -0.558397       -15.1947
 184   2.0000      -0.555200       -15.1078
 185   2.0000      -0.552905       -15.0453
 186   2.0000      -0.547516       -14.8987
 187   2.0000      -0.544437       -14.8149
 188   2.0000      -0.542457       -14.7610
 189   2.0000      -0.537991       -14.6395
 190   2.0000      -0.534546       -14.5457
 191   2.0000      -0.533001       -14.5037
 192   2.0000      -0.530850       -14.4452
 193   2.0000      -0.523153       -14.2357
 194   2.0000      -0.522318       -14.2130
 195   2.0000      -0.520287       -14.1577
 196   2.0000      -0.518376       -14.1057
 197   2.0000      -0.516346       -14.0505
 198   2.0000      -0.515377       -14.0241
 199   2.0000      -0.513242       -13.9660
 200   2.0000      -0.510136       -13.8815
 201   2.0000      -0.508597       -13.8396
 202   2.0000      -0.507599       -13.8125
 203   2.0000      -0.504638       -13.7319
 204   2.0000      -0.502396       -13.6709
 205   2.0000      -0.501361       -13.6427
 206   2.0000      -0.499692       -13.5973
 207   2.0000      -0.499468       -13.5912
 208   2.0000      -0.497050       -13.5254
 209   2.0000      -0.492453       -13.4003
 210   2.0000      -0.492118       -13.3912
 211   2.0000      -0.490637       -13.3509
 212   2.0000      -0.488876       -13.3030
 213   2.0000      -0.486492       -13.2381
 214   2.0000      -0.482444       -13.1280
 215   2.0000      -0.477866       -13.0034
 216   2.0000      -0.477564       -12.9952
 217   2.0000      -0.476494       -12.9661
 218   2.0000      -0.471537       -12.8312
 219   2.0000      -0.467992       -12.7347
 220   2.0000      -0.466188       -12.6856
 221   2.0000      -0.465583       -12.6692
 222   2.0000      -0.465043       -12.6545
 223   2.0000      -0.461072       -12.5464
 224   2.0000      -0.458706       -12.4820
 225   2.0000      -0.456071       -12.4103
 226   2.0000      -0.455400       -12.3921
 227   2.0000      -0.455050       -12.3825
 228   2.0000      -0.452849       -12.3226
 229   2.0000      -0.452484       -12.3127
 230   2.0000      -0.450950       -12.2710
 231   2.0000      -0.450825       -12.2676
 232   2.0000      -0.449489       -12.2312
 233   2.0000      -0.448996       -12.2178
 234   2.0000      -0.447669       -12.1817
 235   2.0000      -0.445891       -12.1333
 236   2.0000      -0.445600       -12.1254
 237   2.0000      -0.445522       -12.1233
 238   2.0000      -0.445143       -12.1129
 239   2.0000      -0.443581       -12.0704
 240   2.0000      -0.442947       -12.0532
 241   2.0000      -0.441454       -12.0126
 242   2.0000      -0.436226       -11.8703
 243   2.0000      -0.435545       -11.8518
 244   2.0000      -0.433322       -11.7913
 245   2.0000      -0.430749       -11.7213
 246   2.0000      -0.429593       -11.6898
 247   2.0000      -0.428322       -11.6552
 248   2.0000      -0.421331       -11.4650
 249   2.0000      -0.419216       -11.4075
 250   2.0000      -0.413746       -11.2586
 251   2.0000      -0.411359       -11.1937
 252   2.0000      -0.409427       -11.1411
 253   2.0000      -0.400559       -10.8998
 254   2.0000      -0.391425       -10.6512
 255   2.0000      -0.376046       -10.2327
 256   2.0000      -0.375385       -10.2147
 257   2.0000      -0.362622        -9.8674
 258   2.0000      -0.360552        -9.8111
 259   2.0000      -0.357480        -9.7275
 260   2.0000      -0.354654        -9.6506
 261   2.0000      -0.350595        -9.5402
 262   2.0000      -0.350373        -9.5341
 263   2.0000      -0.343816        -9.3557
 264   2.0000      -0.339514        -9.2386
 265   2.0000      -0.335189        -9.1210
 266   2.0000      -0.330016        -8.9802
 267   2.0000      -0.328449        -8.9376
 268   2.0000      -0.322611        -8.7787
 269   2.0000      -0.316774        -8.6199
 270   2.0000      -0.295690        -8.0461
 271   2.0000      -0.269373        -7.3300
 272   2.0000      -0.246568        -6.7095
 273   0.0000      -0.120394        -3.2761
 274   0.0000      -0.112084        -3.0500
 275   0.0000      -0.110304        -3.0015
 276   0.0000      -0.088554        -2.4097
 277   0.0000      -0.069006        -1.8778

MULLIKEN ATOMIC CHARGES
-----------------------
   0 C :   -0.208994
   1 S :    0.047702
   2 C :    0.140795
   3 O :   -0.176325
   4 N :   -0.270888
   5 C :    0.259483
   6 O :   -0.183496
   7 C :    0.121451
   8 C :    0.104301
   9 C :   -0.117151
  10 C :   -0.019396
  11 C :   -0.002654
  12 C :   -0.091047
  13 S :    0.183586
  14 C :   -0.099674
  15 C :    0.018523
  16 C :    0.313363
  17 C :   -0.299398
  18 C :   -0.189603
  19 N :    0.167273
  20 C :   -0.194223
  21 N :    0.202187
  22 C :   -0.066387
  23 C :   -0.047472
  24 S :    0.197077
  25 C :   -0.051708
  26 C :   -0.063075
  27 C :    0.015174
  28 C :   -0.098737
  29 S :    0.203131
  30 C :   -0.095816
  31 C :    0.014781
  32 C :    0.301673
  33 C :   -0.292602
  34 C :   -0.191077
  35 N :    0.180143
  36 C :   -0.186252
  37 N :    0.172514
  38 C :   -0.062673
  39 C :   -0.055098
  40 S :    0.204616
  41 C :   -0.043939
  42 C :   -0.068285
  43 C :    0.023832
  44 C :   -0.105478
  45 S :    0.204775
  46 C :   -0.069208
  47 C :    0.042009
  48 C :    0.302280
  49 C :   -0.291706
  50 C :   -0.193679
  51 N :    0.185522
  52 C :   -0.189935
  53 N :    0.173593
  54 C :   -0.057427
  55 C :   -0.056187
  56 S :    0.244811
  57 C :   -0.026917
  58 C :   -0.098004
  59 C :    0.318686
  60 C :   -0.345753
  61 C :   -0.197603
  62 N :    0.160087
  63 C :   -0.183286
  64 N :    0.152497
  65 C :    0.040708
  66 C :   -0.020972
  67 C :    0.170386
  68 O :   -0.191030
  69 C :   -0.020374
  70 C :    0.005440
  71 C :   -0.034858
  72 C :   -0.063753
  73 C :    0.085328
  74 H :    0.047407
  75 H :    0.065107
  76 H :    0.047546
  77 H :    0.001138
  78 H :    0.036674
  79 H :    0.012472
  80 H :    0.011675
  81 H :    0.013862
  82 H :    0.013339
  83 H :    0.026497
  84 H :    0.018026
  85 H :   -0.005389
  86 H :   -0.014942
  87 H :   -0.010452
  88 H :    0.043791
  89 H :    0.026771
  90 H :    0.030888
Sum of atomic charges:   -0.0000000

LOEWDIN ATOMIC CHARGES
----------------------
   0 C :   -0.209242
   1 S :    0.328022
   2 C :   -0.052407
   3 O :   -0.165265
   4 N :   -0.043396
   5 C :    0.075067
   6 O :   -0.161618
   7 C :    0.041139
   8 C :   -0.021406
   9 C :   -0.172676
  10 C :   -0.001357
  11 C :   -0.073297
  12 C :   -0.172941
  13 S :    0.478356
  14 C :   -0.184424
  15 C :   -0.059207
  16 C :    0.077587
  17 C :   -0.093815
  18 C :   -0.014119
  19 N :   -0.033329
  20 C :   -0.023708
  21 N :   -0.013567
  22 C :   -0.039259
  23 C :   -0.176437
  24 S :    0.484291
  25 C :   -0.178237
  26 C :   -0.037251
  27 C :   -0.066713
  28 C :   -0.180337
  29 S :    0.490650
  30 C :   -0.176359
  31 C :   -0.068640
  32 C :    0.082078
  33 C :   -0.098750
  34 C :   -0.016813
  35 N :   -0.029261
  36 C :   -0.016061
  37 N :   -0.030354
  38 C :   -0.033722
  39 C :   -0.182409
  40 S :    0.491188
  41 C :   -0.169531
  42 C :   -0.042052
  43 C :   -0.053406
  44 C :   -0.186605
  45 S :    0.490412
  46 C :   -0.167925
  47 C :   -0.079808
  48 C :    0.078483
  49 C :   -0.099315
  50 C :   -0.020209
  51 N :   -0.022229
  52 C :   -0.016025
  53 N :   -0.032209
  54 C :    0.011286
  55 C :   -0.184629
  56 S :    0.549220
  57 C :    0.054014
  58 C :   -0.110090
  59 C :    0.077114
  60 C :   -0.136722
  61 C :   -0.023250
  62 N :   -0.045347
  63 C :   -0.017613
  64 N :   -0.051092
  65 C :   -0.008408
  66 C :   -0.052738
  67 C :    0.086733
  68 O :   -0.175056
  69 C :    0.017374
  70 C :   -0.007905
  71 C :    0.003195
  72 C :   -0.006197
  73 C :   -0.042730
  74 H :    0.035091
  75 H :    0.040657
  76 H :    0.035085
  77 H :    0.036231
  78 H :    0.041917
  79 H :    0.035856
  80 H :    0.036048
  81 H :    0.036680
  82 H :    0.036392
  83 H :    0.047726
  84 H :    0.053525
  85 H :    0.039499
  86 H :    0.031769
  87 H :    0.036981
  88 H :    0.044509
  89 H :    0.036013
  90 H :    0.037278

  Mayer bond orders larger than 0.100000
B(  0-C ,  1-S ) :   1.0346 B(  0-C ,  5-C ) :   0.9512 B(  0-C ,  8-C ) :   1.7321
B(  1-S ,  2-C ) :   0.9902 B(  2-C ,  3-O ) :   2.1346 B(  2-C ,  4-N ) :   1.0642
B(  4-N ,  5-C ) :   1.0787 B(  4-N ,  7-C ) :   0.9297 B(  5-C ,  6-O ) :   2.0644
B(  7-C , 74-H ) :   0.9766 B(  7-C , 75-H ) :   0.9576 B(  7-C , 76-H ) :   0.9769
B(  8-C ,  9-C ) :   1.1815 B(  8-C , 77-H ) :   0.9252 B(  9-C , 10-C ) :   1.4400
B(  9-C , 13-S ) :   1.0813 B( 10-C , 11-C ) :   1.2872 B( 10-C , 78-H ) :   0.9713
B( 11-C , 12-C ) :   1.4072 B( 11-C , 16-C ) :   0.9975 B( 12-C , 13-S ) :   1.1467
B( 12-C , 14-C ) :   1.1927 B( 14-C , 15-C ) :   1.4487 B( 14-C , 24-S ) :   1.1126
B( 15-C , 16-C ) :   0.9914 B( 15-C , 22-C ) :   1.3048 B( 16-C , 17-C ) :   1.7147
B( 17-C , 18-C ) :   1.1341 B( 17-C , 20-C ) :   1.1375 B( 18-C , 19-N ) :   2.9868
B( 20-C , 21-N ) :   3.0023 B( 22-C , 23-C ) :   1.4533 B( 22-C , 79-H ) :   0.9853
B( 23-C , 24-S ) :   1.1127 B( 23-C , 25-C ) :   1.1699 B( 25-C , 26-C ) :   1.4569
B( 25-C , 29-S ) :   1.1099 B( 26-C , 27-C ) :   1.3030 B( 26-C , 80-H ) :   0.9863
B( 27-C , 28-C ) :   1.4458 B( 27-C , 32-C ) :   0.9944 B( 28-C , 29-S ) :   1.1217
B( 28-C , 30-C ) :   1.1864 B( 30-C , 31-C ) :   1.4407 B( 30-C , 40-S ) :   1.1253
B( 31-C , 32-C ) :   0.9944 B( 31-C , 38-C ) :   1.3042 B( 32-C , 33-C ) :   1.7154
B( 33-C , 34-C ) :   1.1349 B( 33-C , 36-C ) :   1.1320 B( 34-C , 35-N ) :   2.9933
B( 36-C , 37-N ) :   2.9908 B( 38-C , 39-C ) :   1.4556 B( 38-C , 81-H ) :   0.9869
B( 39-C , 40-S ) :   1.1073 B( 39-C , 41-C ) :   1.1705 B( 41-C , 42-C ) :   1.4491
B( 41-C , 45-S ) :   1.1193 B( 42-C , 43-C ) :   1.3047 B( 42-C , 82-H ) :   0.9868
B( 43-C , 44-C ) :   1.4377 B( 43-C , 48-C ) :   0.9953 B( 44-C , 45-S ) :   1.1113
B( 44-C , 46-C ) :   1.2009 B( 46-C , 47-C ) :   1.3582 B( 46-C , 56-S ) :   1.1262
B( 47-C , 48-C ) :   0.9887 B( 47-C , 54-C ) :   1.3282 B( 48-C , 49-C ) :   1.7156
B( 49-C , 50-C ) :   1.1346 B( 49-C , 52-C ) :   1.1333 B( 50-C , 51-N ) :   2.9953
B( 52-C , 53-N ) :   2.9894 B( 54-C , 55-C ) :   1.3358 B( 54-C , 83-H ) :   1.0085
B( 55-C , 56-S ) :   1.0712 B( 55-C , 57-C ) :   1.2583 B( 57-C , 58-C ) :   1.5082
B( 57-C , 84-H ) :   0.9414 B( 58-C , 59-C ) :   1.0725 B( 58-C , 67-C ) :   0.9771
B( 59-C , 60-C ) :   1.6382 B( 59-C , 65-C ) :   0.9797 B( 60-C , 61-C ) :   1.1410
B( 60-C , 63-C ) :   1.1457 B( 61-C , 62-N ) :   2.9715 B( 63-C , 64-N ) :   2.9678
B( 65-C , 66-C ) :   1.3316 B( 65-C , 72-C ) :   1.3703 B( 66-C , 67-C ) :   0.9731
B( 66-C , 69-C ) :   1.3726 B( 67-C , 68-O ) :   2.1062 B( 69-C , 70-C ) :   1.3503
B( 69-C , 85-H ) :   1.0074 B( 70-C , 71-C ) :   1.3813 B( 70-C , 86-H ) :   0.9934
B( 71-C , 72-C ) :   1.3563 B( 71-C , 73-C ) :   1.0516 B( 72-C , 87-H ) :   0.9837
B( 73-C , 88-H ) :   0.9512 B( 73-C , 89-H ) :   0.9579 B( 73-C , 90-H ) :   0.9590

-----------------------------------------------------------------------------
         ABSORPTION SPECTRUM VIA TRANSITION ELECTRIC DIPOLE MOMENTS
-----------------------------------------------------------------------------
State   Energy  Wavelength   fosc         T2         TX        TY        TZ
        (cm-1)    (nm)                  (au**2)     (au)      (au)      (au)
-----------------------------------------------------------------------------
   0   11011.9    908.1   0.471591673  14.09870  -0.65576   2.93346   2.25022
   1   12630.4    791.7   0.192374970   5.01425  -0.33624   1.82435   1.25417
   2   13330.2    750.2   0.150657003   3.72074  -0.26338   1.36753   1.33462
   3   19865.4    503.4   0.004933268   0.08175  -0.09390   0.26997   0.00732
   4   20353.4    491.3   1.734996017  28.06317   0.60376  -4.07532  -3.33023
   5   21914.0    456.3   0.004726264   0.07100   0.19423  -0.06650   0.16986
   6   22429.9    445.8   0.316618633   4.64712   0.01623  -1.64898  -1.38843
   7   24206.1    413.1   0.968484328  13.17173   0.68823  -3.05261  -1.83838
   8   25848.6    386.9   0.058539614   0.74557   0.38134  -0.73117  -0.25602
   9   26032.3    384.1   0.064695571   0.81816   0.15877   0.70060   0.54965
  10   27620.6    362.0   0.000623382   0.00743  -0.03001   0.04392   0.06783
  11   27681.2    361.3   0.008655109   0.10294   0.26313  -0.11122  -0.14604
  12   28528.8    350.5   0.031427548   0.36266  -0.30809  -0.46548  -0.22600
  13   29143.7    343.1   0.022219793   0.25100   0.42763   0.18235   0.18676
  14   29390.0    340.3   0.172429868   1.93147   0.14639  -1.09467  -0.84365
  15   29934.7    334.1   0.007149773   0.07863  -0.26405   0.07124  -0.06193
  16   30900.2    323.6   0.181218265   1.93071  -1.19515  -0.70800  -0.03247
  17   31235.7    320.1   0.026969763   0.28425   0.14434   0.19920   0.47301
  18   31615.9    316.3   1.494236085  15.55927  -3.60647  -1.37563   0.81256
  19   31684.1    315.6   0.154806558   1.60851  -0.87598   0.42628   0.81207
  20   32243.1    310.1   0.477833185   4.87882   1.63620   1.48063   0.09690
  21   32573.1    307.0   0.124229606   1.25557   0.41437  -0.91420  -0.49810
  22   32851.9    304.4   0.064535374   0.64671   0.74667   0.02100  -0.29791
  23   32940.2    303.6   0.000581730   0.00581  -0.05755  -0.02921  -0.04061
  24   33059.8    302.5   0.025569484   0.25462  -0.07137   0.28748   0.40851
  25   33133.2    301.8   0.015254629   0.15157  -0.20942   0.24643   0.21675
  26   33749.9    296.3   0.169320960   1.65163  -0.28496   0.82620   0.94225
  27   33873.6    295.2   0.154113698   1.49781   0.10769   0.94408   0.77131
  28   34086.8    293.4   0.125130219   1.20851   0.87338   0.63528   0.20531
  29   34269.4    291.8   0.093774428   0.90085  -0.45875   0.53609   0.63483
  30   34486.0    290.0   0.083581447   0.79789  -0.33643  -0.76702  -0.31046
  31   34625.3    288.8   0.061952588   0.58904  -0.14765  -0.71326  -0.24185
  32   34765.1    287.6   0.007958714   0.07537   0.22099  -0.00461  -0.16281
  33   35175.6    284.3   0.281743598   2.63686  -1.56328  -0.43894  -0.01897
  34   35555.6    281.2   0.035474806   0.32846  -0.46911  -0.32494  -0.05305
  35   35766.5    279.6   0.027875051   0.25658  -0.02566   0.48097   0.15681
  36   35866.2    278.8   0.000535109   0.00491  -0.01970  -0.06662   0.00925
  37   35984.0    277.9   0.035685037   0.32648   0.45439  -0.19002  -0.28965
  38   36446.5    274.4   0.008298187   0.07496  -0.17587   0.20025   0.06265
  39   36675.3    272.7   0.334969788   3.00682   1.66559   0.45603  -0.15706
  40   37095.8    269.6   0.219761625   1.95031  -1.30611   0.25074   0.42604
  41   37292.6    268.1   0.015553165   0.13730  -0.35542   0.05403   0.08976
  42   37724.6    265.1   0.011796453   0.10294  -0.25819  -0.13024   0.13899
  43   38141.3    262.2   0.083188718   0.71803  -0.50514   0.46301   0.49849
  44   38531.3    259.5   0.016270587   0.13902  -0.13871  -0.33629  -0.08178
  45   38769.5    257.9   0.013743998   0.11671  -0.01645   0.26626   0.21340
  46   38838.6    257.5   0.065824762   0.55796   0.50694  -0.27514  -0.47462
  47   39160.3    255.4   0.066849406   0.56199  -0.34549  -0.53192  -0.39960
  48   39357.2    254.1   0.005199670   0.04349  -0.14370   0.09018   0.12129
  49   39516.4    253.1   0.007421397   0.06183   0.24807   0.01654   0.00397
  50   39658.0    252.2   0.015426820   0.12806  -0.28521  -0.18654  -0.10918
  51   39852.5    250.9   0.010000973   0.08262  -0.26428   0.00024   0.11301
  52   40196.9    248.8   0.025479897   0.20868  -0.28874   0.13868   0.32569

FINAL SINGLE POINT ENERGY     -5607.281124014760

DIPOLE MOMENT
-------------
                                X             Y             Z
Electronic contribution:      6.09031      22.52817      27.04137
Nuclear contribution   :     -9.53919     -23.15922     -26.50139
                        -----------------------------------------
Total Dipole Moment    :     -3.44888      -0.63105       0.53998
                        -----------------------------------------
Magnitude (a.u.)       :      3.54747
Magnitude (Debye)      :      9.01696

Rotational constants in cm-1:     0.002573     0.000155     0.000147
Rotational constants in MHz :    77.134766     4.639652     4.410814

                             ****ORCA TERMINATED NORMALLY****
TOTAL RUN TIME: 0 days 0 hours 8 minutes 23 seconds 286 msec
