                         Program Version 4.2.0 -  RELEASE  -
|  1> # ORCA input file
|  2> # SCF done       -193.147457495501          0.000713334602
|  3> ! CAM-B3LYP def2-SVP def2/J RIJCOSX Grid4 TightSCF
|  4> %maxcore 5000
|  5> %tddft
|  6>     Mode sTDDFT
|  7>     Ethresh 5.0
|  8>     maxcore 5000
|  9> end
| 10>
| 11> %pal
| 12>   nprocs 6
| 13>   end
| 14> * xyz 0 1
| 15>    C       -2.09503        -3.19439         2.69305
| 16>    C       -3.42333        -3.48806         2.65144
| 17>    S       -3.67264        -5.16099         2.31266
| 18>    C       -1.98031        -5.47510         2.22478
| 19>    C       -1.27001        -4.33956         2.44687
| 20>    C        0.13695        -3.94000         2.50610
| 21>    O        1.11557        -4.64963         2.35168
| 22>    C        0.12764        -2.49333         2.79066
| 23>    C       -1.24855        -2.03830         2.91868
| 24>    C       -1.71633        -0.78147         3.19805
| 25>    C       -3.10092        -0.52114         3.27571
| 26>    N       -4.22372        -0.29392         3.33911
| 27>    C       -0.93346         0.36450         3.43845
| 28>    N       -0.35432         1.33415         3.64629
| 29>    C        1.23709        -1.69507         2.89239
| 30>    C        2.60012        -2.00549         2.76118
| 31>    C        3.59002        -1.01935         2.85426
| 32>    C        4.86167        -1.52644         2.66982
| 33>    C        4.85231        -2.92395         2.44249
| 34>    S        3.28905        -3.59906         2.44881
| 35>    C        6.19092        -3.34088         2.24505
| 36>    C        7.04040        -2.22350         2.33989
| 37>    C        6.23354        -1.04603         2.61794
| 38>    C        6.67611         0.23262         2.78428
| 39>    C        5.79967         1.30713         3.04759
| 40>    N        5.09484         2.18567         3.25988
| 41>    C        8.04523         0.56387         2.70092
| 42>    N        9.15864         0.82840         2.63042
| 43>    C        8.38101        -2.53904         2.12896
| 44>    C        8.55939        -3.88827         1.87713
| 45>    S        7.04675        -4.78144         1.90888
| 46>    C        9.77578        -4.55370         1.58178
| 47>    C        9.96762        -5.90594         1.36148
| 48>    C       11.29464        -6.19953         1.05127
| 49>    C       12.11759        -5.05963         1.03343
| 50>    S       11.26303        -3.63117         1.41152
| 51>    C       13.42988        -5.45462         0.67145
| 52>    C       13.43851        -6.84547         0.46517
| 53>    C       12.09937        -7.36091         0.70489
| 54>    C       11.68525        -8.65666         0.61472
| 55>    C       10.34951        -9.03542         0.86743
| 56>    N        9.26335        -9.34051         1.07160
| 57>    C       12.56688        -9.70046         0.26162
| 58>    N       13.28454       -10.54605        -0.02827
| 59>    C       14.68486        -7.32740         0.06915
| 60>    C       15.62152        -6.31428        -0.03417
| 61>    S       14.95336        -4.74158         0.38081
| 62>    C       16.97014        -6.42585        -0.45540
| 63>    C       17.88781        -5.40224        -0.62085
| 64>    C       19.10950        -5.87133        -1.09857
| 65>    C       19.12293        -7.26431        -1.29097
| 66>    S       17.63241        -7.99513        -0.88226
| 67>    C       20.38872        -7.64034        -1.79799
| 68>    C       21.18012        -6.47713        -1.93730
| 69>    C       20.40864        -5.33354        -1.47913
| 70>    C       20.81108        -4.03397        -1.39746
| 71>    C       19.94689        -3.01830        -0.93420
| 72>    N       19.24021        -2.19677        -0.55951
| 73>    C       22.11350        -3.60666        -1.73820
| 74>    N       23.16858        -3.23259        -1.98293
| 75>    C       22.43236        -6.73060        -2.48013
| 76>    C       22.62175        -8.07956        -2.75327
| 77>    S       21.20537        -9.04203        -2.29905
| 78>    C       23.71658        -8.80377        -3.26668
| 79>    C       24.84901        -8.37856        -3.90477
| 80>    C       25.13140        -7.01511        -4.44069
| 81>    O       24.46073        -6.01322        -4.32546
| 82>    C       26.37958        -7.15815        -5.19963
| 83>    C       27.18422        -6.35846        -5.94452
| 84>    S       28.52969        -7.24759        -6.55425
| 85>    C       28.00485        -8.70742        -5.80179
| 86>    C       26.84589        -8.50872        -5.11499
| 87>    C       25.92764        -9.27520        -4.29865
| 88>    C       26.11738       -10.58719        -3.94950
| 89>    C       27.23341       -11.31109        -4.41985
| 90>    N       28.13207       -11.91638        -4.79737
| 91>    C       25.29381       -11.35586        -3.10423
| 92>    N       24.67546       -12.03570        -2.41485
| 93>    H       -4.27068        -2.84777         2.79328
| 94>    H       -1.62438        -6.46433         2.01756
| 95>    H        1.06242        -0.64425         3.09249
| 96>    H        3.35346         0.01313         3.04235
| 97>    H        9.19554        -1.83738         2.15027
| 98>    H        9.17022        -6.62466         1.42290
| 99>    H       14.91321        -8.35581        -0.14642
|100>    H       17.65683        -4.37384        -0.40830
|101>    H       23.17960        -5.98639        -2.68576
|102>    H       23.61422        -9.87599        -3.14177
|103>    H       27.07787        -5.31625        -6.16950
|104>    H       28.58386        -9.60075        -5.92356
|105> *
|106>
|107>                          ****END OF INPUT****

CARTESIAN COORDINATES (ANGSTROEM)
---------------------------------
  C     -2.095030   -3.194390    2.693050
  C     -3.423330   -3.488060    2.651440
  S     -3.672640   -5.160990    2.312660
  C     -1.980310   -5.475100    2.224780
  C     -1.270010   -4.339560    2.446870
  C      0.136950   -3.940000    2.506100
  O      1.115570   -4.649630    2.351680
  C      0.127640   -2.493330    2.790660
  C     -1.248550   -2.038300    2.918680
  C     -1.716330   -0.781470    3.198050
  C     -3.100920   -0.521140    3.275710
  N     -4.223720   -0.293920    3.339110
  C     -0.933460    0.364500    3.438450
  N     -0.354320    1.334150    3.646290
  C      1.237090   -1.695070    2.892390
  C      2.600120   -2.005490    2.761180
  C      3.590020   -1.019350    2.854260
  C      4.861670   -1.526440    2.669820
  C      4.852310   -2.923950    2.442490
  S      3.289050   -3.599060    2.448810
  C      6.190920   -3.340880    2.245050
  C      7.040400   -2.223500    2.339890
  C      6.233540   -1.046030    2.617940
  C      6.676110    0.232620    2.784280
  C      5.799670    1.307130    3.047590
  N      5.094840    2.185670    3.259880
  C      8.045230    0.563870    2.700920
  N      9.158640    0.828400    2.630420
  C      8.381010   -2.539040    2.128960
  C      8.559390   -3.888270    1.877130
  S      7.046750   -4.781440    1.908880
  C      9.775780   -4.553700    1.581780
  C      9.967620   -5.905940    1.361480
  C     11.294640   -6.199530    1.051270
  C     12.117590   -5.059630    1.033430
  S     11.263030   -3.631170    1.411520
  C     13.429880   -5.454620    0.671450
  C     13.438510   -6.845470    0.465170
  C     12.099370   -7.360910    0.704890
  C     11.685250   -8.656660    0.614720
  C     10.349510   -9.035420    0.867430
  N      9.263350   -9.340510    1.071600
  C     12.566880   -9.700460    0.261620
  N     13.284540  -10.546050   -0.028270
  C     14.684860   -7.327400    0.069150
  C     15.621520   -6.314280   -0.034170
  S     14.953360   -4.741580    0.380810
  C     16.970140   -6.425850   -0.455400
  C     17.887810   -5.402240   -0.620850
  C     19.109500   -5.871330   -1.098570
  C     19.122930   -7.264310   -1.290970
  S     17.632410   -7.995130   -0.882260
  C     20.388720   -7.640340   -1.797990
  C     21.180120   -6.477130   -1.937300
  C     20.408640   -5.333540   -1.479130
  C     20.811080   -4.033970   -1.397460
  C     19.946890   -3.018300   -0.934200
  N     19.240210   -2.196770   -0.559510
  C     22.113500   -3.606660   -1.738200
  N     23.168580   -3.232590   -1.982930
  C     22.432360   -6.730600   -2.480130
  C     22.621750   -8.079560   -2.753270
  S     21.205370   -9.042030   -2.299050
  C     23.716580   -8.803770   -3.266680
  C     24.849010   -8.378560   -3.904770
  C     25.131400   -7.015110   -4.440690
  O     24.460730   -6.013220   -4.325460
  C     26.379580   -7.158150   -5.199630
  C     27.184220   -6.358460   -5.944520
  S     28.529690   -7.247590   -6.554250
  C     28.004850   -8.707420   -5.801790
  C     26.845890   -8.508720   -5.114990
  C     25.927640   -9.275200   -4.298650
  C     26.117380  -10.587190   -3.949500
  C     27.233410  -11.311090   -4.419850
  N     28.132070  -11.916380   -4.797370
  C     25.293810  -11.355860   -3.104230
  N     24.675460  -12.035700   -2.414850
  H     -4.270680   -2.847770    2.793280
  H     -1.624380   -6.464330    2.017560
  H      1.062420   -0.644250    3.092490
  H      3.353460    0.013130    3.042350
  H      9.195540   -1.837380    2.150270
  H      9.170220   -6.624660    1.422900
  H     14.913210   -8.355810   -0.146420
  H     17.656830   -4.373840   -0.408300
  H     23.179600   -5.986390   -2.685760
  H     23.614220   -9.875990   -3.141770
  H     27.077870   -5.316250   -6.169500
  H     28.583860   -9.600750   -5.923560

 Total Charge           Charge          ....    0
 Multiplicity           Mult            ....    1
 Number of Electrons    NEL             ....  574
 Basis Dimension        Dim             .... 1184

ORBITAL ENERGIES
----------------

  NO   OCC          E(Eh)            E(eV)
   0   2.0000     -89.007083     -2422.0059
   1   2.0000     -89.006647     -2421.9940
   2   2.0000     -89.006327     -2421.9853
   3   2.0000     -89.004685     -2421.9406
   4   2.0000     -89.002314     -2421.8761
   5   2.0000     -88.996964     -2421.7305
   6   2.0000     -88.989655     -2421.5316
   7   2.0000     -88.986709     -2421.4515
   8   2.0000     -19.231327      -523.3110
   9   2.0000     -19.222716      -523.0767
  10   2.0000     -14.444217      -393.0471
  11   2.0000     -14.444131      -393.0448
  12   2.0000     -14.441034      -392.9605
  13   2.0000     -14.439822      -392.9275
  14   2.0000     -14.437305      -392.8590
  15   2.0000     -14.436401      -392.8344
  16   2.0000     -14.421736      -392.4354
  17   2.0000     -14.421282      -392.4230
  18   2.0000     -14.418047      -392.3350
  19   2.0000     -14.417025      -392.3072
  20   2.0000     -10.383367      -282.5458
  21   2.0000     -10.380025      -282.4548
  22   2.0000     -10.378517      -282.4138
  23   2.0000     -10.376577      -282.3610
  24   2.0000     -10.374688      -282.3096
  25   2.0000     -10.366664      -282.0913
  26   2.0000     -10.362867      -281.9880
  27   2.0000     -10.362319      -281.9730
  28   2.0000     -10.353335      -281.7286
  29   2.0000     -10.349112      -281.6136
  30   2.0000     -10.348867      -281.6070
  31   2.0000     -10.348716      -281.6029
  32   2.0000     -10.348356      -281.5931
  33   2.0000     -10.347751      -281.5766
  34   2.0000     -10.347502      -281.5698
  35   2.0000     -10.346097      -281.5316
  36   2.0000     -10.345550      -281.5167
  37   2.0000     -10.345512      -281.5157
  38   2.0000     -10.345269      -281.5091
  39   2.0000     -10.344688      -281.4933
  40   2.0000     -10.344195      -281.4799
  41   2.0000     -10.344095      -281.4771
  42   2.0000     -10.343746      -281.4676
  43   2.0000     -10.342049      -281.4215
  44   2.0000     -10.341020      -281.3935
  45   2.0000     -10.340016      -281.3661
  46   2.0000     -10.336799      -281.2786
  47   2.0000     -10.335331      -281.2386
  48   2.0000     -10.334476      -281.2154
  49   2.0000     -10.333872      -281.1990
  50   2.0000     -10.333525      -281.1895
  51   2.0000     -10.332868      -281.1716
  52   2.0000     -10.329759      -281.0870
  53   2.0000     -10.327380      -281.0223
  54   2.0000     -10.325377      -280.9678
  55   2.0000     -10.324777      -280.9515
  56   2.0000     -10.324061      -280.9320
  57   2.0000     -10.324021      -280.9309
  58   2.0000     -10.322535      -280.8905
  59   2.0000     -10.321092      -280.8512
  60   2.0000     -10.320671      -280.8397
  61   2.0000     -10.320240      -280.8280
  62   2.0000     -10.319699      -280.8133
  63   2.0000     -10.319617      -280.8110
  64   2.0000     -10.319583      -280.8101
  65   2.0000     -10.319055      -280.7958
  66   2.0000     -10.318727      -280.7868
  67   2.0000     -10.317465      -280.7525
  68   2.0000     -10.316504      -280.7263
  69   2.0000     -10.315257      -280.6924
  70   2.0000     -10.313576      -280.6467
  71   2.0000     -10.312923      -280.6289
  72   2.0000     -10.309339      -280.5314
  73   2.0000     -10.308431      -280.5067
  74   2.0000     -10.307699      -280.4868
  75   2.0000     -10.306365      -280.4504
  76   2.0000     -10.298581      -280.2386
  77   2.0000     -10.294307      -280.1223
  78   2.0000      -8.101418      -220.4508
  79   2.0000      -8.101041      -220.4405
  80   2.0000      -8.100691      -220.4310
  81   2.0000      -8.099150      -220.3891
  82   2.0000      -8.097106      -220.3335
  83   2.0000      -8.089259      -220.1199
  84   2.0000      -8.085461      -220.0166
  85   2.0000      -8.082534      -219.9369
  86   2.0000      -6.070718      -165.1926
  87   2.0000      -6.070318      -165.1818
  88   2.0000      -6.070025      -165.1738
  89   2.0000      -6.068420      -165.1301
  90   2.0000      -6.066518      -165.0784
  91   2.0000      -6.066189      -165.0694
  92   2.0000      -6.066167      -165.0688
  93   2.0000      -6.065819      -165.0593
  94   2.0000      -6.064268      -165.0171
  95   2.0000      -6.063714      -165.0021
  96   2.0000      -6.063322      -164.9914
  97   2.0000      -6.062932      -164.9808
  98   2.0000      -6.062084      -164.9577
  99   2.0000      -6.061416      -164.9395
 100   2.0000      -6.059649      -164.8914
 101   2.0000      -6.058710      -164.8659
 102   2.0000      -6.054677      -164.7561
 103   2.0000      -6.053904      -164.7351
 104   2.0000      -6.051788      -164.6775
 105   2.0000      -6.051756      -164.6766
 106   2.0000      -6.049976      -164.6282
 107   2.0000      -6.048206      -164.5801
 108   2.0000      -6.047016      -164.5477
 109   2.0000      -6.045308      -164.5012
 110   2.0000      -1.147528       -31.2258
 111   2.0000      -1.139214       -30.9996
 112   2.0000      -1.062082       -28.9007
 113   2.0000      -1.058435       -28.8015
 114   2.0000      -1.055772       -28.7290
 115   2.0000      -1.036354       -28.2006
 116   2.0000      -1.031809       -28.0769
 117   2.0000      -1.030985       -28.0545
 118   2.0000      -1.029948       -28.0263
 119   2.0000      -1.027650       -27.9638
 120   2.0000      -1.023146       -27.8412
 121   2.0000      -1.021092       -27.7853
 122   2.0000      -1.016156       -27.6510
 123   2.0000      -1.015384       -27.6300
 124   2.0000      -1.012639       -27.5553
 125   2.0000      -1.011865       -27.5343
 126   2.0000      -1.011011       -27.5110
 127   2.0000      -1.002673       -27.2841
 128   2.0000      -0.998432       -27.1687
 129   2.0000      -0.997602       -27.1461
 130   2.0000      -0.979305       -26.6483
 131   2.0000      -0.972752       -26.4699
 132   2.0000      -0.969411       -26.3790
 133   2.0000      -0.965425       -26.2706
 134   2.0000      -0.964808       -26.2538
 135   2.0000      -0.936345       -25.4792
 136   2.0000      -0.929440       -25.2913
 137   2.0000      -0.920024       -25.0351
 138   2.0000      -0.907708       -24.7000
 139   2.0000      -0.905007       -24.6265
 140   2.0000      -0.892197       -24.2779
 141   2.0000      -0.890712       -24.2375
 142   2.0000      -0.885023       -24.0827
 143   2.0000      -0.884103       -24.0577
 144   2.0000      -0.876089       -23.8396
 145   2.0000      -0.874599       -23.7990
 146   2.0000      -0.867697       -23.6112
 147   2.0000      -0.864227       -23.5168
 148   2.0000      -0.849238       -23.1089
 149   2.0000      -0.848150       -23.0793
 150   2.0000      -0.844978       -22.9930
 151   2.0000      -0.827115       -22.5069
 152   2.0000      -0.810174       -22.0460
 153   2.0000      -0.798276       -21.7222
 154   2.0000      -0.794169       -21.6104
 155   2.0000      -0.787308       -21.4237
 156   2.0000      -0.782107       -21.2822
 157   2.0000      -0.767103       -20.8739
 158   2.0000      -0.762457       -20.7475
 159   2.0000      -0.759149       -20.6575
 160   2.0000      -0.745208       -20.2781
 161   2.0000      -0.726903       -19.7800
 162   2.0000      -0.716515       -19.4974
 163   2.0000      -0.714098       -19.4316
 164   2.0000      -0.709869       -19.3165
 165   2.0000      -0.703339       -19.1388
 166   2.0000      -0.698307       -19.0019
 167   2.0000      -0.695676       -18.9303
 168   2.0000      -0.691944       -18.8287
 169   2.0000      -0.688513       -18.7354
 170   2.0000      -0.682616       -18.5749
 171   2.0000      -0.678089       -18.4517
 172   2.0000      -0.676032       -18.3958
 173   2.0000      -0.672348       -18.2955
 174   2.0000      -0.655505       -17.8372
 175   2.0000      -0.651602       -17.7310
 176   2.0000      -0.646169       -17.5831
 177   2.0000      -0.644505       -17.5379
 178   2.0000      -0.640740       -17.4354
 179   2.0000      -0.637304       -17.3419
 180   2.0000      -0.634659       -17.2700
 181   2.0000      -0.632934       -17.2230
 182   2.0000      -0.629765       -17.1368
 183   2.0000      -0.626565       -17.0497
 184   2.0000      -0.623153       -16.9569
 185   2.0000      -0.614952       -16.7337
 186   2.0000      -0.608640       -16.5619
 187   2.0000      -0.603719       -16.4280
 188   2.0000      -0.591462       -16.0945
 189   2.0000      -0.584276       -15.8990
 190   2.0000      -0.575172       -15.6512
 191   2.0000      -0.566622       -15.4186
 192   2.0000      -0.564983       -15.3740
 193   2.0000      -0.560610       -15.2550
 194   2.0000      -0.558263       -15.1911
 195   2.0000      -0.556340       -15.1388
 196   2.0000      -0.551141       -14.9973
 197   2.0000      -0.549338       -14.9482
 198   2.0000      -0.548111       -14.9149
 199   2.0000      -0.544935       -14.8284
 200   2.0000      -0.539055       -14.6684
 201   2.0000      -0.537161       -14.6169
 202   2.0000      -0.532366       -14.4864
 203   2.0000      -0.528336       -14.3768
 204   2.0000      -0.527548       -14.3553
 205   2.0000      -0.525364       -14.2959
 206   2.0000      -0.522320       -14.2131
 207   2.0000      -0.521031       -14.1780
 208   2.0000      -0.515357       -14.0236
 209   2.0000      -0.513612       -13.9761
 210   2.0000      -0.513186       -13.9645
 211   2.0000      -0.511069       -13.9069
 212   2.0000      -0.508502       -13.8370
 213   2.0000      -0.507095       -13.7987
 214   2.0000      -0.504328       -13.7235
 215   2.0000      -0.503630       -13.7045
 216   2.0000      -0.502695       -13.6790
 217   2.0000      -0.501573       -13.6485
 218   2.0000      -0.500111       -13.6087
 219   2.0000      -0.498360       -13.5611
 220   2.0000      -0.497913       -13.5489
 221   2.0000      -0.494516       -13.4565
 222   2.0000      -0.492695       -13.4069
 223   2.0000      -0.488926       -13.3044
 224   2.0000      -0.486403       -13.2357
 225   2.0000      -0.485219       -13.2035
 226   2.0000      -0.479763       -13.0550
 227   2.0000      -0.477862       -13.0033
 228   2.0000      -0.474639       -12.9156
 229   2.0000      -0.474364       -12.9081
 230   2.0000      -0.471329       -12.8255
 231   2.0000      -0.470360       -12.7991
 232   2.0000      -0.469916       -12.7871
 233   2.0000      -0.469277       -12.7697
 234   2.0000      -0.464737       -12.6461
 235   2.0000      -0.463652       -12.6166
 236   2.0000      -0.460975       -12.5438
 237   2.0000      -0.455694       -12.4001
 238   2.0000      -0.454632       -12.3712
 239   2.0000      -0.454040       -12.3550
 240   2.0000      -0.453544       -12.3416
 241   2.0000      -0.453124       -12.3301
 242   2.0000      -0.452830       -12.3221
 243   2.0000      -0.451704       -12.2915
 244   2.0000      -0.450432       -12.2569
 245   2.0000      -0.450259       -12.2522
 246   2.0000      -0.448721       -12.2103
 247   2.0000      -0.448376       -12.2009
 248   2.0000      -0.448036       -12.1917
 249   2.0000      -0.447147       -12.1675
 250   2.0000      -0.446894       -12.1606
 251   2.0000      -0.445958       -12.1351
 252   2.0000      -0.443082       -12.0569
 253   2.0000      -0.442426       -12.0390
 254   2.0000      -0.439633       -11.9630
 255   2.0000      -0.436037       -11.8652
 256   2.0000      -0.434997       -11.8369
 257   2.0000      -0.433889       -11.8067
 258   2.0000      -0.431775       -11.7492
 259   2.0000      -0.431412       -11.7393
 260   2.0000      -0.430107       -11.7038
 261   2.0000      -0.425731       -11.5847
 262   2.0000      -0.424457       -11.5501
 263   2.0000      -0.419106       -11.4044
 264   2.0000      -0.418188       -11.3795
 265   2.0000      -0.414833       -11.2882
 266   2.0000      -0.414700       -11.2846
 267   2.0000      -0.405838       -11.0434
 268   2.0000      -0.399285       -10.8651
 269   2.0000      -0.385992       -10.5034
 270   2.0000      -0.367484        -9.9998
 271   2.0000      -0.365502        -9.9458
 272   2.0000      -0.362901        -9.8750
 273   2.0000      -0.359351        -9.7784
 274   2.0000      -0.348144        -9.4735
 275   2.0000      -0.347393        -9.4531
 276   2.0000      -0.344602        -9.3771
 277   2.0000      -0.342081        -9.3085
 278   2.0000      -0.340094        -9.2544
 279   2.0000      -0.335977        -9.1424
 280   2.0000      -0.333419        -9.0728
 281   2.0000      -0.330581        -8.9956
 282   2.0000      -0.323013        -8.7896
 283   2.0000      -0.316096        -8.6014
 284   2.0000      -0.301802        -8.2125
 285   2.0000      -0.276901        -7.5348
 286   2.0000      -0.252955        -6.8833
 287   0.0000      -0.126571        -3.4442
 288   0.0000      -0.118091        -3.2134
 289   0.0000      -0.115340        -3.1386
 290   0.0000      -0.093717        -2.5502
 291   0.0000      -0.093226        -2.5368

MULLIKEN ATOMIC CHARGES
-----------------------
   0 C :    0.026624
   1 C :   -0.134170
   2 S :    0.162226
   3 C :   -0.135689
   4 C :    0.032284
   5 C :    0.189341
   6 O :   -0.187552
   7 C :   -0.114334
   8 C :    0.310374
   9 C :   -0.334384
  10 C :   -0.194921
  11 N :    0.153302
  12 C :   -0.187483
  13 N :    0.155866
  14 C :   -0.029028
  15 C :   -0.053676
  16 C :   -0.057896
  17 C :    0.043861
  18 C :   -0.066279
  19 S :    0.245495
  20 C :   -0.105710
  21 C :    0.023855
  22 C :    0.301984
  23 C :   -0.291697
  24 C :   -0.194294
  25 N :    0.189671
  26 C :   -0.187122
  27 N :    0.172339
  28 C :   -0.069219
  29 C :   -0.044105
  30 S :    0.207421
  31 C :   -0.054849
  32 C :   -0.061422
  33 C :    0.015641
  34 C :   -0.097066
  35 S :    0.205669
  36 C :   -0.094467
  37 C :    0.019201
  38 C :    0.296848
  39 C :   -0.291106
  40 C :   -0.184608
  41 N :    0.177372
  42 C :   -0.187573
  43 N :    0.176071
  44 C :   -0.065596
  45 C :   -0.052146
  46 S :    0.205899
  47 C :   -0.040540
  48 C :   -0.073568
  49 C :    0.028955
  50 C :   -0.102842
  51 S :    0.205277
  52 C :   -0.080008
  53 C :   -0.015212
  54 C :    0.305848
  55 C :   -0.293427
  56 C :   -0.190339
  57 N :    0.171609
  58 C :   -0.185323
  59 N :    0.195912
  60 C :    0.012797
  61 C :   -0.113421
  62 S :    0.210568
  63 C :    0.027782
  64 C :   -0.107713
  65 C :    0.171420
  66 O :   -0.146193
  67 C :    0.029522
  68 C :   -0.134223
  69 S :    0.162071
  70 C :   -0.135506
  71 C :    0.028948
  72 C :    0.299263
  73 C :   -0.340818
  74 C :   -0.193381
  75 N :    0.152640
  76 C :   -0.187665
  77 N :    0.154764
  78 H :    0.053696
  79 H :    0.040011
  80 H :    0.017394
  81 H :    0.029281
  82 H :    0.015974
  83 H :    0.015608
  84 H :    0.014737
  85 H :    0.014710
  86 H :    0.038074
  87 H :    0.013012
  88 H :    0.042928
  89 H :    0.052427
Sum of atomic charges:   -0.0000000

LOEWDIN ATOMIC CHARGES
----------------------
   0 C :   -0.062364
   1 C :   -0.148658
   2 S :    0.490017
   3 C :   -0.138729
   4 C :   -0.091617
   5 C :    0.086122
   6 O :   -0.173124
   7 C :   -0.109157
   8 C :    0.076427
   9 C :   -0.142104
  10 C :   -0.015139
  11 N :   -0.054178
  12 C :   -0.025043
  13 N :   -0.046584
  14 C :    0.055567
  15 C :   -0.183990
  16 C :    0.013092
  17 C :   -0.078660
  18 C :   -0.166250
  19 S :    0.549482
  20 C :   -0.186740
  21 C :   -0.052116
  22 C :    0.077549
  23 C :   -0.097682
  24 C :   -0.020743
  25 N :   -0.019936
  26 C :   -0.015707
  27 N :   -0.031245
  28 C :   -0.041385
  29 C :   -0.169467
  30 S :    0.491891
  31 C :   -0.180553
  32 C :   -0.033318
  33 C :   -0.066300
  34 C :   -0.178047
  35 S :    0.492887
  36 C :   -0.177072
  37 C :   -0.066492
  38 C :    0.080801
  39 C :   -0.096552
  40 C :   -0.016497
  41 N :   -0.027737
  42 C :   -0.016486
  43 N :   -0.027645
  44 C :   -0.033184
  45 C :   -0.181557
  46 S :    0.492790
  47 C :   -0.168489
  48 C :   -0.041136
  49 C :   -0.050598
  50 C :   -0.189787
  51 S :    0.490591
  52 C :   -0.158986
  53 C :   -0.075546
  54 C :    0.075856
  55 C :   -0.091394
  56 C :   -0.014751
  57 N :   -0.030194
  58 C :   -0.021824
  59 N :   -0.013284
  60 C :    0.020780
  61 C :   -0.176825
  62 S :    0.498710
  63 C :    0.040723
  64 C :   -0.093796
  65 C :    0.085394
  66 O :   -0.135696
  67 C :   -0.090908
  68 C :   -0.137988
  69 S :    0.490257
  70 C :   -0.149776
  71 C :   -0.064548
  72 C :    0.076810
  73 C :   -0.144605
  74 C :   -0.015246
  75 N :   -0.054963
  76 C :   -0.025453
  77 N :   -0.052834
  78 H :    0.036717
  79 H :    0.036239
  80 H :    0.054390
  81 H :    0.048526
  82 H :    0.036645
  83 H :    0.037270
  84 H :    0.036853
  85 H :    0.036630
  86 H :    0.044765
  87 H :    0.043522
  88 H :    0.037258
  89 H :    0.036125

  Mayer bond orders larger than 0.100000
B(  0-C ,  1-C ) :   1.5400 B(  0-C ,  4-C ) :   1.2240 B(  0-C ,  8-C ) :   0.9922
B(  1-C ,  2-S ) :   1.1779 B(  1-C , 78-H ) :   0.9554 B(  2-S ,  3-C ) :   1.1917
B(  3-C ,  4-C ) :   1.5330 B(  3-C , 79-H ) :   0.9721 B(  4-C ,  5-C ) :   0.9740
B(  5-C ,  6-O ) :   2.1104 B(  5-C ,  7-C ) :   0.9756 B(  7-C ,  8-C ) :   1.0851
B(  7-C , 14-C ) :   1.5089 B(  8-C ,  9-C ) :   1.6415 B(  9-C , 10-C ) :   1.1504
B(  9-C , 12-C ) :   1.1376 B( 10-C , 11-N ) :   2.9901 B( 12-C , 13-N ) :   2.9631
B( 14-C , 15-C ) :   1.2664 B( 14-C , 80-H ) :   0.9410 B( 15-C , 16-C ) :   1.3284
B( 15-C , 19-S ) :   1.0692 B( 16-C , 17-C ) :   1.3324 B( 16-C , 81-H ) :   1.0089
B( 17-C , 18-C ) :   1.3536 B( 17-C , 22-C ) :   0.9888 B( 18-C , 19-S ) :   1.1267
B( 18-C , 20-C ) :   1.2053 B( 20-C , 21-C ) :   1.4342 B( 20-C , 30-S ) :   1.1111
B( 21-C , 22-C ) :   0.9953 B( 21-C , 28-C ) :   1.3078 B( 22-C , 23-C ) :   1.7195
B( 23-C , 24-C ) :   1.1338 B( 23-C , 26-C ) :   1.1329 B( 24-C , 25-N ) :   2.9960
B( 26-C , 27-N ) :   2.9883 B( 28-C , 29-C ) :   1.4457 B( 28-C , 82-H ) :   0.9867
B( 29-C , 30-S ) :   1.1203 B( 29-C , 31-C ) :   1.1727 B( 31-C , 32-C ) :   1.4524
B( 31-C , 35-S ) :   1.1095 B( 32-C , 33-C ) :   1.3050 B( 32-C , 83-H ) :   0.9878
B( 33-C , 34-C ) :   1.4414 B( 33-C , 38-C ) :   0.9939 B( 34-C , 35-S ) :   1.1246
B( 34-C , 36-C ) :   1.1886 B( 36-C , 37-C ) :   1.4397 B( 36-C , 46-S ) :   1.1254
B( 37-C , 38-C ) :   0.9941 B( 37-C , 44-C ) :   1.3071 B( 38-C , 39-C ) :   1.7209
B( 39-C , 40-C ) :   1.1313 B( 39-C , 42-C ) :   1.1322 B( 40-C , 41-N ) :   2.9918
B( 42-C , 43-N ) :   2.9902 B( 44-C , 45-C ) :   1.4519 B( 44-C , 84-H ) :   0.9867
B( 45-C , 46-S ) :   1.1083 B( 45-C , 47-C ) :   1.1729 B( 47-C , 48-C ) :   1.4443
B( 47-C , 51-S ) :   1.1213 B( 48-C , 49-C ) :   1.3107 B( 48-C , 85-H ) :   0.9869
B( 49-C , 50-C ) :   1.4380 B( 49-C , 54-C ) :   0.9905 B( 50-C , 51-S ) :   1.1079
B( 50-C , 52-C ) :   1.2035 B( 52-C , 53-C ) :   1.3802 B( 52-C , 62-S ) :   1.1678
B( 53-C , 54-C ) :   0.9959 B( 53-C , 60-C ) :   1.3260 B( 54-C , 55-C ) :   1.7216
B( 55-C , 56-C ) :   1.1354 B( 55-C , 58-C ) :   1.1331 B( 56-C , 57-N ) :   2.9866
B( 58-C , 59-N ) :   2.9966 B( 60-C , 61-C ) :   1.4018 B( 60-C , 86-H ) :   0.9724
B( 61-C , 62-S ) :   1.0762 B( 61-C , 63-C ) :   1.2048 B( 63-C , 64-C ) :   1.6107
B( 63-C , 87-H ) :   0.9166 B( 64-C , 65-C ) :   0.9324 B( 64-C , 72-C ) :   1.0842
B( 65-C , 66-O ) :   2.1874 B( 65-C , 67-C ) :   0.9586 B( 67-C , 68-C ) :   1.5405
B( 67-C , 71-C ) :   1.2235 B( 68-C , 69-S ) :   1.1903 B( 68-C , 88-H ) :   0.9703
B( 69-S , 70-C ) :   1.1825 B( 70-C , 71-C ) :   1.5319 B( 70-C , 89-H ) :   0.9562
B( 71-C , 72-C ) :   0.9949 B( 72-C , 73-C ) :   1.6379 B( 73-C , 74-C ) :   1.1506
B( 73-C , 76-C ) :   1.1352 B( 74-C , 75-N ) :   2.9914 B( 76-C , 77-N ) :   2.9755

-----------------------------------------------------------------------------
         ABSORPTION SPECTRUM VIA TRANSITION ELECTRIC DIPOLE MOMENTS
-----------------------------------------------------------------------------
State   Energy  Wavelength   fosc         T2         TX        TY        TZ
        (cm-1)    (nm)                  (au**2)     (au)      (au)      (au)
-----------------------------------------------------------------------------
   0   11306.6    884.4   0.650705970  18.94654  -4.06731   1.08454   1.10783
   1   13072.6    765.0   0.329949281   8.30921   2.68166  -0.65210  -0.83226
   2   13571.8    736.8   0.061103623   1.48219   1.17142  -0.32946   0.03764
   3   19905.3    502.4   2.151750477  35.58762  -5.62922   1.40339   1.38924
   4   20249.5    493.8   0.116082658   1.88724   1.16328  -0.41369  -0.60241
   5   21207.8    471.5   0.051416935   0.79815   0.42136   0.35907   0.70119
   6   22483.0    444.8   0.337048210   4.93530  -2.00466   0.68863   0.66515
   7   22929.4    436.1   0.074085210   1.06369   1.02565   0.07648   0.07672
   8   26004.6    384.5   0.029962511   0.37932  -0.53254   0.26175   0.16495
   9   27173.1    368.0   0.050826970   0.61579   0.65622   0.31118  -0.29721
  10   27774.7    360.0   0.037940923   0.44971  -0.61552   0.05558   0.26030
  11   28060.0    356.4   0.001336163   0.01568   0.02852  -0.11912  -0.02595
  12   28346.9    352.8   0.012455891   0.14466  -0.28368   0.13397   0.21502
  13   28569.7    350.0   0.001139350   0.01313   0.08917   0.03759  -0.06136
  14   28849.7    346.6   0.003233853   0.03690  -0.00130  -0.18445   0.05364
  15   28974.2    345.1   0.003024809   0.03437  -0.07826  -0.01195  -0.16763
  16   29376.5    340.4   0.116438409   1.30488  -1.05581  -0.40009   0.17342
  17   30202.9    331.1   0.398656477   4.34536  -1.80582   0.91868   0.49030
  18   30532.6    327.5   0.105833948   1.14113   0.31605   0.92062   0.44011
  19   30675.3    326.0   0.112711729   1.20964  -0.88476   0.41565   0.50405
  20   30833.9    324.3   0.254673448   2.71914  -1.18760  -1.12978   0.17985
  21   31001.2    322.6   0.143605618   1.52499   0.34910  -1.18411   0.03187
  22   31452.2    317.9   0.889882793   9.31445  -0.97421  -2.89215   0.02920
  23   31703.7    315.4   0.583491640   6.05899   0.76738   2.27036   0.56178
  24   32662.2    306.2   0.222055244   2.23816  -0.92826  -1.11253   0.37252
  25   32805.8    304.8   0.005568361   0.05588   0.11540  -0.16709  -0.12100
  26   32943.6    303.5   0.044151715   0.44122   0.22595   0.60478  -0.15623
  27   33020.3    302.8   0.192554881   1.91977  -1.21208   0.33950   0.57912
  28   33246.5    300.8   0.123540791   1.22332   1.08108   0.19574  -0.12753
  29   33585.2    297.8   0.061708518   0.60489   0.15547  -0.67699   0.34985
  30   33735.5    296.4   0.072254166   0.70510   0.67467   0.48826  -0.10735
  31   33914.2    294.9   0.146369003   1.42083   0.79522  -0.80610  -0.37236
  32   34178.4    292.6   0.098074338   0.94467   0.70776   0.65563   0.11783
  33   34194.4    292.4   0.029354532   0.28262  -0.15435  -0.50607  -0.05181
  34   34473.4    290.1   0.075253143   0.71865   0.78348  -0.24527  -0.21133
  35   34597.0    289.0   0.050916169   0.48450  -0.52259  -0.29678   0.35117
  36   34771.2    287.6   0.034995198   0.33133   0.23166  -0.52545  -0.03968
  37   35221.5    283.9   0.006261980   0.05853   0.09908   0.20754   0.07510
  38   35393.7    282.5   0.195156909   1.81524   0.96547   0.93037  -0.13241
  39   35486.1    281.8   0.205141821   1.90314   0.28468   1.28538   0.41220
  40   35632.6    280.6   0.014712002   0.13593  -0.07468  -0.33373  -0.13774
  41   35667.8    280.4   0.062618237   0.57796   0.70780   0.06748  -0.26912
  42   35951.2    278.2   0.008385513   0.07679   0.23011  -0.12434  -0.09151
  43   36351.1    275.1   0.022608817   0.20476   0.16390   0.38497   0.17232
  44   36487.4    274.1   0.012275657   0.11076   0.23176   0.14321   0.19114
  45   36802.6    271.7   0.002453932   0.02195   0.06627   0.13197   0.01194
  46   37133.2    269.3   0.012085121   0.10714  -0.10881  -0.29394  -0.09435
  47   37219.3    268.7   0.004784485   0.04232  -0.20248  -0.01945   0.03070
  48   37326.8    267.9   0.003996489   0.03525   0.12660  -0.10932  -0.08525
  49   37671.9    265.4   0.209690550   1.83247   0.46932   1.26955  -0.02110
  50   37814.3    264.5   0.058370219   0.50817   0.24114   0.65249   0.15581
  51   38354.1    260.7   0.002193187   0.01883  -0.11602   0.06877  -0.02520
  52   38530.0    259.5   0.249485473   2.13168   0.14248  -1.37728  -0.46311
  53   38705.8    258.4   0.045575598   0.38764  -0.13457   0.42816  -0.43152
  54   38764.1    258.0   0.021365671   0.18145  -0.07828  -0.41744   0.03269
  55   38793.9    257.8   0.152254351   1.29206  -0.38584  -0.92883   0.52959
  56   39031.7    256.2   0.031733557   0.26766   0.26310   0.41928  -0.15046
  57   39146.3    255.5   0.269144695   2.26345  -0.20127  -1.46167   0.29405
  58   39321.8    254.3   0.106021561   0.88764   0.18000   0.80351  -0.45783
  59   39458.5    253.4   0.029843116   0.24899  -0.09036  -0.45401   0.18628
  60   39810.1    251.2   0.006045898   0.05000  -0.16104  -0.13156   0.08219
  61   39868.4    250.8   0.051262651   0.42330   0.03751   0.62346   0.18217
  62   40252.1    248.4   0.116286091   0.95107   0.36981  -0.89785  -0.09043

FINAL SINGLE POINT ENERGY     -6095.939963010385

DIPOLE MOMENT
-------------
                                X             Y             Z
Electronic contribution:     -0.52883      -2.00375       2.77182
Nuclear contribution   :      0.08314       0.48614      -3.82476
                        -----------------------------------------
Total Dipole Moment    :     -0.44569      -1.51762      -1.05294
                        -----------------------------------------
Magnitude (a.u.)       :      1.90013
Magnitude (Debye)      :      4.82974

Rotational constants in cm-1:     0.002248     0.000135     0.000129
Rotational constants in MHz :    67.399136     4.036219     3.860798

                             ****ORCA TERMINATED NORMALLY****
TOTAL RUN TIME: 0 days 0 hours 8 minutes 30 seconds 183 msec
