                         Program Version 4.2.0 -  RELEASE  -
|  1> # ORCA input file
|  2> # SCF done       -216.859729826246          0.000336505608
|  3> ! CAM-B3LYP def2-SVP def2/J RIJCOSX Grid4 TightSCF
|  4> %maxcore 5000
|  5> %tddft
|  6>     Mode sTDDFT
|  7>     Ethresh 5.0
|  8>     maxcore 5000
|  9> end
| 10>
| 11> %pal
| 12>   nprocs 6
| 13>   end
| 14> * xyz 0 1
| 15>    C       -2.54423        -0.70408         5.45273
| 16>    C       -1.38996        -1.14547         4.87517
| 17>    C       -0.23898        -0.43221         5.35264
| 18>    C       -0.53741         0.52898         6.26108
| 19>    S       -2.23548         0.57518         6.55875
| 20>    C        0.97990        -0.95045         4.71957
| 21>    O        2.11984        -0.61069         4.93602
| 22>    C        0.49543        -2.05715         3.84781
| 23>    C       -0.95488        -2.08497         3.86024
| 24>    C       -1.72166        -2.76736         2.95070
| 25>    N       -3.14011        -2.91243         3.03096
| 26>    O       -3.73911        -3.09716         1.99464
| 27>    O       -3.65348        -2.83396         4.12990
| 28>    N       -1.15122        -3.35332         1.74902
| 29>    O       -1.47398        -4.48520         1.48192
| 30>    O       -0.39055        -2.66265         1.10784
| 31>    C        1.27384        -3.06476         3.33302
| 32>    C        2.65876        -3.07078         3.11304
| 33>    C        3.56985        -2.02165         3.00901
| 34>    C        4.84400        -2.46738         2.70159
| 35>    C        4.92416        -3.87565         2.56359
| 36>    S        3.42351        -4.63440         2.79244
| 37>    C        6.25878        -4.22038         2.25739
| 38>    C        7.02773        -3.04210         2.19698
| 39>    C        6.16217        -1.90248         2.46588
| 40>    C        6.51831        -0.58707         2.47384
| 41>    C        5.59601         0.45712         2.70731
| 42>    N        4.86592         1.32374         2.87649
| 43>    C        7.84690        -0.17815         2.22667
| 44>    N        8.92790         0.14624         2.02574
| 45>    C        8.36306        -3.28232         1.88730
| 46>    C        8.61798        -4.63308         1.70969
| 47>    S        7.18510        -5.62138         1.93324
| 48>    C        9.85396        -5.23416         1.36698
| 49>    C       10.11079        -6.57929         1.16333
| 50>    C       11.43910        -6.80740         0.81155
| 51>    C       12.19979        -5.62502         0.74968
| 52>    S       11.28221        -4.23672         1.12642
| 53>    C       13.52232        -5.95794         0.36650
| 54>    C       13.59923        -7.35091         0.18315
| 55>    C       12.29450        -7.93107         0.46225
| 56>    C       11.94612        -9.24772         0.40454
| 57>    C       10.63862        -9.68809         0.70224
| 58>    N        9.57534       -10.04050         0.94542
| 59>    C       12.87091       -10.25061         0.04255
| 60>    N       13.62443       -11.06153        -0.25455
| 61>    C       14.86428        -7.77582        -0.21630
| 62>    C       15.74977        -6.71841        -0.33787
| 63>    S       15.00606        -5.17456         0.05415
| 64>    C       17.10618        -6.77024        -0.74343
| 65>    C       17.98966        -5.70883        -0.85726
| 66>    C       19.23921        -6.12042        -1.31095
| 67>    C       19.30946        -7.50780        -1.54341
| 68>    S       17.83591        -8.30142        -1.19645
| 69>    C       20.60708        -7.82790        -2.00527
| 70>    C       21.35821        -6.63107        -2.07476
| 71>    C       20.52974        -5.52658        -1.62490
| 72>    C       20.90605        -4.22455        -1.48468
| 73>    C       20.01712        -3.23858        -1.00666
| 74>    N       19.28180        -2.44513        -0.62761
| 75>    C       22.20548        -3.79149        -1.82833
| 76>    N       23.25447        -3.45012        -2.13826
| 77>    C       22.66620        -6.83772        -2.47839
| 78>    C       22.94058        -8.18427        -2.70513
| 79>    S       21.51287        -9.19001        -2.46649
| 80>    C       24.14365        -8.79767        -3.09877
| 81>    C       25.42836        -8.34054        -3.00979
| 82>    C       26.04543        -7.22435        -2.31993
| 83>    C       25.59574        -6.61717        -1.17160
| 84>    N       26.22405        -5.46882        -0.57591
| 85>    O       26.75459        -4.67124        -1.31834
| 86>    O       26.19451        -5.39081         0.63051
| 87>    N       24.47944        -7.10475        -0.41346
| 88>    O       23.75196        -6.27980         0.09932
| 89>    O       24.30260        -8.30367        -0.36612
| 90>    C       27.34962        -7.03447        -2.93773
| 91>    C       28.39561        -6.15876        -2.89326
| 92>    S       29.69895        -6.69012        -3.87908
| 93>    C       28.85082        -8.10786        -4.37192
| 94>    C       27.62125        -8.15011        -3.80261
| 95>    C       26.45737        -9.03914        -3.84205
| 96>    O       26.31034       -10.07682        -4.43989
| 97>    H       -3.54487        -1.06780         5.33049
| 98>    H        0.12192         1.20927         6.76178
| 99>    H        0.78208        -4.00209         3.09253
|100>    H        3.29150        -0.99367         3.14369
|101>    H        9.12370        -2.52882         1.78844
|102>    H        9.35602        -7.33834         1.26565
|103>    H       15.14350        -8.79498        -0.41528
|104>    H       17.71903        -4.69579        -0.61881
|105>    H       23.38577        -6.05633        -2.64630
|106>    H       24.05207        -9.76981        -3.57429
|107>    H       28.47438        -5.21924        -2.38327
|108>    H       29.30692        -8.81131        -5.03920
|109> *
|110>
|111>                          ****END OF INPUT****

CARTESIAN COORDINATES (ANGSTROEM)
---------------------------------
  C     -2.544230   -0.704080    5.452730
  C     -1.389960   -1.145470    4.875170
  C     -0.238980   -0.432210    5.352640
  C     -0.537410    0.528980    6.261080
  S     -2.235480    0.575180    6.558750
  C      0.979900   -0.950450    4.719570
  O      2.119840   -0.610690    4.936020
  C      0.495430   -2.057150    3.847810
  C     -0.954880   -2.084970    3.860240
  C     -1.721660   -2.767360    2.950700
  N     -3.140110   -2.912430    3.030960
  O     -3.739110   -3.097160    1.994640
  O     -3.653480   -2.833960    4.129900
  N     -1.151220   -3.353320    1.749020
  O     -1.473980   -4.485200    1.481920
  O     -0.390550   -2.662650    1.107840
  C      1.273840   -3.064760    3.333020
  C      2.658760   -3.070780    3.113040
  C      3.569850   -2.021650    3.009010
  C      4.844000   -2.467380    2.701590
  C      4.924160   -3.875650    2.563590
  S      3.423510   -4.634400    2.792440
  C      6.258780   -4.220380    2.257390
  C      7.027730   -3.042100    2.196980
  C      6.162170   -1.902480    2.465880
  C      6.518310   -0.587070    2.473840
  C      5.596010    0.457120    2.707310
  N      4.865920    1.323740    2.876490
  C      7.846900   -0.178150    2.226670
  N      8.927900    0.146240    2.025740
  C      8.363060   -3.282320    1.887300
  C      8.617980   -4.633080    1.709690
  S      7.185100   -5.621380    1.933240
  C      9.853960   -5.234160    1.366980
  C     10.110790   -6.579290    1.163330
  C     11.439100   -6.807400    0.811550
  C     12.199790   -5.625020    0.749680
  S     11.282210   -4.236720    1.126420
  C     13.522320   -5.957940    0.366500
  C     13.599230   -7.350910    0.183150
  C     12.294500   -7.931070    0.462250
  C     11.946120   -9.247720    0.404540
  C     10.638620   -9.688090    0.702240
  N      9.575340  -10.040500    0.945420
  C     12.870910  -10.250610    0.042550
  N     13.624430  -11.061530   -0.254550
  C     14.864280   -7.775820   -0.216300
  C     15.749770   -6.718410   -0.337870
  S     15.006060   -5.174560    0.054150
  C     17.106180   -6.770240   -0.743430
  C     17.989660   -5.708830   -0.857260
  C     19.239210   -6.120420   -1.310950
  C     19.309460   -7.507800   -1.543410
  S     17.835910   -8.301420   -1.196450
  C     20.607080   -7.827900   -2.005270
  C     21.358210   -6.631070   -2.074760
  C     20.529740   -5.526580   -1.624900
  C     20.906050   -4.224550   -1.484680
  C     20.017120   -3.238580   -1.006660
  N     19.281800   -2.445130   -0.627610
  C     22.205480   -3.791490   -1.828330
  N     23.254470   -3.450120   -2.138260
  C     22.666200   -6.837720   -2.478390
  C     22.940580   -8.184270   -2.705130
  S     21.512870   -9.190010   -2.466490
  C     24.143650   -8.797670   -3.098770
  C     25.428360   -8.340540   -3.009790
  C     26.045430   -7.224350   -2.319930
  C     25.595740   -6.617170   -1.171600
  N     26.224050   -5.468820   -0.575910
  O     26.754590   -4.671240   -1.318340
  O     26.194510   -5.390810    0.630510
  N     24.479440   -7.104750   -0.413460
  O     23.751960   -6.279800    0.099320
  O     24.302600   -8.303670   -0.366120
  C     27.349620   -7.034470   -2.937730
  C     28.395610   -6.158760   -2.893260
  S     29.698950   -6.690120   -3.879080
  C     28.850820   -8.107860   -4.371920
  C     27.621250   -8.150110   -3.802610
  C     26.457370   -9.039140   -3.842050
  O     26.310340  -10.076820   -4.439890
  H     -3.544870   -1.067800    5.330490
  H      0.121920    1.209270    6.761780
  H      0.782080   -4.002090    3.092530
  H      3.291500   -0.993670    3.143690
  H      9.123700   -2.528820    1.788440
  H      9.356020   -7.338340    1.265650
  H     15.143500   -8.794980   -0.415280
  H     17.719030   -4.695790   -0.618810
  H     23.385770   -6.056330   -2.646300
  H     24.052070   -9.769810   -3.574290
  H     28.474380   -5.219240   -2.383270
  H     29.306920   -8.811310   -5.039200

 Total Charge           Charge          ....    0
 Multiplicity           Mult            ....    1
 Number of Electrons    NEL             ....  614
 Basis Dimension        Dim             .... 1240

ORBITAL ENERGIES
----------------

  NO   OCC          E(Eh)            E(eV)
   0   2.0000     -89.007743     -2422.0238
   1   2.0000     -89.007573     -2422.0192
   2   2.0000     -89.007095     -2422.0062
   3   2.0000     -89.006068     -2421.9782
   4   2.0000     -89.004530     -2421.9364
   5   2.0000     -89.004206     -2421.9276
   6   2.0000     -88.986053     -2421.4336
   7   2.0000     -88.983730     -2421.3704
   8   2.0000     -19.259994      -524.0911
   9   2.0000     -19.259625      -524.0810
  10   2.0000     -19.257360      -524.0194
  11   2.0000     -19.254799      -523.9497
  12   2.0000     -19.253344      -523.9101
  13   2.0000     -19.251802      -523.8682
  14   2.0000     -19.248944      -523.7904
  15   2.0000     -19.248859      -523.7881
  16   2.0000     -19.219656      -522.9934
  17   2.0000     -19.218888      -522.9725
  18   2.0000     -14.665621      -399.0718
  19   2.0000     -14.663651      -399.0182
  20   2.0000     -14.663505      -399.0143
  21   2.0000     -14.661039      -398.9472
  22   2.0000     -14.444580      -393.0570
  23   2.0000     -14.444475      -393.0541
  24   2.0000     -14.441700      -392.9786
  25   2.0000     -14.440313      -392.9409
  26   2.0000     -14.437267      -392.8580
  27   2.0000     -14.437264      -392.8579
  28   2.0000     -10.380501      -282.4678
  29   2.0000     -10.377731      -282.3924
  30   2.0000     -10.376276      -282.3528
  31   2.0000     -10.376084      -282.3476
  32   2.0000     -10.373738      -282.2838
  33   2.0000     -10.373495      -282.2772
  34   2.0000     -10.368177      -282.1324
  35   2.0000     -10.367080      -282.1026
  36   2.0000     -10.363801      -282.0134
  37   2.0000     -10.361977      -281.9637
  38   2.0000     -10.360058      -281.9115
  39   2.0000     -10.356266      -281.8083
  40   2.0000     -10.352846      -281.7153
  41   2.0000     -10.352662      -281.7103
  42   2.0000     -10.350695      -281.6567
  43   2.0000     -10.349637      -281.6279
  44   2.0000     -10.348469      -281.5962
  45   2.0000     -10.347871      -281.5799
  46   2.0000     -10.346557      -281.5441
  47   2.0000     -10.346081      -281.5312
  48   2.0000     -10.345823      -281.5242
  49   2.0000     -10.345680      -281.5203
  50   2.0000     -10.344526      -281.4889
  51   2.0000     -10.344463      -281.4872
  52   2.0000     -10.341603      -281.4093
  53   2.0000     -10.340176      -281.3705
  54   2.0000     -10.337004      -281.2842
  55   2.0000     -10.336810      -281.2789
  56   2.0000     -10.336648      -281.2745
  57   2.0000     -10.336234      -281.2632
  58   2.0000     -10.334461      -281.2150
  59   2.0000     -10.331143      -281.1247
  60   2.0000     -10.325035      -280.9585
  61   2.0000     -10.324549      -280.9453
  62   2.0000     -10.323127      -280.9066
  63   2.0000     -10.322496      -280.8894
  64   2.0000     -10.321438      -280.8606
  65   2.0000     -10.321276      -280.8562
  66   2.0000     -10.321270      -280.8560
  67   2.0000     -10.320402      -280.8324
  68   2.0000     -10.320085      -280.8238
  69   2.0000     -10.319959      -280.8204
  70   2.0000     -10.318917      -280.7920
  71   2.0000     -10.318473      -280.7799
  72   2.0000     -10.317819      -280.7621
  73   2.0000     -10.317134      -280.7435
  74   2.0000     -10.316663      -280.7307
  75   2.0000     -10.316636      -280.7299
  76   2.0000     -10.311184      -280.5816
  77   2.0000     -10.307315      -280.4763
  78   2.0000     -10.306743      -280.4607
  79   2.0000     -10.305135      -280.4170
  80   2.0000     -10.295816      -280.1634
  81   2.0000     -10.293255      -280.0937
  82   2.0000      -8.102135      -220.4703
  83   2.0000      -8.101995      -220.4665
  84   2.0000      -8.101462      -220.4520
  85   2.0000      -8.100447      -220.4244
  86   2.0000      -8.099383      -220.3954
  87   2.0000      -8.098924      -220.3829
  88   2.0000      -8.082095      -219.9250
  89   2.0000      -8.079729      -219.8606
  90   2.0000      -6.071405      -165.2113
  91   2.0000      -6.071309      -165.2087
  92   2.0000      -6.070755      -165.1936
  93   2.0000      -6.069754      -165.1664
  94   2.0000      -6.068491      -165.1320
  95   2.0000      -6.068077      -165.1208
  96   2.0000      -6.067253      -165.0984
  97   2.0000      -6.067153      -165.0956
  98   2.0000      -6.066568      -165.0797
  99   2.0000      -6.065582      -165.0529
 100   2.0000      -6.064413      -165.0211
 101   2.0000      -6.064378      -165.0201
 102   2.0000      -6.064190      -165.0150
 103   2.0000      -6.063923      -165.0077
 104   2.0000      -6.063758      -165.0032
 105   2.0000      -6.062698      -164.9744
 106   2.0000      -6.061888      -164.9524
 107   2.0000      -6.061390      -164.9388
 108   2.0000      -6.051256      -164.6630
 109   2.0000      -6.048871      -164.5981
 110   2.0000      -6.046538      -164.5347
 111   2.0000      -6.044922      -164.4907
 112   2.0000      -6.044208      -164.4713
 113   2.0000      -6.042554      -164.4262
 114   2.0000      -1.347529       -36.6681
 115   2.0000      -1.344532       -36.5866
 116   2.0000      -1.329762       -36.1847
 117   2.0000      -1.326592       -36.0984
 118   2.0000      -1.160969       -31.5916
 119   2.0000      -1.159098       -31.5407
 120   2.0000      -1.152741       -31.3677
 121   2.0000      -1.149689       -31.2846
 122   2.0000      -1.137470       -30.9521
 123   2.0000      -1.136416       -30.9235
 124   2.0000      -1.062918       -28.9235
 125   2.0000      -1.060066       -28.8459
 126   2.0000      -1.058061       -28.7913
 127   2.0000      -1.036818       -28.2132
 128   2.0000      -1.032592       -28.0983
 129   2.0000      -1.031442       -28.0670
 130   2.0000      -1.025612       -27.9083
 131   2.0000      -1.024176       -27.8693
 132   2.0000      -1.022451       -27.8223
 133   2.0000      -1.021681       -27.8013
 134   2.0000      -1.016988       -27.6736
 135   2.0000      -1.016117       -27.6500
 136   2.0000      -1.014088       -27.5947
 137   2.0000      -1.004715       -27.3397
 138   2.0000      -0.986682       -26.8490
 139   2.0000      -0.984053       -26.7775
 140   2.0000      -0.978873       -26.6365
 141   2.0000      -0.971021       -26.4228
 142   2.0000      -0.967528       -26.3278
 143   2.0000      -0.944450       -25.6998
 144   2.0000      -0.942331       -25.6421
 145   2.0000      -0.935106       -25.4455
 146   2.0000      -0.927062       -25.2266
 147   2.0000      -0.918017       -24.9805
 148   2.0000      -0.893739       -24.3199
 149   2.0000      -0.892514       -24.2865
 150   2.0000      -0.886474       -24.1222
 151   2.0000      -0.885209       -24.0878
 152   2.0000      -0.877060       -23.8660
 153   2.0000      -0.876531       -23.8516
 154   2.0000      -0.870499       -23.6875
 155   2.0000      -0.866017       -23.5655
 156   2.0000      -0.852373       -23.1943
 157   2.0000      -0.849497       -23.1160
 158   2.0000      -0.848955       -23.1012
 159   2.0000      -0.829076       -22.5603
 160   2.0000      -0.819430       -22.2978
 161   2.0000      -0.813208       -22.1285
 162   2.0000      -0.806467       -21.9451
 163   2.0000      -0.802036       -21.8245
 164   2.0000      -0.795143       -21.6369
 165   2.0000      -0.790174       -21.5017
 166   2.0000      -0.788497       -21.4561
 167   2.0000      -0.783084       -21.3088
 168   2.0000      -0.776319       -21.1247
 169   2.0000      -0.763002       -20.7623
 170   2.0000      -0.743353       -20.2277
 171   2.0000      -0.725403       -19.7392
 172   2.0000      -0.716290       -19.4912
 173   2.0000      -0.715817       -19.4784
 174   2.0000      -0.710278       -19.3276
 175   2.0000      -0.704837       -19.1796
 176   2.0000      -0.698019       -18.9941
 177   2.0000      -0.695389       -18.9225
 178   2.0000      -0.689323       -18.7574
 179   2.0000      -0.687254       -18.7011
 180   2.0000      -0.684110       -18.6156
 181   2.0000      -0.681603       -18.5474
 182   2.0000      -0.670635       -18.2489
 183   2.0000      -0.670100       -18.2343
 184   2.0000      -0.656748       -17.8710
 185   2.0000      -0.653170       -17.7737
 186   2.0000      -0.652346       -17.7512
 187   2.0000      -0.651234       -17.7210
 188   2.0000      -0.647417       -17.6171
 189   2.0000      -0.646680       -17.5970
 190   2.0000      -0.641027       -17.4432
 191   2.0000      -0.640227       -17.4215
 192   2.0000      -0.638752       -17.3813
 193   2.0000      -0.635874       -17.3030
 194   2.0000      -0.634150       -17.2561
 195   2.0000      -0.631795       -17.1920
 196   2.0000      -0.630056       -17.1447
 197   2.0000      -0.628406       -17.0998
 198   2.0000      -0.627182       -17.0665
 199   2.0000      -0.623875       -16.9765
 200   2.0000      -0.622246       -16.9322
 201   2.0000      -0.617688       -16.8081
 202   2.0000      -0.614561       -16.7230
 203   2.0000      -0.607891       -16.5416
 204   2.0000      -0.597860       -16.2686
 205   2.0000      -0.594903       -16.1881
 206   2.0000      -0.593705       -16.1555
 207   2.0000      -0.590235       -16.0611
 208   2.0000      -0.585599       -15.9350
 209   2.0000      -0.580385       -15.7931
 210   2.0000      -0.572523       -15.5792
 211   2.0000      -0.566850       -15.4248
 212   2.0000      -0.565551       -15.3894
 213   2.0000      -0.562393       -15.3035
 214   2.0000      -0.560715       -15.2578
 215   2.0000      -0.558135       -15.1876
 216   2.0000      -0.553801       -15.0697
 217   2.0000      -0.545156       -14.8345
 218   2.0000      -0.539058       -14.6685
 219   2.0000      -0.538157       -14.6440
 220   2.0000      -0.535504       -14.5718
 221   2.0000      -0.532368       -14.4865
 222   2.0000      -0.531388       -14.4598
 223   2.0000      -0.529971       -14.4212
 224   2.0000      -0.528360       -14.3774
 225   2.0000      -0.522820       -14.2266
 226   2.0000      -0.521893       -14.2014
 227   2.0000      -0.521350       -14.1867
 228   2.0000      -0.516183       -14.0460
 229   2.0000      -0.514288       -13.9945
 230   2.0000      -0.513553       -13.9745
 231   2.0000      -0.509312       -13.8591
 232   2.0000      -0.507780       -13.8174
 233   2.0000      -0.505961       -13.7679
 234   2.0000      -0.503668       -13.7055
 235   2.0000      -0.501057       -13.6345
 236   2.0000      -0.499512       -13.5924
 237   2.0000      -0.497812       -13.5461
 238   2.0000      -0.496481       -13.5099
 239   2.0000      -0.493948       -13.4410
 240   2.0000      -0.489836       -13.3291
 241   2.0000      -0.486760       -13.2454
 242   2.0000      -0.483202       -13.1486
 243   2.0000      -0.481960       -13.1148
 244   2.0000      -0.480920       -13.0865
 245   2.0000      -0.475012       -12.9257
 246   2.0000      -0.473641       -12.8884
 247   2.0000      -0.473027       -12.8717
 248   2.0000      -0.471830       -12.8391
 249   2.0000      -0.470953       -12.8153
 250   2.0000      -0.470309       -12.7978
 251   2.0000      -0.469640       -12.7795
 252   2.0000      -0.465773       -12.6743
 253   2.0000      -0.465100       -12.6560
 254   2.0000      -0.463298       -12.6070
 255   2.0000      -0.458541       -12.4775
 256   2.0000      -0.456109       -12.4114
 257   2.0000      -0.455452       -12.3935
 258   2.0000      -0.454523       -12.3682
 259   2.0000      -0.453736       -12.3468
 260   2.0000      -0.453421       -12.3382
 261   2.0000      -0.450873       -12.2689
 262   2.0000      -0.450297       -12.2532
 263   2.0000      -0.449254       -12.2248
 264   2.0000      -0.448695       -12.2096
 265   2.0000      -0.447835       -12.1862
 266   2.0000      -0.447711       -12.1828
 267   2.0000      -0.446837       -12.1591
 268   2.0000      -0.445159       -12.1134
 269   2.0000      -0.440233       -11.9793
 270   2.0000      -0.440144       -11.9769
 271   2.0000      -0.435067       -11.8388
 272   2.0000      -0.434674       -11.8281
 273   2.0000      -0.427415       -11.6306
 274   2.0000      -0.422053       -11.4846
 275   2.0000      -0.418441       -11.3864
 276   2.0000      -0.412982       -11.2378
 277   2.0000      -0.407879       -11.0989
 278   2.0000      -0.404841       -11.0163
 279   2.0000      -0.402996       -10.9661
 280   2.0000      -0.399830       -10.8799
 281   2.0000      -0.397274       -10.8104
 282   2.0000      -0.393160       -10.6984
 283   2.0000      -0.390719       -10.6320
 284   2.0000      -0.385247       -10.4831
 285   2.0000      -0.382651       -10.4125
 286   2.0000      -0.382237       -10.4012
 287   2.0000      -0.379347       -10.3226
 288   2.0000      -0.375030       -10.2051
 289   2.0000      -0.371994       -10.1225
 290   2.0000      -0.368405       -10.0248
 291   2.0000      -0.364606        -9.9214
 292   2.0000      -0.363851        -9.9009
 293   2.0000      -0.357525        -9.7287
 294   2.0000      -0.346754        -9.4357
 295   2.0000      -0.343878        -9.3574
 296   2.0000      -0.340174        -9.2566
 297   2.0000      -0.339483        -9.2378
 298   2.0000      -0.337993        -9.1973
 299   2.0000      -0.335129        -9.1193
 300   2.0000      -0.333879        -9.0853
 301   2.0000      -0.331455        -9.0194
 302   2.0000      -0.324668        -8.8347
 303   2.0000      -0.321342        -8.7442
 304   2.0000      -0.305630        -8.3166
 305   2.0000      -0.278269        -7.5721
 306   2.0000      -0.253238        -6.8910
 307   0.0000      -0.128655        -3.5009
 308   0.0000      -0.120381        -3.2757
 309   0.0000      -0.116399        -3.1674
 310   0.0000      -0.101536        -2.7629
 311   0.0000      -0.097804        -2.6614

MULLIKEN ATOMIC CHARGES
-----------------------
   0 C :   -0.131145
   1 C :    0.063604
   2 C :    0.004226
   3 C :   -0.127422
   4 S :    0.155152
   5 C :    0.174813
   6 O :   -0.149828
   7 C :   -0.110392
   8 C :    0.203860
   9 C :    0.048003
  10 N :    0.260339
  11 O :   -0.225897
  12 O :   -0.252497
  13 N :    0.198020
  14 O :   -0.206691
  15 O :   -0.212668
  16 C :    0.039611
  17 C :   -0.114534
  18 C :    0.043105
  19 C :   -0.018767
  20 C :   -0.077053
  21 S :    0.211113
  22 C :   -0.105611
  23 C :    0.028051
  24 C :    0.301499
  25 C :   -0.287347
  26 C :   -0.186484
  27 N :    0.194252
  28 C :   -0.188286
  29 N :    0.174045
  30 C :   -0.071070
  31 C :   -0.041495
  32 S :    0.207371
  33 C :   -0.055826
  34 C :   -0.061743
  35 C :    0.015271
  36 C :   -0.095614
  37 S :    0.207404
  38 C :   -0.095357
  39 C :    0.021801
  40 C :    0.296613
  41 C :   -0.289692
  42 C :   -0.184150
  43 N :    0.177193
  44 C :   -0.187337
  45 N :    0.176124
  46 C :   -0.067404
  47 C :   -0.050331
  48 S :    0.206669
  49 C :   -0.043072
  50 C :   -0.071688
  51 C :    0.031758
  52 C :   -0.104423
  53 S :    0.205333
  54 C :   -0.071156
  55 C :   -0.009273
  56 C :    0.302294
  57 C :   -0.275281
  58 C :   -0.188120
  59 N :    0.173785
  60 C :   -0.179727
  61 N :    0.180431
  62 C :    0.014871
  63 C :   -0.147880
  64 S :    0.224616
  65 C :    0.105265
  66 C :   -0.152755
  67 C :    0.220713
  68 C :    0.044228
  69 N :    0.255084
  70 O :   -0.236325
  71 O :   -0.218362
  72 N :    0.214672
  73 O :   -0.216247
  74 O :   -0.210946
  75 C :    0.034761
  76 C :   -0.132451
  77 S :    0.158177
  78 C :   -0.130629
  79 C :    0.025181
  80 C :    0.151885
  81 O :   -0.140732
  82 H :    0.058064
  83 H :    0.042240
  84 H :    0.017876
  85 H :    0.035835
  86 H :    0.016768
  87 H :    0.015762
  88 H :    0.014030
  89 H :    0.014724
  90 H :    0.029575
  91 H :    0.023764
  92 H :    0.062478
  93 H :    0.041398
Sum of atomic charges:   -0.0000000

LOEWDIN ATOMIC CHARGES
----------------------
   0 C :   -0.145941
   1 C :   -0.064640
   2 C :   -0.088454
   3 C :   -0.140390
   4 S :    0.488219
   5 C :    0.083032
   6 O :   -0.138223
   7 C :   -0.100200
   8 C :    0.058696
   9 C :   -0.074591
  10 N :    0.279314
  11 O :   -0.191145
  12 O :   -0.205944
  13 N :    0.268297
  14 O :   -0.179133
  15 O :   -0.188967
  16 C :    0.045154
  17 C :   -0.177442
  18 C :    0.034829
  19 C :   -0.074901
  20 C :   -0.154581
  21 S :    0.496793
  22 C :   -0.191812
  23 C :   -0.047388
  24 C :    0.075512
  25 C :   -0.089633
  26 C :   -0.020700
  27 N :   -0.012823
  28 C :   -0.014705
  29 N :   -0.029097
  30 C :   -0.041462
  31 C :   -0.166341
  32 S :    0.491096
  33 C :   -0.182893
  34 C :   -0.031513
  35 C :   -0.066826
  36 C :   -0.175900
  37 S :    0.494205
  38 C :   -0.179151
  39 C :   -0.065068
  40 C :    0.080677
  41 C :   -0.096149
  42 C :   -0.016298
  43 N :   -0.027744
  44 C :   -0.016451
  45 N :   -0.027279
  46 C :   -0.034013
  47 C :   -0.179463
  48 S :    0.493950
  49 C :   -0.170786
  50 C :   -0.038713
  51 C :   -0.050802
  52 C :   -0.186749
  53 S :    0.491372
  54 C :   -0.158978
  55 C :   -0.063969
  56 C :    0.078871
  57 C :   -0.087542
  58 C :   -0.014999
  59 N :   -0.027618
  60 C :   -0.014015
  61 N :   -0.022844
  62 C :   -0.004649
  63 C :   -0.187236
  64 S :    0.506852
  65 C :    0.053688
  66 C :   -0.095192
  67 C :    0.054998
  68 C :   -0.074339
  69 N :    0.278343
  70 O :   -0.189944
  71 O :   -0.184171
  72 N :    0.275136
  73 O :   -0.184331
  74 O :   -0.179494
  75 C :   -0.063155
  76 C :   -0.148761
  77 S :    0.491200
  78 C :   -0.140641
  79 C :   -0.091363
  80 C :    0.081379
  81 O :   -0.140275
  82 H :    0.030949
  83 H :    0.036852
  84 H :    0.035763
  85 H :    0.047572
  86 H :    0.036931
  87 H :    0.037243
  88 H :    0.036878
  89 H :    0.036936
  90 H :    0.042879
  91 H :    0.046559
  92 H :    0.031029
  93 H :    0.036626

  Mayer bond orders larger than 0.100000
B(  0-C ,  1-C ) :   1.5439 B(  0-C ,  4-S ) :   1.1870 B(  0-C , 82-H ) :   0.9489
B(  1-C ,  2-C ) :   1.2210 B(  1-C ,  8-C ) :   1.0175 B(  2-C ,  3-C ) :   1.5554
B(  2-C ,  5-C ) :   0.9601 B(  3-C ,  4-S ) :   1.1808 B(  3-C , 83-H ) :   0.9709
B(  5-C ,  6-O ) :   2.1929 B(  5-C ,  7-C ) :   0.9562 B(  7-C ,  8-C ) :   1.1053
B(  7-C , 16-C ) :   1.5593 B(  8-C ,  9-C ) :   1.5806 B(  9-C , 10-N ) :   0.9477
B(  9-C , 13-N ) :   0.8828 B( 10-N , 11-O ) :   1.5326 B( 10-N , 12-O ) :   1.4920
B( 11-O , 12-O ) :   0.2609 B( 13-N , 14-O ) :   1.5256 B( 13-N , 15-O ) :   1.5308
B( 14-O , 15-O ) :   0.2812 B( 16-C , 17-C ) :   1.2364 B( 16-C , 84-H ) :   0.9383
B( 17-C , 18-C ) :   1.3846 B( 17-C , 21-S ) :   1.0625 B( 18-C , 19-C ) :   1.3580
B( 18-C , 85-H ) :   0.9732 B( 19-C , 20-C ) :   1.3658 B( 19-C , 24-C ) :   0.9946
B( 20-C , 21-S ) :   1.1743 B( 20-C , 22-C ) :   1.2142 B( 22-C , 23-C ) :   1.4329
B( 22-C , 32-S ) :   1.1041 B( 23-C , 24-C ) :   0.9931 B( 23-C , 30-C ) :   1.3153
B( 24-C , 25-C ) :   1.7240 B( 25-C , 26-C ) :   1.1328 B( 25-C , 28-C ) :   1.1346
B( 26-C , 27-N ) :   2.9952 B( 28-C , 29-N ) :   2.9872 B( 30-C , 31-C ) :   1.4383
B( 30-C , 86-H ) :   0.9861 B( 31-C , 32-S ) :   1.1240 B( 31-C , 33-C ) :   1.1778
B( 33-C , 34-C ) :   1.4481 B( 33-C , 37-S ) :   1.1077 B( 34-C , 35-C ) :   1.3095
B( 34-C , 87-H ) :   0.9867 B( 35-C , 36-C ) :   1.4383 B( 35-C , 40-C ) :   0.9938
B( 36-C , 37-S ) :   1.1271 B( 36-C , 38-C ) :   1.1899 B( 38-C , 39-C ) :   1.4380
B( 38-C , 48-S ) :   1.1244 B( 39-C , 40-C ) :   0.9927 B( 39-C , 46-C ) :   1.3084
B( 40-C , 41-C ) :   1.7216 B( 41-C , 42-C ) :   1.1304 B( 41-C , 44-C ) :   1.1322
B( 42-C , 43-N ) :   2.9914 B( 44-C , 45-N ) :   2.9903 B( 46-C , 47-C ) :   1.4495
B( 46-C , 88-H ) :   0.9873 B( 47-C , 48-S ) :   1.1101 B( 47-C , 49-C ) :   1.1746
B( 49-C , 50-C ) :   1.4421 B( 49-C , 53-S ) :   1.1204 B( 50-C , 51-C ) :   1.3145
B( 50-C , 89-H ) :   0.9868 B( 51-C , 52-C ) :   1.4365 B( 51-C , 56-C ) :   0.9898
B( 52-C , 53-S ) :   1.1107 B( 52-C , 54-C ) :   1.2016 B( 54-C , 55-C ) :   1.4013
B( 54-C , 64-S ) :   1.1598 B( 55-C , 56-C ) :   0.9982 B( 55-C , 62-C ) :   1.3644
B( 56-C , 57-C ) :   1.7291 B( 57-C , 58-C ) :   1.1319 B( 57-C , 60-C ) :   1.1299
B( 58-C , 59-N ) :   2.9887 B( 60-C , 61-N ) :   2.9841 B( 62-C , 63-C ) :   1.3932
B( 62-C , 90-H ) :   0.9803 B( 63-C , 64-S ) :   1.0833 B( 63-C , 65-C ) :   1.1405
B( 65-C , 66-C ) :   1.6704 B( 65-C , 91-H ) :   0.9242 B( 66-C , 67-C ) :   1.0665
B( 66-C , 80-C ) :   0.9476 B( 67-C , 68-C ) :   1.5724 B( 67-C , 75-C ) :   1.0232
B( 68-C , 69-N ) :   0.9183 B( 68-C , 72-N ) :   0.9233 B( 69-N , 70-O ) :   1.5020
B( 69-N , 71-O ) :   1.5387 B( 70-O , 71-O ) :   0.2695 B( 72-N , 73-O ) :   1.5039
B( 72-N , 74-O ) :   1.5242 B( 73-O , 74-O ) :   0.2689 B( 75-C , 76-C ) :   1.5492
B( 75-C , 79-C ) :   1.2180 B( 76-C , 77-S ) :   1.1872 B( 76-C , 92-H ) :   0.9465
B( 77-S , 78-C ) :   1.1836 B( 78-C , 79-C ) :   1.5545 B( 78-C , 93-H ) :   0.9727
B( 79-C , 80-C ) :   0.9377 B( 80-C , 81-O ) :   2.2545

-----------------------------------------------------------------------------
         ABSORPTION SPECTRUM VIA TRANSITION ELECTRIC DIPOLE MOMENTS
-----------------------------------------------------------------------------
State   Energy  Wavelength   fosc         T2         TX        TY        TZ
        (cm-1)    (nm)                  (au**2)     (au)      (au)      (au)
-----------------------------------------------------------------------------
   0   11146.3    897.2   0.772629822  22.82004   4.52682  -1.00763  -1.14571
   1   12782.8    782.3   0.311487484   8.02216  -2.69530   0.60452   0.62615
   2   13129.5    761.6   0.007488010   0.18776   0.29070   0.32081  -0.01817
   3   17975.4    556.3   0.843346145  15.44557   3.89999  -0.32002  -0.36501
   4   19569.0    511.0   0.899790188  15.13733   3.62831  -1.04151  -0.94229
   5   20049.4    498.8   0.000575170   0.00944   0.05736   0.01582  -0.07684
   6   21760.0    459.6   0.039903288   0.60371   0.70977   0.16839   0.26755
   7   22548.6    443.5   0.021752381   0.31759   0.41644  -0.14539  -0.35075
   8   25508.0    392.0   0.306123177   3.95090  -1.84809   0.35850   0.63792
   9   26000.8    384.6   0.333936750   4.22817  -1.50815   0.96214   1.01388
  10   26530.9    376.9   0.106660174   1.32351   0.71503  -0.09828  -0.89587
  11   26920.4    371.5   0.026219693   0.32064   0.35914  -0.11941  -0.42119
  12   27214.2    367.5   0.059705791   0.72226   0.67440  -0.42040  -0.30118
  13   27511.2    363.5   0.020341425   0.24341  -0.27424   0.39376   0.11472
  14   27888.4    358.6   0.170809725   2.01634  -1.38248  -0.04468   0.32109
  15   28079.5    356.1   0.069130640   0.81051   0.04295  -0.42489  -0.79255
  16   28610.5    349.5   0.136948048   1.57582   1.22896  -0.20062  -0.15884
  17   28873.8    346.3   0.343885810   3.92090  -1.90049  -0.00748   0.55585
  18   29513.5    338.8   0.054504899   0.60798  -0.47108   0.54091   0.30575
  19   29774.2    335.9   0.105163839   1.16279  -0.39990   0.76953   0.64085
  20   30086.8    332.4   0.242820786   2.65696   0.41439   1.57645   0.00702
  21   30414.1    328.8   0.070965767   0.76816   0.73053  -0.11337  -0.47078
  22   30491.5    328.0   0.193122840   2.08511   0.85399   1.10127  -0.37818
  23   30641.7    326.4   0.010009629   0.10754  -0.12686   0.14653  -0.26454
  24   30813.4    324.5   0.014800628   0.15813   0.26044   0.08159  -0.28921
  25   30942.3    323.2   0.044399088   0.47239   0.16809   0.55695   0.36598
  26   31271.0    319.8   0.079475015   0.83669  -0.47098   0.46958   0.62798
  27   31639.1    316.1   1.007592010  10.48424   0.74936   3.14333   0.20527
  28   31896.1    313.5   0.140817081   1.45343  -0.66189   0.73210   0.69236
  29   32247.7    310.1   0.015463405   0.15786   0.33898   0.14848  -0.14460
  30   32390.9    308.7   0.010185669   0.10352  -0.30355   0.05986  -0.08832
  31   32599.8    306.8   0.066774639   0.67433  -0.69291  -0.34857  -0.26965
  32   32987.6    303.1   0.330490804   3.29825  -0.81125  -1.60547   0.25021
  33   33047.4    302.6   0.049738928   0.49549  -0.47533   0.50327  -0.12758
  34   33302.1    300.3   0.237582111   2.34865   1.00352  -1.07573  -0.42941
  35   33394.7    299.4   0.018115358   0.17858  -0.35498  -0.22929   0.00055
  36   33504.9    298.5   0.084740763   0.83264  -0.09181   0.86112   0.28757
  37   33601.8    297.6   0.036309868   0.35574   0.02650   0.53809   0.25592
  38   33853.0    295.4   0.041484163   0.40342  -0.19558   0.57316   0.19148
  39   34001.5    294.1   0.035614766   0.34483   0.42737  -0.22273  -0.33552
  40   34016.8    294.0   0.040998190   0.39678   0.51599  -0.09549  -0.34844
  41   34170.4    292.7   0.031113428   0.29976  -0.12432   0.41901   0.32975
  42   34233.5    292.1   0.112095083   1.07798   0.93994  -0.07841  -0.43398
  43   34422.9    290.5   0.028341702   0.27105  -0.32013  -0.22793   0.34149
  44   34660.7    288.5   0.190942871   1.81360  -1.33493  -0.05451   0.16912
  45   34843.2    287.0   0.039983772   0.37778  -0.32861   0.41859   0.30754
  46   35047.4    285.3   0.067212791   0.63135   0.04245   0.79108   0.06120
  47   35198.6    284.1   0.075133898   0.70273   0.23660   0.78215   0.18706
  48   35394.7    282.5   0.002739774   0.02548   0.00903  -0.02680  -0.15711
  49   35522.8    281.5   0.024673689   0.22867  -0.44490  -0.13745  -0.10882
  50   35775.1    279.5   0.065647732   0.60411  -0.56652   0.29639   0.44195
  51   35918.4    278.4   0.023590426   0.21622  -0.18934  -0.41361  -0.09643
  52   36010.2    277.7   0.017804651   0.16277  -0.18703  -0.30487  -0.18668
  53   36327.9    275.3   0.045084318   0.40857   0.22410  -0.35721  -0.48036
  54   36571.6    273.4   0.046867605   0.42190  -0.45126  -0.44840   0.13113
  55   36688.1    272.6   0.002947305   0.02645   0.04998   0.05747  -0.14369
  56   36698.6    272.5   0.038912513   0.34907   0.43798   0.29901  -0.26046
  57   36781.7    271.9   0.025228111   0.22580  -0.45092  -0.12632  -0.08072
  58   37221.6    268.7   0.123903633   1.09588  -0.21333   0.86010   0.55731
  59   37417.5    267.3   0.147656578   1.29913   0.62576   0.83365   0.46107
  60   37793.6    264.6   0.057563738   0.50143   0.29041   0.41073   0.49838
  61   37964.6    263.4   0.014918579   0.12937  -0.20073   0.29837   0.00695
  62   38143.3    262.2   0.069691822   0.60151  -0.28531   0.45365   0.56062
  63   38269.3    261.3   0.078755116   0.67749  -0.62267   0.32695   0.42764
  64   38310.8    261.0   0.003201851   0.02751   0.03967  -0.10084   0.12558
  65   38545.2    259.4   0.015736966   0.13441  -0.32720  -0.03997   0.16046
  66   38640.7    258.8   0.008676566   0.07392  -0.01872   0.16068   0.21853
  67   38786.8    257.8   0.013129198   0.11144  -0.16953  -0.15765  -0.24051
  68   38944.2    256.8   0.010824765   0.09151  -0.07939  -0.21264  -0.19997
  69   39043.2    256.1   0.001992547   0.01680  -0.02793   0.01349   0.12585
  70   39069.5    256.0   0.029943551   0.25231   0.47596  -0.02470  -0.15863
  71   39136.2    255.5   0.000231825   0.00195  -0.00872   0.03267   0.02840
  72   39224.2    254.9   0.004135042   0.03471  -0.17374  -0.03060   0.05987
  73   39339.8    254.2   0.002650705   0.02218  -0.11007   0.09341   0.03661
  74   39436.2    253.6   0.011088635   0.09257   0.20704  -0.16100  -0.15422
  75   39506.6    253.1   0.008585685   0.07155  -0.05174   0.26066  -0.03042
  76   39819.5    251.1   0.032241576   0.26656  -0.44130  -0.25651   0.07761
  77   39908.5    250.6   0.032736165   0.27005   0.46589   0.21848   0.07252
  78   40128.9    249.2   0.019397545   0.15913  -0.23167   0.23327   0.22594
  79   40200.0    248.8   0.008617226   0.07057   0.26183  -0.04057  -0.01919

FINAL SINGLE POINT ENERGY     -6544.491463797341

DIPOLE MOMENT
-------------
                                X             Y             Z
Electronic contribution:     -1.65813      -3.23298       0.27862
Nuclear contribution   :      3.07102       2.22669      -0.44908
                        -----------------------------------------
Total Dipole Moment    :      1.41289      -1.00629      -0.17047
                        -----------------------------------------
Magnitude (a.u.)       :      1.74297
Magnitude (Debye)      :      4.43028

Rotational constants in cm-1:     0.002362     0.000122     0.000117
Rotational constants in MHz :    70.798721     3.644835     3.514901

                             ****ORCA TERMINATED NORMALLY****
TOTAL RUN TIME: 0 days 0 hours 11 minutes 29 seconds 885 msec
