                         Program Version 4.2.0 -  RELEASE  -
|  1> # ORCA input file
|  2> # SCF done       -193.143046622480          0.000728820003
|  3> ! CAM-B3LYP def2-SVP def2/J RIJCOSX Grid4 TightSCF
|  4> %maxcore 5000
|  5> %tddft
|  6>     Mode sTDDFT
|  7>     Ethresh 5.0
|  8>     maxcore 5000
|  9> end
| 10>
| 11> %pal
| 12>   nprocs 6
| 13>   end
| 14> * xyz 0 1
| 15>    C       -3.01453         0.69840         1.33333
| 16>    C       -2.81561         2.04591         1.40114
| 17>    S       -1.19894         2.53473         1.04221
| 18>    C       -0.75416         0.89808         0.80860
| 19>    C       -1.82607         0.03221         0.99136
| 20>    C       -1.37542        -1.34175         0.74548
| 21>    O       -2.01369        -2.36762         0.74887
| 22>    C        0.10412        -1.22121         0.52178
| 23>    C        0.43247         0.19214         0.40156
| 24>    C        1.51870         0.78778        -0.18840
| 25>    C        1.60588         2.19292        -0.29296
| 26>    N        1.68160         3.33369        -0.38364
| 27>    C        2.57532         0.10972        -0.82050
| 28>    N        3.44307        -0.39230        -1.38064
| 29>    C        0.85789        -2.35071         0.55026
| 30>    C        2.25762        -2.48119         0.70885
| 31>    C        3.15408        -1.59561         1.28486
| 32>    C        4.45684        -2.08016         1.26655
| 33>    C        4.55846        -3.35543         0.67692
| 34>    S        3.04954        -3.96135         0.17816
| 35>    C        5.92581        -3.72695         0.65095
| 36>    C        6.68650        -2.68955         1.21771
| 37>    C        5.78694        -1.61905         1.62162
| 38>    C        6.11623        -0.41572         2.17212
| 39>    C        5.12992         0.54696         2.47481
| 40>    N        4.31563         1.31733         2.71570
| 41>    C        7.45023        -0.06443         2.46677
| 42>    N        8.53601         0.21056         2.71118
| 43>    C        8.05626        -2.94647         1.19721
| 44>    C        8.34261        -4.17035         0.61793
| 45>    S        6.89495        -5.02103         0.10152
| 46>    C        9.61885        -4.73875         0.37769
| 47>    C        9.89628        -5.94953        -0.23115
| 48>    C       11.26712        -6.16436        -0.36206
| 49>    C       12.03869        -5.10939         0.15550
| 50>    S       11.07800        -3.85868         0.81020
| 51>    C       13.40851        -5.40154        -0.06519
| 52>    C       13.50235        -6.63911        -0.72566
| 53>    C       12.16103        -7.16668        -0.92073
| 54>    C       11.81362        -8.34898        -1.50411
| 55>    C       10.46774        -8.75398        -1.63005
| 56>    N        9.37395        -9.08267        -1.72915
| 57>    C       12.77723        -9.24476        -2.01427
| 58>    N       13.56194        -9.97025        -2.42924
| 59>    C       14.81608        -6.99651        -1.02541
| 60>    C       15.72143        -6.04274        -0.59666
| 61>    S       14.93565        -4.68581         0.19931
| 62>    C       17.12908        -6.04982        -0.76550
| 63>    C       18.03655        -5.11262        -0.30387
| 64>    C       19.34006        -5.41807        -0.69129
| 65>    C       19.42433        -6.59484        -1.45636
| 66>    S       17.90016        -7.33175        -1.68696
| 67>    C       20.77375        -6.80906        -1.83000
| 68>    C       21.54786        -5.75685        -1.28720
| 69>    C       20.67480        -4.85695        -0.55039
| 70>    C       21.02269        -3.72608         0.12708
| 71>    C       20.06624        -2.93586         0.79916
| 72>    N       19.28537        -2.29619         1.34284
| 73>    C       22.35663        -3.27174         0.20349
| 74>    N       23.43766        -2.89722         0.27082
| 75>    C       22.88530        -5.86717        -1.62140
| 76>    C       23.14746        -6.98479        -2.42000
| 77>    S       21.68739        -7.91837        -2.74297
| 78>    C       24.43942        -7.26761        -2.89934
| 79>    C       24.88228        -8.27542        -3.70928
| 80>    C       26.25649        -8.44647        -4.16757
| 81>    C       27.36521        -7.68506        -3.90240
| 82>    C       28.61726        -8.02641        -4.45771
| 83>    N       29.63660        -8.30039        -4.90701
| 84>    C       27.40571        -6.53228        -3.09512
| 85>    N       27.50410        -5.58675        -2.45105
| 86>    C       26.24965        -9.61716        -5.00280
| 87>    C       24.97907       -10.17129        -5.08533
| 88>    C       24.93059       -11.31626        -5.89761
| 89>    C       26.16212       -11.60102        -6.40972
| 90>    S       27.39674       -10.49642        -5.92150
| 91>    C       24.06032        -9.36401        -4.27919
| 92>    O       22.86824        -9.54657        -4.10917
| 93>    H       -3.95533         0.21260         1.51367
| 94>    H       -3.53873         2.80182         1.63767
| 95>    H        0.29204        -3.27584         0.49223
| 96>    H        2.85376        -0.66451         1.72976
| 97>    H        8.81749        -2.28531         1.57114
| 98>    H        9.12747        -6.62310        -0.56487
| 99>    H       15.11463        -7.89609        -1.53314
|100>    H       17.74536        -4.25726         0.27904
|101>    H       23.65880        -5.18184        -1.32254
|102>    H       25.17912        -6.54828        -2.56699
|103>    H       24.04381       -11.89078        -6.09081
|104>    H       26.42801       -12.41135        -7.06009
|105> *
|106>
|107>                          ****END OF INPUT****

CARTESIAN COORDINATES (ANGSTROEM)
---------------------------------
  C     -3.014530    0.698400    1.333330
  C     -2.815610    2.045910    1.401140
  S     -1.198940    2.534730    1.042210
  C     -0.754160    0.898080    0.808600
  C     -1.826070    0.032210    0.991360
  C     -1.375420   -1.341750    0.745480
  O     -2.013690   -2.367620    0.748870
  C      0.104120   -1.221210    0.521780
  C      0.432470    0.192140    0.401560
  C      1.518700    0.787780   -0.188400
  C      1.605880    2.192920   -0.292960
  N      1.681600    3.333690   -0.383640
  C      2.575320    0.109720   -0.820500
  N      3.443070   -0.392300   -1.380640
  C      0.857890   -2.350710    0.550260
  C      2.257620   -2.481190    0.708850
  C      3.154080   -1.595610    1.284860
  C      4.456840   -2.080160    1.266550
  C      4.558460   -3.355430    0.676920
  S      3.049540   -3.961350    0.178160
  C      5.925810   -3.726950    0.650950
  C      6.686500   -2.689550    1.217710
  C      5.786940   -1.619050    1.621620
  C      6.116230   -0.415720    2.172120
  C      5.129920    0.546960    2.474810
  N      4.315630    1.317330    2.715700
  C      7.450230   -0.064430    2.466770
  N      8.536010    0.210560    2.711180
  C      8.056260   -2.946470    1.197210
  C      8.342610   -4.170350    0.617930
  S      6.894950   -5.021030    0.101520
  C      9.618850   -4.738750    0.377690
  C      9.896280   -5.949530   -0.231150
  C     11.267120   -6.164360   -0.362060
  C     12.038690   -5.109390    0.155500
  S     11.078000   -3.858680    0.810200
  C     13.408510   -5.401540   -0.065190
  C     13.502350   -6.639110   -0.725660
  C     12.161030   -7.166680   -0.920730
  C     11.813620   -8.348980   -1.504110
  C     10.467740   -8.753980   -1.630050
  N      9.373950   -9.082670   -1.729150
  C     12.777230   -9.244760   -2.014270
  N     13.561940   -9.970250   -2.429240
  C     14.816080   -6.996510   -1.025410
  C     15.721430   -6.042740   -0.596660
  S     14.935650   -4.685810    0.199310
  C     17.129080   -6.049820   -0.765500
  C     18.036550   -5.112620   -0.303870
  C     19.340060   -5.418070   -0.691290
  C     19.424330   -6.594840   -1.456360
  S     17.900160   -7.331750   -1.686960
  C     20.773750   -6.809060   -1.830000
  C     21.547860   -5.756850   -1.287200
  C     20.674800   -4.856950   -0.550390
  C     21.022690   -3.726080    0.127080
  C     20.066240   -2.935860    0.799160
  N     19.285370   -2.296190    1.342840
  C     22.356630   -3.271740    0.203490
  N     23.437660   -2.897220    0.270820
  C     22.885300   -5.867170   -1.621400
  C     23.147460   -6.984790   -2.420000
  S     21.687390   -7.918370   -2.742970
  C     24.439420   -7.267610   -2.899340
  C     24.882280   -8.275420   -3.709280
  C     26.256490   -8.446470   -4.167570
  C     27.365210   -7.685060   -3.902400
  C     28.617260   -8.026410   -4.457710
  N     29.636600   -8.300390   -4.907010
  C     27.405710   -6.532280   -3.095120
  N     27.504100   -5.586750   -2.451050
  C     26.249650   -9.617160   -5.002800
  C     24.979070  -10.171290   -5.085330
  C     24.930590  -11.316260   -5.897610
  C     26.162120  -11.601020   -6.409720
  S     27.396740  -10.496420   -5.921500
  C     24.060320   -9.364010   -4.279190
  O     22.868240   -9.546570   -4.109170
  H     -3.955330    0.212600    1.513670
  H     -3.538730    2.801820    1.637670
  H      0.292040   -3.275840    0.492230
  H      2.853760   -0.664510    1.729760
  H      8.817490   -2.285310    1.571140
  H      9.127470   -6.623100   -0.564870
  H     15.114630   -7.896090   -1.533140
  H     17.745360   -4.257260    0.279040
  H     23.658800   -5.181840   -1.322540
  H     25.179120   -6.548280   -2.566990
  H     24.043810  -11.890780   -6.090810
  H     26.428010  -12.411350   -7.060090

 Total Charge           Charge          ....    0
 Multiplicity           Mult            ....    1
 Number of Electrons    NEL             ....  574
 Basis Dimension        Dim             .... 1184

ORBITAL ENERGIES
----------------

  NO   OCC          E(Eh)            E(eV)
   0   2.0000     -89.002801     -2421.8893
   1   2.0000     -89.002592     -2421.8837
   2   2.0000     -89.001473     -2421.8532
   3   2.0000     -89.000996     -2421.8402
   4   2.0000     -88.999963     -2421.8121
   5   2.0000     -88.993624     -2421.6396
   6   2.0000     -88.993616     -2421.6394
   7   2.0000     -88.991824     -2421.5906
   8   2.0000     -19.233062      -523.3582
   9   2.0000     -19.222821      -523.0796
  10   2.0000     -14.441104      -392.9624
  11   2.0000     -14.441039      -392.9606
  12   2.0000     -14.437525      -392.8650
  13   2.0000     -14.437448      -392.8629
  14   2.0000     -14.436826      -392.8460
  15   2.0000     -14.434646      -392.7867
  16   2.0000     -14.423789      -392.4913
  17   2.0000     -14.423432      -392.4815
  18   2.0000     -14.420911      -392.4129
  19   2.0000     -14.419239      -392.3674
  20   2.0000     -10.384643      -282.5805
  21   2.0000     -10.377028      -282.3733
  22   2.0000     -10.376370      -282.3554
  23   2.0000     -10.372742      -282.2567
  24   2.0000     -10.371480      -282.2223
  25   2.0000     -10.363170      -281.9962
  26   2.0000     -10.359713      -281.9021
  27   2.0000     -10.359299      -281.8909
  28   2.0000     -10.356084      -281.8034
  29   2.0000     -10.354734      -281.7666
  30   2.0000     -10.351171      -281.6697
  31   2.0000     -10.351131      -281.6686
  32   2.0000     -10.346869      -281.5526
  33   2.0000     -10.344780      -281.4958
  34   2.0000     -10.344027      -281.4753
  35   2.0000     -10.343811      -281.4694
  36   2.0000     -10.342756      -281.4407
  37   2.0000     -10.341598      -281.4092
  38   2.0000     -10.341362      -281.4028
  39   2.0000     -10.341221      -281.3989
  40   2.0000     -10.341182      -281.3979
  41   2.0000     -10.341138      -281.3967
  42   2.0000     -10.340024      -281.3664
  43   2.0000     -10.338433      -281.3231
  44   2.0000     -10.337584      -281.2999
  45   2.0000     -10.337553      -281.2991
  46   2.0000     -10.337081      -281.2863
  47   2.0000     -10.334239      -281.2090
  48   2.0000     -10.332875      -281.1718
  49   2.0000     -10.332230      -281.1543
  50   2.0000     -10.331433      -281.1326
  51   2.0000     -10.331142      -281.1247
  52   2.0000     -10.330049      -281.0949
  53   2.0000     -10.328357      -281.0489
  54   2.0000     -10.325832      -280.9802
  55   2.0000     -10.325612      -280.9742
  56   2.0000     -10.325290      -280.9654
  57   2.0000     -10.324011      -280.9306
  58   2.0000     -10.322073      -280.8779
  59   2.0000     -10.320212      -280.8272
  60   2.0000     -10.317143      -280.7437
  61   2.0000     -10.316455      -280.7250
  62   2.0000     -10.316406      -280.7237
  63   2.0000     -10.316032      -280.7135
  64   2.0000     -10.315497      -280.6989
  65   2.0000     -10.315454      -280.6978
  66   2.0000     -10.314814      -280.6804
  67   2.0000     -10.314216      -280.6641
  68   2.0000     -10.313098      -280.6337
  69   2.0000     -10.312783      -280.6251
  70   2.0000     -10.310935      -280.5748
  71   2.0000     -10.309121      -280.5254
  72   2.0000     -10.308299      -280.5031
  73   2.0000     -10.307493      -280.4811
  74   2.0000     -10.305226      -280.4195
  75   2.0000     -10.304009      -280.3863
  76   2.0000     -10.302863      -280.3552
  77   2.0000     -10.302407      -280.3427
  78   2.0000      -8.097237      -220.3370
  79   2.0000      -8.097044      -220.3318
  80   2.0000      -8.095991      -220.3031
  81   2.0000      -8.095490      -220.2895
  82   2.0000      -8.094606      -220.2654
  83   2.0000      -8.088123      -220.0890
  84   2.0000      -8.086389      -220.0418
  85   2.0000      -8.086013      -220.0316
  86   2.0000      -6.066533      -165.0788
  87   2.0000      -6.066358      -165.0740
  88   2.0000      -6.065300      -165.0452
  89   2.0000      -6.064786      -165.0312
  90   2.0000      -6.063780      -165.0038
  91   2.0000      -6.062344      -164.9648
  92   2.0000      -6.062155      -164.9596
  93   2.0000      -6.061110      -164.9312
  94   2.0000      -6.060594      -164.9172
  95   2.0000      -6.059601      -164.8901
  96   2.0000      -6.059488      -164.8871
  97   2.0000      -6.059295      -164.8818
  98   2.0000      -6.058213      -164.8524
  99   2.0000      -6.057742      -164.8395
 100   2.0000      -6.057448      -164.8315
 101   2.0000      -6.057124      -164.8227
 102   2.0000      -6.055714      -164.7844
 103   2.0000      -6.055461      -164.7775
 104   2.0000      -6.052775      -164.7044
 105   2.0000      -6.051055      -164.6576
 106   2.0000      -6.050751      -164.6493
 107   2.0000      -6.050663      -164.6469
 108   2.0000      -6.049004      -164.6018
 109   2.0000      -6.048561      -164.5897
 110   2.0000      -1.148817       -31.2609
 111   2.0000      -1.138608       -30.9831
 112   2.0000      -1.058112       -28.7927
 113   2.0000      -1.054785       -28.7022
 114   2.0000      -1.052272       -28.6338
 115   2.0000      -1.035647       -28.1814
 116   2.0000      -1.034285       -28.1443
 117   2.0000      -1.033147       -28.1134
 118   2.0000      -1.029603       -28.0169
 119   2.0000      -1.028094       -27.9759
 120   2.0000      -1.019746       -27.7487
 121   2.0000      -1.017984       -27.7008
 122   2.0000      -1.015095       -27.6221
 123   2.0000      -1.014194       -27.5976
 124   2.0000      -1.013558       -27.5803
 125   2.0000      -1.012994       -27.5650
 126   2.0000      -1.008463       -27.4417
 127   2.0000      -1.000625       -27.2284
 128   2.0000      -0.999877       -27.2080
 129   2.0000      -0.997928       -27.1550
 130   2.0000      -0.976307       -26.5667
 131   2.0000      -0.970963       -26.4212
 132   2.0000      -0.967604       -26.3298
 133   2.0000      -0.963578       -26.2203
 134   2.0000      -0.962183       -26.1823
 135   2.0000      -0.933017       -25.3887
 136   2.0000      -0.926697       -25.2167
 137   2.0000      -0.917925       -24.9780
 138   2.0000      -0.911034       -24.7905
 139   2.0000      -0.908863       -24.7314
 140   2.0000      -0.889520       -24.2051
 141   2.0000      -0.888636       -24.1810
 142   2.0000      -0.881495       -23.9867
 143   2.0000      -0.880238       -23.9525
 144   2.0000      -0.872289       -23.7362
 145   2.0000      -0.871183       -23.7061
 146   2.0000      -0.864511       -23.5245
 147   2.0000      -0.860650       -23.4195
 148   2.0000      -0.859644       -23.3921
 149   2.0000      -0.858395       -23.3581
 150   2.0000      -0.844233       -22.9728
 151   2.0000      -0.820643       -22.3308
 152   2.0000      -0.800687       -21.7878
 153   2.0000      -0.790982       -21.5237
 154   2.0000      -0.790438       -21.5089
 155   2.0000      -0.783492       -21.3199
 156   2.0000      -0.778540       -21.1851
 157   2.0000      -0.773652       -21.0522
 158   2.0000      -0.768998       -20.9255
 159   2.0000      -0.754918       -20.5424
 160   2.0000      -0.737472       -20.0676
 161   2.0000      -0.721289       -19.6273
 162   2.0000      -0.712370       -19.3846
 163   2.0000      -0.711462       -19.3599
 164   2.0000      -0.706631       -19.2284
 165   2.0000      -0.702092       -19.1049
 166   2.0000      -0.698159       -18.9979
 167   2.0000      -0.694276       -18.8922
 168   2.0000      -0.692465       -18.8429
 169   2.0000      -0.686421       -18.6785
 170   2.0000      -0.683221       -18.5914
 171   2.0000      -0.676058       -18.3965
 172   2.0000      -0.673605       -18.3297
 173   2.0000      -0.672114       -18.2891
 174   2.0000      -0.651884       -17.7387
 175   2.0000      -0.643928       -17.5222
 176   2.0000      -0.643447       -17.5091
 177   2.0000      -0.640489       -17.4286
 178   2.0000      -0.636815       -17.3286
 179   2.0000      -0.632390       -17.2082
 180   2.0000      -0.630646       -17.1608
 181   2.0000      -0.628976       -17.1153
 182   2.0000      -0.625337       -17.0163
 183   2.0000      -0.624904       -17.0045
 184   2.0000      -0.620558       -16.8862
 185   2.0000      -0.615352       -16.7446
 186   2.0000      -0.607654       -16.5351
 187   2.0000      -0.603809       -16.4305
 188   2.0000      -0.588761       -16.0210
 189   2.0000      -0.581099       -15.8125
 190   2.0000      -0.573971       -15.6186
 191   2.0000      -0.567835       -15.4516
 192   2.0000      -0.561223       -15.2716
 193   2.0000      -0.559259       -15.2182
 194   2.0000      -0.556908       -15.1542
 195   2.0000      -0.555291       -15.1102
 196   2.0000      -0.551449       -15.0057
 197   2.0000      -0.550334       -14.9753
 198   2.0000      -0.547304       -14.8929
 199   2.0000      -0.545804       -14.8521
 200   2.0000      -0.542523       -14.7628
 201   2.0000      -0.533132       -14.5073
 202   2.0000      -0.528629       -14.3847
 203   2.0000      -0.527857       -14.3637
 204   2.0000      -0.525610       -14.3026
 205   2.0000      -0.521009       -14.1774
 206   2.0000      -0.519043       -14.1239
 207   2.0000      -0.517762       -14.0890
 208   2.0000      -0.515597       -14.0301
 209   2.0000      -0.512655       -13.9501
 210   2.0000      -0.511940       -13.9306
 211   2.0000      -0.509521       -13.8648
 212   2.0000      -0.508510       -13.8373
 213   2.0000      -0.507766       -13.8170
 214   2.0000      -0.504775       -13.7356
 215   2.0000      -0.501421       -13.6444
 216   2.0000      -0.501137       -13.6366
 217   2.0000      -0.499192       -13.5837
 218   2.0000      -0.497562       -13.5393
 219   2.0000      -0.495569       -13.4851
 220   2.0000      -0.491929       -13.3861
 221   2.0000      -0.489571       -13.3219
 222   2.0000      -0.485607       -13.2140
 223   2.0000      -0.484576       -13.1860
 224   2.0000      -0.483684       -13.1617
 225   2.0000      -0.481553       -13.1037
 226   2.0000      -0.480489       -13.0748
 227   2.0000      -0.476819       -12.9749
 228   2.0000      -0.473562       -12.8863
 229   2.0000      -0.471746       -12.8369
 230   2.0000      -0.468457       -12.7474
 231   2.0000      -0.468275       -12.7424
 232   2.0000      -0.467776       -12.7288
 233   2.0000      -0.466589       -12.6965
 234   2.0000      -0.465038       -12.6543
 235   2.0000      -0.462535       -12.5862
 236   2.0000      -0.461863       -12.5679
 237   2.0000      -0.460667       -12.5354
 238   2.0000      -0.458072       -12.4648
 239   2.0000      -0.455085       -12.3835
 240   2.0000      -0.454303       -12.3622
 241   2.0000      -0.452784       -12.3209
 242   2.0000      -0.451512       -12.2863
 243   2.0000      -0.451081       -12.2745
 244   2.0000      -0.449766       -12.2387
 245   2.0000      -0.449215       -12.2238
 246   2.0000      -0.448510       -12.2046
 247   2.0000      -0.447472       -12.1763
 248   2.0000      -0.446932       -12.1616
 249   2.0000      -0.445758       -12.1297
 250   2.0000      -0.445426       -12.1207
 251   2.0000      -0.444461       -12.0944
 252   2.0000      -0.444089       -12.0843
 253   2.0000      -0.441211       -12.0060
 254   2.0000      -0.436630       -11.8813
 255   2.0000      -0.435632       -11.8542
 256   2.0000      -0.433531       -11.7970
 257   2.0000      -0.433267       -11.7898
 258   2.0000      -0.433166       -11.7870
 259   2.0000      -0.432440       -11.7673
 260   2.0000      -0.429263       -11.6808
 261   2.0000      -0.423118       -11.5136
 262   2.0000      -0.422670       -11.5014
 263   2.0000      -0.416647       -11.3375
 264   2.0000      -0.416026       -11.3207
 265   2.0000      -0.415863       -11.3162
 266   2.0000      -0.415158       -11.2970
 267   2.0000      -0.401166       -10.9163
 268   2.0000      -0.393541       -10.7088
 269   2.0000      -0.381988       -10.3944
 270   2.0000      -0.363210        -9.8835
 271   2.0000      -0.362620        -9.8674
 272   2.0000      -0.358240        -9.7482
 273   2.0000      -0.355060        -9.6617
 274   2.0000      -0.352125        -9.5818
 275   2.0000      -0.349872        -9.5205
 276   2.0000      -0.349182        -9.5017
 277   2.0000      -0.346154        -9.4193
 278   2.0000      -0.339801        -9.2465
 279   2.0000      -0.332085        -9.0365
 280   2.0000      -0.330314        -8.9883
 281   2.0000      -0.327059        -8.8997
 282   2.0000      -0.314615        -8.5611
 283   2.0000      -0.312127        -8.4934
 284   2.0000      -0.302788        -8.2393
 285   2.0000      -0.274669        -7.4741
 286   2.0000      -0.249022        -6.7762
 287   0.0000      -0.121494        -3.3060
 288   0.0000      -0.113722        -3.0945
 289   0.0000      -0.111833        -3.0431
 290   0.0000      -0.091110        -2.4792
 291   0.0000      -0.090700        -2.4681

MULLIKEN ATOMIC CHARGES
-----------------------
   0 C :    0.017814
   1 C :   -0.053842
   2 S :    0.227032
   3 C :   -0.177014
   4 C :    0.026741
   5 C :    0.141841
   6 O :   -0.135530
   7 C :   -0.135573
   8 C :    0.241839
   9 C :   -0.327880
  10 C :   -0.190318
  11 N :    0.166883
  12 C :   -0.197475
  13 N :    0.170739
  14 C :    0.072514
  15 C :   -0.108910
  16 C :   -0.009562
  17 C :   -0.002964
  18 C :   -0.070802
  19 S :    0.215091
  20 C :   -0.104041
  21 C :    0.020271
  22 C :    0.303942
  23 C :   -0.284596
  24 C :   -0.185381
  25 N :    0.172517
  26 C :   -0.186725
  27 N :    0.176253
  28 C :   -0.061194
  29 C :   -0.048715
  30 S :    0.201282
  31 C :   -0.052565
  32 C :   -0.060866
  33 C :    0.013756
  34 C :   -0.096904
  35 S :    0.205723
  36 C :   -0.095748
  37 C :    0.014838
  38 C :    0.298710
  39 C :   -0.291526
  40 C :   -0.184891
  41 N :    0.173831
  42 C :   -0.189201
  43 N :    0.176608
  44 C :   -0.061765
  45 C :   -0.053917
  46 S :    0.204676
  47 C :   -0.043700
  48 C :   -0.068739
  49 C :    0.022861
  50 C :   -0.104585
  51 S :    0.204702
  52 C :   -0.070260
  53 C :    0.045713
  54 C :    0.300667
  55 C :   -0.293947
  56 C :   -0.189315
  57 N :    0.175071
  58 C :   -0.193152
  59 N :    0.185899
  60 C :   -0.058763
  61 C :   -0.056621
  62 S :    0.241008
  63 C :   -0.034935
  64 C :   -0.098619
  65 C :    0.256368
  66 C :   -0.335509
  67 C :   -0.206579
  68 N :    0.166528
  69 C :   -0.182741
  70 N :    0.159303
  71 C :   -0.160149
  72 C :    0.022269
  73 C :    0.014064
  74 C :   -0.052133
  75 S :    0.226306
  76 C :    0.180825
  77 O :   -0.178276
  78 H :    0.007311
  79 H :    0.045380
  80 H :    0.024174
  81 H :    0.024903
  82 H :    0.013333
  83 H :    0.013554
  84 H :    0.013732
  85 H :    0.013947
  86 H :    0.027358
  87 H :    0.015591
  88 H :    0.006523
  89 H :    0.045639
Sum of atomic charges:   -0.0000000

LOEWDIN ATOMIC CHARGES
----------------------
   0 C :   -0.035109
   1 C :   -0.152461
   2 S :    0.515625
   3 C :   -0.173084
   4 C :   -0.071886
   5 C :    0.082418
   6 O :   -0.136302
   7 C :   -0.086920
   8 C :    0.052864
   9 C :   -0.139524
  10 C :   -0.034129
  11 N :   -0.038325
  12 C :   -0.017182
  13 N :   -0.045374
  14 C :    0.037361
  15 C :   -0.183673
  16 C :    0.006277
  17 C :   -0.067549
  18 C :   -0.160121
  19 S :    0.498638
  20 C :   -0.183643
  21 C :   -0.055793
  22 C :    0.083211
  23 C :   -0.095607
  24 C :   -0.013280
  25 N :   -0.029466
  26 C :   -0.016255
  27 N :   -0.029317
  28 C :   -0.037982
  29 C :   -0.172797
  30 S :    0.490479
  31 C :   -0.179960
  32 C :   -0.035657
  33 C :   -0.066631
  34 C :   -0.179076
  35 S :    0.491286
  36 C :   -0.176886
  37 C :   -0.067945
  38 C :    0.081694
  39 C :   -0.098071
  40 C :   -0.016136
  41 N :   -0.029557
  42 C :   -0.016650
  43 N :   -0.028954
  44 C :   -0.033848
  45 C :   -0.181518
  46 S :    0.491514
  47 C :   -0.170036
  48 C :   -0.041611
  49 C :   -0.053762
  50 C :   -0.186673
  51 S :    0.490455
  52 C :   -0.167560
  53 C :   -0.080002
  54 C :    0.078409
  55 C :   -0.098944
  56 C :   -0.016029
  57 N :   -0.031754
  58 C :   -0.020264
  59 N :   -0.021887
  60 C :    0.010010
  61 C :   -0.186457
  62 S :    0.545608
  63 C :    0.049556
  64 C :   -0.107727
  65 C :    0.062348
  66 C :   -0.139836
  67 C :   -0.034486
  68 N :   -0.042770
  69 C :   -0.024742
  70 N :   -0.042058
  71 C :   -0.175452
  72 C :   -0.070923
  73 C :   -0.034898
  74 C :   -0.153119
  75 S :    0.515172
  76 C :    0.085745
  77 O :   -0.166311
  78 H :    0.042983
  79 H :    0.031303
  80 H :    0.046536
  81 H :    0.042343
  82 H :    0.036930
  83 H :    0.036178
  84 H :    0.036716
  85 H :    0.036407
  86 H :    0.047804
  87 H :    0.053961
  88 H :    0.042764
  89 H :    0.031372

  Mayer bond orders larger than 0.100000
B(  0-C ,  1-C ) :   1.5476 B(  0-C ,  4-C ) :   1.2758 B(  0-C , 78-H ) :   1.0070
B(  1-C ,  2-S ) :   1.1681 B(  1-C , 79-H ) :   0.9676 B(  2-S ,  3-C ) :   1.1580
B(  3-C ,  4-C ) :   1.4368 B(  3-C ,  8-C ) :   1.0919 B(  4-C ,  5-C ) :   0.9424
B(  5-C ,  6-O ) :   2.2625 B(  5-C ,  7-C ) :   0.9306 B(  7-C ,  8-C ) :   1.0292
B(  7-C , 14-C ) :   1.7146 B(  8-C ,  9-C ) :   1.6470 B(  9-C , 10-C ) :   1.1228
B(  9-C , 12-C ) :   1.1756 B( 10-C , 11-N ) :   3.0105 B( 12-C , 13-N ) :   2.9958
B( 14-C , 15-C ) :   1.1113 B( 14-C , 80-H ) :   0.9281 B( 15-C , 16-C ) :   1.4138
B( 15-C , 19-S ) :   1.0898 B( 16-C , 17-C ) :   1.3477 B( 16-C , 81-H ) :   0.9815
B( 17-C , 18-C ) :   1.4181 B( 17-C , 22-C ) :   1.0003 B( 18-C , 19-S ) :   1.1525
B( 18-C , 20-C ) :   1.1908 B( 20-C , 21-C ) :   1.4474 B( 20-C , 30-S ) :   1.1143
B( 21-C , 22-C ) :   0.9915 B( 21-C , 28-C ) :   1.3079 B( 22-C , 23-C ) :   1.7211
B( 23-C , 24-C ) :   1.1346 B( 23-C , 26-C ) :   1.1301 B( 24-C , 25-N ) :   2.9831
B( 26-C , 27-N ) :   2.9927 B( 28-C , 29-C ) :   1.4516 B( 28-C , 82-H ) :   0.9869
B( 29-C , 30-S ) :   1.1182 B( 29-C , 31-C ) :   1.1715 B( 31-C , 32-C ) :   1.4553
B( 31-C , 35-S ) :   1.1096 B( 32-C , 33-C ) :   1.3046 B( 32-C , 83-H ) :   0.9858
B( 33-C , 34-C ) :   1.4441 B( 33-C , 38-C ) :   0.9943 B( 34-C , 35-S ) :   1.1231
B( 34-C , 36-C ) :   1.1858 B( 36-C , 37-C ) :   1.4419 B( 36-C , 46-S ) :   1.1250
B( 37-C , 38-C ) :   0.9947 B( 37-C , 44-C ) :   1.3033 B( 38-C , 39-C ) :   1.7169
B( 39-C , 40-C ) :   1.1313 B( 39-C , 42-C ) :   1.1329 B( 40-C , 41-N ) :   2.9906
B( 42-C , 43-N ) :   2.9920 B( 44-C , 45-C ) :   1.4567 B( 44-C , 84-H ) :   0.9865
B( 45-C , 46-S ) :   1.1080 B( 45-C , 47-C ) :   1.1708 B( 47-C , 48-C ) :   1.4491
B( 47-C , 51-S ) :   1.1195 B( 48-C , 49-C ) :   1.3045 B( 48-C , 85-H ) :   0.9865
B( 49-C , 50-C ) :   1.4395 B( 49-C , 54-C ) :   0.9957 B( 50-C , 51-S ) :   1.1111
B( 50-C , 52-C ) :   1.1990 B( 52-C , 53-C ) :   1.3647 B( 52-C , 62-S ) :   1.1261
B( 53-C , 54-C ) :   0.9886 B( 53-C , 60-C ) :   1.3221 B( 54-C , 55-C ) :   1.7163
B( 55-C , 56-C ) :   1.1330 B( 55-C , 58-C ) :   1.1352 B( 56-C , 57-N ) :   2.9900
B( 58-C , 59-N ) :   2.9954 B( 60-C , 61-C ) :   1.3465 B( 60-C , 86-H ) :   1.0078
B( 61-C , 62-S ) :   1.0719 B( 61-C , 63-C ) :   1.2451 B( 63-C , 64-C ) :   1.5463
B( 63-C , 87-H ) :   0.9425 B( 64-C , 65-C ) :   1.0765 B( 64-C , 76-C ) :   0.9617
B( 65-C , 66-C ) :   1.6376 B( 65-C , 71-C ) :   1.0893 B( 66-C , 67-C ) :   1.1443
B( 66-C , 69-C ) :   1.1438 B( 67-C , 68-N ) :   3.0039 B( 69-C , 70-N ) :   2.9644
B( 71-C , 72-C ) :   1.4405 B( 71-C , 75-S ) :   1.1499 B( 72-C , 73-C ) :   1.2673
B( 72-C , 76-C ) :   0.9843 B( 73-C , 74-C ) :   1.5438 B( 73-C , 88-H ) :   1.0083
B( 74-C , 75-S ) :   1.1676 B( 74-C , 89-H ) :   0.9679 B( 76-C , 77-O ) :   2.1224

-----------------------------------------------------------------------------
         ABSORPTION SPECTRUM VIA TRANSITION ELECTRIC DIPOLE MOMENTS
-----------------------------------------------------------------------------
State   Energy  Wavelength   fosc         T2         TX        TY        TZ
        (cm-1)    (nm)                  (au**2)     (au)      (au)      (au)
-----------------------------------------------------------------------------
   0   11163.0    895.8   0.483619628  14.26262   3.59529  -0.98719  -0.60164
   1   12812.8    780.5   0.218055093   5.60269  -2.20516   0.82344   0.24886
   2   13401.6    746.2   0.108979907   2.67710  -1.52704   0.17573   0.56068
   3   19868.5    503.3   1.117373183  18.51438   3.92313  -1.74760  -0.26328
   4   20333.9    491.8   0.043229667   0.69990  -0.73076   0.03344   0.40592
   5   21008.0    476.0   0.569807023   8.92933   2.72314  -0.27388  -1.19952
   6   22266.7    449.1   0.014700158   0.21734  -0.22680   0.39943   0.07971
   7   22668.7    441.1   0.009220687   0.13391  -0.27173   0.02866   0.24342
   8   24348.7    410.7   0.915303825  12.37555   3.28191  -0.93771  -0.85167
   9   25877.4    386.4   0.136037049   1.73066   1.14854  -0.50370   0.39726
  10   26818.8    372.9   0.054153577   0.66476  -0.74785   0.32477  -0.00284
  11   27265.2    366.8   0.078845104   0.95201  -0.95693   0.06123   0.18038
  12   28390.6    352.2   0.005858821   0.06794   0.23291   0.09842  -0.06326
  13   28517.5    350.7   0.054113769   0.62470   0.73502   0.21773  -0.19244
  14   29117.7    343.4   0.009609135   0.10864   0.22191   0.12006  -0.21209
  15   29292.8    341.4   0.063975824   0.71900   0.61405  -0.25231   0.52752
  16   29727.1    336.4   0.273324106   3.02692  -1.54924   0.59024   0.52763
  17   29955.0    333.8   0.052197977   0.57367   0.67933   0.27307   0.19394
  18   30708.5    325.6   0.008069591   0.08651   0.00089  -0.13932  -0.25904
  19   30916.3    323.5   0.266109686   2.83367  -0.12609   1.41138   0.90872
  20   31012.8    322.4   0.019597914   0.20804  -0.38038   0.14469   0.20595
  21   31217.8    320.3   0.335940246   3.54271   0.32748  -1.47175  -1.12668
  22   31293.6    319.6   0.149396968   1.57167   0.94616  -0.48875  -0.66149
  23   31309.1    319.4   0.043812680   0.46069  -0.60522   0.15355   0.26612
  24   31722.5    315.2   0.904150495   9.38316  -0.82997  -2.65783  -1.27680
  25   31882.1    313.7   0.398652694   4.11646   1.29963   1.41360   0.65509
  26   32123.2    311.3   0.060289577   0.61787   0.70720   0.26060  -0.22320
  27   32713.8    305.7   0.083253014   0.83781   0.77397   0.43366   0.22521
  28   32804.7    304.8   0.029962349   0.30069   0.03163   0.48343   0.25688
  29   33060.1    302.5   0.617740253   6.15144  -0.61569   2.22068   0.91702
  30   33180.0    301.4   0.099044514   0.98272  -0.49686  -0.61048  -0.60263
  31   33414.4    299.3   0.587279036   5.78611   1.96308   1.23014   0.64746
  32   33498.2    298.5   0.201325408   1.97857   1.13320  -0.50499  -0.66288
  33   33895.9    295.0   0.322443564   3.13171   1.72362   0.09409  -0.38986
  34   34336.0    291.2   0.047246255   0.45300  -0.57960   0.25258   0.23080
  35   34386.5    290.8   0.099304365   0.95073  -0.77466   0.45844   0.37478
  36   34424.4    290.5   0.040888936   0.39103   0.51390   0.30700   0.18080
  37   34808.6    287.3   0.001940503   0.01835   0.05103  -0.07857  -0.09786
  38   34857.8    286.9   0.075809420   0.71598  -0.53721  -0.50130  -0.41961
  39   34891.9    286.6   0.046593516   0.43962   0.39137  -0.42043  -0.33120
  40   34942.4    286.2   0.001659080   0.01563  -0.09757   0.07628   0.01711
  41   35240.5    283.8   0.053365359   0.49853   0.17609  -0.57407  -0.37143
  42   35589.4    281.0   0.114955964   1.06337   0.42590   0.84557   0.40864
  43   36060.5    277.3   0.017231440   0.15731   0.22868   0.30646   0.10538
  44   36099.7    277.0   0.068687887   0.62640  -0.55599   0.54568   0.13969
  45   36278.0    275.6   0.175852458   1.59581  -1.07782  -0.58463   0.30385
  46   36318.3    275.3   0.008357947   0.07576   0.13217   0.16117   0.17977
  47   36381.1    274.9   0.006961920   0.06300  -0.21081   0.04878   0.12719
  48   36957.4    270.6   0.002602318   0.02318  -0.12855  -0.06054  -0.05469
  49   37128.9    269.3   0.076043022   0.67425  -0.61792  -0.49768  -0.21153
  50   37371.7    267.6   0.020833409   0.18352  -0.16671   0.27605   0.28201
  51   37834.0    264.3   0.012775395   0.11116  -0.19487  -0.24931  -0.10506
  52   37986.5    263.3   0.004014287   0.03479   0.11404  -0.04729   0.13982
  53   38187.5    261.9   0.003472065   0.02993   0.16873   0.01959   0.03286
  54   38495.3    259.8   0.007738147   0.06618  -0.12460   0.16693   0.15094
  55   38693.3    258.4   0.024806557   0.21106   0.24452  -0.32861  -0.20805
  56   38985.0    256.5   0.030012545   0.25344   0.07605   0.39209   0.30648
  57   39068.3    256.0   0.004772571   0.04022   0.17663  -0.00037  -0.09496
  58   39180.5    255.2   0.008127680   0.06829  -0.23347  -0.11330  -0.03079
  59   39433.7    253.6   0.003025778   0.02526   0.13999  -0.06674  -0.03476
  60   39548.7    252.9   0.049560236   0.41255  -0.33643  -0.54502   0.04810
  61   39772.7    251.4   0.017998743   0.14898  -0.12189   0.30001   0.21004
  62   40116.9    249.3   0.014762854   0.12115  -0.19886  -0.26888  -0.09648

FINAL SINGLE POINT ENERGY     -6095.927907115028

DIPOLE MOMENT
-------------
                                X             Y             Z
Electronic contribution:      5.51947       0.03212       1.46256
Nuclear contribution   :     -8.29704      -2.74117      -1.68977
                        -----------------------------------------
Total Dipole Moment    :     -2.77757      -2.70905      -0.22721
                        -----------------------------------------
Magnitude (a.u.)       :      3.88658
Magnitude (Debye)      :      9.87890

Rotational constants in cm-1:     0.002251     0.000141     0.000136
Rotational constants in MHz :    67.498055     4.237704     4.075836

                             ****ORCA TERMINATED NORMALLY****
TOTAL RUN TIME: 0 days 0 hours 9 minutes 19 seconds 464 msec
