                         Program Version 4.2.0 -  RELEASE  -
|  1> # ORCA input file
|  2> # SCF done       -208.600595295426          0.000868576804
|  3> ! CAM-B3LYP def2-SVP def2/J RIJCOSX Grid4 TightSCF
|  4> %maxcore 5000
|  5> %tddft
|  6>     Mode sTDDFT
|  7>     Ethresh 5.0
|  8>     maxcore 5000
|  9> end
| 10>
| 11> %pal
| 12>   nprocs 6
| 13>   end
| 14> * xyz 0 1
| 15>    C        4.39453        -2.49125        -8.68685
| 16>    C        4.94163        -2.48419        -9.94120
| 17>    C        6.21367        -3.03314       -10.16236
| 18>    C        6.92138        -3.58031        -9.12698
| 19>    C        6.38715        -3.60690        -7.82266
| 20>    C        7.10746        -4.18466        -6.75209
| 21>    C        6.55238        -4.20223        -5.50099
| 22>    C        5.26644        -3.62617        -5.27933
| 23>    C        4.54808        -3.06544        -6.29601
| 24>    C        5.09518        -3.04807        -7.59870
| 25>    C        4.91258        -3.74912        -3.85448
| 26>    O        3.88664        -3.42451        -3.30511
| 27>    C        6.13336        -4.31031        -3.20008
| 28>    C        7.02704        -4.76978        -4.24479
| 29>    C        7.95259        -5.77242        -4.12491
| 30>    C        8.15543        -6.50165        -2.93504
| 31>    N        8.30846        -7.14951        -1.99992
| 32>    C        8.72625        -6.25612        -5.19960
| 33>    N        9.38859        -6.67273        -6.03925
| 34>    C        6.26816        -4.23018        -1.85348
| 35>    C        7.44402        -4.32528        -1.06380
| 36>    C        7.47438        -4.62788         0.28677
| 37>    F        6.37185        -4.92492         0.97284
| 38>    C        8.75850        -4.62335         0.83811
| 39>    C        9.73298        -4.25907        -0.09923
| 40>    S        9.05585        -3.95364        -1.65292
| 41>    C       11.01525        -4.24562         0.45818
| 42>    C       10.99789        -4.61235         1.80916
| 43>    S        9.40841        -4.96578         2.41367
| 44>    C       12.27939        -4.61452         2.37037
| 45>    F       12.53519        -4.93051         3.64498
| 46>    C       13.27172        -4.24974         1.48016
| 47>    S       12.60955        -3.89609        -0.10129
| 48>    C       14.66690        -4.15716         1.74345
| 49>    C       15.65259        -3.71531         0.88142
| 50>    F       15.38856        -3.29823        -0.36226
| 51>    C       16.93485        -3.74209         1.44037
| 52>    C       16.92740        -4.22233         2.75433
| 53>    S       15.33940        -4.62605         3.29123
| 54>    C       18.21286        -4.24657         3.30873
| 55>    C       19.17676        -3.77743         2.41004
| 56>    S       18.51946        -3.30813         0.86967
| 57>    C       20.46267        -3.79174         2.96074
| 58>    F       21.55795        -3.38823         2.30689
| 59>    C       20.50140        -4.26869         4.25751
| 60>    S       18.90291        -4.71207         4.81922
| 61>    C       21.64864        -4.40243         5.08814
| 62>    C       21.69984        -4.94152         6.36122
| 63>    F       20.61758        -5.42806         6.98022
| 64>    C       22.98074        -4.92508         6.92124
| 65>    C       23.92607        -4.35649         6.05934
| 66>    S       23.22634        -3.85732         4.56403
| 67>    C       25.20942        -4.33104         6.61598
| 68>    C       25.21616        -4.89166         7.90393
| 69>    S       23.65219        -5.45115         8.43686
| 70>    C       26.48446        -4.86043         8.46442
| 71>    F       26.77308        -5.32824         9.67980
| 72>    C       27.45803        -4.27892         7.64470
| 73>    S       26.75808        -3.75499         6.12058
| 74>    C       28.79865        -4.17129         8.06211
| 75>    C       29.86035        -3.58791         7.42907
| 76>    C       31.22137        -3.49260         7.93134
| 77>    C       31.74021        -4.10598         9.04029
| 78>    C       33.08256        -3.97570         9.45701
| 79>    N       34.15909        -3.91103         9.85017
| 80>    C       31.04082        -4.97081         9.90948
| 81>    N       30.55326        -5.69311        10.65716
| 82>    C       31.96932        -2.64613         7.00657
| 83>    C       31.11383        -2.28609         5.92545
| 84>    C       31.53826        -1.49618         4.89588
| 85>    C       32.86492        -1.01146         4.90418
| 86>    C       33.35874        -0.18625         3.87478
| 87>    C       34.64525         0.27961         3.90885
| 88>    C       35.49385        -0.06117         4.97258
| 89>    C       35.04554        -0.86305         5.98713
| 90>    C       33.72631        -1.35949         5.98465
| 91>    C       33.25899        -2.18562         7.03319
| 92>    C       29.78969        -2.87957         6.14256
| 93>    O       28.82281        -2.79136         5.40469
| 94>    H        3.41534        -2.07069        -8.51055
| 95>    H        4.39731        -2.05630       -10.76967
| 96>    H        6.62996        -3.02106       -11.15848
| 97>    H        7.89952        -4.00719        -9.29304
| 98>    H        8.08724        -4.59330        -6.94503
| 99>    H        3.57183        -2.64310        -6.10996
|100>    H        5.35977        -4.00240        -1.30193
|101>    H       28.97423        -4.60789         9.03923
|102>    H       30.86854        -1.24189         4.08780
|103>    H       32.70023         0.07265         3.05866
|104>    H       35.01548         0.91340         3.11700
|105>    H       36.50574         0.31511         4.98452
|106>    H       35.69597        -1.12886         6.80738
|107>    H       33.93666        -2.42737         7.83625
|108> *
|109>
|110>                          ****END OF INPUT****

CARTESIAN COORDINATES (ANGSTROEM)
---------------------------------
  C      4.394530   -2.491250   -8.686850
  C      4.941630   -2.484190   -9.941200
  C      6.213670   -3.033140  -10.162360
  C      6.921380   -3.580310   -9.126980
  C      6.387150   -3.606900   -7.822660
  C      7.107460   -4.184660   -6.752090
  C      6.552380   -4.202230   -5.500990
  C      5.266440   -3.626170   -5.279330
  C      4.548080   -3.065440   -6.296010
  C      5.095180   -3.048070   -7.598700
  C      4.912580   -3.749120   -3.854480
  O      3.886640   -3.424510   -3.305110
  C      6.133360   -4.310310   -3.200080
  C      7.027040   -4.769780   -4.244790
  C      7.952590   -5.772420   -4.124910
  C      8.155430   -6.501650   -2.935040
  N      8.308460   -7.149510   -1.999920
  C      8.726250   -6.256120   -5.199600
  N      9.388590   -6.672730   -6.039250
  C      6.268160   -4.230180   -1.853480
  C      7.444020   -4.325280   -1.063800
  C      7.474380   -4.627880    0.286770
  F      6.371850   -4.924920    0.972840
  C      8.758500   -4.623350    0.838110
  C      9.732980   -4.259070   -0.099230
  S      9.055850   -3.953640   -1.652920
  C     11.015250   -4.245620    0.458180
  C     10.997890   -4.612350    1.809160
  S      9.408410   -4.965780    2.413670
  C     12.279390   -4.614520    2.370370
  F     12.535190   -4.930510    3.644980
  C     13.271720   -4.249740    1.480160
  S     12.609550   -3.896090   -0.101290
  C     14.666900   -4.157160    1.743450
  C     15.652590   -3.715310    0.881420
  F     15.388560   -3.298230   -0.362260
  C     16.934850   -3.742090    1.440370
  C     16.927400   -4.222330    2.754330
  S     15.339400   -4.626050    3.291230
  C     18.212860   -4.246570    3.308730
  C     19.176760   -3.777430    2.410040
  S     18.519460   -3.308130    0.869670
  C     20.462670   -3.791740    2.960740
  F     21.557950   -3.388230    2.306890
  C     20.501400   -4.268690    4.257510
  S     18.902910   -4.712070    4.819220
  C     21.648640   -4.402430    5.088140
  C     21.699840   -4.941520    6.361220
  F     20.617580   -5.428060    6.980220
  C     22.980740   -4.925080    6.921240
  C     23.926070   -4.356490    6.059340
  S     23.226340   -3.857320    4.564030
  C     25.209420   -4.331040    6.615980
  C     25.216160   -4.891660    7.903930
  S     23.652190   -5.451150    8.436860
  C     26.484460   -4.860430    8.464420
  F     26.773080   -5.328240    9.679800
  C     27.458030   -4.278920    7.644700
  S     26.758080   -3.754990    6.120580
  C     28.798650   -4.171290    8.062110
  C     29.860350   -3.587910    7.429070
  C     31.221370   -3.492600    7.931340
  C     31.740210   -4.105980    9.040290
  C     33.082560   -3.975700    9.457010
  N     34.159090   -3.911030    9.850170
  C     31.040820   -4.970810    9.909480
  N     30.553260   -5.693110   10.657160
  C     31.969320   -2.646130    7.006570
  C     31.113830   -2.286090    5.925450
  C     31.538260   -1.496180    4.895880
  C     32.864920   -1.011460    4.904180
  C     33.358740   -0.186250    3.874780
  C     34.645250    0.279610    3.908850
  C     35.493850   -0.061170    4.972580
  C     35.045540   -0.863050    5.987130
  C     33.726310   -1.359490    5.984650
  C     33.258990   -2.185620    7.033190
  C     29.789690   -2.879570    6.142560
  O     28.822810   -2.791360    5.404690
  H      3.415340   -2.070690   -8.510550
  H      4.397310   -2.056300  -10.769670
  H      6.629960   -3.021060  -11.158480
  H      7.899520   -4.007190   -9.293040
  H      8.087240   -4.593300   -6.945030
  H      3.571830   -2.643100   -6.109960
  H      5.359770   -4.002400   -1.301930
  H     28.974230   -4.607890    9.039230
  H     30.868540   -1.241890    4.087800
  H     32.700230    0.072650    3.058660
  H     35.015480    0.913400    3.117000
  H     36.505740    0.315110    4.984520
  H     35.695970   -1.128860    6.807380
  H     33.936660   -2.427370    7.836250

 Total Charge           Charge          ....    0
 Multiplicity           Mult            ....    1
 Number of Electrons    NEL             ....  604
 Basis Dimension        Dim             .... 1212

ORBITAL ENERGIES
----------------

  NO   OCC          E(Eh)            E(eV)
   0   2.0000     -88.985101     -2421.4077
   1   2.0000     -88.984271     -2421.3851
   2   2.0000     -88.984256     -2421.3847
   3   2.0000     -88.984130     -2421.3813
   4   2.0000     -88.983831     -2421.3732
   5   2.0000     -88.983559     -2421.3657
   6   2.0000     -88.982884     -2421.3474
   7   2.0000     -88.981305     -2421.3044
   8   2.0000     -88.975548     -2421.1478
   9   2.0000     -24.815229      -675.2567
  10   2.0000     -24.815063      -675.2522
  11   2.0000     -24.814552      -675.2383
  12   2.0000     -24.814113      -675.2263
  13   2.0000     -24.813916      -675.2210
  14   2.0000     -24.813214      -675.2019
  15   2.0000     -19.222918      -523.0822
  16   2.0000     -19.213763      -522.8331
  17   2.0000     -14.415778      -392.2733
  18   2.0000     -14.413953      -392.2236
  19   2.0000     -14.412683      -392.1890
  20   2.0000     -14.412062      -392.1721
  21   2.0000     -10.393181      -282.8128
  22   2.0000     -10.392026      -282.7814
  23   2.0000     -10.386208      -282.6231
  24   2.0000     -10.385978      -282.6168
  25   2.0000     -10.385170      -282.5949
  26   2.0000     -10.384610      -282.5796
  27   2.0000     -10.370360      -282.1919
  28   2.0000     -10.365433      -282.0578
  29   2.0000     -10.343430      -281.4590
  30   2.0000     -10.341402      -281.4039
  31   2.0000     -10.339834      -281.3612
  32   2.0000     -10.339260      -281.3456
  33   2.0000     -10.337821      -281.3064
  34   2.0000     -10.337707      -281.3033
  35   2.0000     -10.337134      -281.2877
  36   2.0000     -10.334774      -281.2235
  37   2.0000     -10.334746      -281.2227
  38   2.0000     -10.330832      -281.1162
  39   2.0000     -10.330715      -281.1130
  40   2.0000     -10.330516      -281.1076
  41   2.0000     -10.330144      -281.0975
  42   2.0000     -10.329790      -281.0879
  43   2.0000     -10.327567      -281.0274
  44   2.0000     -10.326881      -281.0087
  45   2.0000     -10.326788      -281.0062
  46   2.0000     -10.326628      -281.0018
  47   2.0000     -10.326428      -280.9964
  48   2.0000     -10.326307      -280.9931
  49   2.0000     -10.325670      -280.9758
  50   2.0000     -10.324281      -280.9380
  51   2.0000     -10.324152      -280.9345
  52   2.0000     -10.323009      -280.9034
  53   2.0000     -10.318147      -280.7711
  54   2.0000     -10.316325      -280.7215
  55   2.0000     -10.315238      -280.6919
  56   2.0000     -10.315233      -280.6918
  57   2.0000     -10.303741      -280.3791
  58   2.0000     -10.302517      -280.3457
  59   2.0000     -10.298487      -280.2361
  60   2.0000     -10.298128      -280.2263
  61   2.0000     -10.297947      -280.2214
  62   2.0000     -10.297918      -280.2206
  63   2.0000     -10.297712      -280.2150
  64   2.0000     -10.297698      -280.2146
  65   2.0000     -10.297514      -280.2096
  66   2.0000     -10.297107      -280.1985
  67   2.0000     -10.296914      -280.1933
  68   2.0000     -10.296186      -280.1735
  69   2.0000     -10.289449      -279.9902
  70   2.0000     -10.289172      -279.9826
  71   2.0000     -10.286961      -279.9225
  72   2.0000     -10.286695      -279.9152
  73   2.0000     -10.286472      -279.9091
  74   2.0000     -10.286282      -279.9040
  75   2.0000     -10.286043      -279.8975
  76   2.0000     -10.286043      -279.8974
  77   2.0000     -10.285561      -279.8844
  78   2.0000     -10.285498      -279.8826
  79   2.0000      -8.079647      -219.8584
  80   2.0000      -8.078768      -219.8344
  81   2.0000      -8.078650      -219.8312
  82   2.0000      -8.078624      -219.8305
  83   2.0000      -8.078387      -219.8241
  84   2.0000      -8.077830      -219.8089
  85   2.0000      -8.077391      -219.7970
  86   2.0000      -8.075611      -219.7486
  87   2.0000      -8.068079      -219.5436
  88   2.0000      -6.049438      -164.6136
  89   2.0000      -6.048562      -164.5897
  90   2.0000      -6.048550      -164.5894
  91   2.0000      -6.048440      -164.5864
  92   2.0000      -6.048127      -164.5779
  93   2.0000      -6.047779      -164.5684
  94   2.0000      -6.047133      -164.5509
  95   2.0000      -6.045607      -164.5093
  96   2.0000      -6.045293      -164.5008
  97   2.0000      -6.044509      -164.4794
  98   2.0000      -6.044419      -164.4770
  99   2.0000      -6.044309      -164.4740
 100   2.0000      -6.043976      -164.4650
 101   2.0000      -6.043730      -164.4583
 102   2.0000      -6.043101      -164.4411
 103   2.0000      -6.041553      -164.3990
 104   2.0000      -6.040749      -164.3771
 105   2.0000      -6.039882      -164.3535
 106   2.0000      -6.039776      -164.3507
 107   2.0000      -6.039599      -164.3458
 108   2.0000      -6.039443      -164.3416
 109   2.0000      -6.038670      -164.3206
 110   2.0000      -6.038542      -164.3171
 111   2.0000      -6.037977      -164.3017
 112   2.0000      -6.036326      -164.2568
 113   2.0000      -6.033461      -164.1788
 114   2.0000      -6.029345      -164.0668
 115   2.0000      -1.329462       -36.1765
 116   2.0000      -1.329142       -36.1678
 117   2.0000      -1.328891       -36.1610
 118   2.0000      -1.328518       -36.1508
 119   2.0000      -1.328097       -36.1393
 120   2.0000      -1.327773       -36.1305
 121   2.0000      -1.138630       -30.9837
 122   2.0000      -1.129547       -30.7365
 123   2.0000      -1.045410       -28.4471
 124   2.0000      -1.042743       -28.3745
 125   2.0000      -1.039290       -28.2805
 126   2.0000      -1.018911       -27.7260
 127   2.0000      -1.016741       -27.6669
 128   2.0000      -1.010601       -27.4998
 129   2.0000      -1.002635       -27.2831
 130   2.0000      -0.998171       -27.1616
 131   2.0000      -0.997885       -27.1538
 132   2.0000      -0.994576       -27.0638
 133   2.0000      -0.991709       -26.9858
 134   2.0000      -0.991354       -26.9761
 135   2.0000      -0.972114       -26.4526
 136   2.0000      -0.971590       -26.4383
 137   2.0000      -0.960361       -26.1328
 138   2.0000      -0.950310       -25.8593
 139   2.0000      -0.940020       -25.5793
 140   2.0000      -0.923873       -25.1399
 141   2.0000      -0.923293       -25.1241
 142   2.0000      -0.904320       -24.6078
 143   2.0000      -0.903482       -24.5850
 144   2.0000      -0.888849       -24.1868
 145   2.0000      -0.885751       -24.1025
 146   2.0000      -0.883135       -24.0313
 147   2.0000      -0.881423       -23.9847
 148   2.0000      -0.880035       -23.9470
 149   2.0000      -0.876164       -23.8416
 150   2.0000      -0.864569       -23.5261
 151   2.0000      -0.855012       -23.2661
 152   2.0000      -0.852606       -23.2006
 153   2.0000      -0.851008       -23.1571
 154   2.0000      -0.840007       -22.8577
 155   2.0000      -0.828889       -22.5552
 156   2.0000      -0.828496       -22.5445
 157   2.0000      -0.828257       -22.5380
 158   2.0000      -0.816367       -22.2145
 159   2.0000      -0.813150       -22.1269
 160   2.0000      -0.810049       -22.0426
 161   2.0000      -0.801757       -21.8169
 162   2.0000      -0.788517       -21.4566
 163   2.0000      -0.774734       -21.0816
 164   2.0000      -0.762642       -20.7525
 165   2.0000      -0.761130       -20.7114
 166   2.0000      -0.754584       -20.5333
 167   2.0000      -0.738100       -20.0847
 168   2.0000      -0.719444       -19.5771
 169   2.0000      -0.709075       -19.2949
 170   2.0000      -0.705619       -19.2009
 171   2.0000      -0.702463       -19.1150
 172   2.0000      -0.701209       -19.0809
 173   2.0000      -0.693868       -18.8811
 174   2.0000      -0.692478       -18.8433
 175   2.0000      -0.689548       -18.7636
 176   2.0000      -0.687374       -18.7044
 177   2.0000      -0.686110       -18.6700
 178   2.0000      -0.685758       -18.6604
 179   2.0000      -0.680634       -18.5210
 180   2.0000      -0.677561       -18.4374
 181   2.0000      -0.674764       -18.3613
 182   2.0000      -0.670713       -18.2510
 183   2.0000      -0.656469       -17.8634
 184   2.0000      -0.652122       -17.7452
 185   2.0000      -0.647994       -17.6328
 186   2.0000      -0.638229       -17.3671
 187   2.0000      -0.635429       -17.2909
 188   2.0000      -0.628521       -17.1029
 189   2.0000      -0.626876       -17.0582
 190   2.0000      -0.618877       -16.8405
 191   2.0000      -0.617497       -16.8029
 192   2.0000      -0.609667       -16.5899
 193   2.0000      -0.607728       -16.5371
 194   2.0000      -0.607084       -16.5196
 195   2.0000      -0.606250       -16.4969
 196   2.0000      -0.599999       -16.3268
 197   2.0000      -0.596561       -16.2333
 198   2.0000      -0.596042       -16.2191
 199   2.0000      -0.591469       -16.0947
 200   2.0000      -0.589310       -16.0359
 201   2.0000      -0.584803       -15.9133
 202   2.0000      -0.583813       -15.8864
 203   2.0000      -0.580549       -15.7976
 204   2.0000      -0.579146       -15.7594
 205   2.0000      -0.575121       -15.6498
 206   2.0000      -0.574198       -15.6247
 207   2.0000      -0.567887       -15.4530
 208   2.0000      -0.567406       -15.4399
 209   2.0000      -0.561863       -15.2891
 210   2.0000      -0.555783       -15.1236
 211   2.0000      -0.551076       -14.9955
 212   2.0000      -0.549861       -14.9625
 213   2.0000      -0.548938       -14.9373
 214   2.0000      -0.546477       -14.8704
 215   2.0000      -0.545561       -14.8455
 216   2.0000      -0.543516       -14.7898
 217   2.0000      -0.542976       -14.7751
 218   2.0000      -0.539437       -14.6788
 219   2.0000      -0.533952       -14.5296
 220   2.0000      -0.531532       -14.4637
 221   2.0000      -0.525436       -14.2978
 222   2.0000      -0.523644       -14.2491
 223   2.0000      -0.522829       -14.2269
 224   2.0000      -0.522404       -14.2153
 225   2.0000      -0.519669       -14.1409
 226   2.0000      -0.517125       -14.0717
 227   2.0000      -0.515791       -14.0354
 228   2.0000      -0.512450       -13.9445
 229   2.0000      -0.511731       -13.9249
 230   2.0000      -0.508861       -13.8468
 231   2.0000      -0.507687       -13.8149
 232   2.0000      -0.505757       -13.7623
 233   2.0000      -0.504426       -13.7261
 234   2.0000      -0.499940       -13.6041
 235   2.0000      -0.499894       -13.6028
 236   2.0000      -0.497647       -13.5417
 237   2.0000      -0.496052       -13.4983
 238   2.0000      -0.493338       -13.4244
 239   2.0000      -0.490104       -13.3364
 240   2.0000      -0.490031       -13.3344
 241   2.0000      -0.487332       -13.2610
 242   2.0000      -0.485918       -13.2225
 243   2.0000      -0.482583       -13.1318
 244   2.0000      -0.480394       -13.0722
 245   2.0000      -0.479614       -13.0510
 246   2.0000      -0.476746       -12.9729
 247   2.0000      -0.473405       -12.8820
 248   2.0000      -0.468873       -12.7587
 249   2.0000      -0.465689       -12.6720
 250   2.0000      -0.464369       -12.6361
 251   2.0000      -0.462616       -12.5884
 252   2.0000      -0.461121       -12.5477
 253   2.0000      -0.449586       -12.2339
 254   2.0000      -0.446774       -12.1573
 255   2.0000      -0.444328       -12.0908
 256   2.0000      -0.443431       -12.0664
 257   2.0000      -0.442996       -12.0545
 258   2.0000      -0.441065       -12.0020
 259   2.0000      -0.440144       -11.9769
 260   2.0000      -0.439917       -11.9708
 261   2.0000      -0.436062       -11.8659
 262   2.0000      -0.434185       -11.8148
 263   2.0000      -0.434007       -11.8099
 264   2.0000      -0.433749       -11.8029
 265   2.0000      -0.432978       -11.7819
 266   2.0000      -0.430757       -11.7215
 267   2.0000      -0.428385       -11.6570
 268   2.0000      -0.425580       -11.5806
 269   2.0000      -0.425309       -11.5732
 270   2.0000      -0.424571       -11.5532
 271   2.0000      -0.424487       -11.5509
 272   2.0000      -0.423234       -11.5168
 273   2.0000      -0.417313       -11.3557
 274   2.0000      -0.415193       -11.2980
 275   2.0000      -0.411111       -11.1869
 276   2.0000      -0.406968       -11.0742
 277   2.0000      -0.404742       -11.0136
 278   2.0000      -0.403188       -10.9713
 279   2.0000      -0.398890       -10.8544
 280   2.0000      -0.388900       -10.5825
 281   2.0000      -0.382952       -10.4207
 282   2.0000      -0.378769       -10.3068
 283   2.0000      -0.373105       -10.1527
 284   2.0000      -0.364398        -9.9158
 285   2.0000      -0.353780        -9.6269
 286   2.0000      -0.346392        -9.4258
 287   2.0000      -0.344809        -9.3827
 288   2.0000      -0.343000        -9.3335
 289   2.0000      -0.337301        -9.1784
 290   2.0000      -0.335630        -9.1330
 291   2.0000      -0.324761        -8.8372
 292   2.0000      -0.318217        -8.6591
 293   2.0000      -0.315581        -8.5874
 294   2.0000      -0.302035        -8.2188
 295   2.0000      -0.301806        -8.2126
 296   2.0000      -0.300896        -8.1878
 297   2.0000      -0.297499        -8.0953
 298   2.0000      -0.294638        -8.0175
 299   2.0000      -0.291150        -7.9226
 300   2.0000      -0.270747        -7.3674
 301   2.0000      -0.246909        -6.7187
 302   0.0000      -0.100492        -2.7345
 303   0.0000      -0.095255        -2.5920
 304   0.0000      -0.065193        -1.7740
 305   0.0000      -0.058888        -1.6024
 306   0.0000      -0.052938        -1.4405

MULLIKEN ATOMIC CHARGES
-----------------------
   0 C :   -0.014325
   1 C :    0.036450
   2 C :    0.034510
   3 C :   -0.015075
   4 C :    0.094619
   5 C :   -0.078049
   6 C :    0.034747
   7 C :    0.011205
   8 C :   -0.079587
   9 C :    0.092721
  10 C :    0.140377
  11 O :   -0.138834
  12 C :   -0.130851
  13 C :    0.252784
  14 C :   -0.319948
  15 C :   -0.201983
  16 N :    0.168662
  17 C :   -0.175063
  18 N :    0.152169
  19 C :    0.051510
  20 C :   -0.209618
  21 C :    0.249899
  22 F :   -0.154510
  23 C :   -0.062178
  24 C :   -0.075475
  25 S :    0.193399
  26 C :   -0.080690
  27 C :   -0.064443
  28 S :    0.220249
  29 C :    0.167587
  30 F :   -0.172752
  31 C :   -0.129663
  32 S :    0.208967
  33 C :   -0.136780
  34 C :    0.169758
  35 F :   -0.172500
  36 C :   -0.068502
  37 C :   -0.083658
  38 S :    0.204199
  39 C :   -0.084510
  40 C :   -0.069293
  41 S :    0.210207
  42 C :    0.172345
  43 F :   -0.171770
  44 C :   -0.137809
  45 S :    0.204502
  46 C :   -0.131332
  47 C :    0.165561
  48 F :   -0.173294
  49 C :   -0.057826
  50 C :   -0.092993
  51 S :    0.210255
  52 C :   -0.057810
  53 C :   -0.052315
  54 S :    0.211948
  55 C :    0.198679
  56 F :   -0.155778
  57 C :   -0.152257
  58 S :    0.225855
  59 C :   -0.027408
  60 C :   -0.091739
  61 C :    0.332956
  62 C :   -0.350212
  63 C :   -0.186517
  64 N :    0.148666
  65 C :   -0.201058
  66 N :    0.156371
  67 C :    0.044734
  68 C :   -0.000382
  69 C :   -0.082797
  70 C :    0.098835
  71 C :   -0.017634
  72 C :    0.036440
  73 C :    0.038845
  74 C :   -0.020142
  75 C :    0.097388
  76 C :   -0.085672
  77 C :    0.175106
  78 O :   -0.189000
  79 H :   -0.018181
  80 H :   -0.005327
  81 H :   -0.004922
  82 H :   -0.011383
  83 H :   -0.007158
  84 H :   -0.011953
  85 H :    0.036051
  86 H :    0.023464
  87 H :   -0.013852
  88 H :   -0.018017
  89 H :   -0.005413
  90 H :   -0.005140
  91 H :   -0.008589
  92 H :   -0.008053
Sum of atomic charges:   -0.0000000

LOEWDIN ATOMIC CHARGES
----------------------
   0 C :   -0.008930
   1 C :   -0.013087
   2 C :   -0.012948
   3 C :   -0.006420
   4 C :   -0.005347
   5 C :    0.015554
   6 C :   -0.022944
   7 C :   -0.057320
   8 C :    0.033044
   9 C :   -0.009217
  10 C :    0.083281
  11 O :   -0.140967
  12 C :   -0.095361
  13 C :    0.061152
  14 C :   -0.140497
  15 C :   -0.034321
  16 N :   -0.050691
  17 C :   -0.018833
  18 N :   -0.051209
  19 C :    0.052967
  20 C :   -0.216283
  21 C :    0.074342
  22 F :   -0.035419
  23 C :   -0.219220
  24 C :   -0.185863
  25 S :    0.466730
  26 C :   -0.215562
  27 C :   -0.204688
  28 S :    0.447636
  29 C :    0.026303
  30 F :   -0.051259
  31 C :   -0.206176
  32 S :    0.461939
  33 C :   -0.216378
  34 C :    0.031922
  35 F :   -0.050949
  36 C :   -0.215060
  37 C :   -0.211341
  38 S :    0.459327
  39 C :   -0.210762
  40 C :   -0.215302
  41 S :    0.438834
  42 C :    0.032351
  43 F :   -0.050420
  44 C :   -0.217372
  45 S :    0.459071
  46 C :   -0.205047
  47 C :    0.024689
  48 F :   -0.052135
  49 C :   -0.202196
  50 C :   -0.219470
  51 S :    0.464852
  52 C :   -0.196788
  53 C :   -0.224963
  54 S :    0.433565
  55 C :    0.070503
  56 F :   -0.034165
  57 C :   -0.216913
  58 S :    0.503713
  59 C :    0.059706
  60 C :   -0.108132
  61 C :    0.076232
  62 C :   -0.141053
  63 C :   -0.017033
  64 N :   -0.055563
  65 C :   -0.024730
  66 N :   -0.047728
  67 C :   -0.024292
  68 C :   -0.055521
  69 C :    0.032279
  70 C :   -0.009151
  71 C :   -0.009689
  72 C :   -0.012694
  73 C :   -0.012884
  74 C :   -0.005253
  75 C :   -0.005817
  76 C :    0.019528
  77 C :    0.087511
  78 O :   -0.171493
  79 H :    0.031793
  80 H :    0.032719
  81 H :    0.033094
  82 H :    0.034125
  83 H :    0.038371
  84 H :    0.039438
  85 H :    0.054266
  86 H :    0.051415
  87 H :    0.038750
  88 H :    0.031604
  89 H :    0.032715
  90 H :    0.033247
  91 H :    0.035017
  92 H :    0.039265

  Mayer bond orders larger than 0.100000
B(  0-C ,  1-C ) :   1.4906 B(  0-C ,  9-C ) :   1.2446 B(  0-C , 79-H ) :   0.9969
B(  1-C ,  2-C ) :   1.2601 B(  1-C , 80-H ) :   0.9888 B(  2-C ,  3-C ) :   1.4895
B(  2-C , 81-H ) :   0.9888 B(  3-C ,  4-C ) :   1.2417 B(  3-C , 82-H ) :   0.9970
B(  4-C ,  5-C ) :   1.2044 B(  4-C ,  9-C ) :   1.2565 B(  5-C ,  6-C ) :   1.4587
B(  5-C , 83-H ) :   0.9933 B(  6-C ,  7-C ) :   1.2161 B(  6-C , 13-C ) :   1.0010
B(  7-C ,  8-C ) :   1.4755 B(  7-C , 10-C ) :   0.9210 B(  8-C ,  9-C ) :   1.1862
B(  8-C , 84-H ) :   1.0149 B( 10-C , 11-O ) :   2.2780 B( 10-C , 12-C ) :   0.9348
B( 12-C , 13-C ) :   1.0329 B( 12-C , 19-C ) :   1.6552 B( 13-C , 14-C ) :   1.6580
B( 14-C , 15-C ) :   1.1516 B( 14-C , 17-C ) :   1.1347 B( 15-C , 16-N ) :   3.0240
B( 17-C , 18-N ) :   2.9895 B( 19-C , 20-C ) :   1.1133 B( 19-C , 85-H ) :   0.9455
B( 20-C , 21-C ) :   1.4438 B( 20-C , 25-S ) :   1.0636 B( 21-C , 22-F ) :   1.2137
B( 21-C , 23-C ) :   1.2770 B( 23-C , 24-C ) :   1.4651 B( 23-C , 28-S ) :   1.0212
B( 24-C , 25-S ) :   1.0902 B( 24-C , 26-C ) :   1.3428 B( 26-C , 27-C ) :   1.4827
B( 26-C , 32-S ) :   1.0508 B( 27-C , 28-S ) :   1.0397 B( 27-C , 29-C ) :   1.2735
B( 29-C , 30-F ) :   1.1653 B( 29-C , 31-C ) :   1.4819 B( 31-C , 32-S ) :   1.0901
B( 31-C , 33-C ) :   1.1664 B( 33-C , 34-C ) :   1.4831 B( 33-C , 38-S ) :   1.0827
B( 34-C , 35-F ) :   1.1666 B( 34-C , 36-C ) :   1.2726 B( 36-C , 37-C ) :   1.4940
B( 36-C , 41-S ) :   1.0289 B( 37-C , 38-S ) :   1.0582 B( 37-C , 39-C ) :   1.3253
B( 39-C , 40-C ) :   1.4957 B( 39-C , 45-S ) :   1.0578 B( 40-C , 41-S ) :   1.0282
B( 40-C , 42-C ) :   1.2734 B( 42-C , 43-F ) :   1.1671 B( 42-C , 44-C ) :   1.4805
B( 44-C , 45-S ) :   1.0823 B( 44-C , 46-C ) :   1.1687 B( 46-C , 47-C ) :   1.4746
B( 46-C , 51-S ) :   1.0956 B( 47-C , 48-F ) :   1.1652 B( 47-C , 49-C ) :   1.2767
B( 49-C , 50-C ) :   1.4834 B( 49-C , 54-S ) :   1.0304 B( 50-C , 51-S ) :   1.0510
B( 50-C , 52-C ) :   1.3347 B( 52-C , 53-C ) :   1.4196 B( 52-C , 58-S ) :   1.0539
B( 53-C , 54-S ) :   1.0076 B( 53-C , 55-C ) :   1.3386 B( 55-C , 56-F ) :   1.1726
B( 55-C , 57-C ) :   1.3735 B( 57-C , 58-S ) :   1.0494 B( 57-C , 59-C ) :   1.2576
B( 59-C , 60-C ) :   1.4987 B( 59-C , 86-H ) :   0.9360 B( 60-C , 61-C ) :   1.0715
B( 60-C , 77-C ) :   0.9828 B( 61-C , 62-C ) :   1.6296 B( 61-C , 67-C ) :   0.9832
B( 62-C , 63-C ) :   1.1483 B( 62-C , 65-C ) :   1.1419 B( 63-C , 64-N ) :   2.9640
B( 65-C , 66-N ) :   2.9686 B( 67-C , 68-C ) :   1.2146 B( 67-C , 76-C ) :   1.4553
B( 68-C , 69-C ) :   1.4671 B( 68-C , 77-C ) :   0.9631 B( 69-C , 70-C ) :   1.1766
B( 69-C , 87-H ) :   1.0166 B( 70-C , 71-C ) :   1.2446 B( 70-C , 75-C ) :   1.2568
B( 71-C , 72-C ) :   1.4875 B( 71-C , 88-H ) :   0.9975 B( 72-C , 73-C ) :   1.2611
B( 72-C , 89-H ) :   0.9888 B( 73-C , 74-C ) :   1.4875 B( 73-C , 90-H ) :   0.9880
B( 74-C , 75-C ) :   1.2421 B( 74-C , 91-H ) :   0.9970 B( 75-C , 76-C ) :   1.2017
B( 76-C , 92-H ) :   0.9893 B( 77-C , 78-O ) :   2.1073

-----------------------------------------------------------------------------
         ABSORPTION SPECTRUM VIA TRANSITION ELECTRIC DIPOLE MOMENTS
-----------------------------------------------------------------------------
State   Energy  Wavelength   fosc         T2         TX        TY        TZ
        (cm-1)    (nm)                  (au**2)     (au)      (au)      (au)
-----------------------------------------------------------------------------
   0   18120.4    551.9   3.013740764  54.75368  -6.55244  -0.52789  -3.39713
   1   20127.2    496.8   0.317737777   5.19710   2.13140   0.11889  -0.80005
   2   25669.0    389.6   0.243967850   3.12896   1.64145  -0.55694   0.35274
   3   26039.0    384.0   0.015757094   0.19922  -0.25190   0.35446   0.10059
   4   26507.5    377.3   0.035355193   0.43910  -0.46749  -0.20792   0.42110
   5   26841.0    372.6   0.112819480   1.38376  -0.51253  -0.37871   0.98876
   6   27308.4    366.2   0.054461877   0.65656  -0.52488  -0.10724   0.60791
   7   27545.0    363.0   0.029475457   0.35228  -0.17168  -0.37079   0.43049
   8   27986.1    357.3   0.175041066   2.05908  -0.35946   0.73157  -1.18097
   9   28292.1    353.5   0.187793471   2.18520  -1.23662  -0.50983  -0.62932
  10   28796.4    347.3   0.354660413   4.05462  -1.74946   0.20744  -0.97518
  11   29148.0    343.1   0.014802385   0.16719  -0.29911  -0.13182  -0.24565
  12   29721.7    336.5   0.006877563   0.07618  -0.22104   0.09549   0.13492
  13   29990.2    333.4   0.031178000   0.34225  -0.18608  -0.36850   0.41453
  14   30327.5    329.7   0.064436328   0.69947   0.63112  -0.35331   0.41991
  15   31878.5    313.7   0.176213893   1.81977  -0.64808  -0.37904   1.12076
  16   32308.5    309.5   0.098584244   1.00454   0.70532  -0.07682  -0.70793
  17   32400.9    308.6   0.021673958   0.22022  -0.35737   0.25542   0.16512
  18   33257.0    300.7   0.036673116   0.36303  -0.40661   0.28607  -0.34039
  19   33913.8    294.9   0.792260010   7.69071   1.64266   1.42274  -1.72284
  20   34113.4    293.1   0.676427415   6.52788   0.46660  -1.48523   2.02589
  21   34410.0    290.6   0.256785284   2.45675   0.18935  -0.73700   1.37030
  22   34517.6    289.7   0.017497938   0.16689  -0.06534  -0.18563   0.35799
  23   34727.6    288.0   0.053612505   0.50824   0.06618  -0.36713   0.60751
  24   34859.2    286.9   0.278465635   2.62984   0.44664  -0.69244   1.39674
  25   35538.8    281.4   0.039691255   0.36768  -0.16016   0.16100  -0.56223
  26   35592.9    281.0   0.064924057   0.60051   0.37340   0.26962  -0.62321
  27   35942.3    278.2   0.010704464   0.09805   0.10556  -0.19246   0.22330
  28   36565.2    273.5   0.033452352   0.30119  -0.33465   0.07158  -0.42904
  29   36922.8    270.8   0.080935830   0.72164  -0.64318   0.08994  -0.54761
  30   37005.7    270.2   0.064094170   0.57020  -0.21464  -0.47323   0.54788
  31   37070.0    269.8   0.026994122   0.23973   0.24093   0.15840  -0.39572
  32   37469.2    266.9   0.038867026   0.34149   0.56888   0.13325   0.01068
  33   37611.6    265.9   0.024958286   0.21846  -0.40374  -0.00893  -0.23530
  34   37887.1    263.9   0.001588108   0.01380  -0.04283  -0.08396  -0.07012
  35   38800.2    257.7   0.036350486   0.30843   0.30937   0.06709  -0.45631
  36   38888.7    257.1   0.015050438   0.12741   0.28659  -0.19259   0.09047
  37   39008.2    256.4   0.069019433   0.58249  -0.69042  -0.01053  -0.32511
  38   39141.2    255.5   0.087945395   0.73970   0.27282  -0.35272   0.73543
  39   39207.1    255.1   0.013032821   0.10943   0.28488   0.11673  -0.12104
  40   39416.4    253.7   0.152417645   1.27302  -0.14887   0.71428  -0.86061
  41   39585.7    252.6   0.227612496   1.89293  -0.58810  -0.57663   1.10207
  42   40297.4    248.2   0.208442090   1.70288  -1.28915   0.01404  -0.20190

FINAL SINGLE POINT ENERGY     -6765.770664847717

DIPOLE MOMENT
-------------
                                X             Y             Z
Electronic contribution:    -23.44072     -23.71846      49.94924
Nuclear contribution   :     22.88797      26.77972     -52.69871
                        -----------------------------------------
Total Dipole Moment    :     -0.55275       3.06127      -2.74947
                        -----------------------------------------
Magnitude (a.u.)       :      4.15168
Magnitude (Debye)      :     10.55274

Rotational constants in cm-1:     0.001814     0.000122     0.000115
Rotational constants in MHz :    54.376762     3.652418     3.460632

                             ****ORCA TERMINATED NORMALLY****
TOTAL RUN TIME: 0 days 0 hours 9 minutes 35 seconds 223 msec
