                         Program Version 4.2.0 -  RELEASE  -
|  1> # ORCA input file
|  2> # SCF done       -179.171034576944          0.000931337343
|  3> ! CAM-B3LYP def2-SVP def2/J RIJCOSX Grid4 TightSCF
|  4> %maxcore 5000
|  5> %tddft
|  6>     Mode sTDDFT
|  7>     Ethresh 5.0
|  8>     maxcore 5000
|  9> end
| 10>
| 11> %pal
| 12>   nprocs 6
| 13>   end
| 14> * xyz 0 1
| 15>    C        1.07716         4.74475         4.01530
| 16>    C        1.24570         5.76432         4.91703
| 17>    C        2.45743         6.03118         5.58985
| 18>    N        3.40585         6.30874         6.17420
| 19>    C        0.28031         6.72152         5.29548
| 20>    N       -0.42757         7.55216         5.65543
| 21>    C        2.12798         3.82737         3.59299
| 22>    C        1.61980         3.00509         2.55838
| 23>    C        2.37582         2.04111         1.93581
| 24>    C        3.69814         1.87605         2.35741
| 25>    C        4.19635         2.69631         3.39812
| 26>    C        3.43205         3.67291         4.02543
| 27>    S        5.85038         2.31540         3.76081
| 28>    C        5.86131         1.09013         2.53981
| 29>    C        4.68492         0.96412         1.88772
| 30>    C        0.21378         3.35384         2.29359
| 31>    O       -0.48948         2.83968         1.44692
| 32>    C       -0.12919         4.41835         3.26651
| 33>    C       -1.34918         4.98284         3.52226
| 34>    C       -2.60517         4.82875         2.90256
| 35>    C       -3.02817         4.11854         1.79030
| 36>    C       -4.38052         4.30174         1.53906
| 37>    C       -5.02531         5.15649         2.45238
| 38>    S       -3.93362         5.74018         3.63915
| 39>    C       -6.37951         5.31799         2.15415
| 40>    C       -6.76727         4.59448         1.01910
| 41>    S       -5.45787         3.69725         0.30813
| 42>    C       -8.11594         4.74658         0.69112
| 43>    C       -8.76730         5.58304         1.57083
| 44>    S       -7.70529         6.19404         2.82721
| 45>    C      -10.13144         5.97861         1.54605
| 46>    C      -10.78122         6.79911         2.44043
| 47>    C      -12.12141         6.98625         2.09663
| 48>    C      -12.50550         6.30963         0.93342
| 49>    S      -11.18942         5.42267         0.25824
| 50>    C      -13.84823         6.53168         0.61113
| 51>    C      -14.48071         7.37492         1.53143
| 52>    S      -13.42095         7.89904         2.80820
| 53>    C      -15.82044         7.63040         1.23263
| 54>    C      -16.22194         6.98772         0.08331
| 55>    S      -14.92931         6.04513        -0.64209
| 56>    C      -17.50324         7.03624        -0.52836
| 57>    C      -17.91002         6.41629        -1.68895
| 58>    C      -19.24014         6.71051        -1.99693
| 59>    C      -19.85779         7.55798        -1.06888
| 60>    S      -18.77895         7.99502         0.20349
| 61>    C      -21.17943         7.84700        -1.41189
| 62>    C      -21.57071         7.21512        -2.60133
| 63>    S      -20.29609         6.25716        -3.30247
| 64>    C      -22.88796         7.47827        -2.96459
| 65>    C      -23.50984         8.34591        -2.08626
| 66>    S      -22.45344         8.79088        -0.74883
| 67>    C      -24.86053         8.76616        -2.15703
| 68>    C      -25.46846         9.81139        -1.53730
| 69>    C      -24.94412        10.97863        -0.85791
| 70>    C      -23.80420        11.65892        -1.19760
| 71>    C      -23.38555        12.84945        -0.57117
| 72>    N      -22.99790        13.81226        -0.08064
| 73>    C      -22.98555        11.28889        -2.28490
| 74>    N      -22.33011        11.04264        -3.19454
| 75>    C      -25.99266        11.46949         0.02678
| 76>    C      -27.20282        10.79894        -0.29199
| 77>    C      -26.94675         9.80209        -1.34854
| 78>    O      -27.74352         9.08492        -1.90888
| 79>    C      -28.38799        11.08469         0.34241
| 80>    C      -28.37548        12.06289         1.34165
| 81>    C      -27.15876        12.71307         1.66162
| 82>    C      -25.96081        12.43413         1.01400
| 83>    S      -27.38069        13.87176         2.93375
| 84>    C      -29.06586        13.49022         3.02065
| 85>    C      -29.45168        12.53848         2.14325
| 86>    H        1.95696         1.43441         1.14788
| 87>    H        3.85948         4.26808         4.81465
| 88>    H        6.76330         0.53076         2.38413
| 89>    H        4.50608         0.25551         1.09931
| 90>    H       -1.38249         5.67622         4.35463
| 91>    H       -2.36952         3.50191         1.20699
| 92>    H       -8.60081         4.27574        -0.14428
| 93>    H      -10.30107         7.23829         3.29562
| 94>    H      -16.47006         8.25557         1.81733
| 95>    H      -17.26813         5.78860        -2.27942
| 96>    H      -23.36869         7.08948        -3.84332
| 97>    H      -25.52068         8.11396        -2.72140
| 98>    H      -29.29759        10.56964         0.07486
| 99>    H      -25.05502        12.94817         1.29140
|100>    H      -29.67211        14.01090         3.73620
|101>    H      -30.45915        12.17410         2.05442
|102> *
|103>
|104>                          ****END OF INPUT****

CARTESIAN COORDINATES (ANGSTROEM)
---------------------------------
  C      1.077160    4.744750    4.015300
  C      1.245700    5.764320    4.917030
  C      2.457430    6.031180    5.589850
  N      3.405850    6.308740    6.174200
  C      0.280310    6.721520    5.295480
  N     -0.427570    7.552160    5.655430
  C      2.127980    3.827370    3.592990
  C      1.619800    3.005090    2.558380
  C      2.375820    2.041110    1.935810
  C      3.698140    1.876050    2.357410
  C      4.196350    2.696310    3.398120
  C      3.432050    3.672910    4.025430
  S      5.850380    2.315400    3.760810
  C      5.861310    1.090130    2.539810
  C      4.684920    0.964120    1.887720
  C      0.213780    3.353840    2.293590
  O     -0.489480    2.839680    1.446920
  C     -0.129190    4.418350    3.266510
  C     -1.349180    4.982840    3.522260
  C     -2.605170    4.828750    2.902560
  C     -3.028170    4.118540    1.790300
  C     -4.380520    4.301740    1.539060
  C     -5.025310    5.156490    2.452380
  S     -3.933620    5.740180    3.639150
  C     -6.379510    5.317990    2.154150
  C     -6.767270    4.594480    1.019100
  S     -5.457870    3.697250    0.308130
  C     -8.115940    4.746580    0.691120
  C     -8.767300    5.583040    1.570830
  S     -7.705290    6.194040    2.827210
  C    -10.131440    5.978610    1.546050
  C    -10.781220    6.799110    2.440430
  C    -12.121410    6.986250    2.096630
  C    -12.505500    6.309630    0.933420
  S    -11.189420    5.422670    0.258240
  C    -13.848230    6.531680    0.611130
  C    -14.480710    7.374920    1.531430
  S    -13.420950    7.899040    2.808200
  C    -15.820440    7.630400    1.232630
  C    -16.221940    6.987720    0.083310
  S    -14.929310    6.045130   -0.642090
  C    -17.503240    7.036240   -0.528360
  C    -17.910020    6.416290   -1.688950
  C    -19.240140    6.710510   -1.996930
  C    -19.857790    7.557980   -1.068880
  S    -18.778950    7.995020    0.203490
  C    -21.179430    7.847000   -1.411890
  C    -21.570710    7.215120   -2.601330
  S    -20.296090    6.257160   -3.302470
  C    -22.887960    7.478270   -2.964590
  C    -23.509840    8.345910   -2.086260
  S    -22.453440    8.790880   -0.748830
  C    -24.860530    8.766160   -2.157030
  C    -25.468460    9.811390   -1.537300
  C    -24.944120   10.978630   -0.857910
  C    -23.804200   11.658920   -1.197600
  C    -23.385550   12.849450   -0.571170
  N    -22.997900   13.812260   -0.080640
  C    -22.985550   11.288890   -2.284900
  N    -22.330110   11.042640   -3.194540
  C    -25.992660   11.469490    0.026780
  C    -27.202820   10.798940   -0.291990
  C    -26.946750    9.802090   -1.348540
  O    -27.743520    9.084920   -1.908880
  C    -28.387990   11.084690    0.342410
  C    -28.375480   12.062890    1.341650
  C    -27.158760   12.713070    1.661620
  C    -25.960810   12.434130    1.014000
  S    -27.380690   13.871760    2.933750
  C    -29.065860   13.490220    3.020650
  C    -29.451680   12.538480    2.143250
  H      1.956960    1.434410    1.147880
  H      3.859480    4.268080    4.814650
  H      6.763300    0.530760    2.384130
  H      4.506080    0.255510    1.099310
  H     -1.382490    5.676220    4.354630
  H     -2.369520    3.501910    1.206990
  H     -8.600810    4.275740   -0.144280
  H    -10.301070    7.238290    3.295620
  H    -16.470060    8.255570    1.817330
  H    -17.268130    5.788600   -2.279420
  H    -23.368690    7.089480   -3.843320
  H    -25.520680    8.113960   -2.721400
  H    -29.297590   10.569640    0.074860
  H    -25.055020   12.948170    1.291400
  H    -29.672110   14.010900    3.736200
  H    -30.459150   12.174100    2.054420

 Total Charge           Charge          ....    0
 Multiplicity           Mult            ....    1
 Number of Electrons    NEL             ....  560
 Basis Dimension        Dim             .... 1118

ORBITAL ENERGIES
----------------

  NO   OCC          E(Eh)            E(eV)
   0   2.0000     -88.974539     -2421.1203
   1   2.0000     -88.973478     -2421.0914
   2   2.0000     -88.973190     -2421.0836
   3   2.0000     -88.972959     -2421.0773
   4   2.0000     -88.971709     -2421.0433
   5   2.0000     -88.970916     -2421.0217
   6   2.0000     -88.968463     -2420.9550
   7   2.0000     -88.968181     -2420.9473
   8   2.0000     -88.967462     -2420.9277
   9   2.0000     -88.965015     -2420.8611
  10   2.0000     -88.964229     -2420.8398
  11   2.0000     -19.215651      -522.8844
  12   2.0000     -19.210847      -522.7537
  13   2.0000     -14.412720      -392.1901
  14   2.0000     -14.412402      -392.1814
  15   2.0000     -14.409474      -392.1017
  16   2.0000     -14.408194      -392.0669
  17   2.0000     -10.366436      -282.0851
  18   2.0000     -10.362677      -281.9828
  19   2.0000     -10.339416      -281.3498
  20   2.0000     -10.338176      -281.3161
  21   2.0000     -10.337329      -281.2930
  22   2.0000     -10.336402      -281.2678
  23   2.0000     -10.329022      -281.0670
  24   2.0000     -10.327090      -281.0144
  25   2.0000     -10.325387      -280.9681
  26   2.0000     -10.324086      -280.9327
  27   2.0000     -10.323803      -280.9250
  28   2.0000     -10.322674      -280.8942
  29   2.0000     -10.320694      -280.8404
  30   2.0000     -10.319178      -280.7991
  31   2.0000     -10.319046      -280.7955
  32   2.0000     -10.318853      -280.7903
  33   2.0000     -10.318464      -280.7797
  34   2.0000     -10.318122      -280.7704
  35   2.0000     -10.317847      -280.7629
  36   2.0000     -10.317496      -280.7533
  37   2.0000     -10.317424      -280.7514
  38   2.0000     -10.317372      -280.7500
  39   2.0000     -10.317218      -280.7458
  40   2.0000     -10.316702      -280.7317
  41   2.0000     -10.315569      -280.7009
  42   2.0000     -10.315206      -280.6910
  43   2.0000     -10.313184      -280.6360
  44   2.0000     -10.313047      -280.6323
  45   2.0000     -10.312974      -280.6303
  46   2.0000     -10.312961      -280.6299
  47   2.0000     -10.312540      -280.6185
  48   2.0000     -10.312352      -280.6134
  49   2.0000     -10.311971      -280.6030
  50   2.0000     -10.310614      -280.5661
  51   2.0000     -10.304673      -280.4044
  52   2.0000     -10.304495      -280.3996
  53   2.0000     -10.302406      -280.3427
  54   2.0000     -10.301255      -280.3114
  55   2.0000     -10.299615      -280.2668
  56   2.0000     -10.299511      -280.2639
  57   2.0000     -10.298840      -280.2457
  58   2.0000     -10.297436      -280.2075
  59   2.0000     -10.297105      -280.1985
  60   2.0000     -10.296887      -280.1925
  61   2.0000     -10.296373      -280.1785
  62   2.0000     -10.296068      -280.1702
  63   2.0000     -10.295704      -280.1603
  64   2.0000     -10.295531      -280.1556
  65   2.0000     -10.294461      -280.1265
  66   2.0000     -10.293430      -280.0985
  67   2.0000     -10.288774      -279.9718
  68   2.0000     -10.287463      -279.9361
  69   2.0000     -10.286909      -279.9210
  70   2.0000     -10.286550      -279.9112
  71   2.0000      -8.069669      -219.5869
  72   2.0000      -8.068542      -219.5562
  73   2.0000      -8.068300      -219.5496
  74   2.0000      -8.068015      -219.5418
  75   2.0000      -8.066447      -219.4992
  76   2.0000      -8.066234      -219.4934
  77   2.0000      -8.063682      -219.4239
  78   2.0000      -8.063464      -219.4180
  79   2.0000      -8.062701      -219.3973
  80   2.0000      -8.061273      -219.3584
  81   2.0000      -8.060374      -219.3339
  82   2.0000      -6.039316      -164.3381
  83   2.0000      -6.038181      -164.3072
  84   2.0000      -6.037943      -164.3008
  85   2.0000      -6.037659      -164.2931
  86   2.0000      -6.036064      -164.2496
  87   2.0000      -6.035671      -164.2390
  88   2.0000      -6.035210      -164.2264
  89   2.0000      -6.034099      -164.1962
  90   2.0000      -6.033846      -164.1893
  91   2.0000      -6.033577      -164.1820
  92   2.0000      -6.033421      -164.1777
  93   2.0000      -6.033194      -164.1715
  94   2.0000      -6.032420      -164.1505
  95   2.0000      -6.031945      -164.1376
  96   2.0000      -6.031667      -164.1300
  97   2.0000      -6.031043      -164.1130
  98   2.0000      -6.030770      -164.1056
  99   2.0000      -6.029939      -164.0830
 100   2.0000      -6.029888      -164.0816
 101   2.0000      -6.029681      -164.0760
 102   2.0000      -6.029560      -164.0727
 103   2.0000      -6.029412      -164.0686
 104   2.0000      -6.029337      -164.0666
 105   2.0000      -6.028570      -164.0457
 106   2.0000      -6.027925      -164.0282
 107   2.0000      -6.027864      -164.0265
 108   2.0000      -6.026496      -163.9893
 109   2.0000      -6.025588      -163.9646
 110   2.0000      -6.024621      -163.9383
 111   2.0000      -6.024388      -163.9319
 112   2.0000      -6.023682      -163.9127
 113   2.0000      -6.022949      -163.8928
 114   2.0000      -6.022087      -163.8693
 115   2.0000      -1.130164       -30.7533
 116   2.0000      -1.126120       -30.6433
 117   2.0000      -1.033265       -28.1166
 118   2.0000      -1.031242       -28.0615
 119   2.0000      -1.027201       -27.9516
 120   2.0000      -1.017206       -27.6796
 121   2.0000      -1.016461       -27.6593
 122   2.0000      -1.005180       -27.3523
 123   2.0000      -1.005046       -27.3487
 124   2.0000      -1.000256       -27.2183
 125   2.0000      -0.992790       -27.0152
 126   2.0000      -0.989629       -26.9292
 127   2.0000      -0.988226       -26.8910
 128   2.0000      -0.982836       -26.7443
 129   2.0000      -0.981222       -26.7004
 130   2.0000      -0.978771       -26.6337
 131   2.0000      -0.948403       -25.8073
 132   2.0000      -0.939037       -25.5525
 133   2.0000      -0.928923       -25.2773
 134   2.0000      -0.925011       -25.1708
 135   2.0000      -0.922687       -25.1076
 136   2.0000      -0.899168       -24.4676
 137   2.0000      -0.897554       -24.4237
 138   2.0000      -0.882091       -24.0029
 139   2.0000      -0.880864       -23.9695
 140   2.0000      -0.879090       -23.9212
 141   2.0000      -0.877964       -23.8906
 142   2.0000      -0.875826       -23.8324
 143   2.0000      -0.864703       -23.5298
 144   2.0000      -0.856320       -23.3017
 145   2.0000      -0.852183       -23.1891
 146   2.0000      -0.846183       -23.0258
 147   2.0000      -0.839838       -22.8532
 148   2.0000      -0.829876       -22.5821
 149   2.0000      -0.820900       -22.3378
 150   2.0000      -0.820117       -22.3165
 151   2.0000      -0.812178       -22.1005
 152   2.0000      -0.803389       -21.8613
 153   2.0000      -0.799376       -21.7521
 154   2.0000      -0.794846       -21.6288
 155   2.0000      -0.785921       -21.3860
 156   2.0000      -0.773207       -21.0400
 157   2.0000      -0.758403       -20.6372
 158   2.0000      -0.754880       -20.5413
 159   2.0000      -0.749686       -20.4000
 160   2.0000      -0.734922       -19.9982
 161   2.0000      -0.717491       -19.5239
 162   2.0000      -0.703260       -19.1367
 163   2.0000      -0.692095       -18.8329
 164   2.0000      -0.686162       -18.6714
 165   2.0000      -0.683944       -18.6111
 166   2.0000      -0.682003       -18.5582
 167   2.0000      -0.672596       -18.3023
 168   2.0000      -0.668264       -18.1844
 169   2.0000      -0.663908       -18.0659
 170   2.0000      -0.659480       -17.9454
 171   2.0000      -0.658597       -17.9213
 172   2.0000      -0.656870       -17.8743
 173   2.0000      -0.647824       -17.6282
 174   2.0000      -0.644372       -17.5343
 175   2.0000      -0.641307       -17.4508
 176   2.0000      -0.637698       -17.3526
 177   2.0000      -0.629735       -17.1360
 178   2.0000      -0.621022       -16.8989
 179   2.0000      -0.617445       -16.8015
 180   2.0000      -0.616181       -16.7671
 181   2.0000      -0.615137       -16.7387
 182   2.0000      -0.601227       -16.3602
 183   2.0000      -0.595204       -16.1963
 184   2.0000      -0.592460       -16.1216
 185   2.0000      -0.589142       -16.0314
 186   2.0000      -0.581825       -15.8323
 187   2.0000      -0.578019       -15.7287
 188   2.0000      -0.571772       -15.5587
 189   2.0000      -0.568404       -15.4671
 190   2.0000      -0.558165       -15.1884
 191   2.0000      -0.553881       -15.0719
 192   2.0000      -0.547999       -14.9118
 193   2.0000      -0.545213       -14.8360
 194   2.0000      -0.539348       -14.6764
 195   2.0000      -0.536878       -14.6092
 196   2.0000      -0.536155       -14.5895
 197   2.0000      -0.533040       -14.5048
 198   2.0000      -0.532842       -14.4994
 199   2.0000      -0.531166       -14.4538
 200   2.0000      -0.529732       -14.4147
 201   2.0000      -0.528344       -14.3770
 202   2.0000      -0.527085       -14.3427
 203   2.0000      -0.523553       -14.2466
 204   2.0000      -0.520849       -14.1730
 205   2.0000      -0.519274       -14.1302
 206   2.0000      -0.513947       -13.9852
 207   2.0000      -0.510519       -13.8919
 208   2.0000      -0.506065       -13.7707
 209   2.0000      -0.500994       -13.6327
 210   2.0000      -0.499719       -13.5980
 211   2.0000      -0.498797       -13.5729
 212   2.0000      -0.497601       -13.5404
 213   2.0000      -0.495167       -13.4742
 214   2.0000      -0.492011       -13.3883
 215   2.0000      -0.489501       -13.3200
 216   2.0000      -0.488858       -13.3025
 217   2.0000      -0.488265       -13.2864
 218   2.0000      -0.485245       -13.2042
 219   2.0000      -0.484692       -13.1891
 220   2.0000      -0.480590       -13.0775
 221   2.0000      -0.478477       -13.0200
 222   2.0000      -0.476138       -12.9564
 223   2.0000      -0.473833       -12.8936
 224   2.0000      -0.470536       -12.8039
 225   2.0000      -0.466991       -12.7075
 226   2.0000      -0.464833       -12.6488
 227   2.0000      -0.461668       -12.5626
 228   2.0000      -0.456849       -12.4315
 229   2.0000      -0.453067       -12.3286
 230   2.0000      -0.451082       -12.2746
 231   2.0000      -0.449703       -12.2370
 232   2.0000      -0.446832       -12.1589
 233   2.0000      -0.444716       -12.1013
 234   2.0000      -0.444289       -12.0897
 235   2.0000      -0.439141       -11.9496
 236   2.0000      -0.438576       -11.9343
 237   2.0000      -0.437153       -11.8955
 238   2.0000      -0.433623       -11.7995
 239   2.0000      -0.432293       -11.7633
 240   2.0000      -0.431153       -11.7323
 241   2.0000      -0.429981       -11.7004
 242   2.0000      -0.429631       -11.6909
 243   2.0000      -0.429112       -11.6767
 244   2.0000      -0.427186       -11.6243
 245   2.0000      -0.424108       -11.5406
 246   2.0000      -0.423019       -11.5109
 247   2.0000      -0.421362       -11.4658
 248   2.0000      -0.420882       -11.4528
 249   2.0000      -0.419598       -11.4178
 250   2.0000      -0.418241       -11.3809
 251   2.0000      -0.417121       -11.3505
 252   2.0000      -0.415969       -11.3191
 253   2.0000      -0.407208       -11.0807
 254   2.0000      -0.402594       -10.9551
 255   2.0000      -0.401878       -10.9356
 256   2.0000      -0.399248       -10.8641
 257   2.0000      -0.393467       -10.7068
 258   2.0000      -0.385930       -10.5017
 259   2.0000      -0.380981       -10.3670
 260   2.0000      -0.375642       -10.2217
 261   2.0000      -0.370489       -10.0815
 262   2.0000      -0.361187        -9.8284
 263   2.0000      -0.347203        -9.4479
 264   2.0000      -0.345517        -9.4020
 265   2.0000      -0.343474        -9.3464
 266   2.0000      -0.339900        -9.2491
 267   2.0000      -0.337128        -9.1737
 268   2.0000      -0.332465        -9.0468
 269   2.0000      -0.321213        -8.7406
 270   2.0000      -0.311272        -8.4701
 271   2.0000      -0.310882        -8.4595
 272   2.0000      -0.296902        -8.0791
 273   2.0000      -0.296263        -8.0617
 274   2.0000      -0.294287        -8.0080
 275   2.0000      -0.292712        -7.9651
 276   2.0000      -0.291544        -7.9333
 277   2.0000      -0.286605        -7.7989
 278   2.0000      -0.263097        -7.1592
 279   2.0000      -0.237837        -6.4719
 280   0.0000      -0.095251        -2.5919
 281   0.0000      -0.089890        -2.4460
 282   0.0000      -0.062558        -1.7023
 283   0.0000      -0.056153        -1.5280
 284   0.0000      -0.046128        -1.2552

MULLIKEN ATOMIC CHARGES
-----------------------
   0 C :    0.314180
   1 C :   -0.359446
   2 C :   -0.185691
   3 N :    0.146102
   4 C :   -0.189758
   5 N :    0.148813
   6 C :    0.013893
   7 C :   -0.014249
   8 C :   -0.070572
   9 C :    0.116920
  10 C :   -0.096152
  11 C :   -0.022443
  12 S :    0.140393
  13 C :   -0.048481
  14 C :    0.022347
  15 C :    0.157177
  16 O :   -0.165541
  17 C :   -0.086373
  18 C :    0.040079
  19 C :   -0.112102
  20 C :   -0.008033
  21 C :   -0.041181
  22 C :   -0.054241
  23 S :    0.164326
  24 C :   -0.082559
  25 C :   -0.010903
  26 S :    0.170765
  27 C :   -0.072533
  28 C :   -0.031872
  29 S :    0.156279
  30 C :   -0.042935
  31 C :   -0.063523
  32 C :   -0.023466
  33 C :   -0.074542
  34 S :    0.149462
  35 C :   -0.075220
  36 C :   -0.023349
  37 S :    0.164148
  38 C :   -0.064373
  39 C :   -0.042228
  40 S :    0.149998
  41 C :   -0.034095
  42 C :   -0.070728
  43 C :   -0.017212
  44 C :   -0.073409
  45 S :    0.154786
  46 C :   -0.063185
  47 C :   -0.019101
  48 S :    0.168887
  49 C :    0.010278
  50 C :   -0.094720
  51 S :    0.166217
  52 C :    0.046155
  53 C :   -0.128738
  54 C :    0.238583
  55 C :   -0.318233
  56 C :   -0.176163
  57 N :    0.154653
  58 C :   -0.210547
  59 N :    0.171021
  60 C :    0.006319
  61 C :   -0.001450
  62 C :    0.136413
  63 O :   -0.146272
  64 C :   -0.064146
  65 C :    0.105292
  66 C :   -0.092435
  67 C :   -0.020963
  68 S :    0.138141
  69 C :   -0.052359
  70 C :    0.028848
  71 H :   -0.014306
  72 H :   -0.006762
  73 H :    0.037900
  74 H :   -0.007057
  75 H :    0.006421
  76 H :    0.019231
  77 H :   -0.003943
  78 H :   -0.002598
  79 H :   -0.001638
  80 H :   -0.003689
  81 H :   -0.000233
  82 H :    0.026123
  83 H :   -0.011707
  84 H :   -0.003951
  85 H :    0.038547
  86 H :   -0.007289
Sum of atomic charges:   -0.0000000

LOEWDIN ATOMIC CHARGES
----------------------
   0 C :    0.078247
   1 C :   -0.145985
   2 C :   -0.017823
   3 N :   -0.057258
   4 C :   -0.024670
   5 N :   -0.054272
   6 C :   -0.022782
   7 C :   -0.052958
   8 C :    0.021888
   9 C :   -0.035501
  10 C :   -0.145953
  11 C :   -0.008973
  12 S :    0.428970
  13 C :   -0.150272
  14 C :   -0.058396
  15 C :    0.088697
  16 O :   -0.149297
  17 C :   -0.101185
  18 C :    0.045928
  19 C :   -0.175265
  20 C :   -0.013702
  21 C :   -0.197115
  22 C :   -0.195186
  23 S :    0.444642
  24 C :   -0.224471
  25 C :   -0.175765
  26 S :    0.416435
  27 C :   -0.076377
  28 C :   -0.159993
  29 S :    0.435331
  30 C :   -0.177192
  31 C :   -0.065120
  32 C :   -0.190896
  33 C :   -0.213736
  34 S :    0.429403
  35 C :   -0.215060
  36 C :   -0.189705
  37 S :    0.413939
  38 C :   -0.067146
  39 C :   -0.175064
  40 S :    0.429228
  41 C :   -0.162406
  42 C :   -0.074468
  43 C :   -0.178215
  44 C :   -0.220194
  45 S :    0.434927
  46 C :   -0.192557
  47 C :   -0.195511
  48 S :    0.416918
  49 C :   -0.017271
  50 C :   -0.175456
  51 S :    0.456917
  52 C :    0.049567
  53 C :   -0.100095
  54 C :    0.060336
  55 C :   -0.143492
  56 C :   -0.020035
  57 N :   -0.052975
  58 C :   -0.036230
  59 N :   -0.049039
  60 C :   -0.018423
  61 C :   -0.055162
  62 C :    0.083381
  63 O :   -0.146396
  64 C :    0.023688
  65 C :   -0.036757
  66 C :   -0.144935
  67 C :   -0.012450
  68 S :    0.427849
  69 C :   -0.150896
  70 C :   -0.057416
  71 H :    0.039305
  72 H :    0.040624
  73 H :    0.029064
  74 H :    0.034956
  75 H :    0.042736
  76 H :    0.038532
  77 H :    0.031923
  78 H :    0.032185
  79 H :    0.032128
  80 H :    0.031992
  81 H :    0.040990
  82 H :    0.051697
  83 H :    0.040480
  84 H :    0.040347
  85 H :    0.029115
  86 H :    0.035132

  Mayer bond orders larger than 0.100000
B(  0-C ,  1-C ) :   1.6143 B(  0-C ,  6-C ) :   0.9972 B(  0-C , 17-C ) :   1.0850
B(  1-C ,  2-C ) :   1.1467 B(  1-C ,  4-C ) :   1.1394 B(  2-C ,  3-N ) :   2.9678
B(  4-C ,  5-N ) :   2.9690 B(  6-C ,  7-C ) :   1.2710 B(  6-C , 11-C ) :   1.4073
B(  7-C ,  8-C ) :   1.4228 B(  7-C , 15-C ) :   0.9574 B(  8-C ,  9-C ) :   1.2413
B(  8-C , 71-H ) :   1.0182 B(  9-C , 10-C ) :   1.3027 B(  9-C , 14-C ) :   1.1699
B( 10-C , 11-C ) :   1.3227 B( 10-C , 12-S ) :   1.0989 B( 11-C , 72-H ) :   0.9834
B( 12-S , 13-C ) :   1.1260 B( 13-C , 14-C ) :   1.6294 B( 13-C , 73-H ) :   0.9683
B( 14-C , 74-H ) :   1.0001 B( 15-C , 16-O ) :   2.1548 B( 15-C , 17-C ) :   0.9411
B( 17-C , 18-C ) :   1.5808 B( 18-C , 19-C ) :   1.2370 B( 18-C , 75-H ) :   0.9090
B( 19-C , 20-C ) :   1.4414 B( 19-C , 23-S ) :   1.0630 B( 20-C , 21-C ) :   1.2955
B( 20-C , 76-H ) :   0.9779 B( 21-C , 22-C ) :   1.4029 B( 21-C , 26-S ) :   1.0424
B( 22-C , 23-S ) :   1.1060 B( 22-C , 24-C ) :   1.3151 B( 24-C , 25-C ) :   1.4568
B( 24-C , 29-S ) :   1.0619 B( 25-C , 26-S ) :   1.0600 B( 25-C , 27-C ) :   1.2686
B( 27-C , 28-C ) :   1.5103 B( 27-C , 77-H ) :   0.9965 B( 28-C , 29-S ) :   1.1052
B( 28-C , 30-C ) :   1.1761 B( 30-C , 31-C ) :   1.5149 B( 30-C , 34-S ) :   1.0918
B( 31-C , 32-C ) :   1.2691 B( 31-C , 78-H ) :   0.9951 B( 32-C , 33-C ) :   1.4651
B( 32-C , 37-S ) :   1.0534 B( 33-C , 34-S ) :   1.0704 B( 33-C , 35-C ) :   1.3073
B( 35-C , 36-C ) :   1.4663 B( 35-C , 40-S ) :   1.0687 B( 36-C , 37-S ) :   1.0534
B( 36-C , 38-C ) :   1.2685 B( 38-C , 39-C ) :   1.5163 B( 38-C , 79-H ) :   0.9946
B( 39-C , 40-S ) :   1.0937 B( 39-C , 41-C ) :   1.1755 B( 41-C , 42-C ) :   1.5139
B( 41-C , 45-S ) :   1.1034 B( 42-C , 43-C ) :   1.2675 B( 42-C , 80-H ) :   0.9962
B( 43-C , 44-C ) :   1.4548 B( 43-C , 48-S ) :   1.0625 B( 44-C , 45-S ) :   1.0630
B( 44-C , 46-C ) :   1.3252 B( 46-C , 47-C ) :   1.4246 B( 46-C , 51-S ) :   1.0937
B( 47-C , 48-S ) :   1.0419 B( 47-C , 49-C ) :   1.2920 B( 49-C , 50-C ) :   1.4500
B( 49-C , 81-H ) :   1.0049 B( 50-C , 51-S ) :   1.0790 B( 50-C , 52-C ) :   1.1464
B( 52-C , 53-C ) :   1.6448 B( 52-C , 82-H ) :   0.9481 B( 53-C , 54-C ) :   1.0324
B( 53-C , 62-C ) :   0.9391 B( 54-C , 55-C ) :   1.6561 B( 54-C , 60-C ) :   1.0170
B( 55-C , 56-C ) :   1.1331 B( 55-C , 58-C ) :   1.1519 B( 56-C , 57-N ) :   2.9935
B( 58-C , 59-N ) :   3.0277 B( 60-C , 61-C ) :   1.2700 B( 60-C , 67-C ) :   1.4171
B( 61-C , 62-C ) :   0.9246 B( 61-C , 64-C ) :   1.4282 B( 62-C , 63-O ) :   2.2673
B( 64-C , 65-C ) :   1.2529 B( 64-C , 83-H ) :   1.0158 B( 65-C , 66-C ) :   1.3045
B( 65-C , 70-C ) :   1.1721 B( 66-C , 67-C ) :   1.3188 B( 66-C , 68-S ) :   1.0966
B( 67-C , 84-H ) :   0.9869 B( 68-S , 69-C ) :   1.1257 B( 69-C , 70-C ) :   1.6309
B( 69-C , 85-H ) :   0.9682 B( 70-C , 86-H ) :   0.9992

-----------------------------------------------------------------------------
         ABSORPTION SPECTRUM VIA TRANSITION ELECTRIC DIPOLE MOMENTS
-----------------------------------------------------------------------------
State   Energy  Wavelength   fosc         T2         TX        TY        TZ
        (cm-1)    (nm)                  (au**2)     (au)      (au)      (au)
-----------------------------------------------------------------------------
   0   17403.7    574.6   2.965860904  56.10285   7.11429  -2.05323   1.12873
   1   19543.6    511.7   0.438122980   7.38019   2.38598   0.82014   1.00731
   2   24854.1    402.3   0.236385827   3.13112  -1.74866   0.00897  -0.27058
   3   25376.3    394.1   0.021168404   0.27462   0.09788  -0.51138   0.05939
   4   26333.7    379.7   0.105349973   1.31704   0.82279   0.15452   0.78498
   5   26527.1    377.0   0.050068542   0.62137  -0.34056  -0.25154  -0.66491
   6   27420.9    364.7   0.030052993   0.36081  -0.51525  -0.26425  -0.15970
   7   27727.8    360.6   0.258241536   3.06610  -1.61186   0.40745   0.54954
   8   28070.7    356.2   0.343374073   4.02708  -1.46134   1.28070   0.50138
   9   28223.6    354.3   0.226090886   2.63722   1.49270  -0.63101  -0.10428
  10   28972.9    345.1   0.081335145   0.92419  -0.04184  -0.48300  -0.83015
  11   29604.1    337.8   0.073218953   0.81423   0.88582   0.13218  -0.10992
  12   29991.0    333.4   0.026578952   0.29176   0.31473  -0.36152  -0.24901
  13   30321.8    329.8   0.026991007   0.29305  -0.12278   0.41681   0.32286
  14   31005.6    322.5   0.029380303   0.31195   0.29745  -0.18270  -0.43600
  15   31236.1    320.1   0.053608051   0.56500  -0.43927   0.35625   0.49511
  16   32318.1    309.4   0.023250637   0.23685  -0.36704   0.29189   0.13009
  17   32511.4    307.6   0.263593018   2.66916  -0.44396  -1.16836  -1.05213
  18   33007.9    303.0   0.025615385   0.25548  -0.13508  -0.19006  -0.44845
  19   33584.0    297.8   0.581616246   5.70137  -1.97484   1.02738   0.86364
  20   33780.0    296.0   0.093227126   0.90857  -0.02976   0.95188  -0.04007
  21   34013.2    294.0   0.009090218   0.08798   0.04208  -0.29283   0.02155
  22   34044.2    293.7   0.013510865   0.13065   0.03245   0.07604  -0.35188
  23   34144.6    292.9   0.323335989   3.11751   0.72652  -1.07820  -1.19464
  24   34545.6    289.5   0.135972646   1.29579   1.05625  -0.02305  -0.42379
  25   35053.7    285.3   0.203909908   1.91505   0.90576  -0.39783  -0.96767
  26   35147.8    284.5   0.259301086   2.42875  -0.98438   0.60338   1.04674
  27   35733.8    279.8   0.023802918   0.21929  -0.32109  -0.13425  -0.31332
  28   36376.3    274.9   0.001054294   0.00954  -0.07553   0.05901  -0.01881
  29   37154.9    269.1   0.069504256   0.61584   0.08593  -0.37236  -0.68543
  30   37366.0    267.6   0.002230934   0.01966  -0.00198   0.12845   0.05614
  31   37969.5    263.4   0.005567654   0.04827  -0.21182  -0.04999  -0.03010
  32   38158.2    262.1   0.001439676   0.01242   0.00942  -0.08665  -0.06945
  33   38200.5    261.8   0.005787233   0.04987  -0.00615   0.20959   0.07686
  34   38685.0    258.5   0.007918423   0.06739  -0.18544   0.18122   0.01266
  35   38844.7    257.4   0.035221244   0.29850  -0.02988   0.27889   0.46886
  36   38994.2    256.4   0.106692662   0.90076   0.05011  -0.66263  -0.67762
  37   39051.1    256.1   0.353734274   2.98208  -1.10071  -0.74737  -1.10089
  38   39313.9    254.4   0.004611694   0.03862  -0.00416  -0.05396   0.18891
  39   39422.1    253.7   0.028989367   0.24209  -0.27784  -0.09765   0.39416
  40   39596.4    252.5   0.010608655   0.08820  -0.13651  -0.25379  -0.07182
  41   40085.6    249.5   0.038863737   0.31918  -0.38077   0.21947   0.35500
  42   40111.6    249.3   0.038290960   0.31427   0.43169   0.33886   0.11437

FINAL SINGLE POINT ENERGY     -6812.463578124450

DIPOLE MOMENT
-------------
                                X             Y             Z
Electronic contribution:      0.42981       3.04113      -0.52265
Nuclear contribution   :     -1.92613      -5.81902       0.22160
                        -----------------------------------------
Total Dipole Moment    :     -1.49632      -2.77789      -0.30105
                        -----------------------------------------
Magnitude (a.u.)       :      3.16959
Magnitude (Debye)      :      8.05645

Rotational constants in cm-1:     0.002914     0.000117     0.000113
Rotational constants in MHz :    87.353590     3.502880     3.393600

                             ****ORCA TERMINATED NORMALLY****
TOTAL RUN TIME: 0 days 0 hours 9 minutes 0 seconds 555 msec
