                         Program Version 4.2.0 -  RELEASE  -
|  1> # ORCA input file
|  2> # SCF done       -212.349410996702          0.000848512159
|  3> ! CAM-B3LYP def2-SVP def2/J RIJCOSX Grid4 TightSCF
|  4> %maxcore 5000
|  5> %tddft
|  6>     Mode sTDDFT
|  7>     Ethresh 5.0
|  8>     maxcore 5000
|  9> end
| 10>
| 11> %pal
| 12>   nprocs 6
| 13>   end
| 14> * xyz 0 1
| 15>    C        0.65349         2.68750         3.52058
| 16>    C        1.43191         3.02299         2.44312
| 17>    C        2.83449         2.87827         2.40744
| 18>    N        3.97574         2.78968         2.32186
| 19>    C        0.93912         3.50865         1.21362
| 20>    N        0.60480         3.88496         0.18127
| 21>    C        1.12282         2.07862         4.75632
| 22>    C       -0.00335         1.71081         5.53479
| 23>    C        0.11235         1.10820         6.76443
| 24>    C        1.39936         0.86003         7.25057
| 25>    C        2.51855         1.23559         6.46810
| 26>    C        2.40197         1.84191         5.22290
| 27>    S        4.00604         0.84424         7.27075
| 28>    C        3.13681         0.19228         8.61642
| 29>    C        1.79456         0.26177         8.47998
| 30>    C       -1.24071         2.08662         4.82929
| 31>    O       -2.37348         1.91902         5.22716
| 32>    C       -0.79444         2.77889         3.59193
| 33>    C       -1.56266         3.56203         2.77881
| 34>    C       -2.96990         3.64021         2.70166
| 35>    C       -3.95895         2.73767         3.06667
| 36>    C       -5.23095         3.20200         2.75494
| 37>    C       -5.22235         4.48057         2.15566
| 38>    S       -3.64879         5.08318         1.93816
| 39>    C       -6.56039         4.87110         1.91033
| 40>    C       -7.41609         3.83881         2.33302
| 41>    C       -6.60833         2.75351         2.87272
| 42>    C       -7.05766         1.56641         3.36969
| 43>    C       -6.19221         0.55215         3.83513
| 44>    N       -5.51185        -0.29650         4.19623
| 45>    C       -8.43424         1.26166         3.43505
| 46>    N       -9.55320         1.01750         3.48974
| 47>    C       -8.76249         4.13081         2.12226
| 48>    C       -8.93700         5.38232         1.55757
| 49>    S       -7.41307         6.20708         1.27136
| 50>    C      -10.15865         6.01500         1.21523
| 51>    C      -10.33977         7.32183         0.79984
| 52>    C      -11.68147         7.60945         0.55533
| 53>    C      -12.52610         6.50694         0.77263
| 54>    S      -11.67195         5.12377         1.29631
| 55>    C      -13.85861         6.89699         0.48843
| 56>    C      -13.86008         8.25065         0.10811
| 57>    C      -12.49083         8.74240         0.13370
| 58>    C      -12.05407         9.99620        -0.17475
| 59>    C      -10.68860        10.34756        -0.11254
| 60>    N       -9.57913        10.63118        -0.05920
| 61>    C      -12.93564        11.02291        -0.57615
| 62>    N      -13.65130        11.85531        -0.90554
| 63>    C      -15.13345         8.73118        -0.19367
| 64>    C      -16.10042         7.74902        -0.06098
| 65>    S      -15.42172         6.21289         0.45605
| 66>    C      -17.49285         7.87498        -0.30689
| 67>    C      -18.20359         9.04545        -0.51980
| 68>    C      -19.55433         8.79658        -0.75346
| 69>    C      -19.87357         7.42783        -0.72918
| 70>    S      -18.51356         6.45000        -0.39758
| 71>    C      -21.25166         7.27950        -1.01440
| 72>    C      -21.81356         8.55791        -1.19945
| 73>    C      -20.76800         9.55276        -1.03354
| 74>    C      -20.89462        10.90755        -1.11154
| 75>    C      -19.79867        11.77588        -0.91833
| 76>    N      -18.91205        12.48317        -0.75201
| 77>    C      -22.13291        11.53396        -1.37030
| 78>    N      -23.13850        12.04716        -1.56817
| 79>    C      -23.17325         8.51055        -1.49300
| 80>    C      -23.64557         7.21218        -1.58674
| 81>    S      -22.38706         6.03021        -1.22722
| 82>    C      -24.98199         6.83186        -1.86246
| 83>    C      -25.45822         5.65519        -2.34606
| 84>    C      -24.81393         4.53134        -2.99523
| 85>    C      -23.71500         4.59413        -3.81250
| 86>    C      -23.18589         3.48613        -4.50431
| 87>    N      -22.70637         2.61369        -5.07556
| 88>    C      -23.04897         5.79623        -4.12664
| 89>    N      -22.50429         6.75850        -4.43634
| 90>    C      -25.71387         3.39134        -2.87911
| 91>    C      -26.97095         3.85218        -2.40657
| 92>    C      -26.89249         5.29962        -2.13946
| 93>    O      -27.77436         6.04344        -1.77834
| 94>    C      -28.04672         3.01239        -2.24479
| 95>    C      -27.87189         1.65947        -2.55175
| 96>    C      -26.60872         1.20863        -3.00735
| 97>    C      -25.52169         2.05740        -3.17998
| 98>    S      -26.62349        -0.49872        -3.31342
| 99>    C      -28.28653        -0.59258        -2.84796
|100>    C      -28.81285         0.59424        -2.47467
|101>    H       -0.76464         0.83809         7.33191
|102>    H        3.28331         2.11574         4.66713
|103>    H        3.69454        -0.20751         9.44091
|104>    H        1.09507        -0.09259         9.21524
|105>    H       -1.04489         4.24976         2.11967
|106>    H       -3.74502         1.79253         3.52879
|107>    H       -9.58513         3.48356         2.36828
|108>    H       -9.52615         8.01666         0.69315
|109>    H      -15.35289         9.73415        -0.50939
|110>    H      -17.75248        10.01998        -0.49654
|111>    H      -23.79822         9.36610        -1.67494
|112>    H      -25.73928         7.56122        -1.58912
|113>    H      -28.99537         3.38914        -1.89528
|114>    H      -24.57586         1.67176        -3.52366
|115>    H      -28.77458        -1.54720        -2.88197
|116>    H      -29.82992         0.72763        -2.15344
|117> *
|118>
|119>                          ****END OF INPUT****

CARTESIAN COORDINATES (ANGSTROEM)
---------------------------------
  C      0.653490    2.687500    3.520580
  C      1.431910    3.022990    2.443120
  C      2.834490    2.878270    2.407440
  N      3.975740    2.789680    2.321860
  C      0.939120    3.508650    1.213620
  N      0.604800    3.884960    0.181270
  C      1.122820    2.078620    4.756320
  C     -0.003350    1.710810    5.534790
  C      0.112350    1.108200    6.764430
  C      1.399360    0.860030    7.250570
  C      2.518550    1.235590    6.468100
  C      2.401970    1.841910    5.222900
  S      4.006040    0.844240    7.270750
  C      3.136810    0.192280    8.616420
  C      1.794560    0.261770    8.479980
  C     -1.240710    2.086620    4.829290
  O     -2.373480    1.919020    5.227160
  C     -0.794440    2.778890    3.591930
  C     -1.562660    3.562030    2.778810
  C     -2.969900    3.640210    2.701660
  C     -3.958950    2.737670    3.066670
  C     -5.230950    3.202000    2.754940
  C     -5.222350    4.480570    2.155660
  S     -3.648790    5.083180    1.938160
  C     -6.560390    4.871100    1.910330
  C     -7.416090    3.838810    2.333020
  C     -6.608330    2.753510    2.872720
  C     -7.057660    1.566410    3.369690
  C     -6.192210    0.552150    3.835130
  N     -5.511850   -0.296500    4.196230
  C     -8.434240    1.261660    3.435050
  N     -9.553200    1.017500    3.489740
  C     -8.762490    4.130810    2.122260
  C     -8.937000    5.382320    1.557570
  S     -7.413070    6.207080    1.271360
  C    -10.158650    6.015000    1.215230
  C    -10.339770    7.321830    0.799840
  C    -11.681470    7.609450    0.555330
  C    -12.526100    6.506940    0.772630
  S    -11.671950    5.123770    1.296310
  C    -13.858610    6.896990    0.488430
  C    -13.860080    8.250650    0.108110
  C    -12.490830    8.742400    0.133700
  C    -12.054070    9.996200   -0.174750
  C    -10.688600   10.347560   -0.112540
  N     -9.579130   10.631180   -0.059200
  C    -12.935640   11.022910   -0.576150
  N    -13.651300   11.855310   -0.905540
  C    -15.133450    8.731180   -0.193670
  C    -16.100420    7.749020   -0.060980
  S    -15.421720    6.212890    0.456050
  C    -17.492850    7.874980   -0.306890
  C    -18.203590    9.045450   -0.519800
  C    -19.554330    8.796580   -0.753460
  C    -19.873570    7.427830   -0.729180
  S    -18.513560    6.450000   -0.397580
  C    -21.251660    7.279500   -1.014400
  C    -21.813560    8.557910   -1.199450
  C    -20.768000    9.552760   -1.033540
  C    -20.894620   10.907550   -1.111540
  C    -19.798670   11.775880   -0.918330
  N    -18.912050   12.483170   -0.752010
  C    -22.132910   11.533960   -1.370300
  N    -23.138500   12.047160   -1.568170
  C    -23.173250    8.510550   -1.493000
  C    -23.645570    7.212180   -1.586740
  S    -22.387060    6.030210   -1.227220
  C    -24.981990    6.831860   -1.862460
  C    -25.458220    5.655190   -2.346060
  C    -24.813930    4.531340   -2.995230
  C    -23.715000    4.594130   -3.812500
  C    -23.185890    3.486130   -4.504310
  N    -22.706370    2.613690   -5.075560
  C    -23.048970    5.796230   -4.126640
  N    -22.504290    6.758500   -4.436340
  C    -25.713870    3.391340   -2.879110
  C    -26.970950    3.852180   -2.406570
  C    -26.892490    5.299620   -2.139460
  O    -27.774360    6.043440   -1.778340
  C    -28.046720    3.012390   -2.244790
  C    -27.871890    1.659470   -2.551750
  C    -26.608720    1.208630   -3.007350
  C    -25.521690    2.057400   -3.179980
  S    -26.623490   -0.498720   -3.313420
  C    -28.286530   -0.592580   -2.847960
  C    -28.812850    0.594240   -2.474670
  H     -0.764640    0.838090    7.331910
  H      3.283310    2.115740    4.667130
  H      3.694540   -0.207510    9.440910
  H      1.095070   -0.092590    9.215240
  H     -1.044890    4.249760    2.119670
  H     -3.745020    1.792530    3.528790
  H     -9.585130    3.483560    2.368280
  H     -9.526150    8.016660    0.693150
  H    -15.352890    9.734150   -0.509390
  H    -17.752480   10.019980   -0.496540
  H    -23.798220    9.366100   -1.674940
  H    -25.739280    7.561220   -1.589120
  H    -28.995370    3.389140   -1.895280
  H    -24.575860    1.671760   -3.523660
  H    -28.774580   -1.547200   -2.881970
  H    -29.829920    0.727630   -2.153440

 Total Charge           Charge          ....    0
 Multiplicity           Mult            ....    1
 Number of Electrons    NEL             ....  626
 Basis Dimension        Dim             .... 1316

ORBITAL ENERGIES
----------------

  NO   OCC          E(Eh)            E(eV)
   0   2.0000     -89.003986     -2421.9216
   1   2.0000     -89.003598     -2421.9110
   2   2.0000     -89.003163     -2421.8992
   3   2.0000     -89.002979     -2421.8942
   4   2.0000     -88.999420     -2421.7973
   5   2.0000     -88.999398     -2421.7967
   6   2.0000     -88.971127     -2421.0274
   7   2.0000     -88.967719     -2420.9347
   8   2.0000     -19.219286      -522.9834
   9   2.0000     -19.218600      -522.9647
  10   2.0000     -14.440465      -392.9450
  11   2.0000     -14.438984      -392.9047
  12   2.0000     -14.438562      -392.8932
  13   2.0000     -14.435908      -392.8210
  14   2.0000     -14.435785      -392.8177
  15   2.0000     -14.434764      -392.7899
  16   2.0000     -14.420898      -392.4126
  17   2.0000     -14.419450      -392.3732
  18   2.0000     -14.416613      -392.2960
  19   2.0000     -14.415367      -392.2621
  20   2.0000     -10.376152      -282.3494
  21   2.0000     -10.373814      -282.2858
  22   2.0000     -10.372813      -282.2586
  23   2.0000     -10.371190      -282.2144
  24   2.0000     -10.370281      -282.1897
  25   2.0000     -10.362285      -281.9721
  26   2.0000     -10.360513      -281.9239
  27   2.0000     -10.359379      -281.8930
  28   2.0000     -10.349573      -281.6262
  29   2.0000     -10.348746      -281.6037
  30   2.0000     -10.348153      -281.5876
  31   2.0000     -10.348021      -281.5840
  32   2.0000     -10.345276      -281.5093
  33   2.0000     -10.345244      -281.5084
  34   2.0000     -10.344681      -281.4931
  35   2.0000     -10.344385      -281.4850
  36   2.0000     -10.343092      -281.4499
  37   2.0000     -10.342521      -281.4343
  38   2.0000     -10.342252      -281.4270
  39   2.0000     -10.342141      -281.4240
  40   2.0000     -10.342011      -281.4204
  41   2.0000     -10.341467      -281.4056
  42   2.0000     -10.340414      -281.3770
  43   2.0000     -10.339155      -281.3427
  44   2.0000     -10.338081      -281.3135
  45   2.0000     -10.335554      -281.2447
  46   2.0000     -10.335459      -281.2421
  47   2.0000     -10.334047      -281.2037
  48   2.0000     -10.331663      -281.1388
  49   2.0000     -10.330391      -281.1042
  50   2.0000     -10.329112      -281.0694
  51   2.0000     -10.328035      -281.0401
  52   2.0000     -10.325589      -280.9736
  53   2.0000     -10.323326      -280.9120
  54   2.0000     -10.321819      -280.8710
  55   2.0000     -10.321688      -280.8674
  56   2.0000     -10.319629      -280.8114
  57   2.0000     -10.319091      -280.7968
  58   2.0000     -10.318214      -280.7729
  59   2.0000     -10.318174      -280.7718
  60   2.0000     -10.317515      -280.7539
  61   2.0000     -10.316318      -280.7213
  62   2.0000     -10.315917      -280.7104
  63   2.0000     -10.315858      -280.7088
  64   2.0000     -10.315279      -280.6930
  65   2.0000     -10.315248      -280.6922
  66   2.0000     -10.314424      -280.6698
  67   2.0000     -10.314175      -280.6630
  68   2.0000     -10.312741      -280.6239
  69   2.0000     -10.312175      -280.6086
  70   2.0000     -10.312168      -280.6083
  71   2.0000     -10.311725      -280.5963
  72   2.0000     -10.311438      -280.5885
  73   2.0000     -10.308596      -280.5112
  74   2.0000     -10.307462      -280.4803
  75   2.0000     -10.306209      -280.4462
  76   2.0000     -10.304585      -280.4020
  77   2.0000     -10.303840      -280.3817
  78   2.0000     -10.303556      -280.3740
  79   2.0000     -10.302923      -280.3568
  80   2.0000     -10.302880      -280.3556
  81   2.0000     -10.299991      -280.2770
  82   2.0000     -10.295965      -280.1675
  83   2.0000     -10.293016      -280.0872
  84   2.0000     -10.291923      -280.0575
  85   2.0000     -10.290023      -280.0058
  86   2.0000      -8.098754      -220.3783
  87   2.0000      -8.098046      -220.3590
  88   2.0000      -8.097938      -220.3561
  89   2.0000      -8.097483      -220.3437
  90   2.0000      -8.094219      -220.2549
  91   2.0000      -8.093589      -220.2378
  92   2.0000      -8.067384      -219.5247
  93   2.0000      -8.064000      -219.4326
  94   2.0000      -6.068044      -165.1199
  95   2.0000      -6.067330      -165.1004
  96   2.0000      -6.067252      -165.0983
  97   2.0000      -6.066793      -165.0858
  98   2.0000      -6.063842      -165.0055
  99   2.0000      -6.063342      -164.9919
 100   2.0000      -6.063192      -164.9878
 101   2.0000      -6.063031      -164.9835
 102   2.0000      -6.062886      -164.9795
 103   2.0000      -6.062620      -164.9723
 104   2.0000      -6.061028      -164.9289
 105   2.0000      -6.060292      -164.9089
 106   2.0000      -6.060186      -164.9060
 107   2.0000      -6.059684      -164.8924
 108   2.0000      -6.059209      -164.8795
 109   2.0000      -6.058639      -164.8639
 110   2.0000      -6.056722      -164.8118
 111   2.0000      -6.055959      -164.7910
 112   2.0000      -6.036911      -164.2727
 113   2.0000      -6.033502      -164.1799
 114   2.0000      -6.032578      -164.1548
 115   2.0000      -6.029211      -164.0632
 116   2.0000      -6.029050      -164.0588
 117   2.0000      -6.025667      -163.9667
 118   2.0000      -1.134859       -30.8811
 119   2.0000      -1.134125       -30.8611
 120   2.0000      -1.058783       -28.8109
 121   2.0000      -1.055912       -28.7328
 122   2.0000      -1.053965       -28.6798
 123   2.0000      -1.032055       -28.0836
 124   2.0000      -1.029682       -28.0191
 125   2.0000      -1.028649       -27.9910
 126   2.0000      -1.026274       -27.9263
 127   2.0000      -1.021754       -27.8033
 128   2.0000      -1.019886       -27.7525
 129   2.0000      -1.016657       -27.6647
 130   2.0000      -1.014013       -27.5927
 131   2.0000      -1.013238       -27.5716
 132   2.0000      -1.012869       -27.5616
 133   2.0000      -1.009820       -27.4786
 134   2.0000      -1.009196       -27.4616
 135   2.0000      -1.001310       -27.2470
 136   2.0000      -0.997494       -27.1432
 137   2.0000      -0.994661       -27.0661
 138   2.0000      -0.990098       -26.9419
 139   2.0000      -0.986617       -26.8472
 140   2.0000      -0.975099       -26.5338
 141   2.0000      -0.967142       -26.3173
 142   2.0000      -0.963218       -26.2105
 143   2.0000      -0.937628       -25.5141
 144   2.0000      -0.935863       -25.4661
 145   2.0000      -0.930639       -25.3240
 146   2.0000      -0.924481       -25.1564
 147   2.0000      -0.916460       -24.9381
 148   2.0000      -0.903739       -24.5920
 149   2.0000      -0.900307       -24.4986
 150   2.0000      -0.886701       -24.1284
 151   2.0000      -0.886192       -24.1145
 152   2.0000      -0.883373       -24.0378
 153   2.0000      -0.882150       -24.0045
 154   2.0000      -0.880619       -23.9629
 155   2.0000      -0.875070       -23.8119
 156   2.0000      -0.872472       -23.7412
 157   2.0000      -0.867809       -23.6143
 158   2.0000      -0.864529       -23.5250
 159   2.0000      -0.861204       -23.4346
 160   2.0000      -0.843630       -22.9563
 161   2.0000      -0.827705       -22.5230
 162   2.0000      -0.824286       -22.4300
 163   2.0000      -0.821272       -22.3479
 164   2.0000      -0.804763       -21.8987
 165   2.0000      -0.796622       -21.6772
 166   2.0000      -0.789588       -21.4858
 167   2.0000      -0.784404       -21.3447
 168   2.0000      -0.781373       -21.2622
 169   2.0000      -0.769202       -20.9311
 170   2.0000      -0.760479       -20.6937
 171   2.0000      -0.758580       -20.6420
 172   2.0000      -0.747420       -20.3383
 173   2.0000      -0.730617       -19.8811
 174   2.0000      -0.718444       -19.5499
 175   2.0000      -0.716526       -19.4977
 176   2.0000      -0.708480       -19.2787
 177   2.0000      -0.705917       -19.2090
 178   2.0000      -0.699264       -19.0279
 179   2.0000      -0.698534       -19.0081
 180   2.0000      -0.694178       -18.8895
 181   2.0000      -0.692378       -18.8406
 182   2.0000      -0.690510       -18.7897
 183   2.0000      -0.687042       -18.6954
 184   2.0000      -0.684064       -18.6143
 185   2.0000      -0.680117       -18.5069
 186   2.0000      -0.667004       -18.1501
 187   2.0000      -0.663552       -18.0562
 188   2.0000      -0.657887       -17.9020
 189   2.0000      -0.653448       -17.7812
 190   2.0000      -0.646061       -17.5802
 191   2.0000      -0.642599       -17.4860
 192   2.0000      -0.638689       -17.3796
 193   2.0000      -0.637248       -17.3404
 194   2.0000      -0.631219       -17.1763
 195   2.0000      -0.627307       -17.0699
 196   2.0000      -0.625688       -17.0258
 197   2.0000      -0.623273       -16.9601
 198   2.0000      -0.621924       -16.9234
 199   2.0000      -0.619873       -16.8676
 200   2.0000      -0.611627       -16.6432
 201   2.0000      -0.602405       -16.3923
 202   2.0000      -0.601319       -16.3627
 203   2.0000      -0.596368       -16.2280
 204   2.0000      -0.589745       -16.0478
 205   2.0000      -0.582034       -15.8379
 206   2.0000      -0.577776       -15.7221
 207   2.0000      -0.565635       -15.3917
 208   2.0000      -0.561449       -15.2778
 209   2.0000      -0.558580       -15.1997
 210   2.0000      -0.557763       -15.1775
 211   2.0000      -0.555436       -15.1142
 212   2.0000      -0.555075       -15.1044
 213   2.0000      -0.551422       -15.0050
 214   2.0000      -0.545917       -14.8551
 215   2.0000      -0.544532       -14.8175
 216   2.0000      -0.541551       -14.7364
 217   2.0000      -0.539477       -14.6799
 218   2.0000      -0.536430       -14.5970
 219   2.0000      -0.534779       -14.5521
 220   2.0000      -0.533256       -14.5106
 221   2.0000      -0.528149       -14.3717
 222   2.0000      -0.524490       -14.2721
 223   2.0000      -0.520848       -14.1730
 224   2.0000      -0.518653       -14.1133
 225   2.0000      -0.518110       -14.0985
 226   2.0000      -0.516838       -14.0639
 227   2.0000      -0.515980       -14.0405
 228   2.0000      -0.514047       -13.9879
 229   2.0000      -0.513373       -13.9696
 230   2.0000      -0.510359       -13.8876
 231   2.0000      -0.508697       -13.8424
 232   2.0000      -0.507034       -13.7971
 233   2.0000      -0.504973       -13.7410
 234   2.0000      -0.503779       -13.7085
 235   2.0000      -0.502160       -13.6645
 236   2.0000      -0.500476       -13.6186
 237   2.0000      -0.498917       -13.5762
 238   2.0000      -0.496829       -13.5194
 239   2.0000      -0.494220       -13.4484
 240   2.0000      -0.493786       -13.4366
 241   2.0000      -0.491919       -13.3858
 242   2.0000      -0.489935       -13.3318
 243   2.0000      -0.489249       -13.3131
 244   2.0000      -0.484079       -13.1725
 245   2.0000      -0.480212       -13.0672
 246   2.0000      -0.479012       -13.0346
 247   2.0000      -0.475531       -12.9398
 248   2.0000      -0.473303       -12.8792
 249   2.0000      -0.470788       -12.8108
 250   2.0000      -0.469289       -12.7700
 251   2.0000      -0.468647       -12.7525
 252   2.0000      -0.465973       -12.6798
 253   2.0000      -0.465828       -12.6758
 254   2.0000      -0.463244       -12.6055
 255   2.0000      -0.462142       -12.5755
 256   2.0000      -0.460640       -12.5346
 257   2.0000      -0.458611       -12.4794
 258   2.0000      -0.454248       -12.3607
 259   2.0000      -0.453748       -12.3471
 260   2.0000      -0.453241       -12.3333
 261   2.0000      -0.452343       -12.3089
 262   2.0000      -0.451118       -12.2756
 263   2.0000      -0.449313       -12.2264
 264   2.0000      -0.449268       -12.2252
 265   2.0000      -0.447889       -12.1877
 266   2.0000      -0.447599       -12.1798
 267   2.0000      -0.447098       -12.1661
 268   2.0000      -0.446327       -12.1452
 269   2.0000      -0.445479       -12.1221
 270   2.0000      -0.445168       -12.1136
 271   2.0000      -0.444913       -12.1067
 272   2.0000      -0.444483       -12.0950
 273   2.0000      -0.443848       -12.0777
 274   2.0000      -0.437936       -11.9168
 275   2.0000      -0.437165       -11.8959
 276   2.0000      -0.436102       -11.8669
 277   2.0000      -0.435251       -11.8438
 278   2.0000      -0.434005       -11.8099
 279   2.0000      -0.433112       -11.7856
 280   2.0000      -0.431914       -11.7530
 281   2.0000      -0.431582       -11.7440
 282   2.0000      -0.431164       -11.7326
 283   2.0000      -0.427327       -11.6282
 284   2.0000      -0.424558       -11.5528
 285   2.0000      -0.423307       -11.5188
 286   2.0000      -0.419141       -11.4054
 287   2.0000      -0.412096       -11.2137
 288   2.0000      -0.411799       -11.2056
 289   2.0000      -0.406997       -11.0750
 290   2.0000      -0.405271       -11.0280
 291   2.0000      -0.401050       -10.9131
 292   2.0000      -0.390762       -10.6332
 293   2.0000      -0.382837       -10.4175
 294   2.0000      -0.377689       -10.2774
 295   2.0000      -0.370707       -10.0875
 296   2.0000      -0.364765        -9.9258
 297   2.0000      -0.360869        -9.8197
 298   2.0000      -0.356979        -9.7139
 299   2.0000      -0.354147        -9.6368
 300   2.0000      -0.344833        -9.3834
 301   2.0000      -0.339845        -9.2477
 302   2.0000      -0.335051        -9.1172
 303   2.0000      -0.332322        -9.0430
 304   2.0000      -0.330145        -8.9837
 305   2.0000      -0.326252        -8.8778
 306   2.0000      -0.318113        -8.6563
 307   2.0000      -0.315381        -8.5819
 308   2.0000      -0.304355        -8.2819
 309   2.0000      -0.299070        -8.1381
 310   2.0000      -0.294837        -8.0229
 311   2.0000      -0.274460        -7.4684
 312   2.0000      -0.249894        -6.8000
 313   0.0000      -0.124266        -3.3814
 314   0.0000      -0.115970        -3.1557
 315   0.0000      -0.110588        -3.0093
 316   0.0000      -0.091809        -2.4983
 317   0.0000      -0.089945        -2.4475

MULLIKEN ATOMIC CHARGES
-----------------------
   0 C :    0.291006
   1 C :   -0.340337
   2 C :   -0.185772
   3 N :    0.149122
   4 C :   -0.205003
   5 N :    0.159343
   6 C :    0.015788
   7 C :   -0.015843
   8 C :   -0.064317
   9 C :    0.111477
  10 C :   -0.093531
  11 C :   -0.021311
  12 S :    0.141857
  13 C :   -0.049796
  14 C :    0.028708
  15 C :    0.151063
  16 O :   -0.154217
  17 C :   -0.092495
  18 C :    0.027199
  19 C :   -0.114853
  20 C :    0.039561
  21 C :   -0.023798
  22 C :   -0.082740
  23 S :    0.210687
  24 C :   -0.102773
  25 C :    0.022981
  26 C :    0.302896
  27 C :   -0.291189
  28 C :   -0.188279
  29 N :    0.190589
  30 C :   -0.188012
  31 N :    0.169750
  32 C :   -0.064857
  33 C :   -0.046752
  34 S :    0.205758
  35 C :   -0.054756
  36 C :   -0.061309
  37 C :    0.014588
  38 C :   -0.097212
  39 S :    0.202726
  40 C :   -0.098590
  41 C :    0.014729
  42 C :    0.300553
  43 C :   -0.289742
  44 C :   -0.184483
  45 N :    0.174520
  46 C :   -0.190398
  47 N :    0.185466
  48 C :   -0.044105
  49 C :   -0.059646
  50 S :    0.192248
  51 C :   -0.052178
  52 C :   -0.049033
  53 C :    0.024939
  54 C :   -0.103342
  55 S :    0.194068
  56 C :   -0.081630
  57 C :    0.024968
  58 C :    0.298126
  59 C :   -0.285894
  60 C :   -0.191260
  61 N :    0.181717
  62 C :   -0.187666
  63 N :    0.180320
  64 C :    0.013842
  65 C :   -0.104895
  66 S :    0.205813
  67 C :    0.045861
  68 C :   -0.134224
  69 C :    0.247837
  70 C :   -0.328595
  71 C :   -0.177420
  72 N :    0.157448
  73 C :   -0.206330
  74 N :    0.173247
  75 C :    0.003585
  76 C :    0.001510
  77 C :    0.137455
  78 O :   -0.142079
  79 C :   -0.066107
  80 C :    0.107285
  81 C :   -0.091142
  82 C :   -0.022437
  83 S :    0.141160
  84 C :   -0.051192
  85 C :    0.029536
  86 H :   -0.010299
  87 H :   -0.005892
  88 H :    0.039319
  89 H :   -0.005581
  90 H :    0.025539
  91 H :    0.030706
  92 H :    0.013018
  93 H :    0.014874
  94 H :    0.015668
  95 H :    0.015176
  96 H :    0.018783
  97 H :    0.035718
  98 H :   -0.008915
  99 H :   -0.003080
 100 H :    0.040134
 101 H :   -0.004966
Sum of atomic charges:   -0.0000000

LOEWDIN ATOMIC CHARGES
----------------------
   0 C :    0.075457
   1 C :   -0.142039
   2 C :   -0.018806
   3 N :   -0.052460
   4 C :   -0.025451
   5 N :   -0.053235
   6 C :   -0.022971
   7 C :   -0.052978
   8 C :    0.025155
   9 C :   -0.034524
  10 C :   -0.145180
  11 C :   -0.008285
  12 S :    0.430901
  13 C :   -0.148730
  14 C :   -0.057105
  15 C :    0.084908
  16 O :   -0.139992
  17 C :   -0.092909
  18 C :    0.041113
  19 C :   -0.177789
  20 C :    0.024320
  21 C :   -0.075966
  22 C :   -0.160515
  23 S :    0.495885
  24 C :   -0.188666
  25 C :   -0.053049
  26 C :    0.077726
  27 C :   -0.093584
  28 C :   -0.020208
  29 N :   -0.017057
  30 C :   -0.014607
  31 N :   -0.032547
  32 C :   -0.040995
  33 C :   -0.169686
  34 S :    0.490754
  35 C :   -0.182310
  36 C :   -0.033782
  37 C :   -0.066596
  38 C :   -0.177695
  39 S :    0.488273
  40 C :   -0.180646
  41 C :   -0.064791
  42 C :    0.079549
  43 C :   -0.094117
  44 C :   -0.015600
  45 N :   -0.028383
  46 C :   -0.019428
  47 N :   -0.020264
  48 C :   -0.020637
  49 C :   -0.182599
  50 S :    0.471524
  51 C :   -0.173653
  52 C :   -0.025490
  53 C :   -0.051416
  54 C :   -0.188346
  55 S :    0.472561
  56 C :   -0.152972
  57 C :   -0.071990
  58 C :    0.079187
  59 C :   -0.092458
  60 C :   -0.018354
  61 N :   -0.023238
  62 C :   -0.016706
  63 N :   -0.024320
  64 C :    0.013917
  65 C :   -0.179172
  66 S :    0.505728
  67 C :    0.049336
  68 C :   -0.098006
  69 C :    0.061471
  70 C :   -0.145511
  71 C :   -0.021048
  72 N :   -0.049920
  73 C :   -0.035648
  74 N :   -0.049547
  75 C :   -0.020360
  76 C :   -0.055197
  77 C :    0.083699
  78 O :   -0.141198
  79 C :    0.025202
  80 C :   -0.035062
  81 C :   -0.144587
  82 C :   -0.011330
  83 S :    0.430701
  84 C :   -0.148348
  85 C :   -0.056811
  86 H :    0.041269
  87 H :    0.040884
  88 H :    0.029751
  89 H :    0.035879
  90 H :    0.044238
  91 H :    0.045461
  92 H :    0.036616
  93 H :    0.036829
  94 H :    0.043922
  95 H :    0.043612
  96 H :    0.047518
  97 H :    0.055379
  98 H :    0.041555
  99 H :    0.040511
 100 H :    0.030046
 101 H :    0.036034

  Mayer bond orders larger than 0.100000
B(  0-C ,  1-C ) :   1.6372 B(  0-C ,  6-C ) :   1.0071 B(  0-C , 17-C ) :   1.0676
B(  1-C ,  2-C ) :   1.1398 B(  1-C ,  4-C ) :   1.1406 B(  2-C ,  3-N ) :   2.9756
B(  4-C ,  5-N ) :   2.9969 B(  6-C ,  7-C ) :   1.2671 B(  6-C , 11-C ) :   1.4106
B(  7-C ,  8-C ) :   1.4245 B(  7-C , 15-C ) :   0.9487 B(  8-C ,  9-C ) :   1.2439
B(  8-C , 86-H ) :   1.0171 B(  9-C , 10-C ) :   1.3025 B(  9-C , 14-C ) :   1.1730
B( 10-C , 11-C ) :   1.3223 B( 10-C , 12-S ) :   1.0991 B( 11-C , 87-H ) :   0.9839
B( 12-S , 13-C ) :   1.1278 B( 13-C , 14-C ) :   1.6279 B( 13-C , 88-H ) :   0.9684
B( 14-C , 89-H ) :   0.9992 B( 15-C , 16-O ) :   2.1946 B( 15-C , 17-C ) :   0.9422
B( 17-C , 18-C ) :   1.6112 B( 18-C , 19-C ) :   1.1856 B( 18-C , 90-H ) :   0.9287
B( 19-C , 20-C ) :   1.4176 B( 19-C , 23-S ) :   1.0750 B( 20-C , 21-C ) :   1.3334
B( 20-C , 91-H ) :   0.9755 B( 21-C , 22-C ) :   1.3857 B( 21-C , 26-C ) :   0.9972
B( 22-C , 23-S ) :   1.1664 B( 22-C , 24-C ) :   1.1997 B( 24-C , 25-C ) :   1.4421
B( 24-C , 34-S ) :   1.1102 B( 25-C , 26-C ) :   0.9922 B( 25-C , 32-C ) :   1.3064
B( 26-C , 27-C ) :   1.7189 B( 27-C , 28-C ) :   1.1342 B( 27-C , 30-C ) :   1.1336
B( 28-C , 29-N ) :   2.9954 B( 30-C , 31-N ) :   2.9884 B( 32-C , 33-C ) :   1.4495
B( 32-C , 92-H ) :   0.9872 B( 33-C , 34-S ) :   1.1207 B( 33-C , 35-C ) :   1.1667
B( 35-C , 36-C ) :   1.4544 B( 35-C , 39-S ) :   1.1076 B( 36-C , 37-C ) :   1.3038
B( 36-C , 93-H ) :   0.9869 B( 37-C , 38-C ) :   1.4424 B( 37-C , 42-C ) :   0.9948
B( 38-C , 39-S ) :   1.1225 B( 38-C , 40-C ) :   1.1927 B( 40-C , 41-C ) :   1.4383
B( 40-C , 50-S ) :   1.1228 B( 41-C , 42-C ) :   0.9939 B( 41-C , 48-C ) :   1.2928
B( 42-C , 43-C ) :   1.7201 B( 43-C , 44-C ) :   1.1315 B( 43-C , 46-C ) :   1.1325
B( 44-C , 45-N ) :   2.9896 B( 46-C , 47-N ) :   2.9917 B( 48-C , 49-C ) :   1.4845
B( 48-C , 94-H ) :   0.9928 B( 49-C , 50-S ) :   1.0996 B( 49-C , 51-C ) :   1.1186
B( 51-C , 52-C ) :   1.4742 B( 51-C , 55-S ) :   1.1112 B( 52-C , 53-C ) :   1.2966
B( 52-C , 95-H ) :   0.9946 B( 53-C , 54-C ) :   1.4381 B( 53-C , 58-C ) :   0.9906
B( 54-C , 55-S ) :   1.1102 B( 54-C , 56-C ) :   1.2105 B( 56-C , 57-C ) :   1.4064
B( 56-C , 66-S ) :   1.1522 B( 57-C , 58-C ) :   0.9958 B( 57-C , 64-C ) :   1.2993
B( 58-C , 59-C ) :   1.7221 B( 59-C , 60-C ) :   1.1336 B( 59-C , 62-C ) :   1.1319
B( 60-C , 61-N ) :   2.9896 B( 62-C , 63-N ) :   2.9934 B( 64-C , 65-C ) :   1.4111
B( 64-C , 96-H ) :   1.0001 B( 65-C , 66-S ) :   1.0872 B( 65-C , 67-C ) :   1.1228
B( 67-C , 68-C ) :   1.6577 B( 67-C , 97-H ) :   0.9463 B( 68-C , 69-C ) :   1.0314
B( 68-C , 77-C ) :   0.9348 B( 69-C , 70-C ) :   1.6504 B( 69-C , 75-C ) :   1.0204
B( 70-C , 71-C ) :   1.1309 B( 70-C , 73-C ) :   1.1582 B( 71-C , 72-N ) :   2.9939
B( 73-C , 74-N ) :   3.0184 B( 75-C , 76-C ) :   1.2684 B( 75-C , 82-C ) :   1.4154
B( 76-C , 77-C ) :   0.9254 B( 76-C , 79-C ) :   1.4279 B( 77-C , 78-O ) :   2.2700
B( 79-C , 80-C ) :   1.2530 B( 79-C , 98-H ) :   1.0159 B( 80-C , 81-C ) :   1.3007
B( 80-C , 85-C ) :   1.1741 B( 81-C , 82-C ) :   1.3221 B( 81-C , 83-S ) :   1.0978
B( 82-C , 99-H ) :   0.9857 B( 83-S , 84-C ) :   1.1272 B( 84-C , 85-C ) :   1.6279
B( 84-C ,100-H ) :   0.9689 B( 85-C ,101-H ) :   0.9994

-----------------------------------------------------------------------------
         ABSORPTION SPECTRUM VIA TRANSITION ELECTRIC DIPOLE MOMENTS
-----------------------------------------------------------------------------
State   Energy  Wavelength   fosc         T2         TX        TY        TZ
        (cm-1)    (nm)                  (au**2)     (au)      (au)      (au)
-----------------------------------------------------------------------------
   0   11208.5    892.2   0.651782394  19.14397  -4.20903   0.55017  -1.06083
   1   13042.2    766.7   0.177109983   4.47061   1.99602  -0.48724   0.49912
   2   13233.0    755.7   0.036722622   0.91359  -0.45898  -0.81379  -0.20168
   3   19736.9    506.7   1.222916316  20.39827   4.20932   0.73840   1.46106
   4   20101.3    497.5   0.054442873   0.89165  -0.75801   0.56290  -0.01434
   5   20850.3    479.6   0.625899184   9.88252   2.51066  -1.88159   0.19676
   6   22216.5    450.1   0.240369738   3.56188   1.80778  -0.17429   0.51325
   7   22879.0    437.1   0.080770830   1.16223   0.99114  -0.40676  -0.12011
   8   25230.7    396.3   0.081824661   1.06766  -0.29343   0.94822  -0.28711
   9   25561.9    391.2   0.052404168   0.67491   0.50172   0.39823  -0.51439
  10   26155.9    382.3   0.350672666   4.41375   1.94890  -0.39321   0.67891
  11   27168.6    368.1   0.183793723   2.22710  -1.31332   0.65916  -0.26035
  12   27311.6    366.1   0.191636610   2.30997   1.31951  -0.45815   0.59915
  13   27584.2    362.5   0.057703553   0.68868  -0.75622  -0.16225   0.30080
  14   27933.3    358.0   0.030137465   0.35519   0.11459  -0.58248   0.05265
  15   28300.0    353.4   0.096644756   1.12426   0.44729   0.96085   0.03094
  16   28374.9    352.4   0.070473584   0.81765   0.43645   0.32621  -0.72163
  17   28886.7    346.2   0.006312960   0.07195   0.09257   0.09950  -0.23125
  18   29349.0    340.7   0.147821038   1.65813   1.08435   0.68852   0.09087
  19   29603.7    337.8   0.058693893   0.65271   0.58177  -0.56004  -0.02485
  20   29772.6    335.9   0.213790377   2.36400  -0.53258   1.43786  -0.11362
  21   30202.5    331.1   0.077694924   0.84689   0.69155  -0.53766  -0.28207
  22   30399.0    329.0   0.361825351   3.91845  -0.96523   0.71083  -1.57528
  23   30434.5    328.6   0.198046850   2.14228   0.19981  -1.44701   0.09235
  24   30744.8    325.3   0.554866044   5.94144  -1.56920  -1.83832   0.31565
  25   31060.0    322.0   0.047196155   0.50024   0.33868   0.19580  -0.58924
  26   31432.9    318.1   0.371560767   3.89154  -1.28321  -1.46747   0.30242
  27   31635.9    316.1   0.629251827   6.54817  -0.97213  -2.33876   0.36511
  28   32029.2    312.2   0.008187008   0.08415  -0.00614  -0.28462  -0.05573
  29   32459.0    308.1   0.138549584   1.40522   0.41003   1.10035  -0.16223
  30   32554.1    307.2   0.101006810   1.02146   0.76228  -0.44191   0.49508
  31   32672.4    306.1   0.109037310   1.09868  -0.36677   0.60962  -0.76976
  32   32826.6    304.6   0.039671325   0.39786   0.20318   0.55408  -0.22265
  33   33143.3    301.7   0.174409102   1.73240   1.24817  -0.22185   0.35392
  34   33368.7    299.7   0.080453376   0.79374   0.07605  -0.87143   0.16901
  35   33548.9    298.1   0.042420471   0.41627   0.14786   0.24990  -0.57615
  36   33568.5    297.9   0.007338469   0.07197  -0.11768   0.23844   0.03557
  37   33713.8    296.6   0.023805230   0.23246  -0.11683   0.12718  -0.45014
  38   33776.3    296.1   0.029148860   0.28411  -0.45876  -0.24772   0.11082
  39   33946.4    294.6   0.373043073   3.61777   0.75661  -1.67800   0.47919
  40   34166.8    292.7   0.175085935   1.68703  -1.11075   0.67201   0.04068
  41   34364.1    291.0   0.494221395   4.73469   0.20058   1.11652  -1.85684
  42   34435.9    290.4   0.214888495   2.05436   0.81402   1.01920   0.59411
  43   34663.6    288.5   0.064419286   0.61181  -0.41933  -0.64724   0.13057
  44   34797.2    287.4   0.169645850   1.60500  -0.50596  -1.12188   0.30063
  45   34973.3    285.9   0.152329623   1.43392   0.97586   0.67581  -0.15775
  46   35077.8    285.1   0.004020320   0.03773  -0.06528   0.14454   0.11215
  47   35234.1    283.8   0.055697671   0.52041  -0.41507  -0.32730   0.49092
  48   35316.1    283.2   0.126209738   1.17651   0.81668   0.64570  -0.30434
  49   35746.7    279.7   0.033553621   0.30901   0.09840   0.45200  -0.30827
  50   35859.7    278.9   0.109583357   1.00604  -0.81601  -0.45985   0.35875
  51   36146.0    276.7   0.035712663   0.32526  -0.17923  -0.46800   0.27225
  52   36290.3    275.6   0.055537920   0.50382  -0.66957  -0.20288  -0.11973
  53   36393.4    274.8   0.008600187   0.07780  -0.07283  -0.01229   0.26896
  54   36481.9    274.1   0.011540736   0.10414  -0.30308  -0.10382  -0.03882
  55   36556.7    273.5   0.016278605   0.14660  -0.15243   0.22310  -0.27127
  56   36895.5    271.0   0.006632038   0.05918   0.18620  -0.10798  -0.11334
  57   36950.0    270.6   0.008620513   0.07681  -0.25159  -0.08611   0.07806
  58   37613.6    265.9   0.002167343   0.01897  -0.07379  -0.09121   0.07214
  59   37920.8    263.7   0.066840864   0.58028  -0.15189  -0.63535   0.39185
  60   38352.8    260.7   0.012047093   0.10341   0.12889  -0.20529   0.21131
  61   38689.4    258.5   0.020180454   0.17172   0.39332  -0.11486  -0.06183
  62   38814.0    257.6   0.013041796   0.11062  -0.29189   0.14949   0.05545
  63   38984.0    256.5   0.020036082   0.16920   0.38278  -0.08895  -0.12151
  64   39054.0    256.1   0.099658919   0.84009   0.86975   0.15132  -0.24644
  65   39253.6    254.8   0.049359933   0.41397   0.30233   0.56237   0.07941
  66   39322.2    254.3   0.019580506   0.16393  -0.31753  -0.23495   0.08892
  67   39441.6    253.5   0.006434328   0.05371  -0.20482   0.04404  -0.09908
  68   39576.0    252.7   0.019499795   0.16221  -0.09221   0.38358   0.08109
  69   39874.0    250.8   0.060404575   0.49872  -0.57463  -0.01410   0.41027
  70   40167.6    249.0   0.047551380   0.38973   0.48751  -0.26532  -0.28578
  71   40196.3    248.8   0.130600353   1.06963   0.99492   0.11451  -0.25815
  72   40295.2    248.2   0.089577754   0.73185   0.51830  -0.53170  -0.42487

FINAL SINGLE POINT ENERGY     -6402.842011671762

DIPOLE MOMENT
-------------
                                X             Y             Z
Electronic contribution:      3.77854      14.24182      -8.69902
Nuclear contribution   :     -5.58163     -17.09090      11.88769
                        -----------------------------------------
Total Dipole Moment    :     -1.80309      -2.84908       3.18867
                        -----------------------------------------
Magnitude (a.u.)       :      4.64069
Magnitude (Debye)      :     11.79570

Rotational constants in cm-1:     0.001173     0.000121     0.000113
Rotational constants in MHz :    35.158845     3.634391     3.382725

                             ****ORCA TERMINATED NORMALLY****
TOTAL RUN TIME: 0 days 0 hours 12 minutes 18 seconds 335 msec
