                         Program Version 4.2.0 -  RELEASE  -
|  1> # ORCA input file
|  2> # SCF done       -213.511695293845          0.000970527723
|  3> ! CAM-B3LYP def2-SVP def2/J RIJCOSX Grid4 TightSCF
|  4> %maxcore 5000
|  5> %tddft
|  6>     Mode sTDDFT
|  7>     Ethresh 5.0
|  8>     maxcore 5000
|  9> end
| 10>
| 11> %pal
| 12>   nprocs 6
| 13>   end
| 14> * xyz 0 1
| 15>    C       -4.72761        -0.51369         7.85988
| 16>    C       -4.68067        -1.24303         9.03871
| 17>    C       -4.36437        -2.59442         9.03472
| 18>    C       -4.07597        -3.25489         7.85006
| 19>    C       -4.11857        -2.53612         6.66714
| 20>    C       -4.45119        -1.16221         6.66636
| 21>    C       -4.44266        -0.67355         5.29311
| 22>    C       -4.59285         0.62904         4.90242
| 23>    C       -4.77192         1.70665         5.79688
| 24>    N       -4.91774         2.62695         6.46662
| 25>    C       -4.55248         1.09275         3.57003
| 26>    N       -4.53171         1.53894         2.51240
| 27>    C       -4.25654        -1.84057         4.43531
| 28>    C       -3.83232        -2.93726         5.29983
| 29>    C       -3.04028        -3.99162         4.93174
| 30>    C       -2.52830        -4.17202         3.62963
| 31>    N       -2.06306        -4.33316         2.59258
| 32>    C       -2.56914        -4.97167         5.82988
| 33>    N       -2.17459        -5.80686         6.51036
| 34>    C       -4.53703        -1.87717         3.09887
| 35>    C       -4.79480        -3.00602         2.28814
| 36>    C       -4.70761        -3.03673         0.90351
| 37>    C       -5.05555        -4.27586         0.37923
| 38>    C       -5.46516        -5.19218         1.37033
| 39>    S       -5.39822        -4.53402         2.93731
| 40>    C       -5.78454        -6.42064         0.74997
| 41>    C       -5.56516        -6.29424        -0.63389
| 42>    C       -5.10947        -4.93880        -0.91261
| 43>    C       -4.79518        -4.41337        -2.13016
| 44>    C       -4.88566        -5.17448        -3.31548
| 45>    N       -4.96336        -5.79641        -4.27529
| 46>    C       -4.36819        -3.07697        -2.28918
| 47>    N       -4.02777        -1.99173        -2.42820
| 48>    C       -5.81406        -7.47305        -1.33140
| 49>    C       -6.22366        -8.49480        -0.48984
| 50>    S       -6.30996        -7.98677         1.18853
| 51>    C       -6.51805        -9.83530        -0.84055
| 52>    C       -6.94766       -10.84899        -0.00160
| 53>    C       -7.08613       -12.05938        -0.67693
| 54>    C       -6.75780       -11.96600        -2.04174
| 55>    S       -6.29393       -10.38694        -2.49500
| 56>    C       -6.88416       -13.25099        -2.62532
| 57>    C       -7.29304       -14.15745        -1.63035
| 58>    C       -7.44862       -13.43577        -0.37698
| 59>    C       -7.84917       -13.94118         0.82403
| 60>    C       -8.17328       -15.30457         0.99116
| 61>    N       -8.43671       -16.41238         1.12186
| 62>    C       -7.96653       -13.13082         1.97353
| 63>    N       -8.06544       -12.47326         2.90724
| 64>    C       -7.40518       -15.46441        -2.09987
| 65>    C       -7.08375       -15.56029        -3.44260
| 66>    S       -6.64880       -14.00540        -4.13858
| 67>    C       -7.04109       -16.73298        -4.23688
| 68>    C       -6.71880       -16.82954        -5.58022
| 69>    C       -6.73100       -18.14999        -6.02287
| 70>    C       -7.06641       -19.06625        -5.00852
| 71>    S       -7.37531       -18.29873        -3.51426
| 72>    C       -7.02921       -20.37510        -5.54616
| 73>    C       -6.66716       -20.28398        -6.90770
| 74>    C       -6.48402       -18.88522        -7.25335
| 75>    C       -6.17548       -18.37927        -8.48159
| 76>    C       -5.98849       -19.22504        -9.59572
| 77>    N       -5.83611       -19.93057       -10.48662
| 78>    C       -6.02825       -16.99444        -8.70709
| 79>    N       -5.90286       -15.86824        -8.88016
| 80>    C       -6.60275       -21.51923        -7.53416
| 81>    C       -6.91819       -22.56236        -6.67224
| 82>    S       -7.26926       -21.98211        -5.04685
| 83>    C       -6.91301       -23.95422        -6.90712
| 84>    C       -6.97290       -24.60195        -8.10957
| 85>    C       -6.52755       -25.97783        -8.31808
| 86>    C       -6.31914       -26.93786        -7.36513
| 87>    C       -6.54208       -26.78309        -5.98028
| 88>    N       -6.70314       -26.72963        -4.84458
| 89>    C       -5.88442       -28.25096        -7.64879
| 90>    N       -5.53448       -29.33257        -7.80523
| 91>    C       -6.33672       -26.14307        -9.75282
| 92>    C       -6.80729       -24.98542       -10.41312
| 93>    C       -6.71410       -24.86714       -11.78982
| 94>    C       -6.15553       -25.91529       -12.50576
| 95>    C       -5.70533       -27.05936       -11.86171
| 96>    C       -5.78899       -27.18631       -10.48308
| 97>    C       -7.35599       -24.07863        -9.41746
| 98>    C       -8.27984       -23.10044        -9.66841
| 99>    C       -8.71219       -22.74024       -10.96331
|100>    N       -9.10731       -22.40593       -11.98695
|101>    C       -8.98867       -22.39788        -8.67297
|102>    N       -9.61832       -21.82018        -7.90618
|103>    H       -4.97989         0.53353         7.88360
|104>    H       -4.89790        -0.74865         9.97308
|105>    H       -4.34265        -3.14126         9.96480
|106>    H       -3.83850        -4.30644         7.85562
|107>    H       -4.64526        -0.93300         2.58026
|108>    H       -4.36529        -2.19356         0.33085
|109>    H       -5.70299        -7.60305        -2.39299
|110>    H       -7.13783       -10.69661         1.04572
|111>    H       -7.69651       -16.31401        -1.50866
|112>    H       -6.48511       -15.97333        -6.18743
|113>    H       -6.29712       -21.67048        -8.55352
|114>    H       -6.77776       -24.55959        -6.02076
|115>    H       -7.04967       -23.97768       -12.29780
|116>    H       -6.06862       -25.83639       -13.57845
|117>    H       -5.27651       -27.86360       -12.43965
|118>    H       -5.42557       -28.07852       -10.00059
|119> *
|120>
|121>                          ****END OF INPUT****

CARTESIAN COORDINATES (ANGSTROEM)
---------------------------------
  C     -4.727610   -0.513690    7.859880
  C     -4.680670   -1.243030    9.038710
  C     -4.364370   -2.594420    9.034720
  C     -4.075970   -3.254890    7.850060
  C     -4.118570   -2.536120    6.667140
  C     -4.451190   -1.162210    6.666360
  C     -4.442660   -0.673550    5.293110
  C     -4.592850    0.629040    4.902420
  C     -4.771920    1.706650    5.796880
  N     -4.917740    2.626950    6.466620
  C     -4.552480    1.092750    3.570030
  N     -4.531710    1.538940    2.512400
  C     -4.256540   -1.840570    4.435310
  C     -3.832320   -2.937260    5.299830
  C     -3.040280   -3.991620    4.931740
  C     -2.528300   -4.172020    3.629630
  N     -2.063060   -4.333160    2.592580
  C     -2.569140   -4.971670    5.829880
  N     -2.174590   -5.806860    6.510360
  C     -4.537030   -1.877170    3.098870
  C     -4.794800   -3.006020    2.288140
  C     -4.707610   -3.036730    0.903510
  C     -5.055550   -4.275860    0.379230
  C     -5.465160   -5.192180    1.370330
  S     -5.398220   -4.534020    2.937310
  C     -5.784540   -6.420640    0.749970
  C     -5.565160   -6.294240   -0.633890
  C     -5.109470   -4.938800   -0.912610
  C     -4.795180   -4.413370   -2.130160
  C     -4.885660   -5.174480   -3.315480
  N     -4.963360   -5.796410   -4.275290
  C     -4.368190   -3.076970   -2.289180
  N     -4.027770   -1.991730   -2.428200
  C     -5.814060   -7.473050   -1.331400
  C     -6.223660   -8.494800   -0.489840
  S     -6.309960   -7.986770    1.188530
  C     -6.518050   -9.835300   -0.840550
  C     -6.947660  -10.848990   -0.001600
  C     -7.086130  -12.059380   -0.676930
  C     -6.757800  -11.966000   -2.041740
  S     -6.293930  -10.386940   -2.495000
  C     -6.884160  -13.250990   -2.625320
  C     -7.293040  -14.157450   -1.630350
  C     -7.448620  -13.435770   -0.376980
  C     -7.849170  -13.941180    0.824030
  C     -8.173280  -15.304570    0.991160
  N     -8.436710  -16.412380    1.121860
  C     -7.966530  -13.130820    1.973530
  N     -8.065440  -12.473260    2.907240
  C     -7.405180  -15.464410   -2.099870
  C     -7.083750  -15.560290   -3.442600
  S     -6.648800  -14.005400   -4.138580
  C     -7.041090  -16.732980   -4.236880
  C     -6.718800  -16.829540   -5.580220
  C     -6.731000  -18.149990   -6.022870
  C     -7.066410  -19.066250   -5.008520
  S     -7.375310  -18.298730   -3.514260
  C     -7.029210  -20.375100   -5.546160
  C     -6.667160  -20.283980   -6.907700
  C     -6.484020  -18.885220   -7.253350
  C     -6.175480  -18.379270   -8.481590
  C     -5.988490  -19.225040   -9.595720
  N     -5.836110  -19.930570  -10.486620
  C     -6.028250  -16.994440   -8.707090
  N     -5.902860  -15.868240   -8.880160
  C     -6.602750  -21.519230   -7.534160
  C     -6.918190  -22.562360   -6.672240
  S     -7.269260  -21.982110   -5.046850
  C     -6.913010  -23.954220   -6.907120
  C     -6.972900  -24.601950   -8.109570
  C     -6.527550  -25.977830   -8.318080
  C     -6.319140  -26.937860   -7.365130
  C     -6.542080  -26.783090   -5.980280
  N     -6.703140  -26.729630   -4.844580
  C     -5.884420  -28.250960   -7.648790
  N     -5.534480  -29.332570   -7.805230
  C     -6.336720  -26.143070   -9.752820
  C     -6.807290  -24.985420  -10.413120
  C     -6.714100  -24.867140  -11.789820
  C     -6.155530  -25.915290  -12.505760
  C     -5.705330  -27.059360  -11.861710
  C     -5.788990  -27.186310  -10.483080
  C     -7.355990  -24.078630   -9.417460
  C     -8.279840  -23.100440   -9.668410
  C     -8.712190  -22.740240  -10.963310
  N     -9.107310  -22.405930  -11.986950
  C     -8.988670  -22.397880   -8.672970
  N     -9.618320  -21.820180   -7.906180
  H     -4.979890    0.533530    7.883600
  H     -4.897900   -0.748650    9.973080
  H     -4.342650   -3.141260    9.964800
  H     -3.838500   -4.306440    7.855620
  H     -4.645260   -0.933000    2.580260
  H     -4.365290   -2.193560    0.330850
  H     -5.702990   -7.603050   -2.392990
  H     -7.137830  -10.696610    1.045720
  H     -7.696510  -16.314010   -1.508660
  H     -6.485110  -15.973330   -6.187430
  H     -6.297120  -21.670480   -8.553520
  H     -6.777760  -24.559590   -6.020760
  H     -7.049670  -23.977680  -12.297800
  H     -6.068620  -25.836390  -13.578450
  H     -5.276510  -27.863600  -12.439650
  H     -5.425570  -28.078520  -10.000590

 Total Charge           Charge          ....    0
 Multiplicity           Mult            ....    1
 Number of Electrons    NEL             ....  618
 Basis Dimension        Dim             .... 1336

ORBITAL ENERGIES
----------------

  NO   OCC          E(Eh)            E(eV)
   0   2.0000     -89.009665     -2422.0761
   1   2.0000     -89.009433     -2422.0698
   2   2.0000     -89.009345     -2422.0674
   3   2.0000     -89.009271     -2422.0654
   4   2.0000     -89.008772     -2422.0518
   5   2.0000     -89.007995     -2422.0307
   6   2.0000     -14.446071      -393.0976
   7   2.0000     -14.445890      -393.0927
   8   2.0000     -14.445590      -393.0845
   9   2.0000     -14.444727      -393.0610
  10   2.0000     -14.443952      -393.0399
  11   2.0000     -14.441537      -392.9742
  12   2.0000     -14.430080      -392.6624
  13   2.0000     -14.430070      -392.6622
  14   2.0000     -14.429896      -392.6574
  15   2.0000     -14.429890      -392.6573
  16   2.0000     -14.429563      -392.6484
  17   2.0000     -14.425926      -392.5494
  18   2.0000     -14.425091      -392.5267
  19   2.0000     -14.424924      -392.5221
  20   2.0000     -10.382089      -282.5110
  21   2.0000     -10.381134      -282.4850
  22   2.0000     -10.380435      -282.4660
  23   2.0000     -10.368570      -282.1431
  24   2.0000     -10.368044      -282.1288
  25   2.0000     -10.366718      -282.0927
  26   2.0000     -10.361426      -281.9487
  27   2.0000     -10.358643      -281.8730
  28   2.0000     -10.358486      -281.8687
  29   2.0000     -10.357873      -281.8521
  30   2.0000     -10.357189      -281.8334
  31   2.0000     -10.357160      -281.8326
  32   2.0000     -10.356848      -281.8241
  33   2.0000     -10.356409      -281.8122
  34   2.0000     -10.355652      -281.7916
  35   2.0000     -10.355032      -281.7747
  36   2.0000     -10.352343      -281.7016
  37   2.0000     -10.351485      -281.6782
  38   2.0000     -10.351343      -281.6744
  39   2.0000     -10.350993      -281.6648
  40   2.0000     -10.349465      -281.6233
  41   2.0000     -10.348196      -281.5887
  42   2.0000     -10.348010      -281.5837
  43   2.0000     -10.347992      -281.5832
  44   2.0000     -10.345970      -281.5282
  45   2.0000     -10.345771      -281.5227
  46   2.0000     -10.345555      -281.5169
  47   2.0000     -10.344645      -281.4921
  48   2.0000     -10.343783      -281.4686
  49   2.0000     -10.341164      -281.3974
  50   2.0000     -10.341069      -281.3948
  51   2.0000     -10.340722      -281.3853
  52   2.0000     -10.340550      -281.3807
  53   2.0000     -10.340549      -281.3807
  54   2.0000     -10.332124      -281.1514
  55   2.0000     -10.331968      -281.1472
  56   2.0000     -10.331509      -281.1347
  57   2.0000     -10.331194      -281.1261
  58   2.0000     -10.331092      -281.1233
  59   2.0000     -10.328915      -281.0641
  60   2.0000     -10.328634      -281.0564
  61   2.0000     -10.328329      -281.0481
  62   2.0000     -10.327580      -281.0277
  63   2.0000     -10.326752      -281.0052
  64   2.0000     -10.326441      -280.9967
  65   2.0000     -10.326282      -280.9924
  66   2.0000     -10.325702      -280.9766
  67   2.0000     -10.325586      -280.9735
  68   2.0000     -10.322199      -280.8813
  69   2.0000     -10.322174      -280.8806
  70   2.0000     -10.321705      -280.8679
  71   2.0000     -10.321259      -280.8557
  72   2.0000     -10.320999      -280.8486
  73   2.0000     -10.320887      -280.8456
  74   2.0000     -10.320688      -280.8402
  75   2.0000     -10.320683      -280.8401
  76   2.0000     -10.320631      -280.8387
  77   2.0000     -10.319977      -280.8209
  78   2.0000     -10.318667      -280.7852
  79   2.0000     -10.318217      -280.7730
  80   2.0000     -10.308815      -280.5171
  81   2.0000     -10.308022      -280.4955
  82   2.0000     -10.307221      -280.4737
  83   2.0000     -10.306265      -280.4477
  84   2.0000     -10.306060      -280.4421
  85   2.0000     -10.305780      -280.4345
  86   2.0000     -10.304602      -280.4025
  87   2.0000     -10.303958      -280.3849
  88   2.0000      -8.103979      -220.5205
  89   2.0000      -8.103820      -220.5162
  90   2.0000      -8.103693      -220.5127
  91   2.0000      -8.103667      -220.5120
  92   2.0000      -8.103304      -220.5021
  93   2.0000      -8.102178      -220.4715
  94   2.0000      -6.073258      -165.2618
  95   2.0000      -6.073130      -165.2583
  96   2.0000      -6.072992      -165.2545
  97   2.0000      -6.072968      -165.2539
  98   2.0000      -6.072453      -165.2398
  99   2.0000      -6.071488      -165.2136
 100   2.0000      -6.069098      -165.1486
 101   2.0000      -6.068968      -165.1450
 102   2.0000      -6.068810      -165.1407
 103   2.0000      -6.068794      -165.1403
 104   2.0000      -6.068277      -165.1262
 105   2.0000      -6.067231      -165.0977
 106   2.0000      -6.066279      -165.0718
 107   2.0000      -6.066048      -165.0656
 108   2.0000      -6.065981      -165.0637
 109   2.0000      -6.065913      -165.0619
 110   2.0000      -6.065840      -165.0599
 111   2.0000      -6.064493      -165.0232
 112   2.0000      -1.065632       -28.9973
 113   2.0000      -1.063967       -28.9520
 114   2.0000      -1.061352       -28.8808
 115   2.0000      -1.045631       -28.4531
 116   2.0000      -1.043694       -28.4004
 117   2.0000      -1.038464       -28.2580
 118   2.0000      -1.037154       -28.2224
 119   2.0000      -1.035326       -28.1726
 120   2.0000      -1.027790       -27.9676
 121   2.0000      -1.026094       -27.9214
 122   2.0000      -1.024857       -27.8878
 123   2.0000      -1.023280       -27.8449
 124   2.0000      -1.022641       -27.8275
 125   2.0000      -1.020139       -27.7594
 126   2.0000      -1.017711       -27.6933
 127   2.0000      -1.015596       -27.6358
 128   2.0000      -1.014582       -27.6082
 129   2.0000      -1.009470       -27.4691
 130   2.0000      -1.006436       -27.3865
 131   2.0000      -1.005761       -27.3681
 132   2.0000      -1.005593       -27.3636
 133   2.0000      -1.004039       -27.3213
 134   2.0000      -0.983166       -26.7533
 135   2.0000      -0.976099       -26.5610
 136   2.0000      -0.970901       -26.4196
 137   2.0000      -0.965505       -26.2727
 138   2.0000      -0.964417       -26.2431
 139   2.0000      -0.949007       -25.8238
 140   2.0000      -0.947298       -25.7773
 141   2.0000      -0.940219       -25.5847
 142   2.0000      -0.934492       -25.4288
 143   2.0000      -0.923721       -25.1357
 144   2.0000      -0.905810       -24.6483
 145   2.0000      -0.904240       -24.6056
 146   2.0000      -0.898083       -24.4381
 147   2.0000      -0.897864       -24.4321
 148   2.0000      -0.889407       -24.2020
 149   2.0000      -0.889104       -24.1938
 150   2.0000      -0.882717       -24.0199
 151   2.0000      -0.879954       -23.9448
 152   2.0000      -0.874394       -23.7935
 153   2.0000      -0.873555       -23.7706
 154   2.0000      -0.871631       -23.7183
 155   2.0000      -0.868464       -23.6321
 156   2.0000      -0.855523       -23.2800
 157   2.0000      -0.835810       -22.7436
 158   2.0000      -0.821121       -22.3438
 159   2.0000      -0.807309       -21.9680
 160   2.0000      -0.799967       -21.7682
 161   2.0000      -0.798458       -21.7272
 162   2.0000      -0.797700       -21.7065
 163   2.0000      -0.792877       -21.5753
 164   2.0000      -0.787613       -21.4320
 165   2.0000      -0.775931       -21.1142
 166   2.0000      -0.756662       -20.5898
 167   2.0000      -0.737125       -20.0582
 168   2.0000      -0.727410       -19.7938
 169   2.0000      -0.725287       -19.7361
 170   2.0000      -0.723905       -19.6984
 171   2.0000      -0.721511       -19.6333
 172   2.0000      -0.720575       -19.6078
 173   2.0000      -0.718311       -19.5462
 174   2.0000      -0.714566       -19.4443
 175   2.0000      -0.707777       -19.2596
 176   2.0000      -0.705612       -19.2007
 177   2.0000      -0.699913       -19.0456
 178   2.0000      -0.695993       -18.9389
 179   2.0000      -0.692842       -18.8532
 180   2.0000      -0.679040       -18.4776
 181   2.0000      -0.675310       -18.3761
 182   2.0000      -0.674160       -18.3448
 183   2.0000      -0.672729       -18.3059
 184   2.0000      -0.665667       -18.1137
 185   2.0000      -0.663138       -18.0449
 186   2.0000      -0.653056       -17.7705
 187   2.0000      -0.651017       -17.7151
 188   2.0000      -0.646599       -17.5948
 189   2.0000      -0.644476       -17.5371
 190   2.0000      -0.638869       -17.3845
 191   2.0000      -0.636940       -17.3320
 192   2.0000      -0.635841       -17.3021
 193   2.0000      -0.633043       -17.2260
 194   2.0000      -0.627848       -17.0846
 195   2.0000      -0.621942       -16.9239
 196   2.0000      -0.603157       -16.4127
 197   2.0000      -0.597409       -16.2563
 198   2.0000      -0.594834       -16.1863
 199   2.0000      -0.593087       -16.1387
 200   2.0000      -0.592488       -16.1224
 201   2.0000      -0.585852       -15.9418
 202   2.0000      -0.578678       -15.7466
 203   2.0000      -0.568351       -15.4656
 204   2.0000      -0.565685       -15.3931
 205   2.0000      -0.564890       -15.3714
 206   2.0000      -0.562967       -15.3191
 207   2.0000      -0.560603       -15.2548
 208   2.0000      -0.554835       -15.0978
 209   2.0000      -0.553750       -15.0683
 210   2.0000      -0.549834       -14.9617
 211   2.0000      -0.548205       -14.9174
 212   2.0000      -0.545180       -14.8351
 213   2.0000      -0.543178       -14.7806
 214   2.0000      -0.541714       -14.7408
 215   2.0000      -0.536931       -14.6106
 216   2.0000      -0.534428       -14.5425
 217   2.0000      -0.527102       -14.3432
 218   2.0000      -0.525819       -14.3083
 219   2.0000      -0.525147       -14.2900
 220   2.0000      -0.524478       -14.2718
 221   2.0000      -0.522797       -14.2260
 222   2.0000      -0.522000       -14.2043
 223   2.0000      -0.519892       -14.1470
 224   2.0000      -0.518284       -14.1032
 225   2.0000      -0.516452       -14.0534
 226   2.0000      -0.514877       -14.0105
 227   2.0000      -0.513040       -13.9605
 228   2.0000      -0.510013       -13.8782
 229   2.0000      -0.509555       -13.8657
 230   2.0000      -0.506342       -13.7783
 231   2.0000      -0.504700       -13.7336
 232   2.0000      -0.502943       -13.6858
 233   2.0000      -0.499154       -13.5827
 234   2.0000      -0.497303       -13.5323
 235   2.0000      -0.493939       -13.4408
 236   2.0000      -0.490747       -13.3539
 237   2.0000      -0.487474       -13.2648
 238   2.0000      -0.485708       -13.2168
 239   2.0000      -0.476887       -12.9768
 240   2.0000      -0.476342       -12.9619
 241   2.0000      -0.475379       -12.9357
 242   2.0000      -0.473386       -12.8815
 243   2.0000      -0.473304       -12.8792
 244   2.0000      -0.473099       -12.8737
 245   2.0000      -0.472933       -12.8692
 246   2.0000      -0.470642       -12.8068
 247   2.0000      -0.469320       -12.7708
 248   2.0000      -0.468534       -12.7495
 249   2.0000      -0.465471       -12.6661
 250   2.0000      -0.464588       -12.6421
 251   2.0000      -0.462889       -12.5958
 252   2.0000      -0.461766       -12.5653
 253   2.0000      -0.461291       -12.5524
 254   2.0000      -0.460301       -12.5254
 255   2.0000      -0.459683       -12.5086
 256   2.0000      -0.459260       -12.4971
 257   2.0000      -0.457962       -12.4618
 258   2.0000      -0.457557       -12.4508
 259   2.0000      -0.456357       -12.4181
 260   2.0000      -0.455988       -12.4081
 261   2.0000      -0.455850       -12.4043
 262   2.0000      -0.454982       -12.3807
 263   2.0000      -0.453960       -12.3529
 264   2.0000      -0.453704       -12.3459
 265   2.0000      -0.453144       -12.3307
 266   2.0000      -0.452476       -12.3125
 267   2.0000      -0.452404       -12.3105
 268   2.0000      -0.452279       -12.3071
 269   2.0000      -0.451214       -12.2782
 270   2.0000      -0.450156       -12.2494
 271   2.0000      -0.444908       -12.1065
 272   2.0000      -0.442266       -12.0347
 273   2.0000      -0.441046       -12.0015
 274   2.0000      -0.440695       -11.9919
 275   2.0000      -0.440615       -11.9897
 276   2.0000      -0.439002       -11.9458
 277   2.0000      -0.438672       -11.9369
 278   2.0000      -0.437728       -11.9112
 279   2.0000      -0.437333       -11.9004
 280   2.0000      -0.435337       -11.8461
 281   2.0000      -0.434077       -11.8118
 282   2.0000      -0.429452       -11.6860
 283   2.0000      -0.423915       -11.5353
 284   2.0000      -0.423193       -11.5157
 285   2.0000      -0.421286       -11.4638
 286   2.0000      -0.419396       -11.4123
 287   2.0000      -0.418505       -11.3881
 288   2.0000      -0.417588       -11.3631
 289   2.0000      -0.408536       -11.1168
 290   2.0000      -0.400200       -10.8900
 291   2.0000      -0.393441       -10.7061
 292   2.0000      -0.391608       -10.6562
 293   2.0000      -0.386940       -10.5292
 294   2.0000      -0.370387       -10.0788
 295   2.0000      -0.368721       -10.0334
 296   2.0000      -0.366753        -9.9799
 297   2.0000      -0.363460        -9.8903
 298   2.0000      -0.349649        -9.5144
 299   2.0000      -0.342554        -9.3214
 300   2.0000      -0.340131        -9.2554
 301   2.0000      -0.338922        -9.2225
 302   2.0000      -0.338531        -9.2119
 303   2.0000      -0.336861        -9.1665
 304   2.0000      -0.327694        -8.9170
 305   2.0000      -0.317209        -8.6317
 306   2.0000      -0.302559        -8.2331
 307   2.0000      -0.279551        -7.6070
 308   2.0000      -0.255601        -6.9553
 309   0.0000      -0.132019        -3.5924
 310   0.0000      -0.124604        -3.3907
 311   0.0000      -0.119040        -3.2392
 312   0.0000      -0.102145        -2.7795
 313   0.0000      -0.100712        -2.7405

MULLIKEN ATOMIC CHARGES
-----------------------
   0 C :   -0.032241
   1 C :    0.047005
   2 C :    0.048919
   3 C :   -0.030126
   4 C :    0.005999
   5 C :    0.012687
   6 C :    0.294127
   7 C :   -0.337855
   8 C :   -0.188353
   9 N :    0.164911
  10 C :   -0.183998
  11 N :    0.160387
  12 C :   -0.068832
  13 C :    0.206778
  14 C :   -0.324481
  15 C :   -0.192719
  16 N :    0.179010
  17 C :   -0.182704
  18 N :    0.167879
  19 C :    0.044147
  20 C :   -0.125744
  21 C :    0.015686
  22 C :    0.031666
  23 C :   -0.076570
  24 S :    0.206790
  25 C :   -0.103722
  26 C :    0.030627
  27 C :    0.296475
  28 C :   -0.284895
  29 C :   -0.187703
  30 N :    0.175860
  31 C :   -0.192475
  32 N :    0.193658
  33 C :   -0.070628
  34 C :   -0.040951
  35 S :    0.208196
  36 C :   -0.054920
  37 C :   -0.061393
  38 C :    0.017924
  39 C :   -0.096809
  40 S :    0.208914
  41 C :   -0.097398
  42 C :    0.017907
  43 C :    0.296773
  44 C :   -0.288375
  45 C :   -0.189259
  46 N :    0.180934
  47 C :   -0.187174
  48 N :    0.177666
  49 C :   -0.059413
  50 C :   -0.054707
  51 S :    0.207558
  52 C :   -0.044756
  53 C :   -0.064908
  54 C :    0.027236
  55 C :   -0.106968
  56 S :    0.210395
  57 C :   -0.063125
  58 C :   -0.009382
  59 C :    0.302155
  60 C :   -0.281093
  61 C :   -0.183694
  62 N :    0.173883
  63 C :   -0.188716
  64 N :    0.178673
  65 C :    0.004448
  66 C :   -0.146157
  67 S :    0.237198
  68 C :    0.089312
  69 C :   -0.071624
  70 C :    0.293591
  71 C :   -0.343185
  72 C :   -0.179858
  73 N :    0.154734
  74 C :   -0.187194
  75 N :    0.163570
  76 C :    0.014025
  77 C :   -0.000042
  78 C :   -0.027002
  79 C :    0.046193
  80 C :    0.048679
  81 C :   -0.033403
  82 C :    0.227912
  83 C :   -0.337701
  84 C :   -0.178641
  85 N :    0.175646
  86 C :   -0.196207
  87 N :    0.179263
  88 H :    0.008512
  89 H :    0.006194
  90 H :    0.007117
  91 H :    0.008572
  92 H :    0.030224
  93 H :    0.027925
  94 H :    0.016327
  95 H :    0.015824
  96 H :    0.015420
  97 H :    0.015417
  98 H :    0.030041
  99 H :    0.013835
 100 H :    0.013958
 101 H :    0.009059
 102 H :    0.006399
 103 H :    0.006882
Sum of atomic charges:   -0.0000000

LOEWDIN ATOMIC CHARGES
----------------------
   0 C :    0.006228
   1 C :    0.003889
   2 C :    0.006068
   3 C :    0.001873
   4 C :   -0.011412
   5 C :   -0.012683
   6 C :    0.077563
   7 C :   -0.130509
   8 C :   -0.019434
   9 N :   -0.042586
  10 C :   -0.022559
  11 N :   -0.038994
  12 C :   -0.065305
  13 C :    0.058560
  14 C :   -0.137084
  15 C :   -0.035050
  16 N :   -0.041821
  17 C :   -0.021328
  18 N :   -0.040749
  19 C :    0.043117
  20 C :   -0.181573
  21 C :    0.024845
  22 C :   -0.072314
  23 C :   -0.145438
  24 S :    0.505595
  25 C :   -0.190874
  26 C :   -0.046974
  27 C :    0.077711
  28 C :   -0.089816
  29 C :   -0.015262
  30 N :   -0.026923
  31 C :   -0.019526
  32 N :   -0.016505
  33 C :   -0.039801
  34 C :   -0.165857
  35 S :    0.493033
  36 C :   -0.182182
  37 C :   -0.031572
  38 C :   -0.065952
  39 C :   -0.176460
  40 S :    0.494061
  41 C :   -0.177447
  42 C :   -0.065137
  43 C :    0.080173
  44 C :   -0.095382
  45 C :   -0.016751
  46 N :   -0.026070
  47 C :   -0.016453
  48 N :   -0.027049
  49 C :   -0.032602
  50 C :   -0.180885
  51 S :    0.492999
  52 C :   -0.168629
  53 C :   -0.038831
  54 C :   -0.052081
  55 C :   -0.185564
  56 S :    0.495366
  57 C :   -0.154041
  58 C :   -0.066933
  59 C :    0.080766
  60 C :   -0.094285
  61 C :   -0.013105
  62 N :   -0.028240
  63 C :   -0.016837
  64 N :   -0.025891
  65 C :    0.008604
  66 C :   -0.182342
  67 S :    0.517113
  68 C :    0.034687
  69 C :   -0.055611
  70 C :    0.078769
  71 C :   -0.133296
  72 C :   -0.021522
  73 N :   -0.044687
  74 C :   -0.019540
  75 N :   -0.043538
  76 C :   -0.013806
  77 C :   -0.010235
  78 C :    0.005671
  79 C :    0.006981
  80 C :    0.003718
  81 C :    0.005731
  82 C :    0.065862
  83 C :   -0.128045
  84 C :   -0.020515
  85 N :   -0.036795
  86 C :   -0.017466
  87 N :   -0.041393
  88 H :    0.042358
  89 H :    0.038702
  90 H :    0.038698
  91 H :    0.041460
  92 H :    0.054974
  93 H :    0.051050
  94 H :    0.037408
  95 H :    0.037170
  96 H :    0.037199
  97 H :    0.037359
  98 H :    0.042913
  99 H :    0.045799
 100 H :    0.043658
 101 H :    0.039280
 102 H :    0.038645
 103 H :    0.041885

  Mayer bond orders larger than 0.100000
B(  0-C ,  1-C ) :   1.3719 B(  0-C ,  5-C ) :   1.3831 B(  0-C , 88-H ) :   0.9832
B(  1-C ,  2-C ) :   1.3748 B(  1-C , 89-H ) :   0.9867 B(  2-C ,  3-C ) :   1.3661
B(  2-C , 90-H ) :   0.9874 B(  3-C ,  4-C ) :   1.3814 B(  3-C , 91-H ) :   0.9869
B(  4-C ,  5-C ) :   1.3099 B(  4-C , 13-C ) :   1.0137 B(  5-C ,  6-C ) :   1.0030
B(  6-C ,  7-C ) :   1.6477 B(  6-C , 12-C ) :   1.0547 B(  7-C ,  8-C ) :   1.1446
B(  7-C , 10-C ) :   1.1347 B(  8-C ,  9-N ) :   2.9787 B( 10-C , 11-N ) :   2.9677
B( 12-C , 13-C ) :   1.0169 B( 12-C , 19-C ) :   1.5872 B( 13-C , 14-C ) :   1.6534
B( 14-C , 15-C ) :   1.1482 B( 14-C , 17-C ) :   1.1427 B( 15-C , 16-N ) :   3.0146
B( 17-C , 18-N ) :   2.9976 B( 19-C , 20-C ) :   1.1774 B( 19-C , 92-H ) :   0.9340
B( 20-C , 21-C ) :   1.3867 B( 20-C , 24-S ) :   1.0799 B( 21-C , 22-C ) :   1.3076
B( 21-C , 93-H ) :   1.0001 B( 22-C , 23-C ) :   1.3911 B( 22-C , 27-C ) :   0.9939
B( 23-C , 24-S ) :   1.1537 B( 23-C , 25-C ) :   1.2167 B( 25-C , 26-C ) :   1.4319
B( 25-C , 35-S ) :   1.1056 B( 26-C , 27-C ) :   0.9906 B( 26-C , 33-C ) :   1.3162
B( 27-C , 28-C ) :   1.7239 B( 28-C , 29-C ) :   1.1354 B( 28-C , 31-C ) :   1.1324
B( 29-C , 30-N ) :   2.9877 B( 31-C , 32-N ) :   2.9972 B( 33-C , 34-C ) :   1.4395
B( 33-C , 94-H ) :   0.9870 B( 34-C , 35-S ) :   1.1241 B( 34-C , 36-C ) :   1.1751
B( 36-C , 37-C ) :   1.4502 B( 36-C , 40-S ) :   1.1076 B( 37-C , 38-C ) :   1.3113
B( 37-C , 95-H ) :   0.9855 B( 38-C , 39-C ) :   1.4381 B( 38-C , 43-C ) :   0.9922
B( 39-C , 40-S ) :   1.1268 B( 39-C , 41-C ) :   1.1908 B( 41-C , 42-C ) :   1.4404
B( 41-C , 51-S ) :   1.1244 B( 42-C , 43-C ) :   0.9946 B( 42-C , 49-C ) :   1.3095
B( 43-C , 44-C ) :   1.7208 B( 44-C , 45-C ) :   1.1330 B( 44-C , 47-C ) :   1.1328
B( 45-C , 46-N ) :   2.9923 B( 47-C , 48-N ) :   2.9909 B( 49-C , 50-C ) :   1.4516
B( 49-C , 96-H ) :   0.9852 B( 50-C , 51-S ) :   1.1094 B( 50-C , 52-C ) :   1.1740
B( 52-C , 53-C ) :   1.4450 B( 52-C , 56-S ) :   1.1215 B( 53-C , 54-C ) :   1.3127
B( 53-C , 97-H ) :   0.9863 B( 54-C , 55-C ) :   1.4375 B( 54-C , 59-C ) :   0.9913
B( 55-C , 56-S ) :   1.1125 B( 55-C , 57-C ) :   1.2029 B( 57-C , 58-C ) :   1.3952
B( 57-C , 67-S ) :   1.1628 B( 58-C , 59-C ) :   0.9980 B( 58-C , 65-C ) :   1.3720
B( 59-C , 60-C ) :   1.7218 B( 60-C , 61-C ) :   1.1348 B( 60-C , 63-C ) :   1.1314
B( 61-C , 62-N ) :   2.9796 B( 63-C , 64-N ) :   2.9919 B( 65-C , 66-C ) :   1.3806
B( 65-C , 98-H ) :   0.9808 B( 66-C , 67-S ) :   1.0961 B( 66-C , 68-C ) :   1.1785
B( 68-C , 69-C ) :   1.6286 B( 68-C , 99-H ) :   0.9115 B( 69-C , 70-C ) :   1.0605
B( 69-C , 82-C ) :   1.0149 B( 70-C , 71-C ) :   1.6405 B( 70-C , 76-C ) :   0.9977
B( 71-C , 72-C ) :   1.1338 B( 71-C , 74-C ) :   1.1463 B( 72-C , 73-N ) :   2.9671
B( 74-C , 75-N ) :   2.9787 B( 76-C , 77-C ) :   1.3089 B( 76-C , 81-C ) :   1.3828
B( 77-C , 78-C ) :   1.3833 B( 77-C , 82-C ) :   1.0083 B( 78-C , 79-C ) :   1.3669
B( 78-C ,100-H ) :   0.9866 B( 79-C , 80-C ) :   1.3746 B( 79-C ,101-H ) :   0.9873
B( 80-C , 81-C ) :   1.3724 B( 80-C ,102-H ) :   0.9858 B( 81-C ,103-H ) :   0.9831
B( 82-C , 83-C ) :   1.6596 B( 83-C , 84-C ) :   1.1378 B( 83-C , 86-C ) :   1.1622
B( 84-C , 85-N ) :   3.0000 B( 86-C , 87-N ) :   3.0048

-----------------------------------------------------------------------------
         ABSORPTION SPECTRUM VIA TRANSITION ELECTRIC DIPOLE MOMENTS
-----------------------------------------------------------------------------
State   Energy  Wavelength   fosc         T2         TX        TY        TZ
        (cm-1)    (nm)                  (au**2)     (au)      (au)      (au)
-----------------------------------------------------------------------------
   0   11079.3    902.6   0.859645765  25.54362  -0.60211  -4.40605  -2.40162
   1   12532.8    797.9   0.130403313   3.42544   0.27919   1.56284   0.95133
   2   12662.8    789.7   0.007937431   0.20636   0.43000  -0.14008   0.04285
   3   18423.3    542.8   1.350084438  24.12512   0.62127   4.09042   2.64718
   4   19198.3    520.9   0.166442756   2.85415   0.76779   0.68776   1.33852
   5   19821.0    504.5   0.016261059   0.27008   0.00445  -0.43044  -0.29118
   6   21109.3    473.7   0.043839645   0.68370  -0.42436   0.64197  -0.30248
   7   22141.5    451.6   0.046020601   0.68426   0.10060   0.74609   0.34277
   8   22336.3    447.7   0.294474249   4.34023   0.27500  -2.02439  -0.40799
   9   22568.9    443.1   0.138641981   2.02237   0.34689  -1.36527   0.19509
  10   25088.6    398.6   0.013825592   0.18142  -0.20545  -0.03148   0.37177
  11   25589.6    390.8   0.033514963   0.43117   0.16661   0.53165   0.34750
  12   26164.5    382.2   0.348424470   4.38402  -0.29275   1.79804   1.03217
  13   26827.1    372.8   0.003160468   0.03878  -0.04380  -0.18070  -0.06491
  14   27102.7    369.0   0.018210412   0.22120  -0.12238  -0.17385  -0.41952
  15   28283.4    353.6   0.306233717   3.56449  -0.28573  -1.81534  -0.43287
  16   28918.9    345.8   0.061386455   0.69882   0.26037  -0.37510   0.70023
  17   29007.6    344.7   0.122154619   1.38635   0.35845   1.09230   0.25446
  18   29536.6    338.6   0.367746777   4.09887   0.29738  -1.54617  -1.27271
  19   29768.4    335.9   0.362773644   4.01195   0.50408  -0.39125  -1.89863
  20   29838.8    335.1   0.096102876   1.06031  -0.31573   0.75536  -0.62454
  21   30186.4    331.3   0.077583041   0.84612   0.07019  -0.80669   0.43639
  22   30539.5    327.4   0.030766397   0.33166   0.37140   0.35607  -0.25871
  23   30572.0    327.1   0.125460489   1.35101  -0.08513   0.91169  -0.71595
  24   31138.6    321.1   0.010470772   0.11070  -0.06487  -0.15675  -0.28622
  25   31318.6    319.3   0.980405401  10.30573   0.96738   1.08781  -2.86122
  26   31415.9    318.3   0.050476325   0.52895  -0.14181   0.67180  -0.23984
  27   31632.0    316.1   0.017430855   0.18141  -0.25026   0.17311   0.29802
  28   32553.7    307.2   0.200827576   2.03095   0.57756   0.95397  -0.88731
  29   32607.4    306.7   0.079353194   0.80117  -0.23741   0.66510   0.54995
  30   32759.3    305.3   0.057710969   0.57996   0.07536  -0.72590  -0.21760
  31   33006.8    303.0   0.778023165   7.76006  -0.78311   2.66687  -0.18601
  32   33160.2    301.6   0.248953760   2.47160  -0.24625  -0.32194  -1.51898
  33   33316.6    300.2   0.336087490   3.32099  -0.93428   1.18350  -1.02344
  34   33487.8    298.6   0.071841519   0.70626  -0.05661   0.76375  -0.34604
  35   33616.9    297.5   0.017294576   0.16937   0.02412   0.00524   0.41080
  36   33993.9    294.2   0.205426775   1.98945   0.30531   0.99642  -0.95046
  37   34122.8    293.1   0.068726618   0.66306   0.44664   0.23258  -0.63991
  38   34455.4    290.2   0.194161768   1.85516   0.00584   1.15407  -0.72336
  39   34567.5    289.3   0.179336550   1.70795  -0.00481   0.88366   0.96285
  40   34723.7    288.0   0.093589909   0.88732  -0.51708   0.30452   0.72609
  41   34939.2    286.2   0.026503448   0.24973  -0.09562   0.48204  -0.09065
  42   35122.0    284.7   0.120593994   1.13037  -0.51773   0.66800   0.64506
  43   35273.6    283.5   0.444023323   4.14412   0.29472  -0.19263  -2.00503
  44   35457.1    282.0   0.242478304   2.25136  -0.43167  -0.29588   1.40623
  45   35807.7    279.3   0.037766928   0.34722   0.08787   0.46458  -0.35167
  46   35890.1    278.6   0.008105990   0.07435   0.10212  -0.18341   0.17403
  47   36101.7    277.0   0.263244206   2.40053   0.37924   0.13442  -1.49621
  48   36287.9    275.6   0.042234562   0.38316  -0.13974   0.47442  -0.37223
  49   36555.6    273.6   0.011222676   0.10107   0.05372  -0.12347   0.28799
  50   36868.3    271.2   0.024745047   0.22096   0.00584   0.17663  -0.43558
  51   36986.9    270.4   0.003768449   0.03354  -0.05761   0.11898  -0.12675
  52   37202.6    268.8   0.022462238   0.19877  -0.25379   0.36028   0.06753
  53   37737.8    265.0   0.013001058   0.11342  -0.02862  -0.29137   0.16643
  54   38341.5    260.8   0.007015665   0.06024  -0.04851  -0.04574  -0.23621
  55   38504.6    259.7   0.017738546   0.15166  -0.11526   0.37179   0.01240
  56   38542.3    259.5   0.004043915   0.03454  -0.17879  -0.03114  -0.04005
  57   38785.2    257.8   0.004489365   0.03811   0.05835  -0.13346  -0.12996
  58   38828.4    257.5   0.004127945   0.03500  -0.02679  -0.17036   0.07252
  59   39172.3    255.3   0.003850765   0.03236   0.04513   0.05382  -0.16562
  60   39269.4    254.7   0.003346981   0.02806   0.01906   0.15347  -0.06436
  61   39472.4    253.3   0.002950644   0.02461   0.01802  -0.13342  -0.08052
  62   39659.9    252.1   0.128785709   1.06903  -0.08832   0.33482   0.97423
  63   39788.9    251.3   0.098442334   0.81451   0.15212   0.83743   0.30014
  64   39906.0    250.6   0.041334623   0.34100   0.00426  -0.32449  -0.48548
  65   39925.9    250.5   0.010592014   0.08734  -0.09572   0.02205  -0.27873
  66   40057.1    249.6   0.006605829   0.05429   0.01964  -0.19635  -0.12390
  67   40193.5    248.8   0.004843771   0.03967   0.04649  -0.15912   0.11043

FINAL SINGLE POINT ENERGY     -5751.125896792637

DIPOLE MOMENT
-------------
                                X             Y             Z
Electronic contribution:     -5.57533       5.11660      -1.16125
Nuclear contribution   :      5.23316      -5.98011       2.24237
                        -----------------------------------------
Total Dipole Moment    :     -0.34217      -0.86351       1.08112
                        -----------------------------------------
Magnitude (a.u.)       :      1.42533
Magnitude (Debye)      :      3.62290

Rotational constants in cm-1:     0.001922     0.000127     0.000122
Rotational constants in MHz :    57.609343     3.803569     3.647107

                             ****ORCA TERMINATED NORMALLY****
TOTAL RUN TIME: 0 days 0 hours 13 minutes 51 seconds 874 msec
