                         Program Version 4.2.0 -  RELEASE  -
|  1> # ORCA input file
|  2> # SCF done       -208.195772856422          0.000674845095
|  3> ! CAM-B3LYP def2-SVP def2/J RIJCOSX Grid4 TightSCF
|  4> %maxcore 5000
|  5> %tddft
|  6>     Mode sTDDFT
|  7>     Ethresh 5.0
|  8>     maxcore 5000
|  9> end
| 10>
| 11> %pal
| 12>   nprocs 6
| 13>   end
| 14> * xyz 0 1
| 15>    C        2.80391         0.37674         1.78254
| 16>    C        2.79600         0.47537         3.16473
| 17>    C        1.98361         1.53521         3.68293
| 18>    C        1.79633         1.87349         4.99759
| 19>    C        2.38871         1.21449         6.09405
| 20>    N        2.83010         0.73444         7.03720
| 21>    C        0.96201         2.95544         5.35481
| 22>    N        0.28734         3.83271         5.65335
| 23>    S        1.19898         2.42892         2.39590
| 24>    C        1.95217         1.40184         1.13592
| 25>    O        1.74497         1.58103        -0.02858
| 26>    C        3.51936        -0.37214         4.01947
| 27>    N        4.12261        -1.08155         4.69075
| 28>    C        3.50985        -0.54932         0.98269
| 29>    C        3.53759        -0.59880        -0.41106
| 30>    C        4.34348        -1.61970        -0.88350
| 31>    C        4.94163        -2.37469         0.15605
| 32>    S        4.51150        -1.82006         1.70446
| 33>    C        5.75026        -3.37375        -0.42421
| 34>    C        5.67907        -3.25589        -1.82702
| 35>    C        4.78347        -2.15709        -2.16034
| 36>    C        4.43579        -1.73671        -3.40910
| 37>    C        4.94252        -2.36199        -4.56933
| 38>    N        5.35626        -2.87438        -5.50756
| 39>    C        3.54950        -0.66096        -3.63823
| 40>    N        2.83285         0.20764        -3.84918
| 41>    C        6.46859        -4.18888        -2.48960
| 42>    C        7.13618        -5.02320        -1.60447
| 43>    S        6.77928        -4.64707         0.07219
| 44>    C        8.03609        -6.06625        -1.92896
| 45>    C        8.64755        -6.95741        -1.06266
| 46>    C        9.49538        -7.83519        -1.73285
| 47>    C        9.53545        -7.60465        -3.12160
| 48>    S        8.51787        -6.32302        -3.60185
| 49>    C       10.44387        -8.51999        -3.70577
| 50>    C       10.97404        -9.33679        -2.69041
| 51>    C       10.38784        -8.94028        -1.41883
| 52>    C       10.62231        -9.49074        -0.19406
| 53>    C       11.51022       -10.57402        -0.01975
| 54>    N       12.23105       -11.45484         0.11588
| 55>    C        9.98659        -9.01418         0.97265
| 56>    N        9.46637        -8.62308         1.91611
| 57>    C       11.90561       -10.25703        -3.16610
| 58>    C       12.09341       -10.14183        -4.53302
| 59>    S       11.09123        -8.88515        -5.24305
| 60>    C       12.98877       -10.87841        -5.34774
| 61>    C       13.22044       -10.71106        -6.70266
| 62>    C       14.19917       -11.58255        -7.17328
| 63>    C       14.71391       -12.42404        -6.16959
| 64>    S       13.99132       -12.14007        -4.64858
| 65>    C       15.71717       -13.24757        -6.73740
| 66>    C       15.83506       -12.92219        -8.10476
| 67>    C       14.89223       -11.86418        -8.42077
| 68>    C       14.73303       -11.24083        -9.62306
| 69>    C       15.51416       -11.59758       -10.74296
| 70>    N       16.15792       -11.90225       -11.64141
| 71>    C       13.78974       -10.20900        -9.81258
| 72>    N       13.01554        -9.37623        -9.95694
| 73>    C       16.83446       -13.63962        -8.74697
| 74>    C       17.48958       -14.51100        -7.88806
| 75>    S       16.81523       -14.45676        -6.26325
| 76>    C       18.54816       -15.40097        -8.17290
| 77>    C       19.42346       -15.37115        -9.21621
| 78>    C       20.16981       -16.61715        -9.55845
| 79>    O       20.25292       -17.61386        -8.88039
| 80>    C       20.71991       -16.38143       -10.90706
| 81>    C       21.38059       -17.24862       -11.72899
| 82>    C       21.78966       -16.80610       -13.00696
| 83>    C       21.49532       -15.47173       -13.41325
| 84>    C       21.89702       -15.04012       -14.69334
| 85>    C       22.56397       -15.89136       -15.52903
| 86>    C       22.85679       -17.21006       -15.12542
| 87>    C       22.47813       -17.65928       -13.89134
| 88>    F       23.51068       -18.02242       -15.96543
| 89>    F       22.94718       -15.47981       -16.74369
| 90>    C       20.81520       -14.59427       -12.53819
| 91>    C       20.44309       -15.04039       -11.29846
| 92>    C       19.77371       -14.36011       -10.19200
| 93>    C       19.74247       -13.00057       -10.02115
| 94>    C       19.30405       -12.35867        -8.84701
| 95>    N       18.98051       -11.79050        -7.90315
| 96>    C       20.23625       -12.07886       -10.96920
| 97>    N       20.62417       -11.28631       -11.70209
| 98>    H        2.98816         0.09435        -1.02287
| 99>    H        6.56736        -4.27527        -3.55680
|100>    H        8.47202        -6.95080        -0.00175
|101>    H       12.43553       -10.97306        -2.56390
|102>    H       12.70061        -9.98202        -7.29822
|103>    H       17.06039       -13.57153        -9.79553
|104>    H       18.65032       -16.25824        -7.51431
|105>    H       21.58778       -18.25850       -11.40934
|106>    H       21.68384       -14.03303       -15.01602
|107>    H       22.70943       -18.67130       -13.59807
|108>    H       20.59421       -13.59394       -12.87458
|109> *
|110>
|111>                          ****END OF INPUT****

CARTESIAN COORDINATES (ANGSTROEM)
---------------------------------
  C      2.803910    0.376740    1.782540
  C      2.796000    0.475370    3.164730
  C      1.983610    1.535210    3.682930
  C      1.796330    1.873490    4.997590
  C      2.388710    1.214490    6.094050
  N      2.830100    0.734440    7.037200
  C      0.962010    2.955440    5.354810
  N      0.287340    3.832710    5.653350
  S      1.198980    2.428920    2.395900
  C      1.952170    1.401840    1.135920
  O      1.744970    1.581030   -0.028580
  C      3.519360   -0.372140    4.019470
  N      4.122610   -1.081550    4.690750
  C      3.509850   -0.549320    0.982690
  C      3.537590   -0.598800   -0.411060
  C      4.343480   -1.619700   -0.883500
  C      4.941630   -2.374690    0.156050
  S      4.511500   -1.820060    1.704460
  C      5.750260   -3.373750   -0.424210
  C      5.679070   -3.255890   -1.827020
  C      4.783470   -2.157090   -2.160340
  C      4.435790   -1.736710   -3.409100
  C      4.942520   -2.361990   -4.569330
  N      5.356260   -2.874380   -5.507560
  C      3.549500   -0.660960   -3.638230
  N      2.832850    0.207640   -3.849180
  C      6.468590   -4.188880   -2.489600
  C      7.136180   -5.023200   -1.604470
  S      6.779280   -4.647070    0.072190
  C      8.036090   -6.066250   -1.928960
  C      8.647550   -6.957410   -1.062660
  C      9.495380   -7.835190   -1.732850
  C      9.535450   -7.604650   -3.121600
  S      8.517870   -6.323020   -3.601850
  C     10.443870   -8.519990   -3.705770
  C     10.974040   -9.336790   -2.690410
  C     10.387840   -8.940280   -1.418830
  C     10.622310   -9.490740   -0.194060
  C     11.510220  -10.574020   -0.019750
  N     12.231050  -11.454840    0.115880
  C      9.986590   -9.014180    0.972650
  N      9.466370   -8.623080    1.916110
  C     11.905610  -10.257030   -3.166100
  C     12.093410  -10.141830   -4.533020
  S     11.091230   -8.885150   -5.243050
  C     12.988770  -10.878410   -5.347740
  C     13.220440  -10.711060   -6.702660
  C     14.199170  -11.582550   -7.173280
  C     14.713910  -12.424040   -6.169590
  S     13.991320  -12.140070   -4.648580
  C     15.717170  -13.247570   -6.737400
  C     15.835060  -12.922190   -8.104760
  C     14.892230  -11.864180   -8.420770
  C     14.733030  -11.240830   -9.623060
  C     15.514160  -11.597580  -10.742960
  N     16.157920  -11.902250  -11.641410
  C     13.789740  -10.209000   -9.812580
  N     13.015540   -9.376230   -9.956940
  C     16.834460  -13.639620   -8.746970
  C     17.489580  -14.511000   -7.888060
  S     16.815230  -14.456760   -6.263250
  C     18.548160  -15.400970   -8.172900
  C     19.423460  -15.371150   -9.216210
  C     20.169810  -16.617150   -9.558450
  O     20.252920  -17.613860   -8.880390
  C     20.719910  -16.381430  -10.907060
  C     21.380590  -17.248620  -11.728990
  C     21.789660  -16.806100  -13.006960
  C     21.495320  -15.471730  -13.413250
  C     21.897020  -15.040120  -14.693340
  C     22.563970  -15.891360  -15.529030
  C     22.856790  -17.210060  -15.125420
  C     22.478130  -17.659280  -13.891340
  F     23.510680  -18.022420  -15.965430
  F     22.947180  -15.479810  -16.743690
  C     20.815200  -14.594270  -12.538190
  C     20.443090  -15.040390  -11.298460
  C     19.773710  -14.360110  -10.192000
  C     19.742470  -13.000570  -10.021150
  C     19.304050  -12.358670   -8.847010
  N     18.980510  -11.790500   -7.903150
  C     20.236250  -12.078860  -10.969200
  N     20.624170  -11.286310  -11.702090
  H      2.988160    0.094350   -1.022870
  H      6.567360   -4.275270   -3.556800
  H      8.472020   -6.950800   -0.001750
  H     12.435530  -10.973060   -2.563900
  H     12.700610   -9.982020   -7.298220
  H     17.060390  -13.571530   -9.795530
  H     18.650320  -16.258240   -7.514310
  H     21.587780  -18.258500  -11.409340
  H     21.683840  -14.033030  -15.016020
  H     22.709430  -18.671300  -13.598070
  H     20.594210  -13.593940  -12.874580

 Total Charge           Charge          ....    0
 Multiplicity           Mult            ....    1
 Number of Electrons    NEL             ....  600
 Basis Dimension        Dim             .... 1245

ORBITAL ENERGIES
----------------

  NO   OCC          E(Eh)            E(eV)
   0   2.0000     -89.014035     -2422.1950
   1   2.0000     -89.013919     -2422.1919
   2   2.0000     -89.012384     -2422.1501
   3   2.0000     -89.010099     -2422.0879
   4   2.0000     -89.008513     -2422.0448
   5   2.0000     -89.005902     -2421.9737
   6   2.0000     -88.987612     -2421.4760
   7   2.0000     -24.801665      -674.8876
   8   2.0000     -24.800746      -674.8626
   9   2.0000     -19.266644      -524.2720
  10   2.0000     -19.223326      -523.0933
  11   2.0000     -14.448784      -393.1714
  12   2.0000     -14.447373      -393.1330
  13   2.0000     -14.447256      -393.1298
  14   2.0000     -14.445667      -393.0866
  15   2.0000     -14.443353      -393.0236
  16   2.0000     -14.443276      -393.0215
  17   2.0000     -14.440788      -392.9538
  18   2.0000     -14.429483      -392.6462
  19   2.0000     -14.426146      -392.5554
  20   2.0000     -14.425903      -392.5488
  21   2.0000     -14.421067      -392.4172
  22   2.0000     -10.430227      -283.8209
  23   2.0000     -10.385970      -282.6166
  24   2.0000     -10.385061      -282.5919
  25   2.0000     -10.384436      -282.5749
  26   2.0000     -10.383852      -282.5590
  27   2.0000     -10.383718      -282.5553
  28   2.0000     -10.379084      -282.4292
  29   2.0000     -10.374785      -282.3122
  30   2.0000     -10.372051      -282.2379
  31   2.0000     -10.371079      -282.2114
  32   2.0000     -10.370278      -282.1896
  33   2.0000     -10.365916      -282.0709
  34   2.0000     -10.365825      -282.0684
  35   2.0000     -10.364645      -282.0363
  36   2.0000     -10.361804      -281.9590
  37   2.0000     -10.358518      -281.8696
  38   2.0000     -10.354927      -281.7719
  39   2.0000     -10.353656      -281.7373
  40   2.0000     -10.352885      -281.7163
  41   2.0000     -10.352843      -281.7152
  42   2.0000     -10.352053      -281.6937
  43   2.0000     -10.351156      -281.6693
  44   2.0000     -10.351099      -281.6677
  45   2.0000     -10.350337      -281.6470
  46   2.0000     -10.349705      -281.6298
  47   2.0000     -10.349482      -281.6237
  48   2.0000     -10.348752      -281.6039
  49   2.0000     -10.348479      -281.5964
  50   2.0000     -10.347180      -281.5611
  51   2.0000     -10.347093      -281.5587
  52   2.0000     -10.344422      -281.4860
  53   2.0000     -10.343359      -281.4571
  54   2.0000     -10.343329      -281.4563
  55   2.0000     -10.337861      -281.3075
  56   2.0000     -10.337231      -281.2904
  57   2.0000     -10.334016      -281.2029
  58   2.0000     -10.333034      -281.1762
  59   2.0000     -10.330439      -281.1055
  60   2.0000     -10.329076      -281.0684
  61   2.0000     -10.327469      -281.0247
  62   2.0000     -10.326347      -280.9942
  63   2.0000     -10.326093      -280.9873
  64   2.0000     -10.325587      -280.9735
  65   2.0000     -10.324864      -280.9538
  66   2.0000     -10.324166      -280.9348
  67   2.0000     -10.324068      -280.9322
  68   2.0000     -10.323435      -280.9150
  69   2.0000     -10.323240      -280.9097
  70   2.0000     -10.322072      -280.8778
  71   2.0000     -10.321724      -280.8684
  72   2.0000     -10.320083      -280.8237
  73   2.0000     -10.317648      -280.7575
  74   2.0000     -10.314920      -280.6832
  75   2.0000     -10.314653      -280.6760
  76   2.0000     -10.313315      -280.6396
  77   2.0000     -10.309225      -280.5283
  78   2.0000     -10.308001      -280.4950
  79   2.0000     -10.307111      -280.4708
  80   2.0000     -10.304851      -280.4092
  81   2.0000     -10.303768      -280.3798
  82   2.0000     -10.299462      -280.2626
  83   2.0000      -8.108318      -220.6385
  84   2.0000      -8.107899      -220.6272
  85   2.0000      -8.106779      -220.5967
  86   2.0000      -8.104484      -220.5342
  87   2.0000      -8.102978      -220.4932
  88   2.0000      -8.100652      -220.4299
  89   2.0000      -8.085003      -220.0041
  90   2.0000      -6.077643      -165.3811
  91   2.0000      -6.077190      -165.3687
  92   2.0000      -6.076075      -165.3384
  93   2.0000      -6.073776      -165.2759
  94   2.0000      -6.073426      -165.2663
  95   2.0000      -6.072785      -165.2489
  96   2.0000      -6.072275      -165.2350
  97   2.0000      -6.071873      -165.2241
  98   2.0000      -6.070532      -165.1876
  99   2.0000      -6.070315      -165.1817
 100   2.0000      -6.069817      -165.1681
 101   2.0000      -6.069601      -165.1622
 102   2.0000      -6.069059      -165.1475
 103   2.0000      -6.068107      -165.1216
 104   2.0000      -6.066762      -165.0850
 105   2.0000      -6.065622      -165.0540
 106   2.0000      -6.065213      -165.0428
 107   2.0000      -6.063134      -164.9863
 108   2.0000      -6.054538      -164.7524
 109   2.0000      -6.050580      -164.6446
 110   2.0000      -6.045682      -164.5114
 111   2.0000      -1.324439       -36.0398
 112   2.0000      -1.309527       -35.6340
 113   2.0000      -1.190323       -32.3903
 114   2.0000      -1.139276       -31.0013
 115   2.0000      -1.069668       -29.1071
 116   2.0000      -1.065135       -28.9838
 117   2.0000      -1.061116       -28.8744
 118   2.0000      -1.048892       -28.5418
 119   2.0000      -1.040301       -28.3080
 120   2.0000      -1.039322       -28.2814
 121   2.0000      -1.035619       -28.1806
 122   2.0000      -1.030137       -28.0314
 123   2.0000      -1.027721       -27.9657
 124   2.0000      -1.024828       -27.8870
 125   2.0000      -1.023982       -27.8640
 126   2.0000      -1.021973       -27.8093
 127   2.0000      -1.020883       -27.7796
 128   2.0000      -1.018111       -27.7042
 129   2.0000      -1.010964       -27.5097
 130   2.0000      -1.010178       -27.4883
 131   2.0000      -1.006722       -27.3943
 132   2.0000      -1.003504       -27.3067
 133   2.0000      -1.001138       -27.2423
 134   2.0000      -0.987861       -26.8811
 135   2.0000      -0.983834       -26.7715
 136   2.0000      -0.976362       -26.5682
 137   2.0000      -0.971033       -26.4232
 138   2.0000      -0.948327       -25.8053
 139   2.0000      -0.941539       -25.6206
 140   2.0000      -0.936583       -25.4857
 141   2.0000      -0.929005       -25.2795
 142   2.0000      -0.920991       -25.0614
 143   2.0000      -0.908827       -24.7305
 144   2.0000      -0.901427       -24.5291
 145   2.0000      -0.897570       -24.4241
 146   2.0000      -0.894661       -24.3450
 147   2.0000      -0.891999       -24.2725
 148   2.0000      -0.889707       -24.2102
 149   2.0000      -0.882891       -24.0247
 150   2.0000      -0.880412       -23.9572
 151   2.0000      -0.875650       -23.8277
 152   2.0000      -0.869589       -23.6627
 153   2.0000      -0.863633       -23.5006
 154   2.0000      -0.846046       -23.0221
 155   2.0000      -0.845389       -23.0042
 156   2.0000      -0.828162       -22.5354
 157   2.0000      -0.812882       -22.1196
 158   2.0000      -0.802055       -21.8250
 159   2.0000      -0.795742       -21.6532
 160   2.0000      -0.789674       -21.4881
 161   2.0000      -0.783727       -21.3263
 162   2.0000      -0.773482       -21.0475
 163   2.0000      -0.763885       -20.7864
 164   2.0000      -0.748861       -20.3776
 165   2.0000      -0.745295       -20.2805
 166   2.0000      -0.735361       -20.0102
 167   2.0000      -0.726708       -19.7747
 168   2.0000      -0.724053       -19.7025
 169   2.0000      -0.720700       -19.6112
 170   2.0000      -0.715956       -19.4822
 171   2.0000      -0.710647       -19.3377
 172   2.0000      -0.707498       -19.2520
 173   2.0000      -0.702832       -19.1250
 174   2.0000      -0.700929       -19.0732
 175   2.0000      -0.696076       -18.9412
 176   2.0000      -0.689955       -18.7746
 177   2.0000      -0.687953       -18.7202
 178   2.0000      -0.675348       -18.3772
 179   2.0000      -0.668495       -18.1907
 180   2.0000      -0.659723       -17.9520
 181   2.0000      -0.653574       -17.7847
 182   2.0000      -0.652011       -17.7421
 183   2.0000      -0.648726       -17.6527
 184   2.0000      -0.648066       -17.6348
 185   2.0000      -0.646639       -17.5959
 186   2.0000      -0.642782       -17.4910
 187   2.0000      -0.641577       -17.4582
 188   2.0000      -0.637214       -17.3395
 189   2.0000      -0.630836       -17.1659
 190   2.0000      -0.628016       -17.0892
 191   2.0000      -0.621365       -16.9082
 192   2.0000      -0.620989       -16.8980
 193   2.0000      -0.608277       -16.5521
 194   2.0000      -0.600425       -16.3384
 195   2.0000      -0.594788       -16.1850
 196   2.0000      -0.588832       -16.0229
 197   2.0000      -0.585798       -15.9404
 198   2.0000      -0.582315       -15.8456
 199   2.0000      -0.578673       -15.7465
 200   2.0000      -0.577772       -15.7220
 201   2.0000      -0.569447       -15.4954
 202   2.0000      -0.567242       -15.4354
 203   2.0000      -0.565745       -15.3947
 204   2.0000      -0.562800       -15.3146
 205   2.0000      -0.560847       -15.2614
 206   2.0000      -0.558763       -15.2047
 207   2.0000      -0.556381       -15.1399
 208   2.0000      -0.550336       -14.9754
 209   2.0000      -0.548882       -14.9358
 210   2.0000      -0.547429       -14.8963
 211   2.0000      -0.544020       -14.8035
 212   2.0000      -0.539738       -14.6870
 213   2.0000      -0.536083       -14.5876
 214   2.0000      -0.532118       -14.4797
 215   2.0000      -0.528151       -14.3717
 216   2.0000      -0.527982       -14.3671
 217   2.0000      -0.526448       -14.3254
 218   2.0000      -0.525263       -14.2931
 219   2.0000      -0.522691       -14.2231
 220   2.0000      -0.520713       -14.1693
 221   2.0000      -0.520454       -14.1623
 222   2.0000      -0.519353       -14.1323
 223   2.0000      -0.518352       -14.1051
 224   2.0000      -0.517169       -14.0729
 225   2.0000      -0.514191       -13.9918
 226   2.0000      -0.511623       -13.9220
 227   2.0000      -0.508627       -13.8404
 228   2.0000      -0.508331       -13.8324
 229   2.0000      -0.504518       -13.7286
 230   2.0000      -0.502228       -13.6663
 231   2.0000      -0.500085       -13.6080
 232   2.0000      -0.494590       -13.4585
 233   2.0000      -0.492255       -13.3950
 234   2.0000      -0.491301       -13.3690
 235   2.0000      -0.490428       -13.3452
 236   2.0000      -0.488065       -13.2809
 237   2.0000      -0.484162       -13.1747
 238   2.0000      -0.483230       -13.1494
 239   2.0000      -0.478104       -13.0099
 240   2.0000      -0.477513       -12.9938
 241   2.0000      -0.476586       -12.9686
 242   2.0000      -0.474558       -12.9134
 243   2.0000      -0.473727       -12.8908
 244   2.0000      -0.472822       -12.8662
 245   2.0000      -0.471397       -12.8274
 246   2.0000      -0.470366       -12.7993
 247   2.0000      -0.467537       -12.7223
 248   2.0000      -0.466618       -12.6973
 249   2.0000      -0.462330       -12.5807
 250   2.0000      -0.460729       -12.5371
 251   2.0000      -0.459439       -12.5020
 252   2.0000      -0.459145       -12.4940
 253   2.0000      -0.458350       -12.4723
 254   2.0000      -0.457326       -12.4445
 255   2.0000      -0.457170       -12.4402
 256   2.0000      -0.456384       -12.4188
 257   2.0000      -0.455516       -12.3952
 258   2.0000      -0.454922       -12.3790
 259   2.0000      -0.453982       -12.3535
 260   2.0000      -0.453276       -12.3343
 261   2.0000      -0.452625       -12.3166
 262   2.0000      -0.451104       -12.2752
 263   2.0000      -0.450414       -12.2564
 264   2.0000      -0.448753       -12.2112
 265   2.0000      -0.447671       -12.1818
 266   2.0000      -0.443572       -12.0702
 267   2.0000      -0.442278       -12.0350
 268   2.0000      -0.440179       -11.9779
 269   2.0000      -0.439264       -11.9530
 270   2.0000      -0.437895       -11.9157
 271   2.0000      -0.437114       -11.8945
 272   2.0000      -0.433524       -11.7968
 273   2.0000      -0.432749       -11.7757
 274   2.0000      -0.431862       -11.7516
 275   2.0000      -0.429673       -11.6920
 276   2.0000      -0.425660       -11.5828
 277   2.0000      -0.418796       -11.3960
 278   2.0000      -0.415500       -11.3063
 279   2.0000      -0.412931       -11.2364
 280   2.0000      -0.409374       -11.1396
 281   2.0000      -0.402405       -10.9500
 282   2.0000      -0.391918       -10.6646
 283   2.0000      -0.382107       -10.3977
 284   2.0000      -0.379613       -10.3298
 285   2.0000      -0.374136       -10.1807
 286   2.0000      -0.370253       -10.0751
 287   2.0000      -0.367365        -9.9965
 288   2.0000      -0.363200        -9.8832
 289   2.0000      -0.351417        -9.5625
 290   2.0000      -0.344233        -9.3670
 291   2.0000      -0.343332        -9.3425
 292   2.0000      -0.341707        -9.2983
 293   2.0000      -0.337455        -9.1826
 294   2.0000      -0.333449        -9.0736
 295   2.0000      -0.322390        -8.7727
 296   2.0000      -0.312617        -8.5068
 297   2.0000      -0.305263        -8.3066
 298   2.0000      -0.283212        -7.7066
 299   2.0000      -0.257319        -7.0020
 300   0.0000      -0.140476        -3.8225
 301   0.0000      -0.125654        -3.4192
 302   0.0000      -0.119623        -3.2551
 303   0.0000      -0.117868        -3.2073
 304   0.0000      -0.099303        -2.7022

MULLIKEN ATOMIC CHARGES
-----------------------
   0 C :    0.166325
   1 C :   -0.073113
   2 C :    0.074647
   3 C :   -0.289984
   4 C :   -0.192400
   5 N :    0.225885
   6 C :   -0.207500
   7 N :    0.175083
   8 S :    0.129133
   9 C :    0.044076
  10 O :   -0.116303
  11 C :   -0.289871
  12 N :    0.213170
  13 C :   -0.174859
  14 C :   -0.037002
  15 C :    0.035118
  16 C :   -0.062953
  17 S :    0.224086
  18 C :   -0.107514
  19 C :    0.031642
  20 C :    0.302365
  21 C :   -0.287320
  22 C :   -0.190540
  23 N :    0.182734
  24 C :   -0.193332
  25 N :    0.197285
  26 C :   -0.071539
  27 C :   -0.037970
  28 S :    0.217939
  29 C :   -0.061400
  30 C :   -0.056339
  31 C :    0.015709
  32 C :   -0.092219
  33 S :    0.207954
  34 C :   -0.098877
  35 C :    0.020275
  36 C :    0.293716
  37 C :   -0.285692
  38 C :   -0.185933
  39 N :    0.178099
  40 C :   -0.190389
  41 N :    0.183617
  42 C :   -0.064165
  43 C :   -0.050220
  44 S :    0.207126
  45 C :   -0.046337
  46 C :   -0.065755
  47 C :    0.023010
  48 C :   -0.105095
  49 S :    0.207317
  50 C :   -0.067907
  51 C :   -0.000657
  52 C :    0.300742
  53 C :   -0.279432
  54 C :   -0.184742
  55 N :    0.172949
  56 C :   -0.185898
  57 N :    0.176018
  58 C :   -0.006351
  59 C :   -0.113371
  60 S :    0.222229
  61 C :    0.081453
  62 C :   -0.137356
  63 C :    0.135128
  64 O :   -0.139567
  65 C :    0.018927
  66 C :   -0.082902
  67 C :    0.114262
  68 C :    0.110083
  69 C :   -0.105610
  70 C :    0.242293
  71 C :    0.239721
  72 C :   -0.103258
  73 F :   -0.170808
  74 F :   -0.168939
  75 C :   -0.076985
  76 C :    0.028813
  77 C :    0.274142
  78 C :   -0.333073
  79 C :   -0.196640
  80 N :    0.165645
  81 C :   -0.171762
  82 N :    0.159925
  83 H :    0.043122
  84 H :    0.017416
  85 H :    0.016654
  86 H :    0.015038
  87 H :    0.015550
  88 H :    0.027310
  89 H :    0.024658
  90 H :   -0.008570
  91 H :    0.008087
  92 H :   -0.000080
  93 H :    0.002051
Sum of atomic charges:   -0.0000000

LOEWDIN ATOMIC CHARGES
----------------------
   0 C :   -0.028106
   1 C :   -0.106770
   2 C :   -0.073607
   3 C :   -0.128629
   4 C :   -0.034545
   5 N :   -0.008788
   6 C :   -0.037061
   7 N :   -0.018649
   8 S :    0.398841
   9 C :   -0.035952
  10 O :   -0.103152
  11 C :   -0.058903
  12 N :   -0.008479
  13 C :   -0.180601
  14 C :    0.017029
  15 C :   -0.075507
  16 C :   -0.147683
  17 S :    0.525552
  18 C :   -0.195212
  19 C :   -0.042888
  20 C :    0.073886
  21 C :   -0.088561
  22 C :   -0.015600
  23 N :   -0.024799
  24 C :   -0.022539
  25 N :   -0.010869
  26 C :   -0.042846
  27 C :   -0.160127
  28 S :    0.497085
  29 C :   -0.186515
  30 C :   -0.026937
  31 C :   -0.067637
  32 C :   -0.171568
  33 S :    0.494456
  34 C :   -0.182316
  35 C :   -0.062149
  36 C :    0.079557
  37 C :   -0.094312
  38 C :   -0.016387
  39 N :   -0.025823
  40 C :   -0.017206
  41 N :   -0.024954
  42 C :   -0.035133
  43 C :   -0.176103
  44 S :    0.493714
  45 C :   -0.173912
  46 C :   -0.036733
  47 C :   -0.054605
  48 C :   -0.182315
  49 S :    0.493280
  50 C :   -0.158578
  51 C :   -0.066171
  52 C :    0.081980
  53 C :   -0.094415
  54 C :   -0.013201
  55 N :   -0.028262
  56 C :   -0.016172
  57 N :   -0.028224
  58 C :    0.009088
  59 C :   -0.181243
  60 S :    0.504750
  61 C :    0.044117
  62 C :   -0.090405
  63 C :    0.083001
  64 O :   -0.140990
  65 C :   -0.055127
  66 C :    0.031701
  67 C :   -0.009052
  68 C :   -0.005072
  69 C :   -0.028834
  70 C :    0.067684
  71 C :    0.067820
  72 C :   -0.032666
  73 F :   -0.048070
  74 F :   -0.047022
  75 C :    0.017922
  76 C :   -0.020643
  77 C :    0.065498
  78 C :   -0.135489
  79 C :   -0.015249
  80 N :   -0.047172
  81 C :   -0.019040
  82 N :   -0.044594
  83 H :    0.047514
  84 H :    0.037292
  85 H :    0.038219
  86 H :    0.037181
  87 H :    0.036934
  88 H :    0.043270
  89 H :    0.046922
  90 H :    0.040992
  91 H :    0.048245
  92 H :    0.045025
  93 H :    0.041613

  Mayer bond orders larger than 0.100000
B(  0-C ,  1-C ) :   1.5358 B(  0-C ,  9-C ) :   0.8502 B(  0-C , 13-C ) :   1.2607
B(  1-C ,  2-C ) :   1.1221 B(  1-C , 11-C ) :   1.1620 B(  2-C ,  3-C ) :   1.6686
B(  2-C ,  8-S ) :   1.0531 B(  3-C ,  4-C ) :   1.1670 B(  3-C ,  6-C ) :   1.1315
B(  4-C ,  5-N ) :   3.0256 B(  6-C ,  7-N ) :   3.0327 B(  8-S ,  9-C ) :   1.0251
B(  8-S , 10-O ) :   0.1081 B(  9-C , 10-O ) :   2.1497 B( 11-C , 12-N ) :   2.9599
B( 13-C , 14-C ) :   1.3756 B( 13-C , 17-S ) :   1.0599 B( 14-C , 15-C ) :   1.3211
B( 14-C , 83-H ) :   0.9857 B( 15-C , 16-C ) :   1.3573 B( 15-C , 20-C ) :   0.9883
B( 16-C , 17-S ) :   1.1652 B( 16-C , 18-C ) :   1.2239 B( 18-C , 19-C ) :   1.4191
B( 18-C , 28-S ) :   1.1003 B( 19-C , 20-C ) :   0.9933 B( 19-C , 26-C ) :   1.3241
B( 20-C , 21-C ) :   1.7233 B( 21-C , 22-C ) :   1.1348 B( 21-C , 24-C ) :   1.1365
B( 22-C , 23-N ) :   2.9887 B( 24-C , 25-N ) :   2.9945 B( 26-C , 27-C ) :   1.4273
B( 26-C , 84-H ) :   0.9855 B( 27-C , 28-S ) :   1.1289 B( 27-C , 29-C ) :   1.1813
B( 29-C , 30-C ) :   1.4441 B( 29-C , 33-S ) :   1.1033 B( 30-C , 31-C ) :   1.3161
B( 30-C , 85-H ) :   0.9859 B( 31-C , 32-C ) :   1.4316 B( 31-C , 36-C ) :   0.9937
B( 32-C , 33-S ) :   1.1314 B( 32-C , 34-C ) :   1.1940 B( 34-C , 35-C ) :   1.4401
B( 34-C , 44-S ) :   1.1199 B( 35-C , 36-C ) :   0.9936 B( 35-C , 42-C ) :   1.3089
B( 36-C , 37-C ) :   1.7223 B( 37-C , 38-C ) :   1.1315 B( 37-C , 40-C ) :   1.1322
B( 38-C , 39-N ) :   2.9913 B( 40-C , 41-N ) :   2.9932 B( 42-C , 43-C ) :   1.4504
B( 42-C , 86-H ) :   0.9868 B( 43-C , 44-S ) :   1.1133 B( 43-C , 45-C ) :   1.1731
B( 45-C , 46-C ) :   1.4462 B( 45-C , 49-S ) :   1.1179 B( 46-C , 47-C ) :   1.3116
B( 46-C , 87-H ) :   0.9860 B( 47-C , 48-C ) :   1.4420 B( 47-C , 52-C ) :   0.9919
B( 48-C , 49-S ) :   1.1153 B( 48-C , 50-C ) :   1.1964 B( 50-C , 51-C ) :   1.4072
B( 50-C , 60-S ) :   1.1567 B( 51-C , 52-C ) :   1.0004 B( 51-C , 58-C ) :   1.3587
B( 52-C , 53-C ) :   1.7220 B( 53-C , 54-C ) :   1.1349 B( 53-C , 56-C ) :   1.1280
B( 54-C , 55-N ) :   2.9814 B( 56-C , 57-N ) :   2.9918 B( 58-C , 59-C ) :   1.3976
B( 58-C , 88-H ) :   0.9808 B( 59-C , 60-S ) :   1.0893 B( 59-C , 61-C ) :   1.1325
B( 61-C , 62-C ) :   1.6670 B( 61-C , 89-H ) :   0.9303 B( 62-C , 63-C ) :   0.9408
B( 62-C , 77-C ) :   1.0360 B( 63-C , 64-O ) :   2.2717 B( 63-C , 65-C ) :   0.9204
B( 65-C , 66-C ) :   1.4705 B( 65-C , 76-C ) :   1.2235 B( 66-C , 67-C ) :   1.1942
B( 66-C , 90-H ) :   1.0166 B( 67-C , 68-C ) :   1.2590 B( 67-C , 72-C ) :   1.1920
B( 68-C , 69-C ) :   1.1894 B( 68-C , 75-C ) :   1.2158 B( 69-C , 70-C ) :   1.4410
B( 69-C , 72-C ) :   0.1085 B( 69-C , 91-H ) :   1.0073 B( 70-C , 71-C ) :   1.1911
B( 70-C , 74-F ) :   1.1368 B( 71-C , 72-C ) :   1.4437 B( 71-C , 73-F ) :   1.1341
B( 72-C , 92-H ) :   1.0068 B( 75-C , 76-C ) :   1.4563 B( 75-C , 93-H ) :   0.9939
B( 76-C , 77-C ) :   0.9954 B( 77-C , 78-C ) :   1.6515 B( 78-C , 79-C ) :   1.1702
B( 78-C , 81-C ) :   1.1282 B( 79-C , 80-N ) :   2.9954 B( 81-C , 82-N ) :   2.9902

-----------------------------------------------------------------------------
         ABSORPTION SPECTRUM VIA TRANSITION ELECTRIC DIPOLE MOMENTS
-----------------------------------------------------------------------------
State   Energy  Wavelength   fosc         T2         TX        TY        TZ
        (cm-1)    (nm)                  (au**2)     (au)      (au)      (au)
-----------------------------------------------------------------------------
   0   11050.2    905.0   0.992306171  29.56331   3.38514  -3.29487  -2.69221
   1   12591.1    794.2   0.160998064   4.20953   1.10657  -1.35209  -1.07558
   2   12934.3    773.1   0.034521544   0.87867   0.79745  -0.15959  -0.46613
   3   17026.7    587.3   0.781704185  15.11425   2.00952  -2.30048  -2.40497
   4   19307.2    517.9   0.332547974   5.67035  -2.13548   0.60801   0.86045
   5   19749.5    506.3   0.331910790   5.53276  -1.55493   0.92961   1.50026
   6   21569.3    463.6   0.041019322   0.62608   0.25113   0.13573  -0.73796
   7   22724.0    440.1   0.012532575   0.18156   0.19354   0.37487  -0.05981
   8   24350.8    410.7   0.037700493   0.50969  -0.15057   0.25524   0.64952
   9   25317.1    395.0   0.204494257   2.65915   1.00453  -0.94787  -0.86696
  10   25803.0    387.6   0.374507140   4.77822  -0.91771   1.22858   1.55776
  11   26468.1    377.8   0.185500268   2.30726   0.62697  -0.88174  -1.06617
  12   26869.2    372.2   0.443637581   5.43563  -1.57215   1.70333   0.25026
  13   27809.1    359.6   0.103083958   1.22034   0.64678  -0.89549  -0.01013
  14   27973.2    357.5   0.054986774   0.64713   0.34793  -0.45989   0.56087
  15   28055.2    356.4   0.143416214   1.68291  -0.36113   0.48810   1.14641
  16   28155.8    355.2   0.006737530   0.07878   0.19523   0.20033   0.02313
  17   28163.8    355.1   0.008368663   0.09782  -0.12969  -0.14810  -0.24304
  18   29032.8    344.4   0.069277882   0.78556  -0.75667   0.46152   0.00332
  19   29260.1    341.8   0.035711199   0.40179   0.55318  -0.21502  -0.22260
  20   29493.7    339.1   0.077531353   0.86541  -0.79922   0.46802   0.08729
  21   29979.4    333.6   0.434000710   4.76588  -0.64945   0.48489   2.02706
  22   30657.9    326.2   0.188177577   2.02069   0.37999  -0.90860   1.02506
  23   30878.9    323.8   0.073244879   0.78089   0.15248  -0.11360  -0.86298
  24   31096.3    321.6   0.320431725   3.39236   0.49632  -0.99399   1.46902
  25   31257.5    319.9   0.161600031   1.70201  -0.02377   0.10886   1.29984
  26   31746.7    315.0   0.138314618   1.43432  -0.49421   0.75107  -0.79118
  27   32035.0    312.2   0.013230105   0.13596  -0.11540  -0.09853   0.33606
  28   32098.1    311.5   0.257786331   2.64397  -0.07879  -0.28824   1.59834
  29   32293.5    309.7   0.297353087   3.03133   0.56814  -0.85347   1.40717
  30   32711.1    305.7   0.316147315   3.18178  -0.09191   0.59223  -1.68006
  31   32899.9    304.0   0.213880702   2.14019   1.05780  -0.75547  -0.67121
  32   33336.0    300.0   0.033356053   0.32941  -0.22459   0.25229   0.46402
  33   33613.6    297.5   0.037967675   0.37186  -0.41714   0.34997   0.27455
  34   33890.8    295.1   0.152345078   1.47987   0.38356  -0.39019   1.08651
  35   34018.7    294.0   0.222682744   2.15499  -0.53267   0.65090   1.20315
  36   34094.1    293.3   0.251854462   2.43190  -0.51582   1.13796   0.93321
  37   34463.7    290.2   0.149540945   1.42848   0.50058  -0.95027   0.52430
  38   34671.8    288.4   0.031845770   0.30238  -0.17258   0.29463   0.43103
  39   34748.0    287.8   0.228199073   2.16202  -0.86881   1.10636  -0.42797
  40   34800.1    287.4   0.070052454   0.66270   0.43570  -0.48317  -0.48930
  41   34960.5    286.0   0.087840959   0.82717  -0.09746   0.26445   0.86472
  42   35259.1    283.6   0.036296588   0.33890   0.11229  -0.07842  -0.56581
  43   35323.1    283.1   0.224774888   2.09490   0.56878  -0.79241  -1.06933
  44   35590.1    281.0   0.078380418   0.72503  -0.16760   0.28804   0.78356
  45   35930.5    278.3   0.049331294   0.45200  -0.27966   0.36897   0.48750
  46   36381.8    274.9   0.018870617   0.17076   0.02038  -0.35375   0.21261
  47   36448.2    274.4   0.009194437   0.08305   0.13584  -0.15713  -0.19976
  48   36520.3    273.8   0.003133482   0.02825   0.07708   0.11135  -0.09953
  49   36762.8    272.0   0.078869097   0.70628  -0.42681   0.65438  -0.30966
  50   36983.5    270.4   0.010052439   0.08948   0.15807  -0.23794   0.08878
  51   37235.0    268.6   0.029246898   0.25859  -0.38465   0.32970   0.04396
  52   37493.3    266.7   0.012535594   0.11007   0.26140   0.18373   0.08933
  53   37616.9    265.8   0.041473309   0.36296   0.33017  -0.50048   0.05890
  54   37808.7    264.5   0.080166456   0.69803  -0.26496   0.18825   0.76967
  55   37944.3    263.5   0.004941962   0.04288  -0.15674   0.12187  -0.05881
  56   38182.6    261.9   0.000226786   0.00196  -0.00970  -0.04309  -0.00210
  57   38386.2    260.5   0.003817546   0.03274   0.14715  -0.10363   0.01865
  58   38537.8    259.5   0.006544778   0.05591  -0.13705   0.18003  -0.06865
  59   38637.8    258.8   0.008707209   0.07419   0.20566   0.15935  -0.08063
  60   38888.4    257.1   0.034323921   0.29057  -0.14149  -0.31806   0.41157
  61   38953.1    256.7   0.017949498   0.15170   0.18547  -0.17504  -0.29439
  62   39287.7    254.5   0.006648344   0.05571  -0.05045  -0.14358   0.18041
  63   39511.7    253.1   0.069716717   0.58088   0.26132  -0.71595  -0.00246
  64   39902.3    250.6   0.021645906   0.17859   0.08625  -0.06376  -0.40876
  65   40212.6    248.7   0.002996315   0.02453  -0.06925   0.09064   0.10733
  66   40250.0    248.4   0.036791487   0.30092   0.20715  -0.15163  -0.48479
  67   40323.3    248.0   0.012688693   0.10359  -0.19959   0.24813   0.04682

FINAL SINGLE POINT ENERGY     -6065.610157270004

DIPOLE MOMENT
-------------
                                X             Y             Z
Electronic contribution:    -14.22041      15.31255       8.85050
Nuclear contribution   :     15.10076     -18.69661     -10.59743
                        -----------------------------------------
Total Dipole Moment    :      0.88035      -3.38406      -1.74693
                        -----------------------------------------
Magnitude (a.u.)       :      3.90879
Magnitude (Debye)      :      9.93535

Rotational constants in cm-1:     0.002217     0.000121     0.000117
Rotational constants in MHz :    66.472654     3.633351     3.494382

                             ****ORCA TERMINATED NORMALLY****
TOTAL RUN TIME: 0 days 0 hours 10 minutes 58 seconds 906 msec
