                         Program Version 4.2.0 -  RELEASE  -
|  1> # ORCA input file
|  2> # SCF done       -213.463711030412          0.000651313268
|  3> ! CAM-B3LYP def2-SVP def2/J RIJCOSX Grid4 TightSCF
|  4> %maxcore 5000
|  5> %tddft
|  6>     Mode sTDDFT
|  7>     Ethresh 5.0
|  8>     maxcore 5000
|  9> end
| 10>
| 11> %pal
| 12>   nprocs 6
| 13>   end
| 14> * xyz 0 1
| 15>    C       -0.14850        -0.76397         0.09809
| 16>    C       -1.26753        -0.99002         0.85545
| 17>    C       -1.69008        -0.14885         1.90769
| 18>    N       -2.08191         0.49729         2.77041
| 19>    C       -2.18412        -2.03319         0.61789
| 20>    N       -2.97116        -2.85160         0.44874
| 21>    C        0.67289         0.44362         0.16813
| 22>    C        1.39109         0.57754        -1.03442
| 23>    C        2.22293         1.65467        -1.26405
| 24>    C        2.35140         2.61293        -0.26589
| 25>    C        1.65385         2.47603         0.94088
| 26>    C        0.80816         1.39460         1.16481
| 27>   Cl        1.83974         3.65691         2.17122
| 28>   Cl        3.37546         3.96738        -0.51401
| 29>    C        1.11266        -0.58259        -1.90623
| 30>    O        1.50697        -0.78562        -3.02961
| 31>    C        0.27526        -1.49634        -1.07762
| 32>    C        0.12463        -2.78872        -1.48388
| 33>    C       -0.27856        -3.91064        -0.72992
| 34>    C       -0.29499        -4.07245         0.64875
| 35>    C       -0.74345        -5.33002         1.02498
| 36>    C       -1.06716        -6.15189        -0.07549
| 37>    S       -0.79551        -5.37401        -1.56330
| 38>    C       -1.54513        -7.38991         0.42021
| 39>    C       -1.53179        -7.34778         1.82648
| 40>    C       -1.03256        -6.04960         2.25198
| 41>    C       -0.89762        -5.58348         3.52634
| 42>    C       -1.22167        -6.37117         4.65093
| 43>    N       -1.47852        -7.02056         5.55996
| 44>    C       -0.42466        -4.27879         3.78264
| 45>    N       -0.03604        -3.21654         3.96986
| 46>    C       -2.00229        -8.52080         2.41058
| 47>    C       -2.36984        -9.45912         1.46099
| 48>    S       -2.13138        -8.87937        -0.17914
| 49>    C       -2.89245       -10.75483         1.69950
| 50>    C       -3.22643       -11.72278         0.76879
| 51>    C       -3.71870       -12.87824         1.37426
| 52>    C       -3.76242       -12.78344         2.77644
| 53>    S       -3.19320       -11.28098         3.35002
| 54>    C       -4.28027       -13.99507         3.29655
| 55>    C       -4.56021       -14.86141         2.22480
| 56>    C       -4.21675       -14.18804         0.98117
| 57>    C       -4.33795       -14.67940        -0.28469
| 58>    C       -4.83946       -15.97378        -0.53926
| 59>    N       -5.24689       -17.02596        -0.74139
| 60>    C       -3.96946       -13.92368        -1.41824
| 61>    N       -3.66894       -13.30684        -2.33645
| 62>    C       -5.08012       -16.08631         2.64074
| 63>    C       -5.20234       -16.15425         4.01746
| 64>    S       -4.66038       -14.68140         4.81108
| 65>    C       -5.69715       -17.22908         4.79733
| 66>    C       -5.86479       -17.25177         6.17202
| 67>    C       -6.38174       -18.46688         6.61287
| 68>    C       -6.60430       -19.37982         5.56591
| 69>    S       -6.18149       -18.73578         4.03839
| 70>    C       -7.12247       -20.57710         6.11195
| 71>    C       -7.23751       -20.41829         7.51343
| 72>    C       -6.76433       -19.09171         7.87123
| 73>    C       -6.67556       -18.54320         9.11566
| 74>    C       -7.03017       -19.23751        10.29357
| 75>    N       -7.28929       -19.78124        11.26827
| 76>    C       -6.19513       -17.23041         9.31360
| 77>    N       -5.80675       -16.16310         9.46973
| 78>    C       -7.75878       -21.53492         8.14937
| 79>    C       -8.04172       -22.56310         7.25718
| 80>    S       -7.63349       -22.11065         5.59263
| 81>    C       -8.51960       -23.87476         7.43897
| 82>    C       -9.06059       -24.48455         8.53931
| 83>    C       -9.40504       -25.89637         8.59803
| 84>    C       -9.04662       -26.87291         7.70624
| 85>    C       -9.40565       -28.23232         7.83719
| 86>    N       -9.66289       -29.34988         7.87784
| 87>    C       -8.25063       -26.69124         6.55465
| 88>    N       -7.59750       -26.63584         5.61161
| 89>    C      -10.14560       -26.12157         9.83623
| 90>    C      -10.21023       -24.91354        10.54991
| 91>    C       -9.52745       -23.84445         9.79280
| 92>    O       -9.43273       -22.68576        10.13280
| 93>    C      -10.84309       -24.81873        11.77245
| 94>    C      -11.42954       -25.96237        12.29956
| 95>    C      -11.37430       -27.17089        11.59425
| 96>    C      -10.73445       -27.26012        10.36283
| 97>   Cl      -12.10825       -28.57561        12.25323
| 98>   Cl      -12.22400       -25.89125        13.81870
| 99>    H        2.75877         1.74824        -2.19531
|100>    H        0.29141         1.31389         2.10735
|101>    H        0.42082        -2.97973        -2.51091
|102>    H        0.04904        -3.31675         1.33083
|103>    H       -2.07951        -8.69923         3.46819
|104>    H       -3.10995       -11.57702        -0.29020
|105>    H       -5.36333       -16.89449         1.99038
|106>    H       -5.62075       -16.41518         6.80177
|107>    H       -7.94095       -21.61796         9.20517
|108>    H       -8.44415       -24.48197         6.54438
|109>    H      -10.87616       -23.87957        12.30184
|110>    H      -10.71643       -28.20742         9.84978
|111> *
|112>
|113>                          ****END OF INPUT****

CARTESIAN COORDINATES (ANGSTROEM)
---------------------------------
  C     -0.148500   -0.763970    0.098090
  C     -1.267530   -0.990020    0.855450
  C     -1.690080   -0.148850    1.907690
  N     -2.081910    0.497290    2.770410
  C     -2.184120   -2.033190    0.617890
  N     -2.971160   -2.851600    0.448740
  C      0.672890    0.443620    0.168130
  C      1.391090    0.577540   -1.034420
  C      2.222930    1.654670   -1.264050
  C      2.351400    2.612930   -0.265890
  C      1.653850    2.476030    0.940880
  C      0.808160    1.394600    1.164810
  Cl     1.839740    3.656910    2.171220
  Cl     3.375460    3.967380   -0.514010
  C      1.112660   -0.582590   -1.906230
  O      1.506970   -0.785620   -3.029610
  C      0.275260   -1.496340   -1.077620
  C      0.124630   -2.788720   -1.483880
  C     -0.278560   -3.910640   -0.729920
  C     -0.294990   -4.072450    0.648750
  C     -0.743450   -5.330020    1.024980
  C     -1.067160   -6.151890   -0.075490
  S     -0.795510   -5.374010   -1.563300
  C     -1.545130   -7.389910    0.420210
  C     -1.531790   -7.347780    1.826480
  C     -1.032560   -6.049600    2.251980
  C     -0.897620   -5.583480    3.526340
  C     -1.221670   -6.371170    4.650930
  N     -1.478520   -7.020560    5.559960
  C     -0.424660   -4.278790    3.782640
  N     -0.036040   -3.216540    3.969860
  C     -2.002290   -8.520800    2.410580
  C     -2.369840   -9.459120    1.460990
  S     -2.131380   -8.879370   -0.179140
  C     -2.892450  -10.754830    1.699500
  C     -3.226430  -11.722780    0.768790
  C     -3.718700  -12.878240    1.374260
  C     -3.762420  -12.783440    2.776440
  S     -3.193200  -11.280980    3.350020
  C     -4.280270  -13.995070    3.296550
  C     -4.560210  -14.861410    2.224800
  C     -4.216750  -14.188040    0.981170
  C     -4.337950  -14.679400   -0.284690
  C     -4.839460  -15.973780   -0.539260
  N     -5.246890  -17.025960   -0.741390
  C     -3.969460  -13.923680   -1.418240
  N     -3.668940  -13.306840   -2.336450
  C     -5.080120  -16.086310    2.640740
  C     -5.202340  -16.154250    4.017460
  S     -4.660380  -14.681400    4.811080
  C     -5.697150  -17.229080    4.797330
  C     -5.864790  -17.251770    6.172020
  C     -6.381740  -18.466880    6.612870
  C     -6.604300  -19.379820    5.565910
  S     -6.181490  -18.735780    4.038390
  C     -7.122470  -20.577100    6.111950
  C     -7.237510  -20.418290    7.513430
  C     -6.764330  -19.091710    7.871230
  C     -6.675560  -18.543200    9.115660
  C     -7.030170  -19.237510   10.293570
  N     -7.289290  -19.781240   11.268270
  C     -6.195130  -17.230410    9.313600
  N     -5.806750  -16.163100    9.469730
  C     -7.758780  -21.534920    8.149370
  C     -8.041720  -22.563100    7.257180
  S     -7.633490  -22.110650    5.592630
  C     -8.519600  -23.874760    7.438970
  C     -9.060590  -24.484550    8.539310
  C     -9.405040  -25.896370    8.598030
  C     -9.046620  -26.872910    7.706240
  C     -9.405650  -28.232320    7.837190
  N     -9.662890  -29.349880    7.877840
  C     -8.250630  -26.691240    6.554650
  N     -7.597500  -26.635840    5.611610
  C    -10.145600  -26.121570    9.836230
  C    -10.210230  -24.913540   10.549910
  C     -9.527450  -23.844450    9.792800
  O     -9.432730  -22.685760   10.132800
  C    -10.843090  -24.818730   11.772450
  C    -11.429540  -25.962370   12.299560
  C    -11.374300  -27.170890   11.594250
  C    -10.734450  -27.260120   10.362830
  Cl   -12.108250  -28.575610   12.253230
  Cl   -12.224000  -25.891250   13.818700
  H      2.758770    1.748240   -2.195310
  H      0.291410    1.313890    2.107350
  H      0.420820   -2.979730   -2.510910
  H      0.049040   -3.316750    1.330830
  H     -2.079510   -8.699230    3.468190
  H     -3.109950  -11.577020   -0.290200
  H     -5.363330  -16.894490    1.990380
  H     -5.620750  -16.415180    6.801770
  H     -7.940950  -21.617960    9.205170
  H     -8.444150  -24.481970    6.544380
  H    -10.876160  -23.879570   12.301840
  H    -10.716430  -28.207420    9.849780

 Total Charge           Charge          ....    0
 Multiplicity           Mult            ....    1
 Number of Electrons    NEL             ....  634
 Basis Dimension        Dim             .... 1276

ORBITAL ENERGIES
----------------

  NO   OCC          E(Eh)            E(eV)
   0   2.0000    -101.604263     -2764.7926
   1   2.0000    -101.603389     -2764.7688
   2   2.0000    -101.602987     -2764.7578
   3   2.0000    -101.602101     -2764.7337
   4   2.0000     -89.008449     -2422.0430
   5   2.0000     -89.008137     -2422.0345
   6   2.0000     -89.007680     -2422.0221
   7   2.0000     -89.007592     -2422.0197
   8   2.0000     -89.005777     -2421.9703
   9   2.0000     -89.005192     -2421.9544
  10   2.0000     -19.229647      -523.2653
  11   2.0000     -19.227304      -523.2015
  12   2.0000     -14.445066      -393.0702
  13   2.0000     -14.445002      -393.0685
  14   2.0000     -14.442656      -393.0047
  15   2.0000     -14.442635      -393.0041
  16   2.0000     -14.442415      -392.9981
  17   2.0000     -14.438200      -392.8834
  18   2.0000     -14.427750      -392.5990
  19   2.0000     -14.426142      -392.5553
  20   2.0000     -14.422283      -392.4503
  21   2.0000     -14.422057      -392.4441
  22   2.0000     -10.381199      -282.4868
  23   2.0000     -10.381015      -282.4818
  24   2.0000     -10.378788      -282.4212
  25   2.0000     -10.378687      -282.4184
  26   2.0000     -10.378414      -282.4110
  27   2.0000     -10.367834      -282.1231
  28   2.0000     -10.365043      -282.0472
  29   2.0000     -10.364695      -282.0377
  30   2.0000     -10.361400      -281.9480
  31   2.0000     -10.360709      -281.9292
  32   2.0000     -10.360169      -281.9145
  33   2.0000     -10.359792      -281.9043
  34   2.0000     -10.356647      -281.8187
  35   2.0000     -10.355383      -281.7843
  36   2.0000     -10.354150      -281.7507
  37   2.0000     -10.353960      -281.7456
  38   2.0000     -10.352758      -281.7129
  39   2.0000     -10.351771      -281.6860
  40   2.0000     -10.351112      -281.6681
  41   2.0000     -10.349981      -281.6373
  42   2.0000     -10.348975      -281.6099
  43   2.0000     -10.348844      -281.6064
  44   2.0000     -10.347374      -281.5664
  45   2.0000     -10.347328      -281.5651
  46   2.0000     -10.346701      -281.5481
  47   2.0000     -10.346595      -281.5452
  48   2.0000     -10.345028      -281.5025
  49   2.0000     -10.344978      -281.5012
  50   2.0000     -10.342590      -281.4362
  51   2.0000     -10.342580      -281.4359
  52   2.0000     -10.342413      -281.4314
  53   2.0000     -10.337181      -281.2890
  54   2.0000     -10.337042      -281.2852
  55   2.0000     -10.336886      -281.2810
  56   2.0000     -10.336818      -281.2791
  57   2.0000     -10.334868      -281.2260
  58   2.0000     -10.328744      -281.0594
  59   2.0000     -10.328705      -281.0584
  60   2.0000     -10.324888      -280.9545
  61   2.0000     -10.324516      -280.9444
  62   2.0000     -10.324145      -280.9343
  63   2.0000     -10.322525      -280.8902
  64   2.0000     -10.322381      -280.8863
  65   2.0000     -10.322234      -280.8823
  66   2.0000     -10.321012      -280.8490
  67   2.0000     -10.320824      -280.8439
  68   2.0000     -10.320580      -280.8373
  69   2.0000     -10.320481      -280.8346
  70   2.0000     -10.319816      -280.8165
  71   2.0000     -10.318875      -280.7909
  72   2.0000     -10.318387      -280.7776
  73   2.0000     -10.317652      -280.7576
  74   2.0000     -10.317085      -280.7422
  75   2.0000     -10.316209      -280.7183
  76   2.0000     -10.314997      -280.6853
  77   2.0000     -10.314168      -280.6628
  78   2.0000     -10.313252      -280.6378
  79   2.0000     -10.313133      -280.6346
  80   2.0000     -10.310623      -280.5663
  81   2.0000     -10.310263      -280.5565
  82   2.0000     -10.308140      -280.4987
  83   2.0000     -10.306100      -280.4432
  84   2.0000      -9.559292      -260.1215
  85   2.0000      -9.558430      -260.0981
  86   2.0000      -9.558016      -260.0868
  87   2.0000      -9.557122      -260.0625
  88   2.0000      -8.102758      -220.4873
  89   2.0000      -8.102506      -220.4804
  90   2.0000      -8.102001      -220.4666
  91   2.0000      -8.101908      -220.4641
  92   2.0000      -8.100434      -220.4240
  93   2.0000      -8.099817      -220.4072
  94   2.0000      -7.329683      -199.4508
  95   2.0000      -7.328835      -199.4277
  96   2.0000      -7.328408      -199.4161
  97   2.0000      -7.327528      -199.3922
  98   2.0000      -7.319549      -199.1751
  99   2.0000      -7.318816      -199.1551
 100   2.0000      -7.318694      -199.1518
 101   2.0000      -7.318278      -199.1405
 102   2.0000      -7.317934      -199.1311
 103   2.0000      -7.317528      -199.1201
 104   2.0000      -7.317374      -199.1159
 105   2.0000      -7.316635      -199.0958
 106   2.0000      -6.072095      -165.2301
 107   2.0000      -6.071798      -165.2220
 108   2.0000      -6.071314      -165.2089
 109   2.0000      -6.071242      -165.2069
 110   2.0000      -6.069608      -165.1624
 111   2.0000      -6.068931      -165.1440
 112   2.0000      -6.067898      -165.1159
 113   2.0000      -6.067608      -165.1080
 114   2.0000      -6.067098      -165.0941
 115   2.0000      -6.067030      -165.0923
 116   2.0000      -6.065426      -165.0486
 117   2.0000      -6.064999      -165.0370
 118   2.0000      -6.064804      -165.0317
 119   2.0000      -6.064776      -165.0310
 120   2.0000      -6.064313      -165.0183
 121   2.0000      -6.064169      -165.0144
 122   2.0000      -6.062921      -164.9805
 123   2.0000      -6.062408      -164.9665
 124   2.0000      -1.145694       -31.1759
 125   2.0000      -1.143285       -31.1104
 126   2.0000      -1.063756       -28.9463
 127   2.0000      -1.061284       -28.8790
 128   2.0000      -1.059257       -28.8238
 129   2.0000      -1.037487       -28.2315
 130   2.0000      -1.037294       -28.2262
 131   2.0000      -1.036085       -28.1933
 132   2.0000      -1.034696       -28.1555
 133   2.0000      -1.033401       -28.1203
 134   2.0000      -1.026441       -27.9309
 135   2.0000      -1.023841       -27.8601
 136   2.0000      -1.023082       -27.8395
 137   2.0000      -1.022112       -27.8131
 138   2.0000      -1.020093       -27.7581
 139   2.0000      -1.017338       -27.6832
 140   2.0000      -1.015051       -27.6210
 141   2.0000      -1.005967       -27.3737
 142   2.0000      -1.003068       -27.2949
 143   2.0000      -1.002655       -27.2836
 144   2.0000      -0.997936       -27.1552
 145   2.0000      -0.997118       -27.1330
 146   2.0000      -0.980454       -26.6795
 147   2.0000      -0.972615       -26.4662
 148   2.0000      -0.968647       -26.3582
 149   2.0000      -0.966236       -26.2926
 150   2.0000      -0.965219       -26.2649
 151   2.0000      -0.943456       -25.6727
 152   2.0000      -0.942642       -25.6506
 153   2.0000      -0.936345       -25.4792
 154   2.0000      -0.930270       -25.3139
 155   2.0000      -0.922037       -25.0899
 156   2.0000      -0.909157       -24.7394
 157   2.0000      -0.906453       -24.6659
 158   2.0000      -0.889768       -24.2118
 159   2.0000      -0.889143       -24.1948
 160   2.0000      -0.886194       -24.1146
 161   2.0000      -0.880567       -23.9614
 162   2.0000      -0.877314       -23.8729
 163   2.0000      -0.873013       -23.7559
 164   2.0000      -0.870869       -23.6975
 165   2.0000      -0.866709       -23.5843
 166   2.0000      -0.866279       -23.5726
 167   2.0000      -0.865216       -23.5437
 168   2.0000      -0.848030       -23.0761
 169   2.0000      -0.825489       -22.4627
 170   2.0000      -0.808856       -22.0101
 171   2.0000      -0.800191       -21.7743
 172   2.0000      -0.795366       -21.6430
 173   2.0000      -0.789414       -21.4810
 174   2.0000      -0.784139       -21.3375
 175   2.0000      -0.777622       -21.1602
 176   2.0000      -0.774001       -21.0616
 177   2.0000      -0.767132       -20.8747
 178   2.0000      -0.750909       -20.4333
 179   2.0000      -0.736471       -20.0404
 180   2.0000      -0.727483       -19.7958
 181   2.0000      -0.721510       -19.6333
 182   2.0000      -0.714474       -19.4418
 183   2.0000      -0.711182       -19.3523
 184   2.0000      -0.706005       -19.2114
 185   2.0000      -0.705505       -19.1978
 186   2.0000      -0.702510       -19.1163
 187   2.0000      -0.699059       -19.0224
 188   2.0000      -0.694845       -18.9077
 189   2.0000      -0.692869       -18.8539
 190   2.0000      -0.687661       -18.7122
 191   2.0000      -0.686175       -18.6718
 192   2.0000      -0.668089       -18.1796
 193   2.0000      -0.664577       -18.0841
 194   2.0000      -0.651138       -17.7184
 195   2.0000      -0.648753       -17.6535
 196   2.0000      -0.646567       -17.5940
 197   2.0000      -0.644521       -17.5383
 198   2.0000      -0.638156       -17.3651
 199   2.0000      -0.636548       -17.3213
 200   2.0000      -0.632696       -17.2165
 201   2.0000      -0.628723       -17.1084
 202   2.0000      -0.627768       -17.0824
 203   2.0000      -0.623818       -16.9750
 204   2.0000      -0.620214       -16.8769
 205   2.0000      -0.614975       -16.7343
 206   2.0000      -0.604674       -16.4540
 207   2.0000      -0.598325       -16.2813
 208   2.0000      -0.593938       -16.1619
 209   2.0000      -0.590618       -16.0715
 210   2.0000      -0.579362       -15.7652
 211   2.0000      -0.572340       -15.5742
 212   2.0000      -0.567153       -15.4330
 213   2.0000      -0.566518       -15.4157
 214   2.0000      -0.564423       -15.3587
 215   2.0000      -0.562877       -15.3167
 216   2.0000      -0.560663       -15.2564
 217   2.0000      -0.556171       -15.1342
 218   2.0000      -0.555116       -15.1055
 219   2.0000      -0.552021       -15.0213
 220   2.0000      -0.551618       -15.0103
 221   2.0000      -0.548579       -14.9276
 222   2.0000      -0.544166       -14.8075
 223   2.0000      -0.543707       -14.7950
 224   2.0000      -0.539901       -14.6915
 225   2.0000      -0.536638       -14.6027
 226   2.0000      -0.530790       -14.4435
 227   2.0000      -0.528594       -14.3838
 228   2.0000      -0.523755       -14.2521
 229   2.0000      -0.523196       -14.2369
 230   2.0000      -0.522533       -14.2189
 231   2.0000      -0.520735       -14.1699
 232   2.0000      -0.519107       -14.1256
 233   2.0000      -0.517889       -14.0925
 234   2.0000      -0.516561       -14.0563
 235   2.0000      -0.513747       -13.9798
 236   2.0000      -0.512690       -13.9510
 237   2.0000      -0.511018       -13.9055
 238   2.0000      -0.509342       -13.8599
 239   2.0000      -0.507761       -13.8169
 240   2.0000      -0.505453       -13.7541
 241   2.0000      -0.503452       -13.6996
 242   2.0000      -0.503207       -13.6930
 243   2.0000      -0.500681       -13.6242
 244   2.0000      -0.497524       -13.5383
 245   2.0000      -0.496987       -13.5237
 246   2.0000      -0.493636       -13.4325
 247   2.0000      -0.489156       -13.3106
 248   2.0000      -0.486496       -13.2382
 249   2.0000      -0.485495       -13.2110
 250   2.0000      -0.481914       -13.1135
 251   2.0000      -0.475498       -12.9390
 252   2.0000      -0.473866       -12.8946
 253   2.0000      -0.473382       -12.8814
 254   2.0000      -0.472710       -12.8631
 255   2.0000      -0.472351       -12.8533
 256   2.0000      -0.471952       -12.8425
 257   2.0000      -0.471092       -12.8191
 258   2.0000      -0.469870       -12.7858
 259   2.0000      -0.465835       -12.6760
 260   2.0000      -0.463674       -12.6172
 261   2.0000      -0.459962       -12.5162
 262   2.0000      -0.458836       -12.4856
 263   2.0000      -0.457393       -12.4463
 264   2.0000      -0.456706       -12.4276
 265   2.0000      -0.456027       -12.4091
 266   2.0000      -0.455026       -12.3819
 267   2.0000      -0.454870       -12.3776
 268   2.0000      -0.453618       -12.3436
 269   2.0000      -0.452402       -12.3105
 270   2.0000      -0.451863       -12.2958
 271   2.0000      -0.450500       -12.2587
 272   2.0000      -0.450167       -12.2497
 273   2.0000      -0.449791       -12.2394
 274   2.0000      -0.449132       -12.2215
 275   2.0000      -0.448510       -12.2046
 276   2.0000      -0.443540       -12.0693
 277   2.0000      -0.442842       -12.0503
 278   2.0000      -0.440892       -11.9973
 279   2.0000      -0.439975       -11.9723
 280   2.0000      -0.438295       -11.9266
 281   2.0000      -0.436218       -11.8701
 282   2.0000      -0.435605       -11.8534
 283   2.0000      -0.435141       -11.8408
 284   2.0000      -0.433584       -11.7984
 285   2.0000      -0.433051       -11.7839
 286   2.0000      -0.432238       -11.7618
 287   2.0000      -0.431716       -11.7476
 288   2.0000      -0.424061       -11.5393
 289   2.0000      -0.420377       -11.4390
 290   2.0000      -0.418388       -11.3849
 291   2.0000      -0.413728       -11.2581
 292   2.0000      -0.413647       -11.2559
 293   2.0000      -0.411323       -11.1927
 294   2.0000      -0.410372       -11.1668
 295   2.0000      -0.404331       -11.0024
 296   2.0000      -0.391129       -10.6432
 297   2.0000      -0.385419       -10.4878
 298   2.0000      -0.384678       -10.4676
 299   2.0000      -0.378965       -10.3122
 300   2.0000      -0.368904       -10.0384
 301   2.0000      -0.365375        -9.9424
 302   2.0000      -0.364235        -9.9113
 303   2.0000      -0.361064        -9.8251
 304   2.0000      -0.352237        -9.5849
 305   2.0000      -0.349992        -9.5238
 306   2.0000      -0.347847        -9.4654
 307   2.0000      -0.343388        -9.3441
 308   2.0000      -0.340766        -9.2727
 309   2.0000      -0.336217        -9.1489
 310   2.0000      -0.335820        -9.1381
 311   2.0000      -0.331142        -9.0108
 312   2.0000      -0.317965        -8.6523
 313   2.0000      -0.316526        -8.6131
 314   2.0000      -0.306114        -8.3298
 315   2.0000      -0.279507        -7.6058
 316   2.0000      -0.254508        -6.9255
 317   0.0000      -0.128526        -3.4974
 318   0.0000      -0.120848        -3.2884
 319   0.0000      -0.117197        -3.1891
 320   0.0000      -0.097099        -2.6422
 321   0.0000      -0.096843        -2.6352

MULLIKEN ATOMIC CHARGES
-----------------------
   0 C :    0.266591
   1 C :   -0.325882
   2 C :   -0.174179
   3 N :    0.167910
   4 C :   -0.201955
   5 N :    0.171755
   6 C :    0.009751
   7 C :    0.006839
   8 C :   -0.029506
   9 C :    0.058246
  10 C :    0.048051
  11 C :   -0.008919
  12 Cl:   -0.031762
  13 Cl:   -0.040707
  14 C :    0.135875
  15 O :   -0.135387
  16 C :   -0.140423
  17 C :    0.086993
  18 C :   -0.115835
  19 C :    0.001530
  20 C :   -0.007182
  21 C :   -0.069018
  22 S :    0.220848
  23 C :   -0.106016
  24 C :    0.030856
  25 C :    0.301575
  26 C :   -0.282351
  27 C :   -0.187218
  28 N :    0.175538
  29 C :   -0.184260
  30 N :    0.176090
  31 C :   -0.073348
  32 C :   -0.042489
  33 S :    0.208688
  34 C :   -0.052168
  35 C :   -0.066674
  36 C :    0.020948
  37 C :   -0.095141
  38 S :    0.204964
  39 C :   -0.094157
  40 C :    0.015573
  41 C :    0.294997
  42 C :   -0.289556
  43 C :   -0.187617
  44 N :    0.179182
  45 C :   -0.186930
  46 N :    0.175989
  47 C :   -0.058155
  48 C :   -0.058087
  49 S :    0.205182
  50 C :   -0.041504
  51 C :   -0.070111
  52 C :    0.027055
  53 C :   -0.105601
  54 S :    0.209279
  55 C :   -0.076691
  56 C :   -0.011559
  57 C :    0.306255
  58 C :   -0.292087
  59 C :   -0.188458
  60 N :    0.195280
  61 C :   -0.190167
  62 N :    0.175714
  63 C :    0.004123
  64 C :   -0.114897
  65 S :    0.212000
  66 C :    0.034782
  67 C :   -0.090671
  68 C :    0.307044
  69 C :   -0.345761
  70 C :   -0.187379
  71 N :    0.158403
  72 C :   -0.196371
  73 N :    0.159200
  74 C :    0.031586
  75 C :   -0.016510
  76 C :    0.156568
  77 O :   -0.144068
  78 C :   -0.031458
  79 C :    0.064513
  80 C :    0.047876
  81 C :   -0.013727
  82 Cl:   -0.032657
  83 Cl:   -0.039456
  84 H :    0.001793
  85 H :    0.009925
  86 H :    0.022498
  87 H :    0.026419
  88 H :    0.016648
  89 H :    0.014378
  90 H :    0.014631
  91 H :    0.016490
  92 H :    0.038997
  93 H :    0.013517
  94 H :    0.003418
  95 H :    0.001694
Sum of atomic charges:   -0.0000000

LOEWDIN ATOMIC CHARGES
----------------------
   0 C :    0.063922
   1 C :   -0.131475
   2 C :   -0.021534
   3 N :   -0.037451
   4 C :   -0.015372
   5 N :   -0.042429
   6 C :   -0.010542
   7 C :   -0.046715
   8 C :    0.002149
   9 C :   -0.134933
  10 C :   -0.128754
  11 C :   -0.011816
  12 Cl:    0.166454
  13 Cl:    0.161006
  14 C :    0.083575
  15 O :   -0.136285
  16 C :   -0.093793
  17 C :    0.044872
  18 C :   -0.183177
  19 C :    0.010880
  20 C :   -0.067318
  21 C :   -0.156873
  22 S :    0.503416
  23 C :   -0.185285
  24 C :   -0.053156
  25 C :    0.081464
  26 C :   -0.093993
  27 C :   -0.016267
  28 N :   -0.027325
  29 C :   -0.013134
  30 N :   -0.027839
  31 C :   -0.039075
  32 C :   -0.171662
  33 S :    0.492271
  34 C :   -0.179038
  35 C :   -0.033968
  36 C :   -0.065352
  37 C :   -0.179012
  38 S :    0.493688
  39 C :   -0.176074
  40 C :   -0.066913
  41 C :    0.080628
  42 C :   -0.096193
  43 C :   -0.016720
  44 N :   -0.027212
  45 C :   -0.016361
  46 N :   -0.027559
  47 C :   -0.031383
  48 C :   -0.182044
  49 S :    0.494152
  50 C :   -0.167467
  51 C :   -0.041981
  52 C :   -0.048715
  53 C :   -0.191642
  54 S :    0.491091
  55 C :   -0.156337
  56 C :   -0.075895
  57 C :    0.074972
  58 C :   -0.090317
  59 C :   -0.022314
  60 N :   -0.011795
  61 C :   -0.014958
  62 N :   -0.028956
  63 C :    0.021378
  64 C :   -0.178231
  65 S :    0.499704
  66 C :    0.043877
  67 C :   -0.099359
  68 C :    0.075059
  69 C :   -0.136376
  70 C :   -0.020393
  71 N :   -0.044680
  72 C :   -0.024074
  73 N :   -0.047982
  74 C :   -0.014642
  75 C :   -0.043360
  76 C :    0.086249
  77 O :   -0.131746
  78 C :    0.002639
  79 C :   -0.133426
  80 C :   -0.129827
  81 C :   -0.012346
  82 Cl:    0.164144
  83 Cl:    0.162025
  84 H :    0.046738
  85 H :    0.046649
  86 H :    0.046854
  87 H :    0.042852
  88 H :    0.036770
  89 H :    0.037353
  90 H :    0.037617
  91 H :    0.036405
  92 H :    0.044343
  93 H :    0.043419
  94 H :    0.047565
  95 H :    0.044667

  Mayer bond orders larger than 0.100000
B(  0-C ,  1-C ) :   1.6550 B(  0-C ,  6-C ) :   1.0008 B(  0-C , 16-C ) :   1.0387
B(  1-C ,  2-C ) :   1.1234 B(  1-C ,  4-C ) :   1.1736 B(  2-C ,  3-N ) :   2.9953
B(  4-C ,  5-N ) :   2.9966 B(  6-C ,  7-C ) :   1.3315 B(  6-C , 11-C ) :   1.3491
B(  7-C ,  8-C ) :   1.3472 B(  7-C , 14-C ) :   0.9193 B(  8-C ,  9-C ) :   1.3455
B(  8-C , 84-H ) :   1.0160 B(  9-C , 10-C ) :   1.4062 B(  9-C , 13-Cl) :   1.0485
B( 10-C , 11-C ) :   1.3595 B( 10-C , 12-Cl) :   1.0731 B( 11-C , 85-H ) :   0.9889
B( 14-C , 15-O ) :   2.2715 B( 14-C , 16-C ) :   0.9464 B( 16-C , 17-C ) :   1.6673
B( 17-C , 18-C ) :   1.1430 B( 17-C , 86-H ) :   0.9282 B( 18-C , 19-C ) :   1.3915
B( 18-C , 22-S ) :   1.0873 B( 19-C , 20-C ) :   1.3626 B( 19-C , 87-H ) :   0.9785
B( 20-C , 21-C ) :   1.4068 B( 20-C , 25-C ) :   1.0010 B( 21-C , 22-S ) :   1.1577
B( 21-C , 23-C ) :   1.1977 B( 23-C , 24-C ) :   1.4404 B( 23-C , 33-S ) :   1.1121
B( 24-C , 25-C ) :   0.9902 B( 24-C , 31-C ) :   1.3102 B( 25-C , 26-C ) :   1.7215
B( 26-C , 27-C ) :   1.1323 B( 26-C , 29-C ) :   1.1335 B( 27-C , 28-N ) :   2.9893
B( 29-C , 30-N ) :   2.9827 B( 31-C , 32-C ) :   1.4444 B( 31-C , 88-H ) :   0.9867
B( 32-C , 33-S ) :   1.1196 B( 32-C , 34-C ) :   1.1727 B( 34-C , 35-C ) :   1.4525
B( 34-C , 38-S ) :   1.1103 B( 35-C , 36-C ) :   1.3043 B( 35-C , 89-H ) :   0.9885
B( 36-C , 37-C ) :   1.4411 B( 36-C , 41-C ) :   0.9913 B( 37-C , 38-S ) :   1.1246
B( 37-C , 39-C ) :   1.1873 B( 39-C , 40-C ) :   1.4410 B( 39-C , 49-S ) :   1.1275
B( 40-C , 41-C ) :   0.9932 B( 40-C , 47-C ) :   1.3078 B( 41-C , 42-C ) :   1.7210
B( 42-C , 43-C ) :   1.1314 B( 42-C , 45-C ) :   1.1321 B( 43-C , 44-N ) :   2.9928
B( 45-C , 46-N ) :   2.9913 B( 47-C , 48-C ) :   1.4520 B( 47-C , 90-H ) :   0.9868
B( 48-C , 49-S ) :   1.1080 B( 48-C , 50-C ) :   1.1757 B( 50-C , 51-C ) :   1.4399
B( 50-C , 54-S ) :   1.1230 B( 51-C , 52-C ) :   1.3150 B( 51-C , 91-H ) :   0.9846
B( 52-C , 53-C ) :   1.4376 B( 52-C , 57-C ) :   0.9916 B( 53-C , 54-S ) :   1.1051
B( 53-C , 55-C ) :   1.2068 B( 55-C , 56-C ) :   1.3739 B( 55-C , 65-S ) :   1.1700
B( 56-C , 57-C ) :   0.9954 B( 56-C , 63-C ) :   1.3292 B( 57-C , 58-C ) :   1.7210
B( 58-C , 59-C ) :   1.1345 B( 58-C , 61-C ) :   1.1349 B( 59-C , 60-N ) :   2.9955
B( 61-C , 62-N ) :   2.9870 B( 63-C , 64-C ) :   1.3938 B( 63-C , 92-H ) :   0.9714
B( 64-C , 65-S ) :   1.0735 B( 64-C , 66-C ) :   1.2186 B( 66-C , 67-C ) :   1.5873
B( 66-C , 93-H ) :   0.9155 B( 67-C , 68-C ) :   1.0824 B( 67-C , 76-C ) :   0.9438
B( 68-C , 69-C ) :   1.6342 B( 68-C , 74-C ) :   0.9891 B( 69-C , 70-C ) :   1.1400
B( 69-C , 72-C ) :   1.1419 B( 70-C , 71-N ) :   2.9736 B( 72-C , 73-N ) :   2.9789
B( 74-C , 75-C ) :   1.3316 B( 74-C , 81-C ) :   1.3407 B( 75-C , 76-C ) :   0.9490
B( 75-C , 78-C ) :   1.3459 B( 76-C , 77-O ) :   2.1843 B( 78-C , 79-C ) :   1.3374
B( 78-C , 94-H ) :   1.0178 B( 79-C , 80-C ) :   1.4044 B( 79-C , 83-Cl) :   1.0507
B( 80-C , 81-C ) :   1.3596 B( 80-C , 82-Cl) :   1.0793 B( 81-C , 95-H ) :   0.9860

-----------------------------------------------------------------------------
         ABSORPTION SPECTRUM VIA TRANSITION ELECTRIC DIPOLE MOMENTS
-----------------------------------------------------------------------------
State   Energy  Wavelength   fosc         T2         TX        TY        TZ
        (cm-1)    (nm)                  (au**2)     (au)      (au)      (au)
-----------------------------------------------------------------------------
   0   11300.0    885.0   0.713377335  20.78344  -1.58073  -3.98977   1.53835
   1   12751.7    784.2   0.187736195   4.84681   0.67911   2.01298  -0.57753
   2   13195.4    757.8   0.086229117   2.15132  -0.57700  -1.08267   0.80389
   3   19357.9    516.6   1.516262318  25.78639  -1.36002  -4.72841   1.25653
   4   20281.4    493.1   0.030582958   0.49643   0.31258   0.51029  -0.37193
   5   20582.6    485.8   0.426619556   6.82365   1.24227   1.90925  -1.27873
   6   22183.5    450.8   0.186082732   2.76154   0.31051   1.61221  -0.25674
   7   22657.8    441.3   0.059232688   0.86064   0.44729   0.73645  -0.34382
   8   25523.5    391.8   0.400849018   5.17030   0.95585   1.82060  -0.97060
   9   26334.6    379.7   0.021518147   0.26900   0.09538  -0.43141  -0.27163
  10   26714.9    374.3   0.094671904   1.16665   0.52001   0.71195  -0.62400
  11   27290.3    366.4   0.090214021   1.08828   0.59178   0.85084  -0.11900
  12   27582.4    362.6   0.169556662   2.02376  -0.84149  -0.56040   1.00080
  13   28022.0    356.9   0.008810341   0.10351  -0.21980   0.14459   0.18518
  14   28339.9    352.9   0.037231762   0.43250   0.36461   0.52896   0.14058
  15   28926.2    345.7   0.053178906   0.60523  -0.57733  -0.21165   0.47658
  16   29076.8    343.9   0.071865772   0.81368   0.10828   0.81854  -0.36324
  17   29492.4    339.1   0.243971765   2.72336  -0.45177  -1.56339   0.27399
  18   29920.2    334.2   0.159223554   1.75194  -0.54136  -1.04275   0.60953
  19   30664.4    326.1   0.002351516   0.02525   0.04674   0.04338   0.14553
  20   30735.9    325.4   0.502150235   5.37852  -0.56600  -1.04501  -1.99151
  21   30970.8    322.9   0.029663513   0.31532  -0.01856  -0.55877  -0.05236
  22   31211.4    320.4   0.140645774   1.48350  -0.73587  -0.91779  -0.31569
  23   31596.7    316.5   0.600387670   6.25556  -0.21928   0.59539   2.41929
  24   31657.9    315.9   0.540293759   5.61854   0.44616   0.91365   2.14120
  25   32388.2    308.8   0.060173854   0.61164  -0.29958  -0.16275   0.70385
  26   32751.7    305.3   0.159413234   1.60238   0.23799  -0.73378  -1.00365
  27   32809.6    304.8   0.022758497   0.22836  -0.31278  -0.29467   0.20903
  28   32988.7    303.1   0.051716657   0.51611   0.52497   0.47872   0.10649
  29   33071.4    302.4   0.146590111   1.45924  -0.38259  -0.98107  -0.59191
  30   33192.0    301.3   0.083958469   0.83274   0.25949   0.26775  -0.83289
  31   33287.5    300.4   0.198152801   1.95972  -0.34794  -1.19051   0.64910
  32   33951.1    294.5   0.060935189   0.59087   0.43685   0.39180  -0.49651
  33   33961.7    294.4   0.009157569   0.08877   0.11959   0.27201  -0.02187
  34   34020.1    293.9   0.076978293   0.74492  -0.52084  -0.64903   0.22894
  35   34167.9    292.7   0.026101327   0.25149   0.23453  -0.07867  -0.43623
  36   34282.8    291.7   0.090973172   0.87360  -0.24810  -0.67855  -0.59297
  37   34479.9    290.0   0.217377804   2.07551  -0.79683  -0.45661   1.10999
  38   34590.9    289.1   0.245167225   2.33333   0.52892   1.15717  -0.84530
  39   34745.1    287.8   0.026926996   0.25513   0.37111   0.28022  -0.19720
  40   34991.7    285.8   0.121454593   1.14268  -0.22851   0.30663   0.99822
  41   35062.9    285.2   0.077745655   0.72997   0.44725   0.12454  -0.71723
  42   35179.9    284.3   0.098348500   0.92034  -0.54157  -0.47348  -0.63472
  43   35407.0    282.4   0.238761593   2.21999   0.77798   0.27488  -1.24064
  44   35737.6    279.8   0.018091414   0.16666   0.00642   0.26108   0.31377
  45   35797.3    279.4   0.028063379   0.25809   0.15567  -0.34286  -0.34103
  46   35913.6    278.4   0.256593650   2.35214   0.24451  -1.17176  -0.95882
  47   36244.8    275.9   0.164254954   1.49193   0.22109  -0.69474  -0.97999
  48   36331.6    275.2   0.249168087   2.25779   1.15870   0.79208  -0.53648
  49   36470.0    274.2   0.197411915   1.78202  -0.72133  -0.23051   1.09935
  50   36991.2    270.3   0.004346590   0.03868  -0.12807  -0.04352  -0.14278
  51   37169.6    269.0   0.011008648   0.09750   0.08201  -0.10689  -0.28170
  52   37417.5    267.3   0.159661440   1.40476  -0.12433  -0.78385  -0.88027
  53   37845.8    264.2   0.001729947   0.01505  -0.10364  -0.06236   0.02044
  54   38203.7    261.8   0.007944133   0.06846   0.10509   0.15179  -0.18540
  55   38365.5    260.7   0.068247345   0.58563   0.23045   0.63556  -0.35859
  56   38436.2    260.2   0.083984594   0.71934   0.04845  -0.68196  -0.50192
  57   38686.9    258.5   0.018610523   0.15837  -0.16867  -0.36037   0.00715
  58   38936.2    256.8   0.012127475   0.10254   0.20383   0.09469  -0.22809
  59   39018.4    256.3   0.009267267   0.07819   0.12213   0.24346  -0.06326
  60   39379.5    253.9   0.014303622   0.11958  -0.15541  -0.16557   0.26079
  61   39537.4    252.9   0.006267364   0.05219  -0.01422   0.22781   0.00933
  62   39707.8    251.8   0.020139026   0.16697   0.11368  -0.24739  -0.30471
  63   39789.5    251.3   0.057327165   0.47432   0.35769   0.58277  -0.08214
  64   40062.4    249.6   0.012905198   0.10605  -0.26559   0.17211   0.07672
  65   40294.3    248.2   0.027666182   0.22604  -0.07491  -0.12176   0.45343

FINAL SINGLE POINT ENERGY     -7292.313782574216

DIPOLE MOMENT
-------------
                                X             Y             Z
Electronic contribution:     -2.81584       6.62014      14.52528
Nuclear contribution   :      3.75453      -5.95014     -15.92682
                        -----------------------------------------
Total Dipole Moment    :      0.93869       0.67000      -1.40154
                        -----------------------------------------
Magnitude (a.u.)       :      1.81503
Magnitude (Debye)      :      4.61345

Rotational constants in cm-1:     0.001964     0.000102     0.000098
Rotational constants in MHz :    58.874358     3.058434     2.930032

                             ****ORCA TERMINATED NORMALLY****
TOTAL RUN TIME: 0 days 0 hours 10 minutes 30 seconds 461 msec
