                         Program Version 4.2.0 -  RELEASE  -
|  1> # ORCA input file
|  2> # SCF done       -200.183780798941          0.000647539916
|  3> ! CAM-B3LYP def2-SVP def2/J RIJCOSX Grid4 TightSCF
|  4> %maxcore 5000
|  5> %tddft
|  6>     Mode sTDDFT
|  7>     Ethresh 5.0
|  8>     maxcore 5000
|  9> end
| 10>
| 11> %pal
| 12>   nprocs 6
| 13>   end
| 14> * xyz 0 1
| 15>    C       -3.22751         0.26292         6.95264
| 16>    C       -4.30236         0.56660         7.74042
| 17>    F       -4.28068         1.65712         8.51792
| 18>    C       -5.44385        -0.25974         7.74568
| 19>    F       -6.48309         0.06194         8.52802
| 20>    C       -5.49505        -1.37871         6.96229
| 21>    C       -4.40377        -1.71800         6.13946
| 22>    C       -3.24865        -0.88381         6.13374
| 23>    C       -2.14010        -1.20418         5.31635
| 24>    C       -2.18554        -2.32359         4.52819
| 25>    C       -3.34503        -3.14852         4.53918
| 26>    C       -4.42984        -2.86714         5.31791
| 27>    C       -3.14469        -4.27221         3.60723
| 28>    O       -3.93636        -5.16947         3.37775
| 29>    C       -1.81358        -4.08502         3.02077
| 30>    C       -1.21484        -2.89657         3.59712
| 31>    C        0.03200        -2.38377         3.34640
| 32>    C        0.98685        -2.92542         2.46074
| 33>    N        1.82048        -3.30075         1.76521
| 34>    C        0.54584        -1.22138         3.95951
| 35>    N        1.02455        -0.28453         4.41879
| 36>    C       -1.24232        -4.89300         2.07027
| 37>    C       -1.72792        -6.05080         1.44617
| 38>    C       -0.97826        -6.71752         0.47277
| 39>    C       -1.62814        -7.82926        -0.02193
| 40>    C       -2.89066        -8.04318         0.56718
| 41>    S       -3.27349        -6.84351         1.74104
| 42>    C       -3.51539        -9.17462         0.03712
| 43>    C       -2.74320        -9.81096        -0.94424
| 44>    S       -1.21855        -9.02319        -1.22708
| 45>    C       -3.34889       -10.93964        -1.49405
| 46>    C       -4.58699       -11.18084        -0.93686
| 47>    S       -5.01384        -9.99706         0.28423
| 48>    C       -5.47551       -12.24031        -1.26140
| 49>    C       -6.68702       -12.54436        -0.68145
| 50>    C       -7.27765       -13.66621        -1.26826
| 51>    C       -6.52031       -14.22168        -2.30558
| 52>    S       -5.05465       -13.35164        -2.55564
| 53>    C       -7.13646       -15.33950        -2.87434
| 54>    C       -8.36062       -15.63957        -2.26654
| 55>    S       -8.76217       -14.53155        -0.98427
| 56>    C       -8.99940       -16.75511        -2.81354
| 57>    C       -8.27187       -17.30878        -3.84334
| 58>    S       -6.77170       -16.44548        -4.14397
| 59>    C       -8.59633       -18.44124        -4.63702
| 60>    C       -7.87920       -18.94086        -5.70246
| 61>    C       -8.48583       -20.06919        -6.25444
| 62>    C       -9.67192       -20.44429        -5.61017
| 63>    S      -10.04270       -19.37671        -4.30535
| 64>    C      -10.24873       -21.58088        -6.18071
| 65>    C       -9.49955       -22.06115        -7.26920
| 66>    S       -8.07203       -21.11483        -7.58065
| 67>    C      -10.05199       -23.17724        -7.88083
| 68>    C      -11.22622       -23.58260        -7.26553
| 69>    S      -11.63163       -22.55671        -5.89442
| 70>    C      -12.04008       -24.70074        -7.54126
| 71>    C      -12.10253       -25.46511        -8.66991
| 72>    C      -12.66032       -26.84196        -8.57381
| 73>    O      -13.27438       -27.31149        -7.64419
| 74>    C      -12.24842       -27.51523        -9.82301
| 75>    C      -12.39521       -28.82376       -10.18208
| 76>    C      -11.88773       -29.25503       -11.42861
| 77>    C      -11.23284       -28.31781       -12.27935
| 78>    C      -10.72278       -28.75580       -13.51791
| 79>    C      -10.85843       -30.06223       -13.89541
| 80>    C      -11.50666       -30.98826       -13.05372
| 81>    C      -12.01139       -30.59448       -11.84611
| 82>    F      -11.62320       -32.26331       -13.44848
| 83>    F      -10.37364       -30.47645       -15.07334
| 84>    C      -11.10213       -26.96684       -11.88337
| 85>    C      -11.60801       -26.57078       -10.67463
| 86>    C      -11.64367       -25.26186       -10.02486
| 87>    C      -11.51403       -24.06059       -10.67398
| 88>    C      -11.80431       -22.81592       -10.08125
| 89>    N      -12.05826       -21.78264        -9.65073
| 90>    C      -11.15678       -23.93702       -12.03187
| 91>    N      -10.84987       -23.78115       -13.12688
| 92>    H       -2.36132         0.90603         6.96064
| 93>    H       -6.37626        -2.00079         6.97747
| 94>    H       -1.28298        -0.55110         5.33576
| 95>    H       -5.29582        -3.51133         5.30614
| 96>    H       -0.25662        -4.61108         1.72044
| 97>    H       -0.00620        -6.38329         0.15818
| 98>    H       -2.91487       -11.55764        -2.25851
| 99>    H       -7.11251       -11.97853         0.12691
|100>    H       -9.94535       -17.14392        -2.48377
|101>    H       -6.96485       -18.50171        -6.05697
|102>    H       -9.59764       -23.69954        -8.70273
|103>    H      -12.65083       -25.05746        -6.71719
|104>    H      -12.89066       -29.52143        -9.52426
|105>    H      -10.22706       -28.05900       -14.17563
|106>    H      -12.50475       -31.31565       -11.21351
|107>    H      -10.59478       -26.28060       -12.54264
|108> *
|109>
|110>                          ****END OF INPUT****

CARTESIAN COORDINATES (ANGSTROEM)
---------------------------------
  C     -3.227510    0.262920    6.952640
  C     -4.302360    0.566600    7.740420
  F     -4.280680    1.657120    8.517920
  C     -5.443850   -0.259740    7.745680
  F     -6.483090    0.061940    8.528020
  C     -5.495050   -1.378710    6.962290
  C     -4.403770   -1.718000    6.139460
  C     -3.248650   -0.883810    6.133740
  C     -2.140100   -1.204180    5.316350
  C     -2.185540   -2.323590    4.528190
  C     -3.345030   -3.148520    4.539180
  C     -4.429840   -2.867140    5.317910
  C     -3.144690   -4.272210    3.607230
  O     -3.936360   -5.169470    3.377750
  C     -1.813580   -4.085020    3.020770
  C     -1.214840   -2.896570    3.597120
  C      0.032000   -2.383770    3.346400
  C      0.986850   -2.925420    2.460740
  N      1.820480   -3.300750    1.765210
  C      0.545840   -1.221380    3.959510
  N      1.024550   -0.284530    4.418790
  C     -1.242320   -4.893000    2.070270
  C     -1.727920   -6.050800    1.446170
  C     -0.978260   -6.717520    0.472770
  C     -1.628140   -7.829260   -0.021930
  C     -2.890660   -8.043180    0.567180
  S     -3.273490   -6.843510    1.741040
  C     -3.515390   -9.174620    0.037120
  C     -2.743200   -9.810960   -0.944240
  S     -1.218550   -9.023190   -1.227080
  C     -3.348890  -10.939640   -1.494050
  C     -4.586990  -11.180840   -0.936860
  S     -5.013840   -9.997060    0.284230
  C     -5.475510  -12.240310   -1.261400
  C     -6.687020  -12.544360   -0.681450
  C     -7.277650  -13.666210   -1.268260
  C     -6.520310  -14.221680   -2.305580
  S     -5.054650  -13.351640   -2.555640
  C     -7.136460  -15.339500   -2.874340
  C     -8.360620  -15.639570   -2.266540
  S     -8.762170  -14.531550   -0.984270
  C     -8.999400  -16.755110   -2.813540
  C     -8.271870  -17.308780   -3.843340
  S     -6.771700  -16.445480   -4.143970
  C     -8.596330  -18.441240   -4.637020
  C     -7.879200  -18.940860   -5.702460
  C     -8.485830  -20.069190   -6.254440
  C     -9.671920  -20.444290   -5.610170
  S    -10.042700  -19.376710   -4.305350
  C    -10.248730  -21.580880   -6.180710
  C     -9.499550  -22.061150   -7.269200
  S     -8.072030  -21.114830   -7.580650
  C    -10.051990  -23.177240   -7.880830
  C    -11.226220  -23.582600   -7.265530
  S    -11.631630  -22.556710   -5.894420
  C    -12.040080  -24.700740   -7.541260
  C    -12.102530  -25.465110   -8.669910
  C    -12.660320  -26.841960   -8.573810
  O    -13.274380  -27.311490   -7.644190
  C    -12.248420  -27.515230   -9.823010
  C    -12.395210  -28.823760  -10.182080
  C    -11.887730  -29.255030  -11.428610
  C    -11.232840  -28.317810  -12.279350
  C    -10.722780  -28.755800  -13.517910
  C    -10.858430  -30.062230  -13.895410
  C    -11.506660  -30.988260  -13.053720
  C    -12.011390  -30.594480  -11.846110
  F    -11.623200  -32.263310  -13.448480
  F    -10.373640  -30.476450  -15.073340
  C    -11.102130  -26.966840  -11.883370
  C    -11.608010  -26.570780  -10.674630
  C    -11.643670  -25.261860  -10.024860
  C    -11.514030  -24.060590  -10.673980
  C    -11.804310  -22.815920  -10.081250
  N    -12.058260  -21.782640   -9.650730
  C    -11.156780  -23.937020  -12.031870
  N    -10.849870  -23.781150  -13.126880
  H     -2.361320    0.906030    6.960640
  H     -6.376260   -2.000790    6.977470
  H     -1.282980   -0.551100    5.335760
  H     -5.295820   -3.511330    5.306140
  H     -0.256620   -4.611080    1.720440
  H     -0.006200   -6.383290    0.158180
  H     -2.914870  -11.557640   -2.258510
  H     -7.112510  -11.978530    0.126910
  H     -9.945350  -17.143920   -2.483770
  H     -6.964850  -18.501710   -6.056970
  H     -9.597640  -23.699540   -8.702730
  H    -12.650830  -25.057460   -6.717190
  H    -12.890660  -29.521430   -9.524260
  H    -10.227060  -28.059000  -14.175630
  H    -12.504750  -31.315650  -11.213510
  H    -10.594780  -26.280600  -12.542640

 Total Charge           Charge          ....    0
 Multiplicity           Mult            ....    1
 Number of Electrons    NEL             ....  588
 Basis Dimension        Dim             .... 1194

ORBITAL ENERGIES
----------------

  NO   OCC          E(Eh)            E(eV)
   0   2.0000     -88.977827     -2421.2098
   1   2.0000     -88.977255     -2421.1942
   2   2.0000     -88.977100     -2421.1900
   3   2.0000     -88.976259     -2421.1671
   4   2.0000     -88.976113     -2421.1631
   5   2.0000     -88.972092     -2421.0537
   6   2.0000     -88.970932     -2421.0221
   7   2.0000     -88.970513     -2421.0107
   8   2.0000     -88.970106     -2420.9997
   9   2.0000     -24.798530      -674.8023
  10   2.0000     -24.798180      -674.7928
  11   2.0000     -24.797940      -674.7862
  12   2.0000     -24.797008      -674.7609
  13   2.0000     -19.222131      -523.0608
  14   2.0000     -19.215570      -522.8822
  15   2.0000     -14.417567      -392.3219
  16   2.0000     -14.417416      -392.3178
  17   2.0000     -14.416275      -392.2868
  18   2.0000     -14.413709      -392.2170
  19   2.0000     -10.381584      -282.4973
  20   2.0000     -10.381190      -282.4865
  21   2.0000     -10.381175      -282.4861
  22   2.0000     -10.380380      -282.4645
  23   2.0000     -10.370484      -282.1952
  24   2.0000     -10.367317      -282.1090
  25   2.0000     -10.344372      -281.4847
  26   2.0000     -10.343770      -281.4683
  27   2.0000     -10.341853      -281.4161
  28   2.0000     -10.340587      -281.3817
  29   2.0000     -10.331871      -281.1445
  30   2.0000     -10.331203      -281.1263
  31   2.0000     -10.328700      -281.0582
  32   2.0000     -10.327262      -281.0191
  33   2.0000     -10.327174      -281.0167
  34   2.0000     -10.325124      -280.9609
  35   2.0000     -10.324920      -280.9554
  36   2.0000     -10.322807      -280.8979
  37   2.0000     -10.321825      -280.8711
  38   2.0000     -10.321534      -280.8632
  39   2.0000     -10.321230      -280.8549
  40   2.0000     -10.321120      -280.8519
  41   2.0000     -10.320840      -280.8443
  42   2.0000     -10.320704      -280.8406
  43   2.0000     -10.320395      -280.8322
  44   2.0000     -10.320317      -280.8301
  45   2.0000     -10.319952      -280.8202
  46   2.0000     -10.319195      -280.7996
  47   2.0000     -10.317872      -280.7636
  48   2.0000     -10.317278      -280.7474
  49   2.0000     -10.317194      -280.7451
  50   2.0000     -10.316707      -280.7319
  51   2.0000     -10.316662      -280.7306
  52   2.0000     -10.314815      -280.6804
  53   2.0000     -10.311074      -280.5786
  54   2.0000     -10.310710      -280.5687
  55   2.0000     -10.310173      -280.5541
  56   2.0000     -10.309781      -280.5434
  57   2.0000     -10.309166      -280.5267
  58   2.0000     -10.308525      -280.5092
  59   2.0000     -10.307513      -280.4817
  60   2.0000     -10.306703      -280.4597
  61   2.0000     -10.303219      -280.3649
  62   2.0000     -10.302957      -280.3577
  63   2.0000     -10.302571      -280.3472
  64   2.0000     -10.301601      -280.3208
  65   2.0000     -10.301548      -280.3194
  66   2.0000     -10.301068      -280.3063
  67   2.0000     -10.300978      -280.3039
  68   2.0000     -10.300816      -280.2995
  69   2.0000     -10.300574      -280.2929
  70   2.0000     -10.300090      -280.2797
  71   2.0000     -10.299374      -280.2602
  72   2.0000     -10.299043      -280.2512
  73   2.0000     -10.298600      -280.2391
  74   2.0000     -10.297049      -280.1970
  75   2.0000     -10.294212      -280.1198
  76   2.0000     -10.293169      -280.0914
  77   2.0000      -8.072806      -219.6722
  78   2.0000      -8.072443      -219.6623
  79   2.0000      -8.072092      -219.6528
  80   2.0000      -8.071303      -219.6313
  81   2.0000      -8.071149      -219.6271
  82   2.0000      -8.067354      -219.5239
  83   2.0000      -8.066019      -219.4875
  84   2.0000      -8.065399      -219.4707
  85   2.0000      -8.063408      -219.4165
  86   2.0000      -6.042471      -164.4240
  87   2.0000      -6.041966      -164.4103
  88   2.0000      -6.041709      -164.4033
  89   2.0000      -6.040937      -164.3823
  90   2.0000      -6.040795      -164.3784
  91   2.0000      -6.038352      -164.3119
  92   2.0000      -6.037878      -164.2990
  93   2.0000      -6.037608      -164.2917
  94   2.0000      -6.037103      -164.2779
  95   2.0000      -6.036843      -164.2708
  96   2.0000      -6.036702      -164.2670
  97   2.0000      -6.035767      -164.2416
  98   2.0000      -6.035166      -164.2252
  99   2.0000      -6.034201      -164.1989
 100   2.0000      -6.034059      -164.1951
 101   2.0000      -6.033556      -164.1814
 102   2.0000      -6.033238      -164.1728
 103   2.0000      -6.033189      -164.1714
 104   2.0000      -6.032724      -164.1588
 105   2.0000      -6.032580      -164.1549
 106   2.0000      -6.031894      -164.1362
 107   2.0000      -6.031324      -164.1207
 108   2.0000      -6.028562      -164.0455
 109   2.0000      -6.028271      -164.0376
 110   2.0000      -6.027007      -164.0032
 111   2.0000      -6.026252      -163.9826
 112   2.0000      -6.025027      -163.9493
 113   2.0000      -1.321159       -35.9506
 114   2.0000      -1.320529       -35.9334
 115   2.0000      -1.306318       -35.5467
 116   2.0000      -1.305663       -35.5289
 117   2.0000      -1.137838       -30.9622
 118   2.0000      -1.131374       -30.7863
 119   2.0000      -1.036858       -28.2143
 120   2.0000      -1.034029       -28.1374
 121   2.0000      -1.029931       -28.0259
 122   2.0000      -1.021033       -27.7837
 123   2.0000      -1.019881       -27.7524
 124   2.0000      -1.004887       -27.3444
 125   2.0000      -1.004674       -27.3386
 126   2.0000      -1.003786       -27.3144
 127   2.0000      -0.996818       -27.1248
 128   2.0000      -0.994390       -27.0587
 129   2.0000      -0.993489       -27.0342
 130   2.0000      -0.984981       -26.8027
 131   2.0000      -0.981527       -26.7087
 132   2.0000      -0.980319       -26.6758
 133   2.0000      -0.951742       -25.8982
 134   2.0000      -0.942330       -25.6421
 135   2.0000      -0.932820       -25.3833
 136   2.0000      -0.929722       -25.2990
 137   2.0000      -0.926513       -25.2117
 138   2.0000      -0.904860       -24.6225
 139   2.0000      -0.903717       -24.5914
 140   2.0000      -0.893585       -24.3157
 141   2.0000      -0.892583       -24.2884
 142   2.0000      -0.886933       -24.1347
 143   2.0000      -0.885792       -24.1036
 144   2.0000      -0.881907       -23.9979
 145   2.0000      -0.872098       -23.7310
 146   2.0000      -0.863089       -23.4859
 147   2.0000      -0.855971       -23.2921
 148   2.0000      -0.850252       -23.1365
 149   2.0000      -0.843976       -22.9658
 150   2.0000      -0.841141       -22.8886
 151   2.0000      -0.840244       -22.8642
 152   2.0000      -0.836063       -22.7504
 153   2.0000      -0.823621       -22.4119
 154   2.0000      -0.814289       -22.1579
 155   2.0000      -0.804357       -21.8877
 156   2.0000      -0.802222       -21.8296
 157   2.0000      -0.794695       -21.6247
 158   2.0000      -0.782189       -21.2845
 159   2.0000      -0.768601       -20.9147
 160   2.0000      -0.768326       -20.9072
 161   2.0000      -0.763719       -20.7819
 162   2.0000      -0.749867       -20.4049
 163   2.0000      -0.738145       -20.0859
 164   2.0000      -0.728682       -19.8285
 165   2.0000      -0.719365       -19.5749
 166   2.0000      -0.717974       -19.5371
 167   2.0000      -0.712963       -19.4007
 168   2.0000      -0.701156       -19.0794
 169   2.0000      -0.690239       -18.7823
 170   2.0000      -0.685179       -18.6447
 171   2.0000      -0.680239       -18.5103
 172   2.0000      -0.672843       -18.3090
 173   2.0000      -0.669484       -18.2176
 174   2.0000      -0.665890       -18.1198
 175   2.0000      -0.664575       -18.0840
 176   2.0000      -0.658464       -17.9177
 177   2.0000      -0.655494       -17.8369
 178   2.0000      -0.654162       -17.8007
 179   2.0000      -0.646381       -17.5889
 180   2.0000      -0.644101       -17.5269
 181   2.0000      -0.642879       -17.4936
 182   2.0000      -0.640945       -17.4410
 183   2.0000      -0.637343       -17.3430
 184   2.0000      -0.632841       -17.2205
 185   2.0000      -0.624097       -16.9826
 186   2.0000      -0.619447       -16.8560
 187   2.0000      -0.616149       -16.7663
 188   2.0000      -0.614004       -16.7079
 189   2.0000      -0.611995       -16.6532
 190   2.0000      -0.594486       -16.1768
 191   2.0000      -0.593056       -16.1379
 192   2.0000      -0.588551       -16.0153
 193   2.0000      -0.585752       -15.9391
 194   2.0000      -0.585124       -15.9220
 195   2.0000      -0.583471       -15.8771
 196   2.0000      -0.580777       -15.8037
 197   2.0000      -0.577085       -15.7033
 198   2.0000      -0.572461       -15.5775
 199   2.0000      -0.571687       -15.5564
 200   2.0000      -0.560980       -15.2650
 201   2.0000      -0.556412       -15.1407
 202   2.0000      -0.554521       -15.0893
 203   2.0000      -0.553174       -15.0526
 204   2.0000      -0.547397       -14.8954
 205   2.0000      -0.547285       -14.8924
 206   2.0000      -0.546778       -14.8786
 207   2.0000      -0.542095       -14.7511
 208   2.0000      -0.539179       -14.6718
 209   2.0000      -0.537569       -14.6280
 210   2.0000      -0.536709       -14.6046
 211   2.0000      -0.536100       -14.5880
 212   2.0000      -0.533628       -14.5208
 213   2.0000      -0.532330       -14.4854
 214   2.0000      -0.531617       -14.4660
 215   2.0000      -0.529448       -14.4070
 216   2.0000      -0.527290       -14.3483
 217   2.0000      -0.525912       -14.3108
 218   2.0000      -0.524011       -14.2591
 219   2.0000      -0.518628       -14.1126
 220   2.0000      -0.517330       -14.0773
 221   2.0000      -0.514449       -13.9989
 222   2.0000      -0.513454       -13.9718
 223   2.0000      -0.507353       -13.8058
 224   2.0000      -0.504076       -13.7166
 225   2.0000      -0.503184       -13.6923
 226   2.0000      -0.501657       -13.6508
 227   2.0000      -0.498457       -13.5637
 228   2.0000      -0.496764       -13.5176
 229   2.0000      -0.493192       -13.4204
 230   2.0000      -0.490567       -13.3490
 231   2.0000      -0.488904       -13.3037
 232   2.0000      -0.485975       -13.2241
 233   2.0000      -0.485077       -13.1996
 234   2.0000      -0.484101       -13.1731
 235   2.0000      -0.479974       -13.0608
 236   2.0000      -0.479514       -13.0482
 237   2.0000      -0.476749       -12.9730
 238   2.0000      -0.470387       -12.7999
 239   2.0000      -0.469821       -12.7845
 240   2.0000      -0.468265       -12.7422
 241   2.0000      -0.467516       -12.7217
 242   2.0000      -0.464520       -12.6402
 243   2.0000      -0.463408       -12.6100
 244   2.0000      -0.462051       -12.5730
 245   2.0000      -0.457706       -12.4548
 246   2.0000      -0.452120       -12.3028
 247   2.0000      -0.451800       -12.2941
 248   2.0000      -0.450106       -12.2480
 249   2.0000      -0.446773       -12.1573
 250   2.0000      -0.446655       -12.1541
 251   2.0000      -0.444307       -12.0902
 252   2.0000      -0.443452       -12.0669
 253   2.0000      -0.439775       -11.9669
 254   2.0000      -0.436948       -11.8900
 255   2.0000      -0.432844       -11.7783
 256   2.0000      -0.432257       -11.7623
 257   2.0000      -0.429918       -11.6987
 258   2.0000      -0.429694       -11.6926
 259   2.0000      -0.428438       -11.6584
 260   2.0000      -0.427708       -11.6385
 261   2.0000      -0.426712       -11.6114
 262   2.0000      -0.424875       -11.5614
 263   2.0000      -0.424756       -11.5582
 264   2.0000      -0.421678       -11.4744
 265   2.0000      -0.420067       -11.4306
 266   2.0000      -0.411554       -11.1990
 267   2.0000      -0.411115       -11.1870
 268   2.0000      -0.406832       -11.0705
 269   2.0000      -0.405478       -11.0336
 270   2.0000      -0.399486       -10.8706
 271   2.0000      -0.399410       -10.8685
 272   2.0000      -0.389526       -10.5996
 273   2.0000      -0.387680       -10.5493
 274   2.0000      -0.384371       -10.4593
 275   2.0000      -0.374874       -10.2008
 276   2.0000      -0.364644        -9.9225
 277   2.0000      -0.350344        -9.5333
 278   2.0000      -0.349265        -9.5040
 279   2.0000      -0.346848        -9.4382
 280   2.0000      -0.343444        -9.3456
 281   2.0000      -0.337531        -9.1847
 282   2.0000      -0.337033        -9.1711
 283   2.0000      -0.325845        -8.8667
 284   2.0000      -0.318296        -8.6613
 285   2.0000      -0.317648        -8.6437
 286   2.0000      -0.303754        -8.2656
 287   2.0000      -0.302062        -8.2195
 288   2.0000      -0.298529        -8.1234
 289   2.0000      -0.297843        -8.1047
 290   2.0000      -0.295059        -8.0290
 291   2.0000      -0.290738        -7.9114
 292   2.0000      -0.265435        -7.2228
 293   2.0000      -0.240753        -6.5512
 294   0.0000      -0.102259        -2.7826
 295   0.0000      -0.097293        -2.6475
 296   0.0000      -0.065889        -1.7929
 297   0.0000      -0.061029        -1.6607
 298   0.0000      -0.054524        -1.4837

MULLIKEN ATOMIC CHARGES
-----------------------
   0 C :   -0.111246
   1 C :    0.241661
   2 F :   -0.171358
   3 C :    0.239816
   4 F :   -0.172187
   5 C :   -0.107196
   6 C :    0.119084
   7 C :    0.116542
   8 C :   -0.087999
   9 C :    0.046345
  10 C :   -0.001738
  11 C :   -0.086673
  12 C :    0.170172
  13 O :   -0.181506
  14 C :   -0.101379
  15 C :    0.337706
  16 C :   -0.359598
  17 C :   -0.189461
  18 N :    0.140631
  19 C :   -0.184983
  20 N :    0.148667
  21 C :   -0.017866
  22 C :   -0.057745
  23 C :   -0.048510
  24 C :    0.001341
  25 C :   -0.049940
  26 S :    0.209854
  27 C :   -0.088541
  28 C :   -0.009116
  29 S :    0.166012
  30 C :   -0.070591
  31 C :   -0.033817
  32 S :    0.163005
  33 C :   -0.045829
  34 C :   -0.060475
  35 C :   -0.025979
  36 C :   -0.072199
  37 S :    0.147455
  38 C :   -0.071863
  39 C :   -0.025045
  40 S :    0.163703
  41 C :   -0.060575
  42 C :   -0.045520
  43 S :    0.148137
  44 C :   -0.034805
  45 C :   -0.067305
  46 C :   -0.011870
  47 C :   -0.083005
  48 S :    0.159582
  49 C :   -0.051334
  50 C :   -0.044924
  51 S :    0.174544
  52 C :    0.016292
  53 C :   -0.118781
  54 S :    0.177898
  55 C :    0.086211
  56 C :   -0.140923
  57 C :    0.137852
  58 O :   -0.142277
  59 C :    0.014828
  60 C :   -0.085186
  61 C :    0.113084
  62 C :    0.113260
  63 C :   -0.107982
  64 C :    0.240899
  65 C :    0.240836
  66 C :   -0.106099
  67 F :   -0.172257
  68 F :   -0.171233
  69 C :   -0.083873
  70 C :    0.032897
  71 C :    0.269000
  72 C :   -0.340904
  73 C :   -0.210665
  74 N :    0.177606
  75 C :   -0.174244
  76 N :    0.153192
  77 H :    0.008240
  78 H :   -0.001140
  79 H :   -0.005660
  80 H :   -0.011060
  81 H :    0.006838
  82 H :    0.010141
  83 H :   -0.001957
  84 H :   -0.003009
  85 H :   -0.003903
  86 H :   -0.002228
  87 H :    0.005920
  88 H :    0.024595
  89 H :   -0.009071
  90 H :    0.006153
  91 H :   -0.000288
  92 H :   -0.005083
Sum of atomic charges:   -0.0000000

LOEWDIN ATOMIC CHARGES
----------------------
   0 C :   -0.029153
   1 C :    0.066136
   2 F :   -0.049190
   3 C :    0.067186
   4 F :   -0.049955
   5 C :   -0.033786
   6 C :   -0.009156
   7 C :   -0.006821
   8 C :    0.017398
   9 C :   -0.021872
  10 C :   -0.051020
  11 C :    0.028349
  12 C :    0.084127
  13 O :   -0.168896
  14 C :   -0.115872
  15 C :    0.077612
  16 C :   -0.145928
  17 C :   -0.020770
  18 N :   -0.056955
  19 C :   -0.017819
  20 N :   -0.057138
  21 C :    0.059086
  22 C :   -0.180049
  23 C :   -0.019028
  24 C :   -0.198393
  25 C :   -0.198523
  26 S :    0.494063
  27 C :   -0.224487
  28 C :   -0.172899
  29 S :    0.408274
  30 C :   -0.077631
  31 C :   -0.160942
  32 S :    0.437504
  33 C :   -0.175460
  34 C :   -0.063871
  35 C :   -0.190362
  36 C :   -0.214155
  37 S :    0.431242
  38 C :   -0.215036
  39 C :   -0.189680
  40 S :    0.412638
  41 C :   -0.065357
  42 C :   -0.174284
  43 S :    0.431307
  44 C :   -0.162759
  45 C :   -0.074938
  46 C :   -0.175788
  47 C :   -0.221079
  48 S :    0.435275
  49 C :   -0.192324
  50 C :   -0.189826
  51 S :    0.419013
  52 C :   -0.018883
  53 C :   -0.179544
  54 S :    0.451843
  55 C :    0.051281
  56 C :   -0.100487
  57 C :    0.082017
  58 O :   -0.144368
  59 C :   -0.053511
  60 C :    0.029788
  61 C :   -0.009736
  62 C :   -0.006188
  63 C :   -0.030587
  64 C :    0.066545
  65 C :    0.066764
  66 C :   -0.032969
  67 F :   -0.049789
  68 F :   -0.049041
  69 C :    0.012709
  70 C :   -0.020465
  71 C :    0.064485
  72 C :   -0.144054
  73 C :   -0.020491
  74 N :   -0.040592
  75 C :   -0.020862
  76 N :   -0.053942
  77 H :    0.047881
  78 H :    0.044401
  79 H :    0.040080
  80 H :    0.039748
  81 H :    0.051025
  82 H :    0.042855
  83 H :    0.031442
  84 H :    0.032974
  85 H :    0.032555
  86 H :    0.031692
  87 H :    0.038935
  88 H :    0.046666
  89 H :    0.040603
  90 H :    0.047188
  91 H :    0.044805
  92 H :    0.039223

  Mayer bond orders larger than 0.100000
B(  0-C ,  1-C ) :   1.4394 B(  0-C ,  5-C ) :   0.1088 B(  0-C ,  7-C ) :   1.1891
B(  0-C , 77-H ) :   1.0067 B(  1-C ,  2-F ) :   1.1349 B(  1-C ,  3-C ) :   1.1928
B(  3-C ,  4-F ) :   1.1330 B(  3-C ,  5-C ) :   1.4413 B(  5-C ,  6-C ) :   1.1944
B(  5-C , 78-H ) :   1.0067 B(  6-C ,  7-C ) :   1.2574 B(  6-C , 11-C ) :   1.1839
B(  7-C ,  8-C ) :   1.2132 B(  8-C ,  9-C ) :   1.4553 B(  8-C , 79-H ) :   0.9888
B(  9-C , 10-C ) :   1.2214 B(  9-C , 15-C ) :   0.9793 B( 10-C , 11-C ) :   1.4724
B( 10-C , 12-C ) :   0.9547 B( 11-C , 80-H ) :   1.0166 B( 12-C , 13-O ) :   2.1300
B( 12-C , 14-C ) :   0.9813 B( 14-C , 15-C ) :   1.0908 B( 14-C , 21-C ) :   1.4701
B( 15-C , 16-C ) :   1.6119 B( 16-C , 17-C ) :   1.1469 B( 16-C , 19-C ) :   1.1508
B( 17-C , 18-N ) :   2.9541 B( 19-C , 20-N ) :   2.9598 B( 21-C , 22-C ) :   1.2902
B( 21-C , 81-H ) :   0.9371 B( 22-C , 23-C ) :   1.3596 B( 22-C , 26-S ) :   1.0636
B( 23-C , 24-C ) :   1.3391 B( 23-C , 82-H ) :   1.0118 B( 24-C , 25-C ) :   1.3716
B( 24-C , 29-S ) :   1.0308 B( 25-C , 26-S ) :   1.0618 B( 25-C , 27-C ) :   1.3290
B( 27-C , 28-C ) :   1.4521 B( 27-C , 32-S ) :   1.0598 B( 28-C , 29-S ) :   1.0555
B( 28-C , 30-C ) :   1.2772 B( 30-C , 31-C ) :   1.5006 B( 30-C , 83-H ) :   0.9946
B( 31-C , 32-S ) :   1.1083 B( 31-C , 33-C ) :   1.1775 B( 33-C , 34-C ) :   1.5150
B( 33-C , 37-S ) :   1.0933 B( 34-C , 35-C ) :   1.2683 B( 34-C , 84-H ) :   0.9964
B( 35-C , 36-C ) :   1.4647 B( 35-C , 40-S ) :   1.0523 B( 36-C , 37-S ) :   1.0705
B( 36-C , 38-C ) :   1.3089 B( 38-C , 39-C ) :   1.4644 B( 38-C , 43-S ) :   1.0697
B( 39-C , 40-S ) :   1.0526 B( 39-C , 41-C ) :   1.2685 B( 41-C , 42-C ) :   1.5190
B( 41-C , 85-H ) :   0.9949 B( 42-C , 43-S ) :   1.0943 B( 42-C , 44-C ) :   1.1742
B( 44-C , 45-C ) :   1.5105 B( 44-C , 48-S ) :   1.1043 B( 45-C , 46-C ) :   1.2734
B( 45-C , 86-H ) :   0.9932 B( 46-C , 47-C ) :   1.4586 B( 46-C , 51-S ) :   1.0590
B( 47-C , 48-S ) :   1.0612 B( 47-C , 49-C ) :   1.3230 B( 49-C , 50-C ) :   1.4190
B( 49-C , 54-S ) :   1.1003 B( 50-C , 51-S ) :   1.0433 B( 50-C , 52-C ) :   1.3517
B( 52-C , 53-C ) :   1.4367 B( 52-C , 87-H ) :   0.9883 B( 53-C , 54-S ) :   1.0727
B( 53-C , 55-C ) :   1.1590 B( 55-C , 56-C ) :   1.6385 B( 55-C , 88-H ) :   0.9287
B( 56-C , 57-C ) :   0.9478 B( 56-C , 71-C ) :   1.0499 B( 57-C , 58-O ) :   2.2705
B( 57-C , 59-C ) :   0.9140 B( 59-C , 60-C ) :   1.4776 B( 59-C , 70-C ) :   1.2228
B( 60-C , 61-C ) :   1.1906 B( 60-C , 89-H ) :   1.0160 B( 61-C , 62-C ) :   1.2575
B( 61-C , 66-C ) :   1.1955 B( 62-C , 63-C ) :   1.1888 B( 62-C , 69-C ) :   1.2143
B( 63-C , 64-C ) :   1.4415 B( 63-C , 66-C ) :   0.1089 B( 63-C , 90-H ) :   1.0067
B( 64-C , 65-C ) :   1.1915 B( 64-C , 68-F ) :   1.1344 B( 65-C , 66-C ) :   1.4423
B( 65-C , 67-F ) :   1.1325 B( 66-C , 91-H ) :   1.0066 B( 69-C , 70-C ) :   1.4563
B( 69-C , 92-H ) :   0.9939 B( 70-C , 71-C ) :   0.9953 B( 71-C , 72-C ) :   1.6393
B( 72-C , 73-C ) :   1.1679 B( 72-C , 75-C ) :   1.1299 B( 73-C , 74-N ) :   3.0075
B( 75-C , 76-N ) :   2.9850

-----------------------------------------------------------------------------
         ABSORPTION SPECTRUM VIA TRANSITION ELECTRIC DIPOLE MOMENTS
-----------------------------------------------------------------------------
State   Energy  Wavelength   fosc         T2         TX        TY        TZ
        (cm-1)    (nm)                  (au**2)     (au)      (au)      (au)
-----------------------------------------------------------------------------
   0   16659.1    600.3   3.279362442  64.80559  -2.75603  -6.30838  -4.17304
   1   18741.1    533.6   0.225471934   3.96071  -0.52963  -1.86956  -0.43006
   2   24557.8    407.2   0.175487365   2.35251  -0.77507  -1.31903   0.10925
   3   24899.5    401.6   0.004102741   0.05424  -0.14571   0.07474  -0.16561
   4   26011.3    384.4   0.147512323   1.86699   0.16115   0.93268   0.98546
   5   26263.4    380.8   0.048256664   0.60490   0.16257   0.53853   0.53708
   6   26600.4    375.9   0.171927081   2.12780  -1.26310  -0.65731   0.31676
   7   26910.2    371.6   0.033407188   0.40869  -0.11509  -0.45863  -0.43024
   8   27719.7    360.8   0.419450482   4.98159  -0.64240  -1.89937  -0.98046
   9   28349.1    352.7   0.015140393   0.17582   0.02316   0.05708  -0.41476
  10   28630.4    349.3   0.227560185   2.61664  -0.78787   1.06211   0.93157
  11   29036.2    344.4   0.007536884   0.08545   0.00038   0.27823  -0.08967
  12   29156.9    343.0   0.048019068   0.54219  -0.04801  -0.73455  -0.01790
  13   29976.5    333.6   0.035001118   0.38439  -0.51156   0.06901   0.34342
  14   30314.0    329.9   0.061202882   0.66467   0.09119  -0.75281  -0.29939
  15   30649.4    326.3   0.015077456   0.16195   0.25948   0.06047  -0.30160
  16   31463.3    317.8   0.057006308   0.59648  -0.44756   0.16528   0.60733
  17   31666.5    315.8   0.085885182   0.89288  -0.68198   0.32121   0.56974
  18   32283.9    309.8   0.032118629   0.32753  -0.00618  -0.57045  -0.04552
  19   33309.5    300.2   0.015390978   0.15212  -0.15308  -0.33208  -0.13567
  20   33383.9    299.5   0.102225841   1.00809   0.77154  -0.40518  -0.49864
  21   33853.0    295.4   0.657372307   6.39277  -1.12759   1.85862   1.29106
  22   33967.2    294.4   0.179133751   1.73617  -0.98061  -0.43100   0.76735
  23   34256.4    291.9   0.014849147   0.14270  -0.22531   0.18473   0.24044
  24   34764.0    287.7   0.119806511   1.13456   0.30697  -0.81019  -0.61961
  25   34870.6    286.8   0.231549960   2.18605   1.26923   0.35823  -0.66842
  26   35047.0    285.3   0.307564818   2.88909  -0.36970  -1.62106  -0.35295
  27   35072.5    285.1   0.124003440   1.16397  -0.86447  -0.49158   0.41835
  28   35643.1    280.6   0.099926791   0.92296  -0.80580   0.42496   0.30505
  29   35799.4    279.3   0.121470939   1.11705  -0.64832   0.69234   0.46626
  30   36272.1    275.7   0.036296351   0.32943  -0.33863  -0.40968  -0.21662
  31   36747.3    272.1   0.055951156   0.50126  -0.49051  -0.49908   0.10760
  32   37111.8    269.5   0.035372681   0.31378   0.38448  -0.16619  -0.37194
  33   37700.9    265.2   0.027710559   0.24197  -0.30805   0.22099   0.31343
  34   37787.0    264.6   0.026389262   0.22991  -0.02852  -0.34476  -0.33202
  35   38014.6    263.1   0.011959248   0.10357  -0.11437  -0.28686   0.09055
  36   38140.0    262.2   0.000404911   0.00350  -0.05613  -0.01856  -0.00045
  37   38282.3    261.2   0.085079228   0.73165   0.77378   0.05750  -0.36001
  38   38558.1    259.3   0.006995564   0.05973  -0.01786  -0.22052  -0.10382
  39   38956.9    256.7   0.103550673   0.87507   0.57752  -0.63296  -0.37538
  40   39230.2    254.9   0.128492230   1.07828   0.55315  -0.31722  -0.81956
  41   39501.0    253.2   0.214802374   1.79022   0.85950   0.98584  -0.28215
  42   39689.9    252.0   0.051841586   0.43000   0.45890   0.28893   0.36870
  43   39873.0    250.8   0.025479166   0.21037  -0.31722  -0.25514  -0.21129
  44   39955.7    250.3   0.115835088   0.95441  -0.65902  -0.27123   0.66824

FINAL SINGLE POINT ENERGY     -6567.512498866268

DIPOLE MOMENT
-------------
                                X             Y             Z
Electronic contribution:     -4.46689      -0.10544       1.22356
Nuclear contribution   :      3.71586      -1.84461      -0.42561
                        -----------------------------------------
Total Dipole Moment    :     -0.75103      -1.95006       0.79795
                        -----------------------------------------
Magnitude (a.u.)       :      2.23685
Magnitude (Debye)      :      5.68563

Rotational constants in cm-1:     0.002807     0.000097     0.000094
Rotational constants in MHz :    84.151488     2.902516     2.826709

                             ****ORCA TERMINATED NORMALLY****
TOTAL RUN TIME: 0 days 0 hours 9 minutes 21 seconds 831 msec
