                         Program Version 4.2.0 -  RELEASE  -
|  1> # ORCA input file
|  2> # SCF done       -210.276459027065          0.000437220527
|  3> ! CAM-B3LYP def2-SVP def2/J RIJCOSX Grid4 TightSCF
|  4> %maxcore 5000
|  5> %tddft
|  6>     Mode sTDDFT
|  7>     Ethresh 5.0
|  8>     maxcore 5000
|  9> end
| 10>
| 11> %pal
| 12>   nprocs 6
| 13>   end
| 14> * xyz 0 1
| 15>    C        3.65660        -1.11295         3.11884
| 16>    C        4.80199        -0.76542         2.45933
| 17>    F        5.64462         0.12803         2.99691
| 18>    C        5.11258        -1.33893         1.21065
| 19>    F        6.24324        -0.97934         0.58517
| 20>    C        4.27376        -2.25389         0.63889
| 21>    C        3.08680        -2.63377         1.29449
| 22>    C        2.76984        -2.05264         2.55601
| 23>    C        1.58160        -2.41570         3.23141
| 24>    C        0.74000        -3.33550         2.66425
| 25>    C        1.07130        -3.91888         1.41215
| 26>    C        2.20558        -3.58370         0.73178
| 27>    C        0.03101        -4.89652         1.03241
| 28>    O        0.01832        -5.52843        -0.00755
| 29>    C       -0.92224        -4.92637         2.15781
| 30>    C       -0.53220        -3.90024         3.10783
| 31>    C       -1.23910        -3.46342         4.19980
| 32>    C       -2.51686        -3.90851         4.59952
| 33>    N       -3.56151        -4.18735         4.98827
| 34>    C       -0.79164        -2.44786         5.07028
| 35>    N       -0.48538        -1.63368         5.81997
| 36>    C       -1.94550        -5.81520         2.39624
| 37>    C       -2.46599        -6.86420         1.62825
| 38>    C       -2.21287        -7.28285         0.32613
| 39>    C       -2.96328        -8.39552        -0.01159
| 40>    C       -3.81935        -8.85500         1.03027
| 41>    S       -3.68801        -7.87601         2.43162
| 42>    C       -4.47393        -9.97615         0.53539
| 43>    C       -4.00848       -10.17362        -0.78725
| 44>    N       -3.09119        -9.21329        -1.10519
| 45>    C       -2.41353        -9.06371        -2.36307
| 46>    C       -4.56875       -11.28792        -1.41473
| 47>    C       -5.45268       -11.94730        -0.58543
| 48>    S       -5.61656       -11.18680         0.99300
| 49>    C       -6.17716       -13.13130        -0.87451
| 50>    C       -7.03077       -13.81775        -0.03712
| 51>    C       -7.53730       -14.96779        -0.64721
| 52>    C       -7.06635       -15.15996        -1.96610
| 53>    S       -5.99464       -13.90019        -2.44974
| 54>    C       -7.63400       -16.34596        -2.42468
| 55>    C       -8.43465       -16.84562        -1.37276
| 56>    N       -8.37977       -15.99111        -0.30451
| 57>    C       -9.02000       -16.18015         0.96738
| 58>    C       -9.05861       -18.05854        -1.67489
| 59>    C       -8.74439       -18.48934        -2.94619
| 60>    S       -7.66796       -17.38520        -3.79919
| 61>    C       -9.16649       -19.68539        -3.58040
| 62>    C       -8.84494       -20.11325        -4.85155
| 63>    C       -9.41259       -21.35748        -5.13556
| 64>    C      -10.17532       -21.88528        -4.06576
| 65>    S      -10.19118       -20.82029        -2.70858
| 66>    C      -10.64813       -23.12290        -4.48295
| 67>    C      -10.17023       -23.31527        -5.80536
| 68>    N       -9.42962       -22.22701        -6.18901
| 69>    C       -8.72790       -22.08761        -7.43463
| 70>    C      -10.57050       -24.51874        -6.36931
| 71>    C      -11.30858       -25.28838        -5.48078
| 72>    S      -11.57254       -24.46473        -3.93875
| 73>    C      -11.87740       -26.54553        -5.76326
| 74>    C      -12.33851       -27.49104        -4.89196
| 75>    C      -13.33696       -28.49174        -5.34051
| 76>    O      -13.66659       -28.73495        -6.47982
| 77>    C      -13.88166       -29.07676        -4.09513
| 78>    C      -14.91007       -29.95972        -3.93848
| 79>    C      -15.27922       -30.36012        -2.63403
| 80>    C      -14.57493       -29.83158        -1.51363
| 81>    C      -14.95457       -30.22919        -0.21610
| 82>    C      -15.98191       -31.11277        -0.03898
| 83>    C      -16.67582       -31.63677        -1.14734
| 84>    C      -16.33297       -31.26929        -2.41828
| 85>    F      -17.68036       -32.50167        -0.94423
| 86>    F      -16.34053       -31.49018         1.19643
| 87>    C      -13.50654       -28.92569        -1.70726
| 88>    C      -13.16260       -28.55930        -2.97986
| 89>    C      -12.10052       -27.69167        -3.48203
| 90>    C      -10.94524       -27.38494        -2.80816
| 91>    C       -9.81589       -26.82574        -3.44002
| 92>    N       -8.86241       -26.42539        -3.93924
| 93>    C      -10.72664       -27.68861        -1.45112
| 94>    N      -10.51025       -27.90300        -0.34401
| 95>    H        3.43292        -0.66317         4.07360
| 96>    H        4.52606        -2.68466        -0.31746
| 97>    H        1.37355        -1.95925         4.18524
| 98>    H        2.42934        -4.04012        -0.22053
| 99>    H       -2.42514        -5.72590         3.36410
|100>    H       -1.50533        -6.77989        -0.30603
|101>    H       -2.13876       -10.04450        -2.75174
|102>    H       -1.51230        -8.47197        -2.21436
|103>    H       -3.05164        -8.56024        -3.09500
|104>    H       -4.35554       -11.61934        -2.41453
|105>    H       -7.24929       -13.48690         0.96195
|106>    H       -9.97873       -16.67663         0.82182
|107>    H       -9.18822       -15.21134         1.43506
|108>    H       -8.40341       -16.79194         1.63251
|109>    H       -9.70049       -18.61645        -1.01767
|110>    H       -8.22284       -19.53799        -5.51278
|111>    H       -9.37655       -22.38418        -8.25988
|112>    H       -7.83145       -22.71369        -7.44883
|113>    H       -8.43643       -21.04787        -7.56739
|114>    H      -10.31523       -24.86435        -7.35438
|115>    H      -12.04704       -26.76154        -6.81395
|116>    H      -15.43619       -30.34865        -4.79698
|117>    H      -14.43079       -29.84026         0.64309
|118>    H      -16.87438       -31.67935        -3.25641
|119>    H      -12.99171       -28.53505        -0.84383
|120> *
|121>
|122>                          ****END OF INPUT****

CARTESIAN COORDINATES (ANGSTROEM)
---------------------------------
  C      3.656600   -1.112950    3.118840
  C      4.801990   -0.765420    2.459330
  F      5.644620    0.128030    2.996910
  C      5.112580   -1.338930    1.210650
  F      6.243240   -0.979340    0.585170
  C      4.273760   -2.253890    0.638890
  C      3.086800   -2.633770    1.294490
  C      2.769840   -2.052640    2.556010
  C      1.581600   -2.415700    3.231410
  C      0.740000   -3.335500    2.664250
  C      1.071300   -3.918880    1.412150
  C      2.205580   -3.583700    0.731780
  C      0.031010   -4.896520    1.032410
  O      0.018320   -5.528430   -0.007550
  C     -0.922240   -4.926370    2.157810
  C     -0.532200   -3.900240    3.107830
  C     -1.239100   -3.463420    4.199800
  C     -2.516860   -3.908510    4.599520
  N     -3.561510   -4.187350    4.988270
  C     -0.791640   -2.447860    5.070280
  N     -0.485380   -1.633680    5.819970
  C     -1.945500   -5.815200    2.396240
  C     -2.465990   -6.864200    1.628250
  C     -2.212870   -7.282850    0.326130
  C     -2.963280   -8.395520   -0.011590
  C     -3.819350   -8.855000    1.030270
  S     -3.688010   -7.876010    2.431620
  C     -4.473930   -9.976150    0.535390
  C     -4.008480  -10.173620   -0.787250
  N     -3.091190   -9.213290   -1.105190
  C     -2.413530   -9.063710   -2.363070
  C     -4.568750  -11.287920   -1.414730
  C     -5.452680  -11.947300   -0.585430
  S     -5.616560  -11.186800    0.993000
  C     -6.177160  -13.131300   -0.874510
  C     -7.030770  -13.817750   -0.037120
  C     -7.537300  -14.967790   -0.647210
  C     -7.066350  -15.159960   -1.966100
  S     -5.994640  -13.900190   -2.449740
  C     -7.634000  -16.345960   -2.424680
  C     -8.434650  -16.845620   -1.372760
  N     -8.379770  -15.991110   -0.304510
  C     -9.020000  -16.180150    0.967380
  C     -9.058610  -18.058540   -1.674890
  C     -8.744390  -18.489340   -2.946190
  S     -7.667960  -17.385200   -3.799190
  C     -9.166490  -19.685390   -3.580400
  C     -8.844940  -20.113250   -4.851550
  C     -9.412590  -21.357480   -5.135560
  C    -10.175320  -21.885280   -4.065760
  S    -10.191180  -20.820290   -2.708580
  C    -10.648130  -23.122900   -4.482950
  C    -10.170230  -23.315270   -5.805360
  N     -9.429620  -22.227010   -6.189010
  C     -8.727900  -22.087610   -7.434630
  C    -10.570500  -24.518740   -6.369310
  C    -11.308580  -25.288380   -5.480780
  S    -11.572540  -24.464730   -3.938750
  C    -11.877400  -26.545530   -5.763260
  C    -12.338510  -27.491040   -4.891960
  C    -13.336960  -28.491740   -5.340510
  O    -13.666590  -28.734950   -6.479820
  C    -13.881660  -29.076760   -4.095130
  C    -14.910070  -29.959720   -3.938480
  C    -15.279220  -30.360120   -2.634030
  C    -14.574930  -29.831580   -1.513630
  C    -14.954570  -30.229190   -0.216100
  C    -15.981910  -31.112770   -0.038980
  C    -16.675820  -31.636770   -1.147340
  C    -16.332970  -31.269290   -2.418280
  F    -17.680360  -32.501670   -0.944230
  F    -16.340530  -31.490180    1.196430
  C    -13.506540  -28.925690   -1.707260
  C    -13.162600  -28.559300   -2.979860
  C    -12.100520  -27.691670   -3.482030
  C    -10.945240  -27.384940   -2.808160
  C     -9.815890  -26.825740   -3.440020
  N     -8.862410  -26.425390   -3.939240
  C    -10.726640  -27.688610   -1.451120
  N    -10.510250  -27.903000   -0.344010
  H      3.432920   -0.663170    4.073600
  H      4.526060   -2.684660   -0.317460
  H      1.373550   -1.959250    4.185240
  H      2.429340   -4.040120   -0.220530
  H     -2.425140   -5.725900    3.364100
  H     -1.505330   -6.779890   -0.306030
  H     -2.138760  -10.044500   -2.751740
  H     -1.512300   -8.471970   -2.214360
  H     -3.051640   -8.560240   -3.095000
  H     -4.355540  -11.619340   -2.414530
  H     -7.249290  -13.486900    0.961950
  H     -9.978730  -16.676630    0.821820
  H     -9.188220  -15.211340    1.435060
  H     -8.403410  -16.791940    1.632510
  H     -9.700490  -18.616450   -1.017670
  H     -8.222840  -19.537990   -5.512780
  H     -9.376550  -22.384180   -8.259880
  H     -7.831450  -22.713690   -7.448830
  H     -8.436430  -21.047870   -7.567390
  H    -10.315230  -24.864350   -7.354380
  H    -12.047040  -26.761540   -6.813950
  H    -15.436190  -30.348650   -4.796980
  H    -14.430790  -29.840260    0.643090
  H    -16.874380  -31.679350   -3.256410
  H    -12.991710  -28.535050   -0.843830

 Total Charge           Charge          ....    0
 Multiplicity           Mult            ....    1
 Number of Electrons    NEL             ....  588
 Basis Dimension        Dim             .... 1269

ORBITAL ENERGIES
----------------

  NO   OCC          E(Eh)            E(eV)
   0   2.0000     -88.968394     -2420.9531
   1   2.0000     -88.966870     -2420.9116
   2   2.0000     -88.966331     -2420.8969
   3   2.0000     -88.966047     -2420.8892
   4   2.0000     -88.965132     -2420.8643
   5   2.0000     -88.963873     -2420.8301
   6   2.0000     -24.793599      -674.6681
   7   2.0000     -24.793260      -674.6589
   8   2.0000     -24.792588      -674.6406
   9   2.0000     -24.792406      -674.6357
  10   2.0000     -19.212773      -522.8061
  11   2.0000     -19.206718      -522.6414
  12   2.0000     -14.479161      -393.9980
  13   2.0000     -14.478436      -393.9783
  14   2.0000     -14.476763      -393.9327
  15   2.0000     -14.408718      -392.0812
  16   2.0000     -14.407665      -392.0525
  17   2.0000     -14.405823      -392.0024
  18   2.0000     -14.404766      -391.9736
  19   2.0000     -10.376017      -282.3458
  20   2.0000     -10.375664      -282.3362
  21   2.0000     -10.375279      -282.3257
  22   2.0000     -10.375111      -282.3211
  23   2.0000     -10.364082      -282.0210
  24   2.0000     -10.358992      -281.8825
  25   2.0000     -10.333875      -281.1990
  26   2.0000     -10.333298      -281.1833
  27   2.0000     -10.333051      -281.1766
  28   2.0000     -10.331297      -281.1289
  29   2.0000     -10.331236      -281.1272
  30   2.0000     -10.330378      -281.1039
  31   2.0000     -10.329160      -281.0707
  32   2.0000     -10.326884      -281.0088
  33   2.0000     -10.326701      -281.0038
  34   2.0000     -10.325359      -280.9673
  35   2.0000     -10.324268      -280.9376
  36   2.0000     -10.318985      -280.7938
  37   2.0000     -10.318865      -280.7906
  38   2.0000     -10.318605      -280.7835
  39   2.0000     -10.318520      -280.7812
  40   2.0000     -10.317923      -280.7650
  41   2.0000     -10.317554      -280.7549
  42   2.0000     -10.316871      -280.7363
  43   2.0000     -10.315601      -280.7018
  44   2.0000     -10.314645      -280.6758
  45   2.0000     -10.313553      -280.6460
  46   2.0000     -10.312051      -280.6052
  47   2.0000     -10.311805      -280.5985
  48   2.0000     -10.311778      -280.5977
  49   2.0000     -10.311051      -280.5780
  50   2.0000     -10.309708      -280.5414
  51   2.0000     -10.307722      -280.4874
  52   2.0000     -10.305052      -280.4147
  53   2.0000     -10.304467      -280.3988
  54   2.0000     -10.304253      -280.3930
  55   2.0000     -10.304093      -280.3886
  56   2.0000     -10.304082      -280.3883
  57   2.0000     -10.303797      -280.3806
  58   2.0000     -10.303778      -280.3801
  59   2.0000     -10.303475      -280.3718
  60   2.0000     -10.303030      -280.3597
  61   2.0000     -10.300763      -280.2980
  62   2.0000     -10.299512      -280.2640
  63   2.0000     -10.296024      -280.1691
  64   2.0000     -10.295985      -280.1680
  65   2.0000     -10.295774      -280.1622
  66   2.0000     -10.295595      -280.1574
  67   2.0000     -10.295314      -280.1497
  68   2.0000     -10.294949      -280.1398
  69   2.0000     -10.294890      -280.1382
  70   2.0000     -10.294880      -280.1379
  71   2.0000     -10.294402      -280.1249
  72   2.0000     -10.293127      -280.0902
  73   2.0000     -10.292632      -280.0768
  74   2.0000     -10.291857      -280.0557
  75   2.0000     -10.291272      -280.0397
  76   2.0000     -10.289607      -279.9944
  77   2.0000     -10.287004      -279.9236
  78   2.0000     -10.286941      -279.9219
  79   2.0000     -10.285912      -279.8939
  80   2.0000      -8.063119      -219.4086
  81   2.0000      -8.061478      -219.3640
  82   2.0000      -8.061005      -219.3511
  83   2.0000      -8.060616      -219.3405
  84   2.0000      -8.059505      -219.3103
  85   2.0000      -8.058821      -219.2917
  86   2.0000      -6.032905      -164.1637
  87   2.0000      -6.031271      -164.1192
  88   2.0000      -6.030752      -164.1051
  89   2.0000      -6.030383      -164.0951
  90   2.0000      -6.029252      -164.0643
  91   2.0000      -6.028829      -164.0528
  92   2.0000      -6.028425      -164.0418
  93   2.0000      -6.027180      -164.0079
  94   2.0000      -6.026710      -163.9951
  95   2.0000      -6.026323      -163.9846
  96   2.0000      -6.025148      -163.9526
  97   2.0000      -6.024404      -163.9324
  98   2.0000      -6.024290      -163.9293
  99   2.0000      -6.022692      -163.8858
 100   2.0000      -6.022248      -163.8737
 101   2.0000      -6.021891      -163.8640
 102   2.0000      -6.020786      -163.8339
 103   2.0000      -6.020218      -163.8185
 104   2.0000      -1.315492       -35.7964
 105   2.0000      -1.315462       -35.7955
 106   2.0000      -1.300655       -35.3926
 107   2.0000      -1.300648       -35.3924
 108   2.0000      -1.126815       -30.6622
 109   2.0000      -1.121812       -30.5261
 110   2.0000      -1.106731       -30.1157
 111   2.0000      -1.106639       -30.1132
 112   2.0000      -1.103561       -30.0294
 113   2.0000      -1.012779       -27.5591
 114   2.0000      -1.011882       -27.5347
 115   2.0000      -0.998206       -27.1626
 116   2.0000      -0.997359       -27.1395
 117   2.0000      -0.996919       -27.1275
 118   2.0000      -0.996832       -27.1252
 119   2.0000      -0.989561       -26.9273
 120   2.0000      -0.986279       -26.8380
 121   2.0000      -0.984816       -26.7982
 122   2.0000      -0.982142       -26.7255
 123   2.0000      -0.974311       -26.5123
 124   2.0000      -0.973578       -26.4924
 125   2.0000      -0.972983       -26.4762
 126   2.0000      -0.970224       -26.4011
 127   2.0000      -0.925968       -25.1969
 128   2.0000      -0.925742       -25.1907
 129   2.0000      -0.912091       -24.8192
 130   2.0000      -0.906891       -24.6778
 131   2.0000      -0.897282       -24.4163
 132   2.0000      -0.891689       -24.2641
 133   2.0000      -0.888454       -24.1761
 134   2.0000      -0.884889       -24.0791
 135   2.0000      -0.883052       -24.0291
 136   2.0000      -0.868599       -23.6358
 137   2.0000      -0.865077       -23.5400
 138   2.0000      -0.856225       -23.2991
 139   2.0000      -0.853568       -23.2268
 140   2.0000      -0.850553       -23.1447
 141   2.0000      -0.848277       -23.0828
 142   2.0000      -0.842585       -22.9279
 143   2.0000      -0.841164       -22.8892
 144   2.0000      -0.834280       -22.7019
 145   2.0000      -0.834096       -22.6969
 146   2.0000      -0.827987       -22.5307
 147   2.0000      -0.816766       -22.2253
 148   2.0000      -0.808154       -21.9910
 149   2.0000      -0.797162       -21.6919
 150   2.0000      -0.778793       -21.1920
 151   2.0000      -0.774807       -21.0836
 152   2.0000      -0.768288       -20.9062
 153   2.0000      -0.763209       -20.7680
 154   2.0000      -0.760302       -20.6889
 155   2.0000      -0.757886       -20.6231
 156   2.0000      -0.741846       -20.1867
 157   2.0000      -0.735786       -20.0218
 158   2.0000      -0.725413       -19.7395
 159   2.0000      -0.715714       -19.4756
 160   2.0000      -0.710727       -19.3399
 161   2.0000      -0.707074       -19.2405
 162   2.0000      -0.704191       -19.1620
 163   2.0000      -0.693769       -18.8784
 164   2.0000      -0.680432       -18.5155
 165   2.0000      -0.676670       -18.4131
 166   2.0000      -0.670239       -18.2381
 167   2.0000      -0.664294       -18.0764
 168   2.0000      -0.662545       -18.0288
 169   2.0000      -0.660623       -17.9765
 170   2.0000      -0.654777       -17.8174
 171   2.0000      -0.653107       -17.7720
 172   2.0000      -0.650361       -17.6972
 173   2.0000      -0.649016       -17.6606
 174   2.0000      -0.646359       -17.5883
 175   2.0000      -0.646284       -17.5863
 176   2.0000      -0.636113       -17.3095
 177   2.0000      -0.635546       -17.2941
 178   2.0000      -0.629946       -17.1417
 179   2.0000      -0.619207       -16.8495
 180   2.0000      -0.617589       -16.8055
 181   2.0000      -0.614272       -16.7152
 182   2.0000      -0.607954       -16.5433
 183   2.0000      -0.603959       -16.4346
 184   2.0000      -0.600278       -16.3344
 185   2.0000      -0.596865       -16.2415
 186   2.0000      -0.593388       -16.1469
 187   2.0000      -0.588111       -16.0033
 188   2.0000      -0.586039       -15.9469
 189   2.0000      -0.582767       -15.8579
 190   2.0000      -0.580237       -15.7891
 191   2.0000      -0.580161       -15.7870
 192   2.0000      -0.578694       -15.7471
 193   2.0000      -0.576974       -15.7003
 194   2.0000      -0.576562       -15.6891
 195   2.0000      -0.575047       -15.6478
 196   2.0000      -0.574621       -15.6362
 197   2.0000      -0.571497       -15.5512
 198   2.0000      -0.564160       -15.3516
 199   2.0000      -0.560673       -15.2567
 200   2.0000      -0.550495       -14.9797
 201   2.0000      -0.548789       -14.9333
 202   2.0000      -0.547956       -14.9106
 203   2.0000      -0.542342       -14.7579
 204   2.0000      -0.542022       -14.7492
 205   2.0000      -0.541935       -14.7468
 206   2.0000      -0.533532       -14.5181
 207   2.0000      -0.531513       -14.4632
 208   2.0000      -0.530109       -14.4250
 209   2.0000      -0.528787       -14.3890
 210   2.0000      -0.527381       -14.3508
 211   2.0000      -0.525062       -14.2877
 212   2.0000      -0.524596       -14.2750
 213   2.0000      -0.524318       -14.2674
 214   2.0000      -0.519326       -14.1316
 215   2.0000      -0.515485       -14.0271
 216   2.0000      -0.515411       -14.0251
 217   2.0000      -0.513896       -13.9838
 218   2.0000      -0.511920       -13.9300
 219   2.0000      -0.510772       -13.8988
 220   2.0000      -0.507877       -13.8200
 221   2.0000      -0.507168       -13.8007
 222   2.0000      -0.506807       -13.7909
 223   2.0000      -0.502003       -13.6602
 224   2.0000      -0.500538       -13.6203
 225   2.0000      -0.498092       -13.5538
 226   2.0000      -0.495708       -13.4889
 227   2.0000      -0.494288       -13.4503
 228   2.0000      -0.492155       -13.3922
 229   2.0000      -0.490846       -13.3566
 230   2.0000      -0.488986       -13.3060
 231   2.0000      -0.486840       -13.2476
 232   2.0000      -0.486213       -13.2305
 233   2.0000      -0.484961       -13.1965
 234   2.0000      -0.481942       -13.1143
 235   2.0000      -0.480442       -13.0735
 236   2.0000      -0.478764       -13.0278
 237   2.0000      -0.475723       -12.9451
 238   2.0000      -0.474614       -12.9149
 239   2.0000      -0.471174       -12.8213
 240   2.0000      -0.466738       -12.7006
 241   2.0000      -0.462937       -12.5972
 242   2.0000      -0.461866       -12.5680
 243   2.0000      -0.458915       -12.4877
 244   2.0000      -0.457094       -12.4382
 245   2.0000      -0.456797       -12.4301
 246   2.0000      -0.453378       -12.3370
 247   2.0000      -0.444270       -12.0892
 248   2.0000      -0.442335       -12.0365
 249   2.0000      -0.441103       -12.0030
 250   2.0000      -0.439883       -11.9698
 251   2.0000      -0.439554       -11.9609
 252   2.0000      -0.438787       -11.9400
 253   2.0000      -0.436252       -11.8710
 254   2.0000      -0.435518       -11.8510
 255   2.0000      -0.431964       -11.7543
 256   2.0000      -0.426419       -11.6034
 257   2.0000      -0.424653       -11.5554
 258   2.0000      -0.423673       -11.5287
 259   2.0000      -0.422909       -11.5079
 260   2.0000      -0.421290       -11.4639
 261   2.0000      -0.420238       -11.4353
 262   2.0000      -0.419297       -11.4097
 263   2.0000      -0.418295       -11.3824
 264   2.0000      -0.418076       -11.3764
 265   2.0000      -0.414120       -11.2688
 266   2.0000      -0.413160       -11.2427
 267   2.0000      -0.410233       -11.1630
 268   2.0000      -0.401331       -10.9208
 269   2.0000      -0.400243       -10.8912
 270   2.0000      -0.396189       -10.7808
 271   2.0000      -0.391328       -10.6486
 272   2.0000      -0.383751       -10.4424
 273   2.0000      -0.381315       -10.3761
 274   2.0000      -0.377080       -10.2609
 275   2.0000      -0.368371       -10.0239
 276   2.0000      -0.356347        -9.6967
 277   2.0000      -0.342964        -9.3325
 278   2.0000      -0.339752        -9.2451
 279   2.0000      -0.338788        -9.2189
 280   2.0000      -0.335971        -9.1422
 281   2.0000      -0.334599        -9.1049
 282   2.0000      -0.328472        -8.9382
 283   2.0000      -0.318378        -8.6635
 284   2.0000      -0.311599        -8.4790
 285   2.0000      -0.310217        -8.4414
 286   2.0000      -0.296418        -8.0659
 287   2.0000      -0.294544        -8.0150
 288   2.0000      -0.286454        -7.7948
 289   2.0000      -0.285936        -7.7807
 290   2.0000      -0.282197        -7.6790
 291   2.0000      -0.278049        -7.5661
 292   2.0000      -0.252394        -6.8680
 293   2.0000      -0.225179        -6.1274
 294   0.0000      -0.095551        -2.6001
 295   0.0000      -0.088909        -2.4193
 296   0.0000      -0.057005        -1.5512
 297   0.0000      -0.052330        -1.4240
 298   0.0000      -0.045462        -1.2371

MULLIKEN ATOMIC CHARGES
-----------------------
   0 C :   -0.107459
   1 C :    0.239087
   2 F :   -0.174182
   3 C :    0.237880
   4 F :   -0.174599
   5 C :   -0.106277
   6 C :    0.117701
   7 C :    0.113902
   8 C :   -0.082547
   9 C :    0.043577
  10 C :    0.007881
  11 C :   -0.089795
  12 C :    0.157072
  13 O :   -0.174050
  14 C :   -0.105247
  15 C :    0.317728
  16 C :   -0.362605
  17 C :   -0.196874
  18 N :    0.155305
  19 C :   -0.184418
  20 N :    0.134903
  21 C :    0.046775
  22 C :   -0.119609
  23 C :   -0.052867
  24 C :    0.143993
  25 C :   -0.092181
  26 S :    0.153697
  27 C :   -0.124159
  28 C :    0.175689
  29 N :   -0.169168
  30 C :    0.123525
  31 C :   -0.121336
  32 C :   -0.033379
  33 S :    0.138562
  34 C :   -0.053563
  35 C :   -0.106136
  36 C :    0.156277
  37 C :   -0.113918
  38 S :    0.128469
  39 C :   -0.114544
  40 C :    0.157888
  41 N :   -0.166461
  42 C :    0.125891
  43 C :   -0.113526
  44 C :   -0.049403
  45 S :    0.128564
  46 C :   -0.033690
  47 C :   -0.124787
  48 C :    0.169399
  49 C :   -0.121535
  50 S :    0.138652
  51 C :   -0.092703
  52 C :    0.167941
  53 N :   -0.165675
  54 C :    0.127224
  55 C :   -0.037436
  56 C :   -0.099196
  57 S :    0.157142
  58 C :    0.042209
  59 C :   -0.143747
  60 C :    0.141263
  61 O :   -0.148247
  62 C :    0.007979
  63 C :   -0.082495
  64 C :    0.109716
  65 C :    0.108251
  66 C :   -0.104012
  67 C :    0.238620
  68 C :    0.235904
  69 C :   -0.102157
  70 F :   -0.175136
  71 F :   -0.173700
  72 C :   -0.080653
  73 C :    0.041981
  74 C :    0.248837
  75 C :   -0.327795
  76 C :   -0.204862
  77 N :    0.163928
  78 C :   -0.174061
  79 N :    0.145371
  80 H :    0.005892
  81 H :   -0.004797
  82 H :   -0.008648
  83 H :   -0.017338
  84 H :    0.007757
  85 H :    0.006716
  86 H :    0.040047
  87 H :    0.053983
  88 H :    0.045863
  89 H :   -0.014487
  90 H :   -0.013536
  91 H :    0.041696
  92 H :    0.041579
  93 H :    0.046759
  94 H :   -0.013149
  95 H :   -0.012980
  96 H :    0.041051
  97 H :    0.050949
  98 H :    0.040194
  99 H :   -0.013036
 100 H :    0.023293
 101 H :   -0.011701
 102 H :    0.003798
 103 H :   -0.002433
 104 H :   -0.006066
Sum of atomic charges:   -0.0000000

LOEWDIN ATOMIC CHARGES
----------------------
   0 C :   -0.029361
   1 C :    0.064620
   2 F :   -0.051501
   3 C :    0.065755
   4 F :   -0.052322
   5 C :   -0.034998
   6 C :   -0.009910
   7 C :   -0.007703
   8 C :    0.015425
   9 C :   -0.021667
  10 C :   -0.049297
  11 C :    0.024235
  12 C :    0.087101
  13 O :   -0.159908
  14 C :   -0.114389
  15 C :    0.076925
  16 C :   -0.151135
  17 C :   -0.026548
  18 N :   -0.057020
  19 C :   -0.017086
  20 N :   -0.063362
  21 C :    0.047829
  22 C :   -0.174866
  23 C :   -0.020854
  24 C :   -0.022396
  25 C :   -0.192731
  26 S :    0.429275
  27 C :   -0.231340
  28 C :    0.006610
  29 N :    0.029239
  30 C :    0.041889
  31 C :   -0.091855
  32 C :   -0.150904
  33 S :    0.417419
  34 C :   -0.177439
  35 C :   -0.073159
  36 C :   -0.016716
  37 C :   -0.218828
  38 S :    0.412530
  39 C :   -0.220080
  40 C :   -0.015885
  41 N :    0.030046
  42 C :    0.041206
  43 C :   -0.075656
  44 C :   -0.174362
  45 S :    0.412318
  46 C :   -0.154370
  47 C :   -0.090038
  48 C :    0.003677
  49 C :   -0.227761
  50 S :    0.417047
  51 C :   -0.189049
  52 C :   -0.021474
  53 N :    0.031057
  54 C :    0.041810
  55 C :   -0.021169
  56 C :   -0.177151
  57 S :    0.444867
  58 C :    0.052313
  59 C :   -0.113459
  60 C :    0.080718
  61 O :   -0.151786
  62 C :   -0.052134
  63 C :    0.027093
  64 C :   -0.010782
  65 C :   -0.006715
  66 C :   -0.031211
  67 C :    0.065164
  68 C :    0.064957
  69 C :   -0.033512
  70 F :   -0.052260
  71 F :   -0.051379
  72 C :    0.010892
  73 C :   -0.017737
  74 C :    0.059566
  75 C :   -0.148348
  76 C :   -0.032960
  77 N :   -0.057112
  78 C :   -0.019286
  79 N :   -0.060054
  80 H :    0.047230
  81 H :    0.043154
  82 H :    0.039307
  83 H :    0.037283
  84 H :    0.043198
  85 H :    0.033942
  86 H :    0.033802
  87 H :    0.041373
  88 H :    0.031267
  89 H :    0.027431
  90 H :    0.027767
  91 H :    0.035243
  92 H :    0.035664
  93 H :    0.030948
  94 H :    0.027960
  95 H :    0.026655
  96 H :    0.033584
  97 H :    0.033614
  98 H :    0.036479
  99 H :    0.037244
 100 H :    0.049719
 101 H :    0.039422
 102 H :    0.046354
 103 H :    0.043964
 104 H :    0.038843

  Mayer bond orders larger than 0.100000
B(  0-C ,  1-C ) :   1.4389 B(  0-C ,  5-C ) :   0.1091 B(  0-C ,  7-C ) :   1.1898
B(  0-C , 80-H ) :   1.0068 B(  1-C ,  2-F ) :   1.1315 B(  1-C ,  3-C ) :   1.1949
B(  3-C ,  4-F ) :   1.1309 B(  3-C ,  5-C ) :   1.4417 B(  5-C ,  6-C ) :   1.1927
B(  5-C , 81-H ) :   1.0069 B(  6-C ,  7-C ) :   1.2603 B(  6-C , 11-C ) :   1.1833
B(  7-C ,  8-C ) :   1.2119 B(  8-C ,  9-C ) :   1.4560 B(  8-C , 82-H ) :   0.9898
B(  9-C , 10-C ) :   1.2269 B(  9-C , 15-C ) :   0.9736 B( 10-C , 11-C ) :   1.4732
B( 10-C , 12-C ) :   0.9510 B( 11-C , 83-H ) :   1.0162 B( 12-C , 13-O ) :   2.1389
B( 12-C , 14-C ) :   0.9631 B( 13-O , 85-H ) :   0.1036 B( 14-C , 15-C ) :   1.1031
B( 14-C , 21-C ) :   1.5088 B( 15-C , 16-C ) :   1.6071 B( 16-C , 17-C ) :   1.1386
B( 16-C , 19-C ) :   1.1521 B( 17-C , 18-N ) :   2.9826 B( 19-C , 20-N ) :   2.9589
B( 21-C , 22-C ) :   1.2939 B( 21-C , 84-H ) :   0.9140 B( 22-C , 23-C ) :   1.3724
B( 22-C , 26-S ) :   1.0524 B( 23-C , 24-C ) :   1.2751 B( 23-C , 85-H ) :   0.9836
B( 24-C , 25-C ) :   1.3195 B( 24-C , 29-N ) :   1.1263 B( 25-C , 26-S ) :   1.0676
B( 25-C , 27-C ) :   1.4214 B( 27-C , 28-C ) :   1.3740 B( 27-C , 33-S ) :   1.0148
B( 28-C , 29-N ) :   1.1731 B( 28-C , 31-C ) :   1.2276 B( 29-N , 30-C ) :   0.9634
B( 30-C , 86-H ) :   0.9709 B( 30-C , 87-H ) :   0.9720 B( 30-C , 88-H ) :   0.9738
B( 31-C , 32-C ) :   1.4721 B( 31-C , 89-H ) :   1.0057 B( 32-C , 33-S ) :   1.1065
B( 32-C , 34-C ) :   1.1873 B( 34-C , 35-C ) :   1.4775 B( 34-C , 38-S ) :   1.0915
B( 35-C , 36-C ) :   1.2314 B( 35-C , 90-H ) :   1.0034 B( 36-C , 37-C ) :   1.3914
B( 36-C , 41-N ) :   1.1497 B( 37-C , 38-S ) :   1.0293 B( 37-C , 39-C ) :   1.3962
B( 39-C , 40-C ) :   1.3933 B( 39-C , 45-S ) :   1.0290 B( 40-C , 41-N ) :   1.1529
B( 40-C , 43-C ) :   1.2299 B( 41-N , 42-C ) :   0.9667 B( 42-C , 91-H ) :   0.9719
B( 42-C , 92-H ) :   0.9721 B( 42-C , 93-H ) :   0.9736 B( 43-C , 44-C ) :   1.4783
B( 43-C , 94-H ) :   1.0047 B( 44-C , 45-S ) :   1.0924 B( 44-C , 46-C ) :   1.1842
B( 46-C , 47-C ) :   1.4796 B( 46-C , 50-S ) :   1.1035 B( 47-C , 48-C ) :   1.2261
B( 47-C , 95-H ) :   1.0033 B( 48-C , 49-C ) :   1.3750 B( 48-C , 53-N ) :   1.1697
B( 49-C , 50-S ) :   1.0170 B( 49-C , 51-C ) :   1.4327 B( 51-C , 52-C ) :   1.3379
B( 51-C , 57-S ) :   1.0551 B( 52-C , 53-N ) :   1.1308 B( 52-C , 55-C ) :   1.2690
B( 53-N , 54-C ) :   0.9659 B( 54-C , 96-H ) :   0.9714 B( 54-C , 97-H ) :   0.9728
B( 54-C , 98-H ) :   0.9731 B( 55-C , 56-C ) :   1.3718 B( 55-C , 99-H ) :   1.0180
B( 56-C , 57-S ) :   1.0761 B( 56-C , 58-C ) :   1.1930 B( 58-C , 59-C ) :   1.5716
B( 58-C ,100-H ) :   0.9494 B( 59-C , 60-C ) :   0.9544 B( 59-C , 74-C ) :   1.0597
B( 60-C , 61-O ) :   2.2700 B( 60-C , 62-C ) :   0.9153 B( 62-C , 63-C ) :   1.4814
B( 62-C , 73-C ) :   1.2231 B( 63-C , 64-C ) :   1.1910 B( 63-C ,101-H ) :   1.0153
B( 64-C , 65-C ) :   1.2597 B( 64-C , 69-C ) :   1.1957 B( 65-C , 66-C ) :   1.1911
B( 65-C , 72-C ) :   1.2111 B( 66-C , 67-C ) :   1.4414 B( 66-C , 69-C ) :   0.1085
B( 66-C ,102-H ) :   1.0065 B( 67-C , 68-C ) :   1.1931 B( 67-C , 71-F ) :   1.1320
B( 68-C , 69-C ) :   1.4428 B( 68-C , 70-F ) :   1.1298 B( 69-C ,103-H ) :   1.0064
B( 72-C , 73-C ) :   1.4620 B( 72-C ,104-H ) :   0.9944 B( 73-C , 74-C ) :   0.9974
B( 74-C , 75-C ) :   1.6391 B( 75-C , 76-C ) :   1.1552 B( 75-C , 78-C ) :   1.1421
B( 76-C , 77-N ) :   3.0208 B( 78-C , 79-N ) :   2.9842

-----------------------------------------------------------------------------
         ABSORPTION SPECTRUM VIA TRANSITION ELECTRIC DIPOLE MOMENTS
-----------------------------------------------------------------------------
State   Energy  Wavelength   fosc         T2         TX        TY        TZ
        (cm-1)    (nm)                  (au**2)     (au)      (au)      (au)
-----------------------------------------------------------------------------
   0   14901.8    671.1   3.123305249  69.00034  -3.53330  -7.36589  -1.50325
   1   17506.8    571.2   0.490182589   9.21781  -1.65611  -1.63578  -1.94919
   2   22803.0    438.5   0.052461832   0.75740  -0.63701  -0.31150  -0.50457
   3   23651.3    422.8   0.035797083   0.49827   0.38139   0.58193   0.11905
   4   24383.9    410.1   0.201373404   2.71879   0.64388   1.06578   1.08089
   5   25145.9    397.7   0.056340789   0.73762   0.26308  -0.30864  -0.75706
   6   25390.0    393.9   0.304896066   3.95335  -1.15335  -1.51469   0.57346
   7   25816.9    387.3   0.022613117   0.28836  -0.07585   0.43079   0.31149
   8   27048.7    369.7   0.222818019   2.71194   0.47941   1.39463   0.73287
   9   28035.7    356.7   0.118751110   1.39445   0.97629   0.63557  -0.19329
  10   28555.8    350.2   0.143907642   1.65907   1.11422   0.61796  -0.18896
  11   29041.4    344.3   0.100033647   1.13398  -0.92051  -0.43617   0.31047
  12   29221.9    342.2   0.026796744   0.30189   0.22706   0.05425  -0.49738
  13   29725.0    336.4   0.002496477   0.02765   0.13727   0.08564   0.03837
  14   30174.9    331.4   0.001300362   0.01419   0.08270  -0.04382   0.07367
  15   30368.4    329.3   0.011374345   0.12330  -0.27801  -0.13536   0.16641
  16   30496.8    327.9   0.123104726   1.32891   0.79432   0.44041  -0.70993
  17   31040.4    322.2   0.036013115   0.38195  -0.07528   0.19623   0.58119
  18   31592.0    316.5   0.130190378   1.35668   0.02888   0.30080   1.12488
  19   31893.3    313.5   0.015479478   0.15978   0.30582   0.21042  -0.14826
  20   32697.1    305.8   0.063684136   0.64121  -0.70718  -0.24284  -0.28659
  21   33070.3    302.4   0.324838061   3.23374   1.45727   1.00710  -0.30957
  22   33585.9    297.7   0.109621215   1.07452   0.87108   0.17119  -0.53519
  23   33795.1    295.9   0.031269385   0.30461  -0.25952  -0.16550   0.45811
  24   33829.6    295.6   0.186268180   1.81267   1.13252   0.70653  -0.17574
  25   34069.7    293.5   0.112434569   1.08644  -0.82714  -0.63179   0.05586
  26   34350.1    291.1   0.022656534   0.21714  -0.05521   0.43994   0.14335
  27   34548.9    289.4   0.000223952   0.00213   0.01202   0.04421   0.00590
  28   34995.3    285.8   0.130200375   1.22484  -1.03166  -0.22866   0.32899
  29   35460.6    282.0   0.488619439   4.53629   1.82908   0.66613  -0.86430
  30   35556.0    281.2   0.017786160   0.16468  -0.35564  -0.16367  -0.10685
  31   35720.3    280.0   0.091831501   0.84635  -0.54058   0.19688   0.71789
  32   35873.5    278.8   0.153433950   1.40807   0.97504   0.57136  -0.36181
  33   36958.7    270.6   0.069776817   0.62154  -0.35857  -0.17873   0.67899
  34   37197.3    268.8   0.014666586   0.12981   0.06490   0.16398  -0.31417
  35   37462.2    266.9   0.007147925   0.06281  -0.00164   0.15800   0.19454
  36   37571.4    266.2   0.068472324   0.59998  -0.33880  -0.13190   0.68395
  37   37955.8    263.5   0.081433988   0.70632   0.16762  -0.13262  -0.81280
  38   38018.2    263.0   0.121691511   1.05377   0.78188   0.23142  -0.62360
  39   38703.9    258.4   0.066982070   0.56974  -0.60161  -0.11545   0.44099
  40   39012.3    256.3   0.031910418   0.26928   0.17113   0.35532  -0.33725
  41   39140.6    255.5   0.031380986   0.26395  -0.48638  -0.15956   0.04379
  42   39189.1    255.2   0.110877957   0.93144   0.16889  -0.47537  -0.82277
  43   39437.2    253.6   0.065884567   0.54999   0.38857   0.31615   0.54685
  44   39645.5    252.2   0.068855360   0.57177   0.02822   0.25988   0.70953
  45   40047.5    249.7   0.087037780   0.71550  -0.18408   0.43320   0.70282

FINAL SINGLE POINT ENERGY     -5656.924720126251

DIPOLE MOMENT
-------------
                                X             Y             Z
Electronic contribution:      1.31832      -1.52911      23.61967
Nuclear contribution   :     -1.82185       0.88241     -27.37058
                        -----------------------------------------
Total Dipole Moment    :     -0.50354      -0.64670      -3.75091
                        -----------------------------------------
Magnitude (a.u.)       :      3.83942
Magnitude (Debye)      :      9.75902

Rotational constants in cm-1:     0.002280     0.000100     0.000098
Rotational constants in MHz :    68.359853     3.009412     2.938029

                             ****ORCA TERMINATED NORMALLY****
TOTAL RUN TIME: 0 days 0 hours 11 minutes 56 seconds 919 msec
