                         Program Version 4.2.0 -  RELEASE  -
|  1> # ORCA input file
|  2> # SCF done       -205.730074284351          0.000689128951
|  3> ! CAM-B3LYP def2-SVP def2/J RIJCOSX Grid4 TightSCF
|  4> %maxcore 5000
|  5> %tddft
|  6>     Mode sTDDFT
|  7>     Ethresh 5.0
|  8>     maxcore 5000
|  9> end
| 10>
| 11> %pal
| 12>   nprocs 6
| 13>   end
| 14> * xyz 0 1
| 15>    C       -0.79864        -0.92275         3.88909
| 16>    C       -0.58178         0.25958         3.23373
| 17>    C        0.03606         1.38687         3.81797
| 18>    N        0.53203         2.33623         4.22954
| 19>    C       -0.94919         0.54264         1.90028
| 20>    N       -1.22249         0.85430         0.82965
| 21>    C       -0.44747        -1.19180         5.28351
| 22>    C       -0.88477        -2.48556         5.61982
| 23>    C       -0.69386        -3.02482         6.87581
| 24>    C       -0.04127        -2.22697         7.80386
| 25>    C        0.40358        -0.94817         7.50155
| 26>    C        0.20244        -0.41907         6.23550
| 27>    F        0.17095        -2.70721         9.03869
| 28>    C       -1.53071        -3.10247         4.44672
| 29>    O       -2.03554        -4.21049         4.39932
| 30>    C       -1.43134        -2.12019         3.36311
| 31>    C       -1.81343        -2.32847         2.06246
| 32>    C       -2.40031        -3.44981         1.45665
| 33>    C       -2.63737        -3.49976         0.07676
| 34>    C       -3.19592        -4.69807        -0.32166
| 35>    C       -3.41328        -5.57594         0.76858
| 36>    S       -2.90931        -4.93483         2.26256
| 37>    C       -3.95866        -6.77779         0.25652
| 38>    C       -4.07587        -6.67177        -1.14147
| 39>    C       -3.61455        -5.35469        -1.55031
| 40>    C       -3.58187        -4.85159        -2.81699
| 41>    C       -4.02048        -5.60244        -3.92840
| 42>    N       -4.37715        -6.21787        -4.82761
| 43>    C       -3.10930        -3.55220        -3.10065
| 44>    N       -2.72431        -2.49898        -3.33748
| 45>    C       -4.56781        -7.83203        -1.73597
| 46>    C       -4.83628        -8.81599        -0.80051
| 47>    S       -4.48000        -8.29747         0.83944
| 48>    C       -5.30197       -10.13251        -1.04751
| 49>    C       -5.69402       -11.07972        -0.11888
| 50>    C       -6.04407       -12.28665        -0.72288
| 51>    C       -5.90587       -12.25803        -2.12177
| 52>    S       -5.37338       -10.74158        -2.69548
| 53>    C       -6.23273       -13.53825        -2.63496
| 54>    C       -6.59025       -14.37384        -1.56225
| 55>    C       -6.49570       -13.61163        -0.32641
| 56>    C       -6.76944       -14.04806         0.93580
| 57>    C       -7.20349       -15.36596         1.19341
| 58>    N       -7.55301       -16.43815         1.39937
| 59>    C       -6.63735       -13.20861         2.06255
| 60>    N       -6.52707       -12.52468         2.97594
| 61>    C       -6.89172       -15.67400        -1.96479
| 62>    C       -6.75379       -15.83618        -3.33187
| 63>    S       -6.26421       -14.35082        -4.13542
| 64>    C       -6.91976       -17.02610        -4.08410
| 65>    C       -6.66651       -17.20682        -5.43321
| 66>    C       -6.88672       -18.52334        -5.83098
| 67>    C       -7.32196       -19.34972        -4.77904
| 68>    S       -7.45501       -18.50359        -3.30025
| 69>    C       -7.50216       -20.66331        -5.27759
| 70>    C       -7.16649       -20.66641        -6.64803
| 71>    C       -6.78326       -19.32276        -7.04204
| 72>    C       -6.42586       -18.90580        -8.29026
| 73>    C       -6.38318       -19.80343        -9.37841
| 74>    N       -6.34942       -20.55002       -10.24807
| 75>    C       -6.07487       -17.56672        -8.56188
| 76>    N       -5.78309       -16.47813        -8.77171
| 77>    C       -7.31583       -21.91237        -7.23968
| 78>    C       -7.77456       -22.86860        -6.34380
| 79>    S       -7.98675       -22.19786        -4.72837
| 80>    C       -8.01653       -24.24191        -6.55547
| 81>    C       -8.16520       -24.91720        -7.72981
| 82>    C       -8.39870       -24.50601        -9.09869
| 83>    C       -9.09027       -23.40147        -9.52099
| 84>    C       -9.40043       -23.13523       -10.87212
| 85>    N       -9.68252       -22.87340       -11.95267
| 86>    C       -9.65715       -22.44935        -8.65107
| 87>    N      -10.15354       -21.66326        -7.97743
| 88>    C       -8.01603       -25.62803        -9.95547
| 89>    C       -7.80053       -26.76181        -9.15020
| 90>    C       -7.96936       -26.39496        -7.72786
| 91>    O       -7.91525       -27.11473        -6.75943
| 92>    C       -7.46209       -27.98599        -9.69083
| 93>    C       -7.33071       -28.04496       -11.07060
| 94>    C       -7.51854       -26.93766       -11.88570
| 95>    C       -7.86736       -25.71551       -11.33156
| 96>    F       -7.00235       -29.21422       -11.64148
| 97>    H       -1.03373        -4.01772         7.12333
| 98>    H        0.90725        -0.37402         8.26314
| 99>    H        0.55513         0.57445         6.01424
|100>    H       -1.62262        -1.52483         1.36141
|101>    H       -2.39077        -2.68111        -0.57616
|102>    H       -4.72751        -7.97080        -2.79023
|103>    H       -5.71574       -10.88448         0.93828
|104>    H       -7.18407       -16.47519        -1.30991
|105>    H       -6.33000       -16.41271        -6.07547
|106>    H       -7.05942       -22.13853        -8.25831
|107>    H       -8.01471       -24.86994        -5.66948
|108>    H       -7.30656       -28.85499        -9.07178
|109>    H       -7.38918       -27.04241       -12.95136
|110>    H       -8.00168       -24.85676       -11.96882
|111> *
|112>
|113>                          ****END OF INPUT****

CARTESIAN COORDINATES (ANGSTROEM)
---------------------------------
  C     -0.798640   -0.922750    3.889090
  C     -0.581780    0.259580    3.233730
  C      0.036060    1.386870    3.817970
  N      0.532030    2.336230    4.229540
  C     -0.949190    0.542640    1.900280
  N     -1.222490    0.854300    0.829650
  C     -0.447470   -1.191800    5.283510
  C     -0.884770   -2.485560    5.619820
  C     -0.693860   -3.024820    6.875810
  C     -0.041270   -2.226970    7.803860
  C      0.403580   -0.948170    7.501550
  C      0.202440   -0.419070    6.235500
  F      0.170950   -2.707210    9.038690
  C     -1.530710   -3.102470    4.446720
  O     -2.035540   -4.210490    4.399320
  C     -1.431340   -2.120190    3.363110
  C     -1.813430   -2.328470    2.062460
  C     -2.400310   -3.449810    1.456650
  C     -2.637370   -3.499760    0.076760
  C     -3.195920   -4.698070   -0.321660
  C     -3.413280   -5.575940    0.768580
  S     -2.909310   -4.934830    2.262560
  C     -3.958660   -6.777790    0.256520
  C     -4.075870   -6.671770   -1.141470
  C     -3.614550   -5.354690   -1.550310
  C     -3.581870   -4.851590   -2.816990
  C     -4.020480   -5.602440   -3.928400
  N     -4.377150   -6.217870   -4.827610
  C     -3.109300   -3.552200   -3.100650
  N     -2.724310   -2.498980   -3.337480
  C     -4.567810   -7.832030   -1.735970
  C     -4.836280   -8.815990   -0.800510
  S     -4.480000   -8.297470    0.839440
  C     -5.301970  -10.132510   -1.047510
  C     -5.694020  -11.079720   -0.118880
  C     -6.044070  -12.286650   -0.722880
  C     -5.905870  -12.258030   -2.121770
  S     -5.373380  -10.741580   -2.695480
  C     -6.232730  -13.538250   -2.634960
  C     -6.590250  -14.373840   -1.562250
  C     -6.495700  -13.611630   -0.326410
  C     -6.769440  -14.048060    0.935800
  C     -7.203490  -15.365960    1.193410
  N     -7.553010  -16.438150    1.399370
  C     -6.637350  -13.208610    2.062550
  N     -6.527070  -12.524680    2.975940
  C     -6.891720  -15.674000   -1.964790
  C     -6.753790  -15.836180   -3.331870
  S     -6.264210  -14.350820   -4.135420
  C     -6.919760  -17.026100   -4.084100
  C     -6.666510  -17.206820   -5.433210
  C     -6.886720  -18.523340   -5.830980
  C     -7.321960  -19.349720   -4.779040
  S     -7.455010  -18.503590   -3.300250
  C     -7.502160  -20.663310   -5.277590
  C     -7.166490  -20.666410   -6.648030
  C     -6.783260  -19.322760   -7.042040
  C     -6.425860  -18.905800   -8.290260
  C     -6.383180  -19.803430   -9.378410
  N     -6.349420  -20.550020  -10.248070
  C     -6.074870  -17.566720   -8.561880
  N     -5.783090  -16.478130   -8.771710
  C     -7.315830  -21.912370   -7.239680
  C     -7.774560  -22.868600   -6.343800
  S     -7.986750  -22.197860   -4.728370
  C     -8.016530  -24.241910   -6.555470
  C     -8.165200  -24.917200   -7.729810
  C     -8.398700  -24.506010   -9.098690
  C     -9.090270  -23.401470   -9.520990
  C     -9.400430  -23.135230  -10.872120
  N     -9.682520  -22.873400  -11.952670
  C     -9.657150  -22.449350   -8.651070
  N    -10.153540  -21.663260   -7.977430
  C     -8.016030  -25.628030   -9.955470
  C     -7.800530  -26.761810   -9.150200
  C     -7.969360  -26.394960   -7.727860
  O     -7.915250  -27.114730   -6.759430
  C     -7.462090  -27.985990   -9.690830
  C     -7.330710  -28.044960  -11.070600
  C     -7.518540  -26.937660  -11.885700
  C     -7.867360  -25.715510  -11.331560
  F     -7.002350  -29.214220  -11.641480
  H     -1.033730   -4.017720    7.123330
  H      0.907250   -0.374020    8.263140
  H      0.555130    0.574450    6.014240
  H     -1.622620   -1.524830    1.361410
  H     -2.390770   -2.681110   -0.576160
  H     -4.727510   -7.970800   -2.790230
  H     -5.715740  -10.884480    0.938280
  H     -7.184070  -16.475190   -1.309910
  H     -6.330000  -16.412710   -6.075470
  H     -7.059420  -22.138530   -8.258310
  H     -8.014710  -24.869940   -5.669480
  H     -7.306560  -28.854990   -9.071780
  H     -7.389180  -27.042410  -12.951360
  H     -8.001680  -24.856760  -11.968820

 Total Charge           Charge          ....    0
 Multiplicity           Mult            ....    1
 Number of Electrons    NEL             ....  586
 Basis Dimension        Dim             .... 1242

ORBITAL ENERGIES
----------------

  NO   OCC          E(Eh)            E(eV)
   0   2.0000     -89.006488     -2421.9897
   1   2.0000     -89.006173     -2421.9811
   2   2.0000     -89.005950     -2421.9750
   3   2.0000     -89.005314     -2421.9577
   4   2.0000     -89.004100     -2421.9247
   5   2.0000     -88.998356     -2421.7684
   6   2.0000     -24.799532      -674.8296
   7   2.0000     -24.796549      -674.7484
   8   2.0000     -19.236630      -523.4553
   9   2.0000     -19.225849      -523.1619
  10   2.0000     -14.443909      -393.0387
  11   2.0000     -14.443800      -393.0358
  12   2.0000     -14.441193      -392.9648
  13   2.0000     -14.441095      -392.9622
  14   2.0000     -14.440253      -392.9393
  15   2.0000     -14.437924      -392.8759
  16   2.0000     -14.424089      -392.4994
  17   2.0000     -14.423960      -392.4959
  18   2.0000     -14.420858      -392.4115
  19   2.0000     -14.419004      -392.3610
  20   2.0000     -10.386106      -282.6203
  21   2.0000     -10.384034      -282.5639
  22   2.0000     -10.383279      -282.5434
  23   2.0000     -10.379531      -282.4414
  24   2.0000     -10.376785      -282.3667
  25   2.0000     -10.376703      -282.3644
  26   2.0000     -10.375399      -282.3290
  27   2.0000     -10.366360      -282.0830
  28   2.0000     -10.363617      -282.0084
  29   2.0000     -10.363043      -281.9927
  30   2.0000     -10.352122      -281.6956
  31   2.0000     -10.350976      -281.6644
  32   2.0000     -10.350845      -281.6608
  33   2.0000     -10.350234      -281.6442
  34   2.0000     -10.350225      -281.6439
  35   2.0000     -10.348284      -281.5911
  36   2.0000     -10.348213      -281.5892
  37   2.0000     -10.347667      -281.5743
  38   2.0000     -10.347289      -281.5641
  39   2.0000     -10.345903      -281.5263
  40   2.0000     -10.345035      -281.5027
  41   2.0000     -10.344755      -281.4951
  42   2.0000     -10.344109      -281.4775
  43   2.0000     -10.343916      -281.4723
  44   2.0000     -10.343806      -281.4693
  45   2.0000     -10.343569      -281.4628
  46   2.0000     -10.341144      -281.3968
  47   2.0000     -10.341113      -281.3960
  48   2.0000     -10.340385      -281.3762
  49   2.0000     -10.337412      -281.2953
  50   2.0000     -10.335558      -281.2448
  51   2.0000     -10.334925      -281.2276
  52   2.0000     -10.334650      -281.2201
  53   2.0000     -10.332333      -281.1571
  54   2.0000     -10.326165      -280.9892
  55   2.0000     -10.325251      -280.9644
  56   2.0000     -10.323637      -280.9204
  57   2.0000     -10.321803      -280.8705
  58   2.0000     -10.321410      -280.8598
  59   2.0000     -10.321226      -280.8548
  60   2.0000     -10.321047      -280.8500
  61   2.0000     -10.320449      -280.8337
  62   2.0000     -10.319173      -280.7990
  63   2.0000     -10.319132      -280.7979
  64   2.0000     -10.318595      -280.7832
  65   2.0000     -10.318175      -280.7718
  66   2.0000     -10.316980      -280.7393
  67   2.0000     -10.316702      -280.7317
  68   2.0000     -10.315877      -280.7093
  69   2.0000     -10.315434      -280.6972
  70   2.0000     -10.314116      -280.6614
  71   2.0000     -10.313864      -280.6545
  72   2.0000     -10.311075      -280.5786
  73   2.0000     -10.309572      -280.5377
  74   2.0000     -10.309003      -280.5222
  75   2.0000     -10.308980      -280.5216
  76   2.0000     -10.307822      -280.4901
  77   2.0000     -10.307593      -280.4839
  78   2.0000     -10.307140      -280.4715
  79   2.0000     -10.307126      -280.4712
  80   2.0000     -10.306111      -280.4435
  81   2.0000     -10.304901      -280.4106
  82   2.0000      -8.100868      -220.4358
  83   2.0000      -8.100586      -220.4282
  84   2.0000      -8.100332      -220.4212
  85   2.0000      -8.099655      -220.4028
  86   2.0000      -8.098688      -220.3765
  87   2.0000      -8.090641      -220.1575
  88   2.0000      -6.070173      -165.1778
  89   2.0000      -6.069904      -165.1705
  90   2.0000      -6.069659      -165.1638
  91   2.0000      -6.068967      -165.1450
  92   2.0000      -6.067843      -165.1144
  93   2.0000      -6.065959      -165.0631
  94   2.0000      -6.065686      -165.0557
  95   2.0000      -6.065450      -165.0493
  96   2.0000      -6.064742      -165.0300
  97   2.0000      -6.063688      -165.0013
  98   2.0000      -6.063161      -164.9870
  99   2.0000      -6.062856      -164.9787
 100   2.0000      -6.062573      -164.9710
 101   2.0000      -6.061970      -164.9546
 102   2.0000      -6.061225      -164.9343
 103   2.0000      -6.060060      -164.9026
 104   2.0000      -6.055303      -164.7732
 105   2.0000      -6.053222      -164.7166
 106   2.0000      -1.315458       -35.7954
 107   2.0000      -1.312517       -35.7154
 108   2.0000      -1.152146       -31.3515
 109   2.0000      -1.141526       -31.0625
 110   2.0000      -1.061854       -28.8945
 111   2.0000      -1.058880       -28.8136
 112   2.0000      -1.056356       -28.7449
 113   2.0000      -1.036093       -28.1935
 114   2.0000      -1.033295       -28.1174
 115   2.0000      -1.031542       -28.0697
 116   2.0000      -1.027553       -27.9611
 117   2.0000      -1.027164       -27.9506
 118   2.0000      -1.022644       -27.8276
 119   2.0000      -1.020817       -27.7778
 120   2.0000      -1.018633       -27.7184
 121   2.0000      -1.016556       -27.6619
 122   2.0000      -1.012472       -27.5508
 123   2.0000      -1.008237       -27.4355
 124   2.0000      -1.006098       -27.3773
 125   2.0000      -1.003209       -27.2987
 126   2.0000      -1.000747       -27.2317
 127   2.0000      -0.998642       -27.1744
 128   2.0000      -0.978987       -26.6396
 129   2.0000      -0.971319       -26.4309
 130   2.0000      -0.967304       -26.3217
 131   2.0000      -0.960422       -26.1344
 132   2.0000      -0.958901       -26.0930
 133   2.0000      -0.936464       -25.4825
 134   2.0000      -0.930063       -25.3083
 135   2.0000      -0.920566       -25.0499
 136   2.0000      -0.911059       -24.7912
 137   2.0000      -0.909055       -24.7366
 138   2.0000      -0.893662       -24.3178
 139   2.0000      -0.892990       -24.2995
 140   2.0000      -0.885423       -24.0936
 141   2.0000      -0.884567       -24.0703
 142   2.0000      -0.877449       -23.8766
 143   2.0000      -0.875721       -23.8296
 144   2.0000      -0.874884       -23.8068
 145   2.0000      -0.872949       -23.7542
 146   2.0000      -0.868682       -23.6381
 147   2.0000      -0.864518       -23.5247
 148   2.0000      -0.850286       -23.1375
 149   2.0000      -0.830432       -22.5972
 150   2.0000      -0.815327       -22.1862
 151   2.0000      -0.802227       -21.8297
 152   2.0000      -0.794197       -21.6112
 153   2.0000      -0.788425       -21.4541
 154   2.0000      -0.783925       -21.3317
 155   2.0000      -0.781721       -21.2717
 156   2.0000      -0.778271       -21.1778
 157   2.0000      -0.771152       -20.9841
 158   2.0000      -0.753596       -20.5064
 159   2.0000      -0.735585       -20.0163
 160   2.0000      -0.724066       -19.7028
 161   2.0000      -0.718842       -19.5607
 162   2.0000      -0.714096       -19.4315
 163   2.0000      -0.713259       -19.4088
 164   2.0000      -0.710705       -19.3393
 165   2.0000      -0.705343       -19.1934
 166   2.0000      -0.702579       -19.1181
 167   2.0000      -0.697370       -18.9764
 168   2.0000      -0.696802       -18.9609
 169   2.0000      -0.691636       -18.8204
 170   2.0000      -0.688095       -18.7240
 171   2.0000      -0.686169       -18.6716
 172   2.0000      -0.671695       -18.2778
 173   2.0000      -0.667072       -18.1519
 174   2.0000      -0.657563       -17.8932
 175   2.0000      -0.648843       -17.6559
 176   2.0000      -0.647564       -17.6211
 177   2.0000      -0.645557       -17.5665
 178   2.0000      -0.642154       -17.4739
 179   2.0000      -0.637818       -17.3559
 180   2.0000      -0.635048       -17.2805
 181   2.0000      -0.633516       -17.2389
 182   2.0000      -0.632355       -17.2072
 183   2.0000      -0.627834       -17.0842
 184   2.0000      -0.623545       -16.9675
 185   2.0000      -0.619266       -16.8511
 186   2.0000      -0.611354       -16.6358
 187   2.0000      -0.604545       -16.4505
 188   2.0000      -0.598490       -16.2857
 189   2.0000      -0.594656       -16.1814
 190   2.0000      -0.589345       -16.0369
 191   2.0000      -0.582414       -15.8483
 192   2.0000      -0.580239       -15.7891
 193   2.0000      -0.573294       -15.6001
 194   2.0000      -0.570205       -15.5161
 195   2.0000      -0.569704       -15.5024
 196   2.0000      -0.564768       -15.3681
 197   2.0000      -0.562066       -15.2946
 198   2.0000      -0.560927       -15.2636
 199   2.0000      -0.558552       -15.1990
 200   2.0000      -0.557870       -15.1804
 201   2.0000      -0.550655       -14.9841
 202   2.0000      -0.548644       -14.9294
 203   2.0000      -0.547531       -14.8991
 204   2.0000      -0.545232       -14.8365
 205   2.0000      -0.542379       -14.7589
 206   2.0000      -0.540383       -14.7046
 207   2.0000      -0.538258       -14.6467
 208   2.0000      -0.535365       -14.5680
 209   2.0000      -0.529676       -14.4132
 210   2.0000      -0.527771       -14.3614
 211   2.0000      -0.524301       -14.2670
 212   2.0000      -0.522328       -14.2133
 213   2.0000      -0.521071       -14.1791
 214   2.0000      -0.516983       -14.0678
 215   2.0000      -0.515653       -14.0316
 216   2.0000      -0.513724       -13.9791
 217   2.0000      -0.512561       -13.9475
 218   2.0000      -0.511557       -13.9202
 219   2.0000      -0.507118       -13.7994
 220   2.0000      -0.505022       -13.7424
 221   2.0000      -0.504613       -13.7312
 222   2.0000      -0.503555       -13.7024
 223   2.0000      -0.501609       -13.6495
 224   2.0000      -0.498594       -13.5674
 225   2.0000      -0.498070       -13.5532
 226   2.0000      -0.496139       -13.5006
 227   2.0000      -0.493602       -13.4316
 228   2.0000      -0.492658       -13.4059
 229   2.0000      -0.486001       -13.2248
 230   2.0000      -0.485288       -13.2054
 231   2.0000      -0.483908       -13.1678
 232   2.0000      -0.477936       -13.0053
 233   2.0000      -0.474400       -12.9091
 234   2.0000      -0.471913       -12.8414
 235   2.0000      -0.471211       -12.8223
 236   2.0000      -0.471068       -12.8184
 237   2.0000      -0.469721       -12.7817
 238   2.0000      -0.468464       -12.7475
 239   2.0000      -0.467404       -12.7187
 240   2.0000      -0.465111       -12.6563
 241   2.0000      -0.462689       -12.5904
 242   2.0000      -0.461928       -12.5697
 243   2.0000      -0.460823       -12.5396
 244   2.0000      -0.459853       -12.5132
 245   2.0000      -0.456427       -12.4200
 246   2.0000      -0.455565       -12.3966
 247   2.0000      -0.455180       -12.3861
 248   2.0000      -0.454768       -12.3749
 249   2.0000      -0.453858       -12.3501
 250   2.0000      -0.453535       -12.3413
 251   2.0000      -0.451258       -12.2794
 252   2.0000      -0.450942       -12.2708
 253   2.0000      -0.450478       -12.2581
 254   2.0000      -0.449574       -12.2335
 255   2.0000      -0.448930       -12.2160
 256   2.0000      -0.448716       -12.2102
 257   2.0000      -0.447506       -12.1772
 258   2.0000      -0.446636       -12.1536
 259   2.0000      -0.444592       -12.0980
 260   2.0000      -0.439644       -11.9633
 261   2.0000      -0.438416       -11.9299
 262   2.0000      -0.436895       -11.8885
 263   2.0000      -0.435536       -11.8515
 264   2.0000      -0.433618       -11.7994
 265   2.0000      -0.433151       -11.7866
 266   2.0000      -0.430829       -11.7235
 267   2.0000      -0.425044       -11.5660
 268   2.0000      -0.424268       -11.5449
 269   2.0000      -0.418296       -11.3824
 270   2.0000      -0.417707       -11.3664
 271   2.0000      -0.414324       -11.2743
 272   2.0000      -0.414054       -11.2670
 273   2.0000      -0.404437       -11.0053
 274   2.0000      -0.395215       -10.7543
 275   2.0000      -0.383145       -10.4259
 276   2.0000      -0.366908        -9.9841
 277   2.0000      -0.365690        -9.9509
 278   2.0000      -0.363025        -9.8784
 279   2.0000      -0.359976        -9.7954
 280   2.0000      -0.358334        -9.7508
 281   2.0000      -0.357318        -9.7231
 282   2.0000      -0.351957        -9.5772
 283   2.0000      -0.348413        -9.4808
 284   2.0000      -0.343090        -9.3360
 285   2.0000      -0.335495        -9.1293
 286   2.0000      -0.334300        -9.0968
 287   2.0000      -0.330944        -9.0054
 288   2.0000      -0.321835        -8.7576
 289   2.0000      -0.317807        -8.6480
 290   2.0000      -0.304548        -8.2872
 291   2.0000      -0.277674        -7.5559
 292   2.0000      -0.252950        -6.8831
 293   0.0000      -0.125996        -3.4285
 294   0.0000      -0.118312        -3.2194
 295   0.0000      -0.115426        -3.1409
 296   0.0000      -0.093098        -2.5333
 297   0.0000      -0.092471        -2.5163

MULLIKEN ATOMIC CHARGES
-----------------------
   0 C :    0.324156
   1 C :   -0.354663
   2 C :   -0.188053
   3 N :    0.157828
   4 C :   -0.192483
   5 N :    0.158148
   6 C :    0.029705
   7 C :   -0.016684
   8 C :   -0.091541
   9 C :    0.313097
  10 C :   -0.029196
  11 C :   -0.017847
  12 F :   -0.182454
  13 C :    0.164748
  14 O :   -0.184448
  15 C :   -0.093205
  16 C :   -0.029332
  17 C :   -0.054134
  18 C :   -0.058280
  19 C :    0.046032
  20 C :   -0.066219
  21 S :    0.245519
  22 C :   -0.106715
  23 C :    0.027285
  24 C :    0.301000
  25 C :   -0.293160
  26 C :   -0.187838
  27 N :    0.173198
  28 C :   -0.193292
  29 N :    0.190316
  30 C :   -0.070784
  31 C :   -0.042920
  32 S :    0.209154
  33 C :   -0.055844
  34 C :   -0.063311
  35 C :    0.019810
  36 C :   -0.097695
  37 S :    0.207310
  38 C :   -0.097369
  39 C :    0.017202
  40 C :    0.294827
  41 C :   -0.290311
  42 C :   -0.188185
  43 N :    0.178833
  44 C :   -0.187991
  45 N :    0.176895
  46 C :   -0.059868
  47 C :   -0.054364
  48 S :    0.205646
  49 C :   -0.045776
  50 C :   -0.065950
  51 C :    0.027118
  52 C :   -0.107459
  53 S :    0.206654
  54 C :   -0.071278
  55 C :   -0.006458
  56 C :    0.301283
  57 C :   -0.283715
  58 C :   -0.184049
  59 N :    0.175632
  60 C :   -0.189295
  61 N :    0.178665
  62 C :    0.000512
  63 C :   -0.112678
  64 S :    0.219534
  65 C :    0.085689
  66 C :   -0.133185
  67 C :    0.259605
  68 C :   -0.326258
  69 C :   -0.172468
  70 N :    0.163937
  71 C :   -0.202947
  72 N :    0.166259
  73 C :    0.011298
  74 C :    0.002641
  75 C :    0.131655
  76 O :   -0.136686
  77 C :   -0.092316
  78 C :    0.311222
  79 C :   -0.031440
  80 C :   -0.014088
  81 F :   -0.183252
  82 H :    0.005537
  83 H :    0.013420
  84 H :    0.010271
  85 H :    0.018173
  86 H :    0.029444
  87 H :    0.015488
  88 H :    0.015008
  89 H :    0.013935
  90 H :    0.014917
  91 H :    0.025546
  92 H :    0.022084
  93 H :    0.008126
  94 H :    0.015048
  95 H :    0.018076
Sum of atomic charges:   -0.0000000

LOEWDIN ATOMIC CHARGES
----------------------
   0 C :    0.076442
   1 C :   -0.137726
   2 C :   -0.018986
   3 N :   -0.048372
   4 C :   -0.023221
   5 N :   -0.044398
   6 C :   -0.024162
   7 C :   -0.033672
   8 C :   -0.014136
   9 C :    0.102388
  10 C :   -0.026306
  11 C :    0.015438
  12 F :   -0.056594
  13 C :    0.086805
  14 O :   -0.168577
  15 C :   -0.113411
  16 C :    0.057357
  17 C :   -0.184884
  18 C :    0.014008
  19 C :   -0.078713
  20 C :   -0.165203
  21 S :    0.549012
  22 C :   -0.187966
  23 C :   -0.051282
  24 C :    0.077250
  25 C :   -0.097327
  26 C :   -0.015900
  27 N :   -0.030344
  28 C :   -0.020551
  29 N :   -0.020057
  30 C :   -0.041916
  31 C :   -0.168603
  32 S :    0.492266
  33 C :   -0.181965
  34 C :   -0.032690
  35 C :   -0.067088
  36 C :   -0.176938
  37 S :    0.493007
  38 C :   -0.178490
  39 C :   -0.066027
  40 C :    0.080950
  41 C :   -0.096980
  42 C :   -0.016482
  43 N :   -0.028165
  44 C :   -0.016611
  45 N :   -0.027876
  46 C :   -0.034123
  47 C :   -0.179850
  48 S :    0.492465
  49 C :   -0.171561
  50 C :   -0.038738
  51 C :   -0.053875
  52 C :   -0.184838
  53 S :    0.491427
  54 C :   -0.158189
  55 C :   -0.067528
  56 C :    0.081709
  57 C :   -0.094736
  58 C :   -0.012982
  59 N :   -0.028334
  60 C :   -0.016469
  61 N :   -0.027885
  62 C :    0.011644
  63 C :   -0.182262
  64 S :    0.502729
  65 C :    0.043095
  66 C :   -0.093178
  67 C :    0.065516
  68 C :   -0.135835
  69 C :   -0.020196
  70 N :   -0.042430
  71 C :   -0.015731
  72 N :   -0.045093
  73 C :   -0.022353
  74 C :   -0.035711
  75 C :    0.084495
  76 O :   -0.135495
  77 C :   -0.013598
  78 C :    0.101815
  79 C :   -0.025330
  80 C :    0.014637
  81 F :   -0.057226
  82 H :    0.048838
  83 H :    0.046397
  84 H :    0.043854
  85 H :    0.054281
  86 H :    0.048654
  87 H :    0.036936
  88 H :    0.037543
  89 H :    0.036895
  90 H :    0.036809
  91 H :    0.042708
  92 H :    0.046412
  93 H :    0.049557
  94 H :    0.046628
  95 H :    0.045198

  Mayer bond orders larger than 0.100000
B(  0-C ,  1-C ) :   1.6341 B(  0-C ,  6-C ) :   0.9974 B(  0-C , 15-C ) :   1.0748
B(  1-C ,  2-C ) :   1.1433 B(  1-C ,  4-C ) :   1.1450 B(  2-C ,  3-N ) :   2.9753
B(  4-C ,  5-N ) :   2.9649 B(  6-C ,  7-C ) :   1.3351 B(  6-C , 11-C ) :   1.3636
B(  7-C ,  8-C ) :   1.3367 B(  7-C , 13-C ) :   0.9652 B(  8-C ,  9-C ) :   1.3061
B(  8-C , 82-H ) :   1.0180 B(  9-C , 10-C ) :   1.3613 B(  9-C , 12-F ) :   1.0918
B( 10-C , 11-C ) :   1.3550 B( 10-C , 83-H ) :   0.9876 B( 11-C , 84-H ) :   0.9824
B( 13-C , 14-O ) :   2.1151 B( 13-C , 15-C ) :   0.9897 B( 15-C , 16-C ) :   1.4925
B( 16-C , 17-C ) :   1.2725 B( 16-C , 85-H ) :   0.9402 B( 17-C , 18-C ) :   1.3253
B( 17-C , 21-S ) :   1.0675 B( 18-C , 19-C ) :   1.3359 B( 18-C , 86-H ) :   1.0083
B( 19-C , 20-C ) :   1.3529 B( 19-C , 24-C ) :   0.9865 B( 20-C , 21-S ) :   1.1310
B( 20-C , 22-C ) :   1.2049 B( 22-C , 23-C ) :   1.4345 B( 22-C , 32-S ) :   1.1105
B( 23-C , 24-C ) :   0.9937 B( 23-C , 30-C ) :   1.3056 B( 24-C , 25-C ) :   1.7208
B( 25-C , 26-C ) :   1.1326 B( 25-C , 28-C ) :   1.1343 B( 26-C , 27-N ) :   2.9887
B( 28-C , 29-N ) :   2.9963 B( 30-C , 31-C ) :   1.4450 B( 30-C , 87-H ) :   0.9879
B( 31-C , 32-S ) :   1.1219 B( 31-C , 33-C ) :   1.1666 B( 33-C , 34-C ) :   1.4541
B( 33-C , 37-S ) :   1.1081 B( 34-C , 35-C ) :   1.3023 B( 34-C , 88-H ) :   0.9890
B( 35-C , 36-C ) :   1.4407 B( 35-C , 40-C ) :   0.9927 B( 36-C , 37-S ) :   1.1269
B( 36-C , 38-C ) :   1.1880 B( 38-C , 39-C ) :   1.4426 B( 38-C , 48-S ) :   1.1245
B( 39-C , 40-C ) :   0.9959 B( 39-C , 46-C ) :   1.3056 B( 40-C , 41-C ) :   1.7184
B( 41-C , 42-C ) :   1.1328 B( 41-C , 44-C ) :   1.1330 B( 42-C , 43-N ) :   2.9924
B( 44-C , 45-N ) :   2.9921 B( 46-C , 47-C ) :   1.4560 B( 46-C , 89-H ) :   0.9855
B( 47-C , 48-S ) :   1.1100 B( 47-C , 49-C ) :   1.1694 B( 49-C , 50-C ) :   1.4496
B( 49-C , 53-S ) :   1.1193 B( 50-C , 51-C ) :   1.3112 B( 50-C , 90-H ) :   0.9848
B( 51-C , 52-C ) :   1.4422 B( 51-C , 56-C ) :   0.9927 B( 52-C , 53-S ) :   1.1120
B( 52-C , 54-C ) :   1.1982 B( 54-C , 55-C ) :   1.4054 B( 54-C , 64-S ) :   1.1583
B( 55-C , 56-C ) :   1.0000 B( 55-C , 62-C ) :   1.3644 B( 56-C , 57-C ) :   1.7204
B( 57-C , 58-C ) :   1.1348 B( 57-C , 60-C ) :   1.1329 B( 58-C , 59-N ) :   2.9837
B( 60-C , 61-N ) :   2.9918 B( 62-C , 63-C ) :   1.3939 B( 62-C , 91-H ) :   0.9771
B( 63-C , 64-S ) :   1.0867 B( 63-C , 65-C ) :   1.1424 B( 65-C , 66-C ) :   1.6675
B( 65-C , 92-H ) :   0.9289 B( 66-C , 67-C ) :   1.0364 B( 66-C , 75-C ) :   0.9486
B( 67-C , 68-C ) :   1.6551 B( 67-C , 73-C ) :   1.0087 B( 68-C , 69-C ) :   1.1225
B( 68-C , 71-C ) :   1.1705 B( 69-C , 70-N ) :   2.9996 B( 71-C , 72-N ) :   2.9961
B( 73-C , 74-C ) :   1.3356 B( 73-C , 80-C ) :   1.3663 B( 74-C , 75-C ) :   0.9247
B( 74-C , 77-C ) :   1.3412 B( 75-C , 76-O ) :   2.2678 B( 77-C , 78-C ) :   1.3134
B( 77-C , 93-H ) :   1.0177 B( 78-C , 79-C ) :   1.3577 B( 78-C , 81-F ) :   1.0911
B( 79-C , 80-C ) :   1.3542 B( 79-C , 94-H ) :   0.9900 B( 80-C , 95-H ) :   0.9863

-----------------------------------------------------------------------------
         ABSORPTION SPECTRUM VIA TRANSITION ELECTRIC DIPOLE MOMENTS
-----------------------------------------------------------------------------
State   Energy  Wavelength   fosc         T2         TX        TY        TZ
        (cm-1)    (nm)                  (au**2)     (au)      (au)      (au)
-----------------------------------------------------------------------------
   0   11312.0    884.0   0.608938979  17.72182  -1.04796  -3.66290  -1.79074
   1   12749.7    784.3   0.162834836   4.20457   0.40100   1.73816   1.01122
   2   13526.1    739.3   0.151299556   3.68250   0.80615   1.57433   0.74437
   3   19741.9    506.5   1.763061001  29.40041  -1.49723  -4.45949  -2.69659
   4   20305.8    492.5   0.006209332   0.10067   0.26235   0.17573   0.03096
   5   21022.7    475.7   0.240983876   3.77376   0.90726   1.57582   0.68369
   6   22332.9    447.8   0.196581162   2.89782  -0.71668  -1.08235  -1.10123
   7   22857.9    437.5   0.143975576   2.07362   0.58751   1.07472   0.75725
   8   25472.9    392.6   0.138613013   1.79143   0.22653   1.13236   0.67668
   9   26038.5    384.0   0.093278769   1.17935   0.00275   1.08193   0.09363
  10   26913.0    371.6   0.042826242   0.52387   0.03777   0.68849   0.22005
  11   27206.0    367.6   0.209187995   2.53132   0.21685  -1.54915  -0.29060
  12   28140.4    355.4   0.020703962   0.24221  -0.19022   0.43594  -0.12642
  13   28167.7    355.0   0.053845162   0.62932  -0.14777   0.77856  -0.03639
  14   28728.2    348.1   0.023203179   0.26590  -0.01546  -0.49829  -0.13177
  15   29355.0    340.7   0.008914827   0.09998   0.25976   0.11978  -0.13474
  16   29439.8    339.7   0.016595730   0.18558   0.04775  -0.24176   0.35335
  17   29898.6    334.5   0.361302266   3.97828  -0.50695  -1.85254  -0.53794
  18   30193.0    331.2   0.032671805   0.35624   0.07844   0.34329   0.48191
  19   30334.5    329.7   0.112543029   1.22140  -0.33929  -0.27065  -1.01638
  20   30835.5    324.3   0.316359711   3.37758  -0.02588   0.08662  -1.83560
  21   31039.2    322.2   0.116839808   1.23924   0.76746   0.68939  -0.41832
  22   31474.3    317.7   1.081605582  11.31327   0.88903   0.41817  -3.21684
  23   31760.4    314.9   0.447649206   4.64010  -0.04256   1.19354  -1.79269
  24   31919.8    313.3   0.079327191   0.81816   0.10207  -0.89537  -0.07777
  25   32724.0    305.6   0.087696772   0.88225  -0.15167   0.00924  -0.92691
  26   32767.6    305.2   0.030690556   0.30834   0.21297  -0.02966   0.51196
  27   33031.2    302.7   0.031222118   0.31118   0.21678   0.13807  -0.49510
  28   33124.6    301.9   0.129819215   1.29022  -0.26371  -0.66412   0.88296
  29   33256.2    300.7   0.265728798   2.63052  -0.02715  -1.39176  -0.83234
  30   33350.1    299.8   0.054459214   0.53759  -0.31087  -0.37578  -0.54748
  31   33869.9    295.2   0.134979095   1.31198  -0.50898  -0.47360  -0.91029
  32   34046.7    293.7   0.051871918   0.50157   0.00035  -0.44984   0.54701
  33   34237.2    292.1   0.060032714   0.57725  -0.16356  -0.47167  -0.57273
  34   34554.6    289.4   0.062942144   0.59967   0.15669   0.59996   0.46386
  35   34635.3    288.7   0.145663792   1.38455  -0.18827  -1.14159   0.21417
  36   34807.6    287.3   0.065126225   0.61597   0.18245   0.74979   0.14316
  37   35007.0    285.7   0.042793621   0.40244  -0.27993  -0.54831   0.15307
  38   35117.0    284.8   0.111025440   1.04083   0.19399   0.15151  -0.99007
  39   35294.0    283.3   0.030334186   0.28295  -0.06790  -0.43874   0.29300
  40   35716.8    280.0   0.269195672   2.48125   0.12171   0.12807  -1.56526
  41   35770.3    279.6   0.622807058   5.73201  -0.05383   1.78186  -1.59816
  42   36095.2    277.0   0.022510264   0.20531  -0.11838   0.41009   0.15206
  43   36259.1    275.8   0.123181056   1.11841   0.50708  -0.74439   0.55423
  44   36445.5    274.4   0.367945502   3.32365   0.58560  -1.71592   0.19065
  45   36527.5    273.8   0.045126258   0.40671  -0.15776   0.30246   0.53883
  46   36818.1    271.6   0.025750931   0.23025   0.21536  -0.30623  -0.30017
  47   36856.2    271.3   0.019331706   0.17268   0.11565   0.31164  -0.24936
  48   37296.2    268.1   0.033338347   0.29428  -0.01119   0.36661  -0.39968
  49   37360.7    267.7   0.012998600   0.11454   0.10928  -0.32030  -0.00235
  50   37564.7    266.2   0.044680631   0.39157  -0.02625   0.61433  -0.11612
  51   37986.5    263.3   0.104363731   0.90447   0.16869   0.74345  -0.56860
  52   38454.9    260.0   0.129305066   1.10698   0.35188  -0.98739   0.09066
  53   38524.3    259.6   0.005312704   0.04540  -0.04575  -0.20775  -0.01209
  54   38652.9    258.7   0.010484851   0.08930  -0.06195  -0.00111  -0.29234
  55   38912.3    257.0   0.007807852   0.06606   0.10600  -0.01249   0.23381
  56   39079.4    255.9   0.035354828   0.29784   0.10643   0.53488   0.02039
  57   39234.3    254.9   0.002391170   0.02006   0.00765  -0.03426   0.13723
  58   39563.1    252.8   0.000436386   0.00363   0.03773   0.01916   0.04291
  59   39724.0    251.7   0.004483297   0.03716  -0.04665   0.17986  -0.05128
  60   39867.1    250.8   0.009656689   0.07974   0.11356   0.07367   0.24783
  61   40189.2    248.8   0.056636518   0.46394   0.02110  -0.11701   0.67067
  62   40266.0    248.3   0.048051208   0.39286   0.25693   0.56250   0.10218

FINAL SINGLE POINT ENERGY     -5652.734169205832

DIPOLE MOMENT
-------------
                                X             Y             Z
Electronic contribution:     -3.07057      -3.35627       3.74022
Nuclear contribution   :      3.80555       1.02281      -1.57597
                        -----------------------------------------
Total Dipole Moment    :      0.73498      -2.33346       2.16425
                        -----------------------------------------
Magnitude (a.u.)       :      3.26638
Magnitude (Debye)      :      8.30247

Rotational constants in cm-1:     0.002117     0.000132     0.000126
Rotational constants in MHz :    63.455749     3.948566     3.788918

                             ****ORCA TERMINATED NORMALLY****
TOTAL RUN TIME: 0 days 0 hours 10 minutes 18 seconds 35 msec
