                         Program Version 4.2.0 -  RELEASE  -
|  1> # ORCA input file
|  2> # SCF done       -203.614832327519          0.000734394333
|  3> ! CAM-B3LYP def2-SVP def2/J RIJCOSX Grid4 TightSCF
|  4> %maxcore 5000
|  5> %tddft
|  6>     Mode sTDDFT
|  7>     Ethresh 5.0
|  8>     maxcore 5000
|  9> end
| 10>
| 11> %pal
| 12>   nprocs 6
| 13>   end
| 14> * xyz 0 1
| 15>    C       -5.58125         0.15248         0.89279
| 16>    C       -6.36574        -0.34211        -0.11499
| 17>    C       -7.09704        -1.54339        -0.03355
| 18>    N       -7.73043        -2.50096        -0.00922
| 19>    C       -6.61431         0.34180        -1.32441
| 20>    N       -6.85885         0.85487        -2.32110
| 21>    C       -5.00840         1.49682         0.91860
| 22>    C       -4.73471         1.84944         2.25457
| 23>    C       -4.22462         3.09452         2.56896
| 24>    C       -3.97851         3.98626         1.53604
| 25>    C       -4.22362         3.64596         0.20755
| 26>    C       -4.74421         2.38888        -0.10317
| 27>    C       -3.92331         4.60526        -0.89861
| 28>    C       -5.05236         0.71688         3.13876
| 29>    O       -5.00092         0.66262         4.34546
| 30>    C       -5.40534        -0.40739         2.21761
| 31>    C       -5.42048        -1.67724         2.70257
| 32>    C       -5.35929        -2.88845         1.97458
| 33>    C       -4.89004        -3.09748         0.68721
| 34>    C       -4.98514        -4.42884         0.30297
| 35>    C       -5.52732        -5.25356         1.30891
| 36>    S       -5.88849        -4.38776         2.72844
| 37>    C       -5.62911        -6.57151         0.79647
| 38>    C       -5.15464        -6.57778        -0.52722
| 39>    C       -4.73979        -5.22958        -0.88234
| 40>    C       -4.26627        -4.79163        -2.08397
| 41>    C       -4.08069        -5.66069        -3.17946
| 42>    N       -3.92352        -6.37216        -4.06459
| 43>    C       -3.93948        -3.43534        -2.29523
| 44>    N       -3.67764        -2.32993        -2.45144
| 45>    C       -5.24350        -7.82958        -1.13153
| 46>    C       -5.78530        -8.77663        -0.27996
| 47>    S       -6.18137        -8.10936         1.29584
| 48>    C       -6.06156       -10.13480        -0.57689
| 49>    C       -6.65486       -11.08036         0.24021
| 50>    C       -6.82051       -12.30150        -0.41264
| 51>    C       -6.34292       -12.28314        -1.73450
| 52>    S       -5.68681       -10.77022        -2.17304
| 53>    C       -6.59548       -13.54596        -2.32514
| 54>    C       -7.23720       -14.36437        -1.37933
| 55>    C       -7.38784       -13.61395        -0.14168
| 56>    C       -7.94899       -14.04651         1.02313
| 57>    C       -8.47502       -15.34860         1.16188
| 58>    N       -8.90295       -16.40650         1.27168
| 59>    C       -8.03771       -13.21978         2.16332
| 60>    N       -8.10907       -12.54767         3.08933
| 61>    C       -7.56978       -15.62006        -1.88659
| 62>    C       -7.18536       -15.76113        -3.20796
| 63>    S       -6.38729       -14.32258        -3.82992
| 64>    C       -7.40604       -16.86660        -4.06705
| 65>    C       -7.00533       -16.99108        -5.38626
| 66>    C       -7.44820       -18.18310        -5.95423
| 67>    C       -8.19111       -18.97376        -5.05968
| 68>    S       -8.33100       -18.25344        -3.51491
| 69>    C       -8.63475       -20.13278        -5.74106
| 70>    C       -8.17193       -20.07251        -7.07394
| 71>    C       -7.38810       -18.86112        -7.24136
| 72>    C       -6.72143       -18.44815        -8.35623
| 73>    C       -6.67891       -19.20452        -9.54805
| 74>    N       -6.60707       -19.81112       -10.51786
| 75>    C       -5.99707       -17.23701        -8.38235
| 76>    N       -5.41161       -16.25126        -8.39924
| 77>    C       -8.61300       -21.13333        -7.85445
| 78>    C       -9.41303       -22.01188        -7.13817
| 79>    S       -9.57412       -21.51869        -5.44700
| 80>    C      -10.06137       -23.20577        -7.52185
| 81>    C      -10.40935       -23.62052        -8.77576
| 82>    C      -10.99043       -24.91474        -9.08770
| 83>    C      -10.98052       -26.02664        -8.28777
| 84>    C      -10.38453       -26.10448        -7.01091
| 85>    N       -9.90510       -26.24910        -5.97739
| 86>    C      -11.54164       -27.26861        -8.65362
| 87>    N      -11.98181       -28.30267        -8.88727
| 88>    C      -11.51066       -24.85141       -10.45028
| 89>    C      -11.19943       -23.59223       -10.99315
| 90>    C      -10.48083       -22.77760       -10.00101
| 91>    O      -10.10190       -21.63539       -10.14730
| 92>    C      -11.56521       -23.25635       -12.28241
| 93>    C      -12.24895       -24.19584       -13.03760
| 94>    C      -12.57209       -25.44721       -12.51701
| 95>    C      -12.20086       -25.77686       -11.21303
| 96>    C      -13.33510       -26.43813       -13.33628
| 97>    H       -4.02808         3.35610         3.59721
| 98>    H       -3.58398         4.96579         1.76316
| 99>    H       -4.91969         2.12724        -1.13480
|100>    H       -3.73812         5.60478        -0.51476
|101>    H       -4.74957         4.64178        -1.60563
|102>    H       -3.03862         4.27566        -1.44353
|103>    H       -5.41920        -1.75950         3.78500
|104>    H       -4.46774        -2.31481         0.08373
|105>    H       -4.94269        -8.05451        -2.13915
|106>    H       -6.95453       -10.87031         1.25129
|107>    H       -8.07193       -16.39817        -1.34008
|108>    H       -6.42921       -16.23798        -5.89327
|109>    H       -8.37465       -21.27159        -8.89187
|110>    H      -10.34503       -23.84179        -6.69109
|111>    H      -11.31311       -22.28544       -12.68010
|112>    H      -12.53903       -23.95669       -14.05019
|113>    H      -12.46278       -26.74614       -10.82002
|114>    H      -13.26064       -26.21124       -14.39654
|115>    H      -14.38854       -26.41376       -13.05573
|116>    H      -12.96947       -27.44702       -13.15945
|117> *
|118>
|119>                          ****END OF INPUT****

CARTESIAN COORDINATES (ANGSTROEM)
---------------------------------
  C     -5.581250    0.152480    0.892790
  C     -6.365740   -0.342110   -0.114990
  C     -7.097040   -1.543390   -0.033550
  N     -7.730430   -2.500960   -0.009220
  C     -6.614310    0.341800   -1.324410
  N     -6.858850    0.854870   -2.321100
  C     -5.008400    1.496820    0.918600
  C     -4.734710    1.849440    2.254570
  C     -4.224620    3.094520    2.568960
  C     -3.978510    3.986260    1.536040
  C     -4.223620    3.645960    0.207550
  C     -4.744210    2.388880   -0.103170
  C     -3.923310    4.605260   -0.898610
  C     -5.052360    0.716880    3.138760
  O     -5.000920    0.662620    4.345460
  C     -5.405340   -0.407390    2.217610
  C     -5.420480   -1.677240    2.702570
  C     -5.359290   -2.888450    1.974580
  C     -4.890040   -3.097480    0.687210
  C     -4.985140   -4.428840    0.302970
  C     -5.527320   -5.253560    1.308910
  S     -5.888490   -4.387760    2.728440
  C     -5.629110   -6.571510    0.796470
  C     -5.154640   -6.577780   -0.527220
  C     -4.739790   -5.229580   -0.882340
  C     -4.266270   -4.791630   -2.083970
  C     -4.080690   -5.660690   -3.179460
  N     -3.923520   -6.372160   -4.064590
  C     -3.939480   -3.435340   -2.295230
  N     -3.677640   -2.329930   -2.451440
  C     -5.243500   -7.829580   -1.131530
  C     -5.785300   -8.776630   -0.279960
  S     -6.181370   -8.109360    1.295840
  C     -6.061560  -10.134800   -0.576890
  C     -6.654860  -11.080360    0.240210
  C     -6.820510  -12.301500   -0.412640
  C     -6.342920  -12.283140   -1.734500
  S     -5.686810  -10.770220   -2.173040
  C     -6.595480  -13.545960   -2.325140
  C     -7.237200  -14.364370   -1.379330
  C     -7.387840  -13.613950   -0.141680
  C     -7.948990  -14.046510    1.023130
  C     -8.475020  -15.348600    1.161880
  N     -8.902950  -16.406500    1.271680
  C     -8.037710  -13.219780    2.163320
  N     -8.109070  -12.547670    3.089330
  C     -7.569780  -15.620060   -1.886590
  C     -7.185360  -15.761130   -3.207960
  S     -6.387290  -14.322580   -3.829920
  C     -7.406040  -16.866600   -4.067050
  C     -7.005330  -16.991080   -5.386260
  C     -7.448200  -18.183100   -5.954230
  C     -8.191110  -18.973760   -5.059680
  S     -8.331000  -18.253440   -3.514910
  C     -8.634750  -20.132780   -5.741060
  C     -8.171930  -20.072510   -7.073940
  C     -7.388100  -18.861120   -7.241360
  C     -6.721430  -18.448150   -8.356230
  C     -6.678910  -19.204520   -9.548050
  N     -6.607070  -19.811120  -10.517860
  C     -5.997070  -17.237010   -8.382350
  N     -5.411610  -16.251260   -8.399240
  C     -8.613000  -21.133330   -7.854450
  C     -9.413030  -22.011880   -7.138170
  S     -9.574120  -21.518690   -5.447000
  C    -10.061370  -23.205770   -7.521850
  C    -10.409350  -23.620520   -8.775760
  C    -10.990430  -24.914740   -9.087700
  C    -10.980520  -26.026640   -8.287770
  C    -10.384530  -26.104480   -7.010910
  N     -9.905100  -26.249100   -5.977390
  C    -11.541640  -27.268610   -8.653620
  N    -11.981810  -28.302670   -8.887270
  C    -11.510660  -24.851410  -10.450280
  C    -11.199430  -23.592230  -10.993150
  C    -10.480830  -22.777600  -10.001010
  O    -10.101900  -21.635390  -10.147300
  C    -11.565210  -23.256350  -12.282410
  C    -12.248950  -24.195840  -13.037600
  C    -12.572090  -25.447210  -12.517010
  C    -12.200860  -25.776860  -11.213030
  C    -13.335100  -26.438130  -13.336280
  H     -4.028080    3.356100    3.597210
  H     -3.583980    4.965790    1.763160
  H     -4.919690    2.127240   -1.134800
  H     -3.738120    5.604780   -0.514760
  H     -4.749570    4.641780   -1.605630
  H     -3.038620    4.275660   -1.443530
  H     -5.419200   -1.759500    3.785000
  H     -4.467740   -2.314810    0.083730
  H     -4.942690   -8.054510   -2.139150
  H     -6.954530  -10.870310    1.251290
  H     -8.071930  -16.398170   -1.340080
  H     -6.429210  -16.237980   -5.893270
  H     -8.374650  -21.271590   -8.891870
  H    -10.345030  -23.841790   -6.691090
  H    -11.313110  -22.285440  -12.680100
  H    -12.539030  -23.956690  -14.050190
  H    -12.462780  -26.746140  -10.820020
  H    -13.260640  -26.211240  -14.396540
  H    -14.388540  -26.413760  -13.055730
  H    -12.969470  -27.447020  -13.159450

 Total Charge           Charge          ....    0
 Multiplicity           Mult            ....    1
 Number of Electrons    NEL             ....  586
 Basis Dimension        Dim             .... 1272

ORBITAL ENERGIES
----------------

  NO   OCC          E(Eh)            E(eV)
   0   2.0000     -89.002880     -2421.8915
   1   2.0000     -89.002514     -2421.8815
   2   2.0000     -89.002511     -2421.8814
   3   2.0000     -89.002158     -2421.8718
   4   2.0000     -88.999623     -2421.8029
   5   2.0000     -88.998521     -2421.7729
   6   2.0000     -19.218731      -522.9683
   7   2.0000     -19.217011      -522.9215
   8   2.0000     -14.440865      -392.9559
   9   2.0000     -14.440737      -392.9524
  10   2.0000     -14.438002      -392.8780
  11   2.0000     -14.437766      -392.8716
  12   2.0000     -14.437761      -392.8714
  13   2.0000     -14.433756      -392.7625
  14   2.0000     -14.420962      -392.4143
  15   2.0000     -14.418383      -392.3442
  16   2.0000     -14.415986      -392.2789
  17   2.0000     -14.415843      -392.2750
  18   2.0000     -10.376227      -282.3515
  19   2.0000     -10.372902      -282.2610
  20   2.0000     -10.372901      -282.2610
  21   2.0000     -10.370496      -282.1956
  22   2.0000     -10.368380      -282.1380
  23   2.0000     -10.363145      -281.9955
  24   2.0000     -10.359817      -281.9049
  25   2.0000     -10.359253      -281.8896
  26   2.0000     -10.348988      -281.6103
  27   2.0000     -10.347419      -281.5676
  28   2.0000     -10.346726      -281.5487
  29   2.0000     -10.345530      -281.5162
  30   2.0000     -10.344669      -281.4928
  31   2.0000     -10.344650      -281.4922
  32   2.0000     -10.344616      -281.4913
  33   2.0000     -10.343802      -281.4692
  34   2.0000     -10.342750      -281.4405
  35   2.0000     -10.342498      -281.4337
  36   2.0000     -10.342083      -281.4224
  37   2.0000     -10.341996      -281.4200
  38   2.0000     -10.341489      -281.4062
  39   2.0000     -10.341430      -281.4046
  40   2.0000     -10.340909      -281.3904
  41   2.0000     -10.340753      -281.3862
  42   2.0000     -10.338114      -281.3144
  43   2.0000     -10.337887      -281.3082
  44   2.0000     -10.337862      -281.3075
  45   2.0000     -10.332979      -281.1747
  46   2.0000     -10.330647      -281.1112
  47   2.0000     -10.329503      -281.0801
  48   2.0000     -10.328542      -281.0539
  49   2.0000     -10.326696      -281.0037
  50   2.0000     -10.322391      -280.8865
  51   2.0000     -10.321189      -280.8538
  52   2.0000     -10.318730      -280.7869
  53   2.0000     -10.318430      -280.7788
  54   2.0000     -10.318195      -280.7724
  55   2.0000     -10.316284      -280.7204
  56   2.0000     -10.315700      -280.7045
  57   2.0000     -10.315681      -280.7039
  58   2.0000     -10.315251      -280.6922
  59   2.0000     -10.314798      -280.6799
  60   2.0000     -10.314510      -280.6721
  61   2.0000     -10.313498      -280.6445
  62   2.0000     -10.313043      -280.6322
  63   2.0000     -10.311098      -280.5792
  64   2.0000     -10.310922      -280.5745
  65   2.0000     -10.310616      -280.5661
  66   2.0000     -10.307304      -280.4760
  67   2.0000     -10.305560      -280.4285
  68   2.0000     -10.303003      -280.3590
  69   2.0000     -10.302576      -280.3473
  70   2.0000     -10.301893      -280.3287
  71   2.0000     -10.300831      -280.2999
  72   2.0000     -10.295994      -280.1682
  73   2.0000     -10.294199      -280.1194
  74   2.0000     -10.291650      -280.0500
  75   2.0000     -10.291323      -280.0411
  76   2.0000     -10.290796      -280.0268
  77   2.0000     -10.290720      -280.0247
  78   2.0000     -10.290581      -280.0209
  79   2.0000     -10.288867      -279.9743
  80   2.0000     -10.275275      -279.6044
  81   2.0000     -10.275093      -279.5995
  82   2.0000      -8.097318      -220.3392
  83   2.0000      -8.097003      -220.3307
  84   2.0000      -8.096886      -220.3275
  85   2.0000      -8.096452      -220.3157
  86   2.0000      -8.094261      -220.2560
  87   2.0000      -8.093390      -220.2323
  88   2.0000      -6.066601      -165.0806
  89   2.0000      -6.066315      -165.0728
  90   2.0000      -6.066169      -165.0688
  91   2.0000      -6.065751      -165.0575
  92   2.0000      -6.063429      -164.9943
  93   2.0000      -6.062529      -164.9698
  94   2.0000      -6.062424      -164.9669
  95   2.0000      -6.062153      -164.9596
  96   2.0000      -6.062011      -164.9557
  97   2.0000      -6.061595      -164.9444
  98   2.0000      -6.059591      -164.8899
  99   2.0000      -6.059242      -164.8804
 100   2.0000      -6.059197      -164.8791
 101   2.0000      -6.059191      -164.8790
 102   2.0000      -6.058747      -164.8669
 103   2.0000      -6.058372      -164.8567
 104   2.0000      -6.056777      -164.8133
 105   2.0000      -6.055860      -164.7883
 106   2.0000      -1.134354       -30.8673
 107   2.0000      -1.132401       -30.8142
 108   2.0000      -1.058364       -28.7995
 109   2.0000      -1.055338       -28.7172
 110   2.0000      -1.053620       -28.6705
 111   2.0000      -1.032955       -28.1081
 112   2.0000      -1.029955       -28.0265
 113   2.0000      -1.028457       -27.9857
 114   2.0000      -1.022929       -27.8353
 115   2.0000      -1.020407       -27.7667
 116   2.0000      -1.019090       -27.7308
 117   2.0000      -1.017566       -27.6894
 118   2.0000      -1.015412       -27.6308
 119   2.0000      -1.012637       -27.5553
 120   2.0000      -1.009218       -27.4622
 121   2.0000      -1.000234       -27.2178
 122   2.0000      -0.999708       -27.2034
 123   2.0000      -0.997772       -27.1507
 124   2.0000      -0.995130       -27.0789
 125   2.0000      -0.994743       -27.0683
 126   2.0000      -0.975407       -26.5422
 127   2.0000      -0.967510       -26.3273
 128   2.0000      -0.963715       -26.2240
 129   2.0000      -0.953837       -25.9552
 130   2.0000      -0.953037       -25.9335
 131   2.0000      -0.932914       -25.3859
 132   2.0000      -0.926192       -25.2030
 133   2.0000      -0.916460       -24.9381
 134   2.0000      -0.906555       -24.6686
 135   2.0000      -0.904709       -24.6184
 136   2.0000      -0.892460       -24.2851
 137   2.0000      -0.891845       -24.2683
 138   2.0000      -0.882160       -24.0048
 139   2.0000      -0.881633       -23.9905
 140   2.0000      -0.875055       -23.8115
 141   2.0000      -0.871377       -23.7114
 142   2.0000      -0.865722       -23.5575
 143   2.0000      -0.864428       -23.5223
 144   2.0000      -0.864021       -23.5112
 145   2.0000      -0.861026       -23.4297
 146   2.0000      -0.847801       -23.0698
 147   2.0000      -0.833521       -22.6812
 148   2.0000      -0.823420       -22.4064
 149   2.0000      -0.808291       -21.9947
 150   2.0000      -0.792218       -21.5574
 151   2.0000      -0.791232       -21.5305
 152   2.0000      -0.788028       -21.4433
 153   2.0000      -0.783290       -21.3144
 154   2.0000      -0.779272       -21.2051
 155   2.0000      -0.770804       -20.9746
 156   2.0000      -0.757199       -20.6044
 157   2.0000      -0.747348       -20.3364
 158   2.0000      -0.736388       -20.0381
 159   2.0000      -0.724015       -19.7014
 160   2.0000      -0.717547       -19.5254
 161   2.0000      -0.715099       -19.4588
 162   2.0000      -0.708097       -19.2683
 163   2.0000      -0.704561       -19.1721
 164   2.0000      -0.699180       -19.0257
 165   2.0000      -0.695926       -18.9371
 166   2.0000      -0.693500       -18.8711
 167   2.0000      -0.688797       -18.7431
 168   2.0000      -0.685344       -18.6492
 169   2.0000      -0.684050       -18.6140
 170   2.0000      -0.675946       -18.3934
 171   2.0000      -0.673674       -18.3316
 172   2.0000      -0.656318       -17.8593
 173   2.0000      -0.653867       -17.7926
 174   2.0000      -0.645070       -17.5533
 175   2.0000      -0.643098       -17.4996
 176   2.0000      -0.640714       -17.4347
 177   2.0000      -0.638868       -17.3845
 178   2.0000      -0.632953       -17.2235
 179   2.0000      -0.631111       -17.1734
 180   2.0000      -0.626872       -17.0580
 181   2.0000      -0.623247       -16.9594
 182   2.0000      -0.620477       -16.8840
 183   2.0000      -0.617452       -16.8017
 184   2.0000      -0.610204       -16.6045
 185   2.0000      -0.605184       -16.4679
 186   2.0000      -0.595522       -16.2050
 187   2.0000      -0.588528       -16.0147
 188   2.0000      -0.581247       -15.8165
 189   2.0000      -0.573218       -15.5981
 190   2.0000      -0.565219       -15.3804
 191   2.0000      -0.561468       -15.2783
 192   2.0000      -0.559612       -15.2278
 193   2.0000      -0.557396       -15.1675
 194   2.0000      -0.556187       -15.1346
 195   2.0000      -0.555037       -15.1033
 196   2.0000      -0.551140       -14.9973
 197   2.0000      -0.544113       -14.8061
 198   2.0000      -0.541944       -14.7470
 199   2.0000      -0.538572       -14.6553
 200   2.0000      -0.538445       -14.6518
 201   2.0000      -0.534729       -14.5507
 202   2.0000      -0.530868       -14.4457
 203   2.0000      -0.529752       -14.4153
 204   2.0000      -0.528226       -14.3738
 205   2.0000      -0.524172       -14.2635
 206   2.0000      -0.522339       -14.2136
 207   2.0000      -0.519824       -14.1451
 208   2.0000      -0.518941       -14.1211
 209   2.0000      -0.517806       -14.0902
 210   2.0000      -0.513898       -13.9839
 211   2.0000      -0.512984       -13.9590
 212   2.0000      -0.512596       -13.9484
 213   2.0000      -0.510900       -13.9023
 214   2.0000      -0.509464       -13.8632
 215   2.0000      -0.509078       -13.8527
 216   2.0000      -0.507551       -13.8112
 217   2.0000      -0.506093       -13.7715
 218   2.0000      -0.503674       -13.7057
 219   2.0000      -0.500151       -13.6098
 220   2.0000      -0.498749       -13.5716
 221   2.0000      -0.497494       -13.5375
 222   2.0000      -0.494157       -13.4467
 223   2.0000      -0.493359       -13.4250
 224   2.0000      -0.490575       -13.3492
 225   2.0000      -0.488030       -13.2800
 226   2.0000      -0.485320       -13.2062
 227   2.0000      -0.480746       -13.0818
 228   2.0000      -0.478055       -13.0085
 229   2.0000      -0.473802       -12.8928
 230   2.0000      -0.473184       -12.8760
 231   2.0000      -0.471411       -12.8277
 232   2.0000      -0.468573       -12.7505
 233   2.0000      -0.468086       -12.7373
 234   2.0000      -0.467290       -12.7156
 235   2.0000      -0.467022       -12.7083
 236   2.0000      -0.465448       -12.6655
 237   2.0000      -0.461735       -12.5645
 238   2.0000      -0.459108       -12.4930
 239   2.0000      -0.454859       -12.3774
 240   2.0000      -0.453999       -12.3539
 241   2.0000      -0.453218       -12.3327
 242   2.0000      -0.452723       -12.3192
 243   2.0000      -0.451726       -12.2921
 244   2.0000      -0.451320       -12.2810
 245   2.0000      -0.450922       -12.2702
 246   2.0000      -0.450792       -12.2667
 247   2.0000      -0.450007       -12.2453
 248   2.0000      -0.449594       -12.2341
 249   2.0000      -0.449284       -12.2256
 250   2.0000      -0.448345       -12.2001
 251   2.0000      -0.447673       -12.1818
 252   2.0000      -0.447084       -12.1658
 253   2.0000      -0.445863       -12.1325
 254   2.0000      -0.445396       -12.1198
 255   2.0000      -0.445049       -12.1104
 256   2.0000      -0.444509       -12.0957
 257   2.0000      -0.443196       -12.0600
 258   2.0000      -0.442918       -12.0524
 259   2.0000      -0.442142       -12.0313
 260   2.0000      -0.436432       -11.8759
 261   2.0000      -0.433567       -11.7979
 262   2.0000      -0.431897       -11.7525
 263   2.0000      -0.430510       -11.7148
 264   2.0000      -0.429868       -11.6973
 265   2.0000      -0.428308       -11.6549
 266   2.0000      -0.424326       -11.5465
 267   2.0000      -0.423423       -11.5219
 268   2.0000      -0.419304       -11.4098
 269   2.0000      -0.413246       -11.2450
 270   2.0000      -0.413133       -11.2419
 271   2.0000      -0.409772       -11.1505
 272   2.0000      -0.408422       -11.1137
 273   2.0000      -0.401056       -10.9133
 274   2.0000      -0.391017       -10.6401
 275   2.0000      -0.378753       -10.3064
 276   2.0000      -0.363674        -9.8961
 277   2.0000      -0.361130        -9.8269
 278   2.0000      -0.359526        -9.7832
 279   2.0000      -0.355836        -9.6828
 280   2.0000      -0.345143        -9.3918
 281   2.0000      -0.341015        -9.2795
 282   2.0000      -0.338279        -9.2050
 283   2.0000      -0.335022        -9.1164
 284   2.0000      -0.334655        -9.1064
 285   2.0000      -0.331030        -9.0078
 286   2.0000      -0.329298        -8.9607
 287   2.0000      -0.327260        -8.9052
 288   2.0000      -0.318098        -8.6559
 289   2.0000      -0.314646        -8.5619
 290   2.0000      -0.299886        -8.1603
 291   2.0000      -0.273361        -7.4385
 292   2.0000      -0.248745        -6.7687
 293   0.0000      -0.122219        -3.3257
 294   0.0000      -0.114705        -3.1213
 295   0.0000      -0.112215        -3.0535
 296   0.0000      -0.089275        -2.4293
 297   0.0000      -0.088168        -2.3992

MULLIKEN ATOMIC CHARGES
-----------------------
   0 C :    0.259155
   1 C :   -0.327299
   2 C :   -0.197997
   3 N :    0.167164
   4 C :   -0.173952
   5 N :    0.162098
   6 C :    0.026546
   7 C :    0.002403
   8 C :   -0.025193
   9 C :    0.008812
  10 C :   -0.038793
  11 C :   -0.067943
  12 C :    0.089538
  13 C :    0.134384
  14 O :   -0.143687
  15 C :   -0.132463
  16 C :    0.080018
  17 C :   -0.117119
  18 C :   -0.000308
  19 C :   -0.005955
  20 C :   -0.071249
  21 S :    0.219493
  22 C :   -0.105835
  23 C :    0.024070
  24 C :    0.303998
  25 C :   -0.286737
  26 C :   -0.188071
  27 N :    0.175656
  28 C :   -0.185196
  29 N :    0.173867
  30 C :   -0.067124
  31 C :   -0.045677
  32 S :    0.205612
  33 C :   -0.053066
  34 C :   -0.062062
  35 C :    0.015611
  36 C :   -0.096828
  37 S :    0.202255
  38 C :   -0.095042
  39 C :    0.019545
  40 C :    0.297413
  41 C :   -0.294526
  42 C :   -0.190139
  43 N :    0.179929
  44 C :   -0.184630
  45 N :    0.175963
  46 C :   -0.064696
  47 C :   -0.054152
  48 S :    0.202386
  49 C :   -0.040834
  50 C :   -0.073763
  51 C :    0.027689
  52 C :   -0.103578
  53 S :    0.204459
  54 C :   -0.081624
  55 C :   -0.029270
  56 C :    0.305902
  57 C :   -0.291032
  58 C :   -0.183148
  59 N :    0.187507
  60 C :   -0.191719
  61 N :    0.174114
  62 C :    0.043089
  63 C :   -0.116551
  64 S :    0.208608
  65 C :    0.027757
  66 C :   -0.097750
  67 C :    0.300308
  68 C :   -0.347450
  69 C :   -0.204978
  70 N :    0.162322
  71 C :   -0.179402
  72 N :    0.150160
  73 C :    0.048946
  74 C :   -0.026113
  75 C :    0.151907
  76 O :   -0.150903
  77 C :   -0.016524
  78 C :    0.009619
  79 C :   -0.038027
  80 C :   -0.070963
  81 C :    0.086774
  82 H :   -0.004186
  83 H :   -0.014252
  84 H :   -0.001348
  85 H :    0.015581
  86 H :    0.040472
  87 H :    0.042574
  88 H :    0.022126
  89 H :    0.025682
  90 H :    0.014713
  91 H :    0.012831
  92 H :    0.013192
  93 H :    0.015011
  94 H :    0.031306
  95 H :    0.020792
  96 H :   -0.004050
  97 H :   -0.014455
  98 H :   -0.010898
  99 H :    0.019443
 100 H :    0.043943
 101 H :    0.035815
Sum of atomic charges:   -0.0000000

LOEWDIN ATOMIC CHARGES
----------------------
   0 C :    0.066714
   1 C :   -0.134155
   2 C :   -0.015386
   3 N :   -0.047300
   4 C :   -0.019135
   5 N :   -0.045554
   6 C :   -0.007386
   7 C :   -0.054946
   8 C :    0.018515
   9 C :   -0.010532
  10 C :    0.003909
  11 C :   -0.003642
  12 C :   -0.043105
  13 C :    0.083526
  14 O :   -0.142488
  15 C :   -0.086994
  16 C :    0.039498
  17 C :   -0.181641
  18 C :    0.005419
  19 C :   -0.067529
  20 C :   -0.160033
  21 S :    0.502100
  22 C :   -0.182820
  23 C :   -0.056368
  24 C :    0.082984
  25 C :   -0.096662
  26 C :   -0.016322
  27 N :   -0.029607
  28 C :   -0.013226
  29 N :   -0.030360
  30 C :   -0.038674
  31 C :   -0.173988
  32 S :    0.490717
  33 C :   -0.178615
  34 C :   -0.035113
  35 C :   -0.066295
  36 C :   -0.179383
  37 S :    0.491671
  38 C :   -0.176735
  39 C :   -0.067655
  40 C :    0.081489
  41 C :   -0.097781
  42 C :   -0.016644
  43 N :   -0.028536
  44 C :   -0.016351
  45 N :   -0.028900
  46 C :   -0.033467
  47 C :   -0.181114
  48 S :    0.491974
  49 C :   -0.170387
  50 C :   -0.041565
  51 C :   -0.052482
  52 C :   -0.188763
  53 S :    0.488720
  54 C :   -0.160476
  55 C :   -0.075836
  56 C :    0.077526
  57 C :   -0.092915
  58 C :   -0.019540
  59 N :   -0.017481
  60 C :   -0.015120
  61 N :   -0.030996
  62 C :    0.024210
  63 C :   -0.178513
  64 S :    0.494198
  65 C :    0.040654
  66 C :   -0.093930
  67 C :    0.076490
  68 C :   -0.138921
  69 C :   -0.024515
  70 N :   -0.051119
  71 C :   -0.017971
  72 N :   -0.051951
  73 C :   -0.011111
  74 C :   -0.051480
  75 C :    0.084453
  76 O :   -0.138339
  77 C :    0.019278
  78 C :   -0.008508
  79 C :    0.001993
  80 C :   -0.004996
  81 C :   -0.043335
  82 H :    0.039992
  83 H :    0.031588
  84 H :    0.038650
  85 H :    0.031558
  86 H :    0.042450
  87 H :    0.044639
  88 H :    0.046152
  89 H :    0.042423
  90 H :    0.036206
  91 H :    0.036810
  92 H :    0.037055
  93 H :    0.036140
  94 H :    0.045295
  95 H :    0.043657
  96 H :    0.040331
  97 H :    0.031655
  98 H :    0.036678
  99 H :    0.032720
 100 H :    0.044760
 101 H :    0.039891

  Mayer bond orders larger than 0.100000
B(  0-C ,  1-C ) :   1.6595 B(  0-C ,  6-C ) :   0.9942 B(  0-C , 15-C ) :   1.0302
B(  1-C ,  2-C ) :   1.1697 B(  1-C ,  4-C ) :   1.1272 B(  2-C ,  3-N ) :   2.9998
B(  4-C ,  5-N ) :   2.9963 B(  6-C ,  7-C ) :   1.3224 B(  6-C , 11-C ) :   1.3763
B(  7-C ,  8-C ) :   1.3822 B(  7-C , 13-C ) :   0.9313 B(  8-C ,  9-C ) :   1.3485
B(  8-C , 82-H ) :   1.0075 B(  9-C , 10-C ) :   1.3890 B(  9-C , 83-H ) :   0.9909
B( 10-C , 11-C ) :   1.3477 B( 10-C , 12-C ) :   1.0525 B( 11-C , 84-H ) :   0.9916
B( 12-C , 85-H ) :   0.9597 B( 12-C , 86-H ) :   0.9557 B( 12-C , 87-H ) :   0.9519
B( 13-C , 14-O ) :   2.2661 B( 13-C , 15-C ) :   0.9333 B( 15-C , 16-C ) :   1.6918
B( 16-C , 17-C ) :   1.1181 B( 16-C , 88-H ) :   0.9313 B( 17-C , 18-C ) :   1.4092
B( 17-C , 21-S ) :   1.0914 B( 18-C , 19-C ) :   1.3526 B( 18-C , 89-H ) :   0.9812
B( 19-C , 20-C ) :   1.4150 B( 19-C , 24-C ) :   1.0008 B( 20-C , 21-S ) :   1.1536
B( 20-C , 22-C ) :   1.1934 B( 22-C , 23-C ) :   1.4453 B( 22-C , 32-S ) :   1.1145
B( 23-C , 24-C ) :   0.9909 B( 23-C , 30-C ) :   1.3102 B( 24-C , 25-C ) :   1.7197
B( 25-C , 26-C ) :   1.1322 B( 25-C , 28-C ) :   1.1351 B( 26-C , 27-N ) :   2.9912
B( 28-C , 29-N ) :   2.9829 B( 30-C , 31-C ) :   1.4515 B( 30-C , 90-H ) :   0.9843
B( 31-C , 32-S ) :   1.1170 B( 31-C , 33-C ) :   1.1701 B( 33-C , 34-C ) :   1.4577
B( 33-C , 37-S ) :   1.1102 B( 34-C , 35-C ) :   1.3036 B( 34-C , 91-H ) :   0.9867
B( 35-C , 36-C ) :   1.4453 B( 35-C , 40-C ) :   0.9932 B( 36-C , 37-S ) :   1.1235
B( 36-C , 38-C ) :   1.1862 B( 38-C , 39-C ) :   1.4410 B( 38-C , 48-S ) :   1.1261
B( 39-C , 40-C ) :   0.9932 B( 39-C , 46-C ) :   1.3038 B( 40-C , 41-C ) :   1.7195
B( 41-C , 42-C ) :   1.1348 B( 41-C , 44-C ) :   1.1307 B( 42-C , 43-N ) :   2.9928
B( 44-C , 45-N ) :   2.9927 B( 46-C , 47-C ) :   1.4569 B( 46-C , 92-H ) :   0.9873
B( 47-C , 48-S ) :   1.1076 B( 47-C , 49-C ) :   1.1715 B( 49-C , 50-C ) :   1.4462
B( 49-C , 53-S ) :   1.1196 B( 50-C , 51-C ) :   1.3099 B( 50-C , 93-H ) :   0.9858
B( 51-C , 52-C ) :   1.4390 B( 51-C , 56-C ) :   0.9926 B( 52-C , 53-S ) :   1.1087
B( 52-C , 54-C ) :   1.2009 B( 54-C , 55-C ) :   1.3861 B( 54-C , 64-S ) :   1.1641
B( 55-C , 56-C ) :   0.9975 B( 55-C , 62-C ) :   1.3377 B( 56-C , 57-C ) :   1.7196
B( 57-C , 58-C ) :   1.1312 B( 57-C , 60-C ) :   1.1370 B( 58-C , 59-N ) :   2.9942
B( 60-C , 61-N ) :   2.9875 B( 62-C , 63-C ) :   1.4168 B( 62-C , 94-H ) :   0.9738
B( 63-C , 64-S ) :   1.0753 B( 63-C , 65-C ) :   1.1851 B( 65-C , 66-C ) :   1.6109
B( 65-C , 95-H ) :   0.9270 B( 66-C , 67-C ) :   1.0693 B( 66-C , 75-C ) :   0.9368
B( 67-C , 68-C ) :   1.6406 B( 67-C , 73-C ) :   0.9852 B( 68-C , 69-C ) :   1.1400
B( 68-C , 71-C ) :   1.1430 B( 69-C , 70-N ) :   2.9927 B( 71-C , 72-N ) :   2.9702
B( 73-C , 74-C ) :   1.3245 B( 73-C , 80-C ) :   1.3674 B( 74-C , 75-C ) :   0.9551
B( 74-C , 77-C ) :   1.3832 B( 75-C , 76-O ) :   2.1970 B( 77-C , 78-C ) :   1.3446
B( 77-C , 96-H ) :   1.0067 B( 78-C , 79-C ) :   1.3870 B( 78-C , 97-H ) :   0.9910
B( 79-C , 80-C ) :   1.3532 B( 79-C , 81-C ) :   1.0525 B( 80-C , 98-H ) :   0.9871
B( 81-C , 99-H ) :   0.9596 B( 81-C ,100-H ) :   0.9510 B( 81-C ,101-H ) :   0.9570

-----------------------------------------------------------------------------
         ABSORPTION SPECTRUM VIA TRANSITION ELECTRIC DIPOLE MOMENTS
-----------------------------------------------------------------------------
State   Energy  Wavelength   fosc         T2         TX        TY        TZ
        (cm-1)    (nm)                  (au**2)     (au)      (au)      (au)
-----------------------------------------------------------------------------
   0   11156.3    896.4   0.560057014  16.52674  -0.76727  -3.65413  -1.60790
   1   12624.5    792.1   0.193461133   5.04491   0.32028   2.11132   0.69619
   2   13057.4    765.8   0.086081694   2.17034   0.55727   0.97525   0.95325
   3   19669.5    508.4   1.389089972  23.24943  -0.50639  -4.61001  -1.31941
   4   20154.3    496.2   0.056472162   0.92245  -0.40994  -0.66547  -0.55817
   5   20917.4    478.1   0.424407441   6.67960  -1.27813  -1.55073  -1.62518
   6   22203.1    450.4   0.217887826   3.23069   0.42196   1.68553   0.46002
   7   22509.5    444.3   0.139059215   2.03381  -0.70507  -1.00148  -0.73057
   8   25621.1    390.3   0.269435912   3.46206   0.29531   1.65752   0.79213
   9   26674.0    374.9   0.043913093   0.54198  -0.14672   0.65813   0.29550
  10   26987.6    370.5   0.206328961   2.51693   0.35169   1.04418   1.14146
  11   27320.2    366.0   0.133549950   1.60929  -0.36735  -0.94438  -0.76321
  12   27469.7    364.0   0.088797967   1.06420  -0.12472  -0.98806   0.26903
  13   28158.0    355.1   0.018677290   0.21837  -0.02709   0.18797  -0.42697
  14   28525.4    350.6   0.055292421   0.63813   0.47788   0.62248   0.14927
  15   29304.6    341.2   0.011406154   0.12814  -0.15043  -0.15502  -0.28544
  16   29526.9    338.7   0.115002942   1.28223  -0.26667   0.99466   0.47093
  17   29793.8    335.6   0.168779199   1.86496  -0.18755   1.35020   0.08208
  18   30088.9    332.3   0.011943288   0.13068  -0.00977  -0.15378   0.32700
  19   30367.6    329.3   0.159970030   1.73422   0.59030   0.87484   0.78767
  20   31047.6    322.1   0.503446552   5.33827  -1.12703  -1.14441   1.66084
  21   31093.2    321.6   0.117884310   1.24815   0.06054   0.29053   1.07707
  22   31363.3    318.8   0.166449967   1.74718   0.68003   1.00803  -0.51827
  23   31670.4    315.8   0.254093401   2.64129   1.12557   0.99086  -0.62655
  24   31818.2    314.3   0.915556325   9.47296   1.14490   0.55490  -2.80254
  25   32381.3    308.8   0.036420637   0.37028   0.09491   0.32149   0.50785
  26   32591.8    306.8   0.003455028   0.03490  -0.11345  -0.09699  -0.11234
  27   32815.6    304.7   0.231181390   2.31925  -0.06746  -0.12924   1.51591
  28   32945.8    303.5   0.000869908   0.00869  -0.07397   0.04603   0.03319
  29   33049.6    302.6   0.067971355   0.67707  -0.42312  -0.70084  -0.08288
  30   33087.1    302.2   0.184741273   1.83815  -0.21575  -1.32224  -0.20804
  31   33217.8    301.0   0.104996808   1.04059   0.34132   0.90329  -0.32889
  32   33549.7    298.1   0.026686103   0.26186   0.37306  -0.04744   0.34704
  33   33676.6    296.9   0.141628589   1.38451   0.14738   1.09015   0.41757
  34   34019.8    293.9   0.110415006   1.06849   0.29906   0.42931   0.89149
  35   34277.7    291.7   0.054301640   0.52153  -0.37997  -0.59584  -0.14876
  36   34364.5    291.0   0.001279953   0.01226   0.02025   0.10877   0.00450
  37   34587.6    289.1   0.004804449   0.04573   0.09832   0.02931  -0.18763
  38   34653.6    288.6   0.165287808   1.57025  -0.18148  -0.96607  -0.77719
  39   34914.3    286.4   0.181999298   1.71610  -0.34289  -0.19140   1.24976
  40   35000.2    285.7   0.041703010   0.39226   0.09649   0.57203  -0.23607
  41   35411.5    282.4   0.079057829   0.73498  -0.32132  -0.44774   0.65671
  42   35755.0    279.7   0.043920387   0.40439   0.49931  -0.05097  -0.39049
  43   35811.9    279.2   0.087589884   0.80520  -0.31294  -0.31220  -0.78090
  44   36022.3    277.6   0.111789958   1.02166   0.48490   0.38844   0.79728
  45   36211.9    276.2   0.088029533   0.80030   0.40071   0.17459   0.78055
  46   36441.1    274.4   0.052441469   0.47376  -0.08119  -0.34805  -0.58824
  47   36544.1    273.6   0.004654036   0.04193  -0.15025   0.13910   0.00163
  48   36803.6    271.7   0.014617775   0.13076   0.21576   0.26651  -0.11479
  49   36918.4    270.9   0.067029676   0.59772  -0.51614   0.14794  -0.55627
  50   37015.7    270.2   0.098654084   0.87741  -0.25525  -0.90059  -0.03466
  51   37668.3    265.5   0.059492729   0.51995   0.17397   0.64859   0.26272
  52   38142.0    262.2   0.265215854   2.28914   0.03576   0.87077  -1.23678
  53   38432.7    260.2   0.092407531   0.79156  -0.03575   0.59777  -0.65799
  54   38610.1    259.0   0.141408619   1.20573  -0.04917   0.76789  -0.78336
  55   38691.0    258.5   0.154094115   1.31115   0.42164   1.05298   0.15683
  56   38748.1    258.1   0.320345326   2.72172   0.67563   0.70573   1.32935
  57   38851.4    257.4   0.023331969   0.19771  -0.06638  -0.43237   0.07972
  58   38965.5    256.6   0.004246915   0.03588   0.15591   0.09297  -0.05413
  59   39128.6    255.6   0.011753666   0.09889   0.00917   0.16327  -0.26860
  60   39298.8    254.5   0.005097322   0.04270   0.04087  -0.04798  -0.19679
  61   39347.7    254.1   0.011229280   0.09395   0.01637  -0.13637   0.27402
  62   39955.1    250.3   0.037371195   0.30792  -0.17899  -0.51974   0.07586
  63   40115.3    249.3   0.023377363   0.19185   0.11427   0.26041  -0.33314

FINAL SINGLE POINT ENERGY     -5532.978975378071

DIPOLE MOMENT
-------------
                                X             Y             Z
Electronic contribution:      9.94781     -15.86984      30.83282
Nuclear contribution   :     -9.59237      17.62951     -30.40044
                        -----------------------------------------
Total Dipole Moment    :      0.35544       1.75967       0.43238
                        -----------------------------------------
Magnitude (a.u.)       :      1.84654
Magnitude (Debye)      :      4.69353

Rotational constants in cm-1:     0.001973     0.000135     0.000130
Rotational constants in MHz :    59.146145     4.058568     3.893853

                             ****ORCA TERMINATED NORMALLY****
TOTAL RUN TIME: 0 days 0 hours 10 minutes 45 seconds 35 msec
