                         Program Version 4.2.0 -  RELEASE  -
|  1> # ORCA input file
|  2> # SCF done       -183.281317242837          0.000502665318
|  3> ! CAM-B3LYP def2-SVP def2/J RIJCOSX Grid4 TightSCF
|  4> %maxcore 5000
|  5> %tddft
|  6>     Mode sTDDFT
|  7>     Ethresh 5.0
|  8>     maxcore 5000
|  9> end
| 10>
| 11> %pal
| 12>   nprocs 6
| 13>   end
| 14> * xyz 0 1
| 15>    C       -4.57492         3.84977         4.78352
| 16>    C       -5.59604         4.42284         4.07157
| 17>    C       -6.63687         5.16960         4.65794
| 18>    N       -7.49579         5.79776         5.08844
| 19>    C       -5.76587         4.24150         2.68346
| 20>    N       -5.96206         4.07309         1.56482
| 21>    C       -4.51350         3.74225         6.23619
| 22>    C       -3.64873         2.65902         6.57185
| 23>    C       -3.43343         2.29134         7.86872
| 24>    C       -4.07658         3.00675         8.90421
| 25>    C       -4.93033         4.09907         8.57464
| 26>    C       -5.13913         4.45526         7.22240
| 27>    C       -5.56305         4.80533         9.61764
| 28>    C       -5.36625         4.44979        10.92416
| 29>    C       -4.52560         3.37444        11.24795
| 30>    C       -3.89485         2.66848        10.25973
| 31>    C       -3.08272         2.08438         5.33735
| 32>    O       -2.35727         1.12333         5.22224
| 33>    C       -3.54294         2.98811         4.24434
| 34>    C       -2.92389         2.95823         3.03513
| 35>    C       -2.89431         3.95704         2.03011
| 36>    C       -2.59326         3.76186         0.69607
| 37>    C       -2.61766         4.95071        -0.02789
| 38>    C       -2.88840         6.08035         0.75734
| 39>    S       -3.14186         5.66035         2.40435
| 40>    C       -2.89462         7.25742         0.00784
| 41>    C       -2.64102         7.02576        -1.34956
| 42>    S       -2.37781         5.34414        -1.70739
| 43>    C       -2.65547         8.18560        -2.12792
| 44>    C       -2.91350         9.30706        -1.37159
| 45>    S       -3.14596         8.93278         0.32778
| 46>    C       -3.00474        10.65537        -1.80954
| 47>    C       -3.19190        11.77316        -1.02831
| 48>    C       -3.22918        12.94140        -1.79153
| 49>    C       -3.07755        12.72346        -3.16541
| 50>    S       -2.87701        11.04634        -3.51696
| 51>    C       -3.12063        13.91471        -3.89725
| 52>    C       -3.29662        15.03359        -3.07539
| 53>    S       -3.41966        14.62321        -1.38915
| 54>    C       -3.33901        16.24261        -3.77151
| 55>    C       -3.20366        16.05864        -5.12912
| 56>    S       -3.01649        14.36588        -5.55910
| 57>    C       -3.20144        17.06279        -6.13389
| 58>    C       -3.15388        16.89727        -7.50063
| 59>    C       -3.16982        18.12114        -8.17365
| 60>    C       -3.22286        19.22997        -7.31980
| 61>    S       -3.26326        18.75215        -5.66312
| 62>    C       -3.22748        20.43994        -8.01487
| 63>    C       -3.18720        20.25168        -9.40867
| 64>    S       -3.13620        18.56609        -9.85541
| 65>    C       -3.18505        21.43182       -10.13968
| 66>    C       -3.22004        22.54927        -9.32056
| 67>    S       -3.25463        22.10469        -7.60732
| 68>    C       -3.18844        23.93276        -9.58402
| 69>    C       -3.24530        24.63808       -10.75484
| 70>    C       -3.14575        26.08863       -10.81673
| 71>    C       -2.70419        26.92884        -9.82714
| 72>    C       -2.61053        28.32971        -9.96747
| 73>    N       -2.50978        29.47268       -10.01040
| 74>    C       -2.23610        26.54186        -8.55352
| 75>    N       -1.82081        26.32098        -7.50532
| 76>    C       -3.51963        26.50638       -12.16224
| 77>    C       -3.74403        25.34145       -12.94753
| 78>    C       -3.53815        24.13976       -12.12067
| 79>    O       -3.61684        22.99174       -12.50903
| 80>    C       -4.09989        25.41395       -14.26331
| 81>    C       -4.25582        26.68266       -14.86513
| 82>    C       -4.04091        27.85446       -14.08390
| 83>    C       -3.67048        27.74660       -12.72378
| 84>    C       -4.20255        29.11559       -14.69275
| 85>    C       -4.55778        29.21653       -16.01027
| 86>    C       -4.76898        28.06206       -16.77870
| 87>    C       -4.62112        26.82220       -16.21840
| 88>    H       -2.78172         1.46291         8.10357
| 89>    H       -5.78243         5.29197         6.99811
| 90>    H       -6.21180         5.63044         9.36276
| 91>    H       -5.85805         4.99507        11.71574
| 92>    H       -4.38046         3.10813        12.28423
| 93>    H       -3.24673         1.83934        10.50333
| 94>    H       -2.30881         2.08337         2.84596
| 95>    H       -2.40698         2.79210         0.27282
| 96>    H       -2.48658         8.21498        -3.18868
| 97>    H       -3.29273        11.73634         0.04085
| 98>    H       -3.46515        17.20753        -3.31577
| 99>    H       -3.11285        15.93511        -7.97726
|100>    H       -3.16428        21.49477       -11.21198
|101>    H       -3.11985        24.52534        -8.67862
|102>    H       -4.26155        24.51374       -14.83763
|103>    H       -3.52131        28.65286       -12.15893
|104>    H       -4.03759        30.00135       -14.09695
|105>    H       -4.67787        30.18712       -16.46782
|106>    H       -5.04921        28.16004       -17.81688
|107>    H       -4.78228        25.92970       -16.80531
|108> *
|109>
|110>                          ****END OF INPUT****

CARTESIAN COORDINATES (ANGSTROEM)
---------------------------------
  C     -4.574920    3.849770    4.783520
  C     -5.596040    4.422840    4.071570
  C     -6.636870    5.169600    4.657940
  N     -7.495790    5.797760    5.088440
  C     -5.765870    4.241500    2.683460
  N     -5.962060    4.073090    1.564820
  C     -4.513500    3.742250    6.236190
  C     -3.648730    2.659020    6.571850
  C     -3.433430    2.291340    7.868720
  C     -4.076580    3.006750    8.904210
  C     -4.930330    4.099070    8.574640
  C     -5.139130    4.455260    7.222400
  C     -5.563050    4.805330    9.617640
  C     -5.366250    4.449790   10.924160
  C     -4.525600    3.374440   11.247950
  C     -3.894850    2.668480   10.259730
  C     -3.082720    2.084380    5.337350
  O     -2.357270    1.123330    5.222240
  C     -3.542940    2.988110    4.244340
  C     -2.923890    2.958230    3.035130
  C     -2.894310    3.957040    2.030110
  C     -2.593260    3.761860    0.696070
  C     -2.617660    4.950710   -0.027890
  C     -2.888400    6.080350    0.757340
  S     -3.141860    5.660350    2.404350
  C     -2.894620    7.257420    0.007840
  C     -2.641020    7.025760   -1.349560
  S     -2.377810    5.344140   -1.707390
  C     -2.655470    8.185600   -2.127920
  C     -2.913500    9.307060   -1.371590
  S     -3.145960    8.932780    0.327780
  C     -3.004740   10.655370   -1.809540
  C     -3.191900   11.773160   -1.028310
  C     -3.229180   12.941400   -1.791530
  C     -3.077550   12.723460   -3.165410
  S     -2.877010   11.046340   -3.516960
  C     -3.120630   13.914710   -3.897250
  C     -3.296620   15.033590   -3.075390
  S     -3.419660   14.623210   -1.389150
  C     -3.339010   16.242610   -3.771510
  C     -3.203660   16.058640   -5.129120
  S     -3.016490   14.365880   -5.559100
  C     -3.201440   17.062790   -6.133890
  C     -3.153880   16.897270   -7.500630
  C     -3.169820   18.121140   -8.173650
  C     -3.222860   19.229970   -7.319800
  S     -3.263260   18.752150   -5.663120
  C     -3.227480   20.439940   -8.014870
  C     -3.187200   20.251680   -9.408670
  S     -3.136200   18.566090   -9.855410
  C     -3.185050   21.431820  -10.139680
  C     -3.220040   22.549270   -9.320560
  S     -3.254630   22.104690   -7.607320
  C     -3.188440   23.932760   -9.584020
  C     -3.245300   24.638080  -10.754840
  C     -3.145750   26.088630  -10.816730
  C     -2.704190   26.928840   -9.827140
  C     -2.610530   28.329710   -9.967470
  N     -2.509780   29.472680  -10.010400
  C     -2.236100   26.541860   -8.553520
  N     -1.820810   26.320980   -7.505320
  C     -3.519630   26.506380  -12.162240
  C     -3.744030   25.341450  -12.947530
  C     -3.538150   24.139760  -12.120670
  O     -3.616840   22.991740  -12.509030
  C     -4.099890   25.413950  -14.263310
  C     -4.255820   26.682660  -14.865130
  C     -4.040910   27.854460  -14.083900
  C     -3.670480   27.746600  -12.723780
  C     -4.202550   29.115590  -14.692750
  C     -4.557780   29.216530  -16.010270
  C     -4.768980   28.062060  -16.778700
  C     -4.621120   26.822200  -16.218400
  H     -2.781720    1.462910    8.103570
  H     -5.782430    5.291970    6.998110
  H     -6.211800    5.630440    9.362760
  H     -5.858050    4.995070   11.715740
  H     -4.380460    3.108130   12.284230
  H     -3.246730    1.839340   10.503330
  H     -2.308810    2.083370    2.845960
  H     -2.406980    2.792100    0.272820
  H     -2.486580    8.214980   -3.188680
  H     -3.292730   11.736340    0.040850
  H     -3.465150   17.207530   -3.315770
  H     -3.112850   15.935110   -7.977260
  H     -3.164280   21.494770  -11.211980
  H     -3.119850   24.525340   -8.678620
  H     -4.261550   24.513740  -14.837630
  H     -3.521310   28.652860  -12.158930
  H     -4.037590   30.001350  -14.096950
  H     -4.677870   30.187120  -16.467820
  H     -5.049210   28.160040  -17.816880
  H     -4.782280   25.929700  -16.805310

 Total Charge           Charge          ....    0
 Multiplicity           Mult            ....    1
 Number of Electrons    NEL             ....  556
 Basis Dimension        Dim             .... 1158

ORBITAL ENERGIES
----------------

  NO   OCC          E(Eh)            E(eV)
   0   2.0000     -88.974523     -2421.1199
   1   2.0000     -88.973765     -2421.0992
   2   2.0000     -88.973101     -2421.0812
   3   2.0000     -88.973085     -2421.0807
   4   2.0000     -88.971773     -2421.0450
   5   2.0000     -88.971187     -2421.0291
   6   2.0000     -88.968424     -2420.9539
   7   2.0000     -88.968339     -2420.9516
   8   2.0000     -88.967590     -2420.9312
   9   2.0000     -19.214688      -522.8582
  10   2.0000     -19.210459      -522.7432
  11   2.0000     -14.412112      -392.1735
  12   2.0000     -14.411065      -392.1450
  13   2.0000     -14.408552      -392.0766
  14   2.0000     -14.408424      -392.0731
  15   2.0000     -10.365798      -282.0677
  16   2.0000     -10.362279      -281.9719
  17   2.0000     -10.338820      -281.3336
  18   2.0000     -10.337175      -281.2888
  19   2.0000     -10.335750      -281.2501
  20   2.0000     -10.335116      -281.2328
  21   2.0000     -10.329303      -281.0746
  22   2.0000     -10.326907      -281.0094
  23   2.0000     -10.325741      -280.9777
  24   2.0000     -10.324166      -280.9348
  25   2.0000     -10.323754      -280.9236
  26   2.0000     -10.322373      -280.8861
  27   2.0000     -10.321069      -280.8506
  28   2.0000     -10.319515      -280.8083
  29   2.0000     -10.319203      -280.7998
  30   2.0000     -10.318730      -280.7869
  31   2.0000     -10.318305      -280.7754
  32   2.0000     -10.317768      -280.7608
  33   2.0000     -10.317640      -280.7573
  34   2.0000     -10.317617      -280.7566
  35   2.0000     -10.317111      -280.7429
  36   2.0000     -10.316578      -280.7284
  37   2.0000     -10.314658      -280.6761
  38   2.0000     -10.314189      -280.6633
  39   2.0000     -10.313219      -280.6370
  40   2.0000     -10.313174      -280.6357
  41   2.0000     -10.313165      -280.6355
  42   2.0000     -10.312888      -280.6279
  43   2.0000     -10.312018      -280.6043
  44   2.0000     -10.310790      -280.5709
  45   2.0000     -10.304404      -280.3971
  46   2.0000     -10.300415      -280.2885
  47   2.0000     -10.298115      -280.2260
  48   2.0000     -10.297479      -280.2087
  49   2.0000     -10.297297      -280.2037
  50   2.0000     -10.296250      -280.1752
  51   2.0000     -10.296018      -280.1689
  52   2.0000     -10.295595      -280.1574
  53   2.0000     -10.295352      -280.1508
  54   2.0000     -10.295108      -280.1441
  55   2.0000     -10.294972      -280.1404
  56   2.0000     -10.294282      -280.1217
  57   2.0000     -10.294129      -280.1175
  58   2.0000     -10.293873      -280.1105
  59   2.0000     -10.293756      -280.1073
  60   2.0000     -10.293720      -280.1064
  61   2.0000     -10.292736      -280.0796
  62   2.0000     -10.292390      -280.0702
  63   2.0000     -10.286532      -279.9108
  64   2.0000     -10.284406      -279.8529
  65   2.0000     -10.284303      -279.8501
  66   2.0000     -10.283930      -279.8400
  67   2.0000     -10.283683      -279.8332
  68   2.0000     -10.283649      -279.8323
  69   2.0000     -10.283164      -279.8191
  70   2.0000     -10.283089      -279.8171
  71   2.0000     -10.282733      -279.8074
  72   2.0000     -10.282199      -279.7929
  73   2.0000      -8.069754      -219.5892
  74   2.0000      -8.068833      -219.5641
  75   2.0000      -8.068206      -219.5470
  76   2.0000      -8.068134      -219.5451
  77   2.0000      -8.066624      -219.5040
  78   2.0000      -8.066496      -219.5005
  79   2.0000      -8.063730      -219.4253
  80   2.0000      -8.063514      -219.4194
  81   2.0000      -8.062849      -219.4013
  82   2.0000      -6.039393      -164.3402
  83   2.0000      -6.038467      -164.3150
  84   2.0000      -6.037844      -164.2981
  85   2.0000      -6.037774      -164.2962
  86   2.0000      -6.036116      -164.2511
  87   2.0000      -6.036059      -164.2495
  88   2.0000      -6.035293      -164.2287
  89   2.0000      -6.034397      -164.2043
  90   2.0000      -6.033756      -164.1868
  91   2.0000      -6.033701      -164.1853
  92   2.0000      -6.033473      -164.1792
  93   2.0000      -6.033256      -164.1732
  94   2.0000      -6.032565      -164.1544
  95   2.0000      -6.032048      -164.1404
  96   2.0000      -6.032000      -164.1391
  97   2.0000      -6.031105      -164.1147
  98   2.0000      -6.030222      -164.0907
  99   2.0000      -6.029606      -164.0739
 100   2.0000      -6.029587      -164.0734
 101   2.0000      -6.029529      -164.0718
 102   2.0000      -6.029393      -164.0681
 103   2.0000      -6.028723      -164.0499
 104   2.0000      -6.028236      -164.0367
 105   2.0000      -6.027975      -164.0295
 106   2.0000      -6.024622      -163.9383
 107   2.0000      -6.024461      -163.9339
 108   2.0000      -6.023825      -163.9166
 109   2.0000      -1.129196       -30.7270
 110   2.0000      -1.125632       -30.6300
 111   2.0000      -1.033471       -28.1222
 112   2.0000      -1.031403       -28.0659
 113   2.0000      -1.027383       -27.9565
 114   2.0000      -1.014523       -27.6066
 115   2.0000      -1.013451       -27.5774
 116   2.0000      -1.000474       -27.2243
 117   2.0000      -0.994641       -27.0656
 118   2.0000      -0.994416       -27.0594
 119   2.0000      -0.992468       -27.0064
 120   2.0000      -0.988408       -26.8960
 121   2.0000      -0.987769       -26.8786
 122   2.0000      -0.980650       -26.6848
 123   2.0000      -0.968429       -26.3523
 124   2.0000      -0.967433       -26.3252
 125   2.0000      -0.947933       -25.7946
 126   2.0000      -0.938002       -25.5243
 127   2.0000      -0.926639       -25.2151
 128   2.0000      -0.919574       -25.0229
 129   2.0000      -0.919067       -25.0091
 130   2.0000      -0.898718       -24.4554
 131   2.0000      -0.896948       -24.4072
 132   2.0000      -0.882252       -24.0073
 133   2.0000      -0.881199       -23.9787
 134   2.0000      -0.878803       -23.9134
 135   2.0000      -0.877327       -23.8733
 136   2.0000      -0.875649       -23.8276
 137   2.0000      -0.866310       -23.5735
 138   2.0000      -0.858242       -23.3540
 139   2.0000      -0.852372       -23.1942
 140   2.0000      -0.846367       -23.0308
 141   2.0000      -0.840319       -22.8663
 142   2.0000      -0.831605       -22.6291
 143   2.0000      -0.825612       -22.4660
 144   2.0000      -0.824561       -22.4374
 145   2.0000      -0.816786       -22.2259
 146   2.0000      -0.808109       -21.9898
 147   2.0000      -0.800470       -21.7819
 148   2.0000      -0.797908       -21.7122
 149   2.0000      -0.789141       -21.4736
 150   2.0000      -0.777034       -21.1442
 151   2.0000      -0.760418       -20.6920
 152   2.0000      -0.757893       -20.6233
 153   2.0000      -0.754670       -20.5356
 154   2.0000      -0.738383       -20.0924
 155   2.0000      -0.719837       -19.5878
 156   2.0000      -0.707319       -19.2471
 157   2.0000      -0.700913       -19.0728
 158   2.0000      -0.700193       -19.0532
 159   2.0000      -0.696440       -18.9511
 160   2.0000      -0.693547       -18.8724
 161   2.0000      -0.680096       -18.5064
 162   2.0000      -0.673323       -18.3220
 163   2.0000      -0.671018       -18.2593
 164   2.0000      -0.668964       -18.2034
 165   2.0000      -0.664670       -18.0866
 166   2.0000      -0.658495       -17.9186
 167   2.0000      -0.653580       -17.7848
 168   2.0000      -0.649493       -17.6736
 169   2.0000      -0.641678       -17.4609
 170   2.0000      -0.637830       -17.3562
 171   2.0000      -0.634376       -17.2622
 172   2.0000      -0.630485       -17.1564
 173   2.0000      -0.626601       -17.0507
 174   2.0000      -0.620526       -16.8854
 175   2.0000      -0.616185       -16.7672
 176   2.0000      -0.604765       -16.4565
 177   2.0000      -0.604068       -16.4375
 178   2.0000      -0.602816       -16.4035
 179   2.0000      -0.599451       -16.3119
 180   2.0000      -0.590288       -16.0625
 181   2.0000      -0.585226       -15.9248
 182   2.0000      -0.577307       -15.7093
 183   2.0000      -0.573610       -15.6087
 184   2.0000      -0.567187       -15.4339
 185   2.0000      -0.561076       -15.2677
 186   2.0000      -0.553637       -15.0652
 187   2.0000      -0.548186       -14.9169
 188   2.0000      -0.545021       -14.8308
 189   2.0000      -0.544054       -14.8045
 190   2.0000      -0.543536       -14.7904
 191   2.0000      -0.540512       -14.7081
 192   2.0000      -0.537144       -14.6164
 193   2.0000      -0.535120       -14.5614
 194   2.0000      -0.533744       -14.5239
 195   2.0000      -0.532083       -14.4787
 196   2.0000      -0.529474       -14.4077
 197   2.0000      -0.528757       -14.3882
 198   2.0000      -0.526326       -14.3220
 199   2.0000      -0.523559       -14.2468
 200   2.0000      -0.520401       -14.1608
 201   2.0000      -0.516742       -14.0613
 202   2.0000      -0.515842       -14.0368
 203   2.0000      -0.512517       -13.9463
 204   2.0000      -0.510264       -13.8850
 205   2.0000      -0.509215       -13.8564
 206   2.0000      -0.507365       -13.8061
 207   2.0000      -0.504459       -13.7270
 208   2.0000      -0.501691       -13.6517
 209   2.0000      -0.499028       -13.5793
 210   2.0000      -0.495355       -13.4793
 211   2.0000      -0.493466       -13.4279
 212   2.0000      -0.492420       -13.3994
 213   2.0000      -0.491569       -13.3763
 214   2.0000      -0.486434       -13.2365
 215   2.0000      -0.484141       -13.1742
 216   2.0000      -0.482672       -13.1342
 217   2.0000      -0.482330       -13.1249
 218   2.0000      -0.479776       -13.0554
 219   2.0000      -0.476276       -12.9601
 220   2.0000      -0.474310       -12.9066
 221   2.0000      -0.473680       -12.8895
 222   2.0000      -0.466403       -12.6915
 223   2.0000      -0.462579       -12.5874
 224   2.0000      -0.461802       -12.5663
 225   2.0000      -0.461139       -12.5482
 226   2.0000      -0.456871       -12.4321
 227   2.0000      -0.452200       -12.3050
 228   2.0000      -0.448874       -12.2145
 229   2.0000      -0.445852       -12.1322
 230   2.0000      -0.443442       -12.0667
 231   2.0000      -0.439932       -11.9711
 232   2.0000      -0.439498       -11.9593
 233   2.0000      -0.437165       -11.8959
 234   2.0000      -0.436999       -11.8913
 235   2.0000      -0.436360       -11.8740
 236   2.0000      -0.433700       -11.8016
 237   2.0000      -0.431214       -11.7339
 238   2.0000      -0.430156       -11.7051
 239   2.0000      -0.429313       -11.6822
 240   2.0000      -0.428926       -11.6717
 241   2.0000      -0.427342       -11.6286
 242   2.0000      -0.426761       -11.6127
 243   2.0000      -0.423511       -11.5243
 244   2.0000      -0.422073       -11.4852
 245   2.0000      -0.421282       -11.4637
 246   2.0000      -0.419984       -11.4283
 247   2.0000      -0.419491       -11.4149
 248   2.0000      -0.418338       -11.3836
 249   2.0000      -0.414317       -11.2741
 250   2.0000      -0.412971       -11.2375
 251   2.0000      -0.406679       -11.0663
 252   2.0000      -0.401807       -10.9337
 253   2.0000      -0.401126       -10.9152
 254   2.0000      -0.398109       -10.8331
 255   2.0000      -0.393185       -10.6991
 256   2.0000      -0.385764       -10.4972
 257   2.0000      -0.380251       -10.3472
 258   2.0000      -0.375071       -10.2062
 259   2.0000      -0.370345       -10.0776
 260   2.0000      -0.361366        -9.8333
 261   2.0000      -0.347497        -9.4559
 262   2.0000      -0.345941        -9.4135
 263   2.0000      -0.343803        -9.3554
 264   2.0000      -0.340105        -9.2547
 265   2.0000      -0.336171        -9.1477
 266   2.0000      -0.332265        -9.0414
 267   2.0000      -0.323188        -8.7944
 268   2.0000      -0.313714        -8.5366
 269   2.0000      -0.312230        -8.4962
 270   2.0000      -0.297378        -8.0921
 271   2.0000      -0.296426        -8.0662
 272   2.0000      -0.294239        -8.0067
 273   2.0000      -0.292851        -7.9689
 274   2.0000      -0.290762        -7.9120
 275   2.0000      -0.285476        -7.7682
 276   2.0000      -0.263096        -7.1592
 277   2.0000      -0.237977        -6.4757
 278   0.0000      -0.096779        -2.6335
 279   0.0000      -0.091791        -2.4978
 280   0.0000      -0.060492        -1.6461
 281   0.0000      -0.054003        -1.4695
 282   0.0000      -0.048698        -1.3252

MULLIKEN ATOMIC CHARGES
-----------------------
   0 C :    0.251355
   1 C :   -0.323416
   2 C :   -0.174614
   3 N :    0.151304
   4 C :   -0.204513
   5 N :    0.171900
   6 C :    0.037413
   7 C :    0.010244
   8 C :   -0.082202
   9 C :    0.093392
  10 C :    0.093669
  11 C :   -0.080264
  12 C :   -0.018759
  13 C :    0.036326
  14 C :    0.034493
  15 C :   -0.014349
  16 C :    0.142439
  17 O :   -0.144832
  18 C :   -0.142518
  19 C :    0.053226
  20 C :   -0.103156
  21 C :    0.018787
  22 C :   -0.021330
  23 C :   -0.063597
  24 S :    0.167436
  25 C :   -0.073618
  26 C :   -0.019561
  27 S :    0.170103
  28 C :   -0.067626
  29 C :   -0.035497
  30 S :    0.153887
  31 C :   -0.040964
  32 C :   -0.064210
  33 C :   -0.024535
  34 C :   -0.076100
  35 S :    0.151544
  36 C :   -0.074953
  37 C :   -0.026077
  38 S :    0.164234
  39 C :   -0.060560
  40 C :   -0.044068
  41 S :    0.151932
  42 C :   -0.033098
  43 C :   -0.068944
  44 C :   -0.014071
  45 C :   -0.081149
  46 S :    0.154843
  47 C :   -0.053706
  48 C :   -0.042476
  49 S :    0.171126
  50 C :   -0.004961
  51 C :   -0.110642
  52 S :    0.164151
  53 C :    0.041403
  54 C :   -0.094569
  55 C :    0.313498
  56 C :   -0.357128
  57 C :   -0.182420
  58 N :    0.139723
  59 C :   -0.197248
  60 N :    0.154308
  61 C :    0.044196
  62 C :    0.002776
  63 C :    0.159731
  64 O :   -0.163519
  65 C :   -0.084692
  66 C :    0.099880
  67 C :    0.095728
  68 C :   -0.082120
  69 C :   -0.018406
  70 C :    0.034789
  71 C :    0.037089
  72 C :   -0.018387
  73 H :   -0.012395
  74 H :   -0.006123
  75 H :   -0.011655
  76 H :   -0.005518
  77 H :   -0.006216
  78 H :   -0.017478
  79 H :    0.027316
  80 H :   -0.000751
  81 H :   -0.003972
  82 H :   -0.001542
  83 H :   -0.001985
  84 H :   -0.004285
  85 H :    0.019329
  86 H :    0.013429
  87 H :   -0.015979
  88 H :   -0.008820
  89 H :   -0.009578
  90 H :   -0.006363
  91 H :   -0.006077
  92 H :   -0.019409
Sum of atomic charges:   -0.0000000

LOEWDIN ATOMIC CHARGES
----------------------
   0 C :    0.060048
   1 C :   -0.142049
   2 C :   -0.018738
   3 N :   -0.054047
   4 C :   -0.034419
   5 N :   -0.049831
   6 C :   -0.022035
   7 C :   -0.056737
   8 C :    0.031582
   9 C :   -0.009711
  10 C :   -0.005629
  11 C :    0.014458
  12 C :   -0.007130
  13 C :   -0.013520
  14 C :   -0.014243
  15 C :   -0.009430
  16 C :    0.083127
  17 O :   -0.145789
  18 C :   -0.099736
  19 C :    0.051264
  20 C :   -0.175911
  21 C :   -0.016208
  22 C :   -0.194242
  23 C :   -0.192704
  24 S :    0.455361
  25 C :   -0.220279
  26 C :   -0.178450
  27 S :    0.417779
  28 C :   -0.073932
  29 C :   -0.162417
  30 S :    0.434808
  31 C :   -0.175108
  32 C :   -0.067623
  33 C :   -0.189758
  34 C :   -0.215253
  35 S :    0.429630
  36 C :   -0.213413
  37 C :   -0.191036
  38 S :    0.413914
  39 C :   -0.065370
  40 C :   -0.178196
  41 S :    0.429655
  42 C :   -0.159162
  43 C :   -0.075902
  44 C :   -0.175408
  45 C :   -0.224837
  46 S :    0.435810
  47 C :   -0.194927
  48 C :   -0.196774
  49 S :    0.416353
  50 C :   -0.012197
  51 C :   -0.174741
  52 S :    0.444990
  53 C :    0.047013
  54 C :   -0.100630
  55 C :    0.077484
  56 C :   -0.145866
  57 C :   -0.016798
  58 N :   -0.058835
  59 C :   -0.025895
  60 N :   -0.054893
  61 C :   -0.025803
  62 C :   -0.054201
  63 C :    0.087855
  64 O :   -0.148911
  65 C :    0.029768
  66 C :   -0.008778
  67 C :   -0.006732
  68 C :    0.018660
  69 C :   -0.005518
  70 C :   -0.014654
  71 C :   -0.013512
  72 C :   -0.010520
  73 H :    0.039022
  74 H :    0.038392
  75 H :    0.033903
  76 H :    0.032775
  77 H :    0.032269
  78 H :    0.031663
  79 H :    0.051748
  80 H :    0.041035
  81 H :    0.032173
  82 H :    0.032010
  83 H :    0.031952
  84 H :    0.032322
  85 H :    0.039193
  86 H :    0.043270
  87 H :    0.037708
  88 H :    0.038788
  89 H :    0.034580
  90 H :    0.032615
  91 H :    0.032293
  92 H :    0.031169

  Mayer bond orders larger than 0.100000
B(  0-C ,  1-C ) :   1.6566 B(  0-C ,  6-C ) :   1.0039 B(  0-C , 18-C ) :   1.0336
B(  1-C ,  2-C ) :   1.1381 B(  1-C ,  4-C ) :   1.1515 B(  2-C ,  3-N ) :   2.9883
B(  4-C ,  5-N ) :   3.0248 B(  6-C ,  7-C ) :   1.2152 B(  6-C , 11-C ) :   1.4590
B(  7-C ,  8-C ) :   1.4770 B(  7-C , 16-C ) :   0.9202 B(  8-C ,  9-C ) :   1.1836
B(  8-C , 73-H ) :   1.0161 B(  9-C , 10-C ) :   1.2580 B(  9-C , 15-C ) :   1.2459
B( 10-C , 11-C ) :   1.2039 B( 10-C , 12-C ) :   1.2408 B( 11-C , 74-H ) :   0.9940
B( 12-C , 13-C ) :   1.4899 B( 12-C , 75-H ) :   0.9976 B( 13-C , 14-C ) :   1.2607
B( 13-C , 76-H ) :   0.9889 B( 14-C , 15-C ) :   1.4877 B( 14-C , 77-H ) :   0.9894
B( 15-C , 78-H ) :   0.9978 B( 16-C , 17-O ) :   2.2721 B( 16-C , 18-C ) :   0.9384
B( 18-C , 19-C ) :   1.6458 B( 19-C , 20-C ) :   1.1377 B( 19-C , 79-H ) :   0.9474
B( 20-C , 21-C ) :   1.4522 B( 20-C , 24-S ) :   1.0815 B( 21-C , 22-C ) :   1.2922
B( 21-C , 80-H ) :   1.0041 B( 22-C , 23-C ) :   1.4277 B( 22-C , 27-S ) :   1.0422
B( 23-C , 24-S ) :   1.0909 B( 23-C , 25-C ) :   1.3243 B( 25-C , 26-C ) :   1.4559
B( 25-C , 30-S ) :   1.0631 B( 26-C , 27-S ) :   1.0633 B( 26-C , 28-C ) :   1.2673
B( 28-C , 29-C ) :   1.5155 B( 28-C , 81-H ) :   0.9957 B( 29-C , 30-S ) :   1.1025
B( 29-C , 31-C ) :   1.1738 B( 31-C , 32-C ) :   1.5166 B( 31-C , 35-S ) :   1.0928
B( 32-C , 33-C ) :   1.2688 B( 32-C , 82-H ) :   0.9940 B( 33-C , 34-C ) :   1.4673
B( 33-C , 38-S ) :   1.0538 B( 34-C , 35-S ) :   1.0687 B( 34-C , 36-C ) :   1.3071
B( 36-C , 37-C ) :   1.4673 B( 36-C , 41-S ) :   1.0692 B( 37-C , 38-S ) :   1.0525
B( 37-C , 39-C ) :   1.2703 B( 39-C , 40-C ) :   1.5144 B( 39-C , 83-H ) :   0.9943
B( 40-C , 41-S ) :   1.0922 B( 40-C , 42-C ) :   1.1734 B( 42-C , 43-C ) :   1.5115
B( 42-C , 46-S ) :   1.1062 B( 43-C , 44-C ) :   1.2672 B( 43-C , 84-H ) :   0.9973
B( 44-C , 45-C ) :   1.4589 B( 44-C , 49-S ) :   1.0591 B( 45-C , 46-S ) :   1.0609
B( 45-C , 47-C ) :   1.3145 B( 47-C , 48-C ) :   1.4032 B( 47-C , 52-S ) :   1.1074
B( 48-C , 49-S ) :   1.0425 B( 48-C , 50-C ) :   1.2980 B( 50-C , 51-C ) :   1.4410
B( 50-C , 85-H ) :   0.9787 B( 51-C , 52-S ) :   1.0606 B( 51-C , 53-C ) :   1.2353
B( 53-C , 54-C ) :   1.5762 B( 53-C , 86-H ) :   0.9144 B( 54-C , 55-C ) :   1.0836
B( 54-C , 63-C ) :   0.9435 B( 55-C , 56-C ) :   1.6203 B( 55-C , 61-C ) :   0.9810
B( 56-C , 57-C ) :   1.1487 B( 56-C , 59-C ) :   1.1371 B( 57-C , 58-N ) :   2.9643
B( 59-C , 60-N ) :   2.9839 B( 61-C , 62-C ) :   1.2185 B( 61-C , 68-C ) :   1.4514
B( 62-C , 63-C ) :   0.9538 B( 62-C , 65-C ) :   1.4691 B( 63-C , 64-O ) :   2.1632
B( 65-C , 66-C ) :   1.1765 B( 65-C , 87-H ) :   1.0168 B( 66-C , 67-C ) :   1.2597
B( 66-C , 72-C ) :   1.2428 B( 67-C , 68-C ) :   1.2029 B( 67-C , 69-C ) :   1.2404
B( 68-C , 88-H ) :   0.9907 B( 69-C , 70-C ) :   1.4873 B( 69-C , 89-H ) :   0.9979
B( 70-C , 71-C ) :   1.2608 B( 70-C , 90-H ) :   0.9890 B( 71-C , 72-C ) :   1.4885
B( 71-C , 91-H ) :   0.9883 B( 72-C , 92-H ) :   0.9979

-----------------------------------------------------------------------------
         ABSORPTION SPECTRUM VIA TRANSITION ELECTRIC DIPOLE MOMENTS
-----------------------------------------------------------------------------
State   Energy  Wavelength   fosc         T2         TX        TY        TZ
        (cm-1)    (nm)                  (au**2)     (au)      (au)      (au)
-----------------------------------------------------------------------------
   0   17151.6    583.0   2.862085633  54.93548   0.64329   5.81231  -4.55398
   1   19217.7    520.4   0.476234237   8.15820  -0.64415   2.72674  -0.55514
   2   24781.1    403.5   0.158210033   2.10179   0.73995  -0.99050   0.75709
   3   25142.0    397.7   0.063078597   0.82596  -0.26736   0.58792  -0.63940
   4   26091.3    383.3   0.188056708   2.37284   0.14754  -1.53051   0.09283
   5   26787.3    373.3   0.031680225   0.38935  -0.05011   0.18407   0.59410
   6   26983.0    370.6   0.053002890   0.64667  -0.46446   0.65451  -0.05071
   7   27515.7    363.4   0.337839888   4.04208   0.17430   1.02395  -1.72141
   8   27846.5    359.1   0.271292691   3.20732  -0.05363   0.83391  -1.58399
   9   27993.2    357.2   0.036773622   0.43247   0.16009   0.63737   0.02464
  10   28636.9    349.2   0.087989310   1.01153  -0.08867   1.00157  -0.02305
  11   29087.5    343.8   0.029954497   0.33903   0.33017  -0.05098   0.47688
  12   29344.4    340.8   0.086261164   0.96776  -0.19964   0.18305  -0.94572
  13   30014.1    333.2   0.034580189   0.37929  -0.18725  -0.06003  -0.58363
  14   30339.8    329.6   0.052348401   0.56802  -0.15477   0.03399  -0.73683
  15   31105.5    321.5   0.030873381   0.32676   0.10340  -0.01088   0.56209
  16   32049.7    312.0   0.009529870   0.09789   0.20187  -0.01280  -0.23869
  17   32273.9    309.8   0.203202236   2.07278   0.45825  -1.02604  -0.90002
  18   32773.3    305.1   0.043488574   0.43685   0.21879  -0.54718  -0.29929
  19   33722.3    296.5   0.175101932   1.70942   0.39429  -0.45267   1.16149
  20   33808.7    295.8   0.030904571   0.30093   0.34165  -0.42912   0.00791
  21   34050.0    293.7   0.942069620   9.10838   0.97166  -0.68099   2.77498
  22   34296.9    291.6   0.223060825   2.14113   0.15528   0.00006   1.45500
  23   34754.1    287.7   0.080921332   0.76654  -0.16809   0.22300  -0.82979
  24   34938.9    286.2   0.059052234   0.55642  -0.24924  -0.04342  -0.70172
  25   35146.0    284.5   0.444490764   4.16354   0.15875   0.01266   2.03425
  26   35644.1    280.6   0.052407305   0.48404  -0.07149   0.01017  -0.69197
  27   35814.3    279.2   0.015546694   0.14291  -0.05600   0.32288  -0.18847
  28   36476.5    274.1   0.010630865   0.09595  -0.00503  -0.30618  -0.04663
  29   36679.3    272.6   0.042329839   0.37993   0.40975   0.38315   0.25540
  30   36974.8    270.5   0.082887276   0.73800  -0.07993   0.49049   0.70074
  31   37462.5    266.9   0.006915074   0.06077   0.17873  -0.10740  -0.13149
  32   37892.0    263.9   0.008678464   0.07540   0.02332   0.22794   0.15132
  33   38033.8    262.9   0.020623993   0.17852  -0.00845  -0.04599  -0.41992
  34   38264.4    261.3   0.005321744   0.04579   0.09920   0.18524   0.04041
  35   38375.5    260.6   0.026769967   0.22965   0.04209  -0.16509  -0.44791
  36   38606.6    259.0   0.023960615   0.20432   0.09983  -0.16803  -0.40758
  37   38710.0    258.3   0.093159819   0.79228  -0.23844   0.62699   0.58508
  38   38984.3    256.5   0.181142363   1.52970   0.10112   0.60412   1.07448
  39   39164.4    255.3   0.045569173   0.38305   0.04224   0.00587  -0.61744
  40   39219.8    255.0   0.044246239   0.37140  -0.01583   0.58939   0.15417
  41   39876.8    250.8   0.063022912   0.52030  -0.06492   0.00505   0.71837
  42   39919.1    250.5   0.026626493   0.21959   0.33372  -0.26890   0.18950
  43   40093.4    249.4   0.254994240   2.09379   0.42375  -1.19577  -0.69596

FINAL SINGLE POINT ENERGY     -6170.961832767636

DIPOLE MOMENT
-------------
                                X             Y             Z
Electronic contribution:      7.37165     -12.66640      -3.10352
Nuclear contribution   :     -6.98542      11.44682       2.68170
                        -----------------------------------------
Total Dipole Moment    :      0.38623      -1.21958      -0.42182
                        -----------------------------------------
Magnitude (a.u.)       :      1.34703
Magnitude (Debye)      :      3.42388

Rotational constants in cm-1:     0.002870     0.000119     0.000116
Rotational constants in MHz :    86.043628     3.581983     3.485002

                             ****ORCA TERMINATED NORMALLY****
TOTAL RUN TIME: 0 days 0 hours 8 minutes 28 seconds 65 msec
