                         Program Version 4.2.0 -  RELEASE  -
|  1> # ORCA input file
|  2> # SCF done       -199.493909662588          0.000863721383
|  3> ! CAM-B3LYP def2-SVP def2/J RIJCOSX Grid4 TightSCF
|  4> %maxcore 5000
|  5> %tddft
|  6>     Mode sTDDFT
|  7>     Ethresh 5.0
|  8>     maxcore 5000
|  9> end
| 10>
| 11> %pal
| 12>   nprocs 6
| 13>   end
| 14> * xyz 0 1
| 15>    C       -1.54180        -3.18552         5.55425
| 16>    C       -2.64136        -3.38817         6.32750
| 17>    S       -2.36995        -4.66152         7.46260
| 18>    C       -0.74258        -4.93941         6.89621
| 19>    C        0.12962        -5.97885         7.48548
| 20>    C       -0.46496        -4.07268         5.88334
| 21>    C        0.67188        -3.79436         5.01359
| 22>    O        1.75468        -4.35847         5.00556
| 23>    C        0.24564        -2.68262         4.14261
| 24>    C       -1.12501        -2.31830         4.47043
| 25>    C       -1.92087        -1.36233         3.89561
| 26>    C       -3.24152        -1.15093         4.34430
| 27>    N       -4.31729        -0.96829         4.69912
| 28>    C       -1.56316        -0.50894         2.83430
| 29>    N       -1.33662         0.21375         1.97102
| 30>    C        1.02083        -2.07350         3.19182
| 31>    C        2.33894        -2.33832         2.78378
| 32>    C        2.96908        -1.57859         1.79126
| 33>    C        4.25576        -2.01041         1.53005
| 34>    C        4.61810        -3.12138         2.32831
| 35>    S        3.38819        -3.61612         3.39695
| 36>    C        5.94063        -3.49169         1.98418
| 37>    C        6.41628        -2.62497         0.98378
| 38>    C        5.37113        -1.66589         0.66228
| 39>    C        5.43081        -0.66696        -0.26363
| 40>    C        4.34935         0.20764        -0.50329
| 41>    N        3.47551         0.92173        -0.70372
| 42>    C        6.58388        -0.44539        -1.04629
| 43>    N        7.51996        -0.26881        -1.68434
| 44>    C        7.71579        -2.92284         0.57841
| 45>    C        8.22973        -4.01424         1.25670
| 46>    S        7.09180        -4.67694         2.41974
| 47>    C        9.50473        -4.60983         1.08650
| 48>    C        9.99003        -5.75464         1.69302
| 49>    C       11.27984        -6.06402         1.26378
| 50>    C       11.78169        -5.14053         0.33015
| 51>    S       10.66688        -3.89732        -0.02381
| 52>    C       13.08251        -5.54940        -0.05618
| 53>    C       13.40039        -6.73769         0.62484
| 54>    C       12.28125        -7.09657         1.48239
| 55>    C       12.18868        -8.17460         2.31188
| 56>    C       11.04477        -8.41538         3.10239
| 57>    N       10.11484        -8.60863         3.74448
| 58>    C       13.22986        -9.11983         2.42999
| 59>    N       14.07461        -9.88926         2.52180
| 60>    C       14.66089        -7.23220         0.29312
| 61>    C       15.30585        -6.42596        -0.62770
| 62>    S       14.33768        -5.03304        -1.09087
| 63>    C       16.58619        -6.62025        -1.20367
| 64>    C       17.26203        -5.76328        -2.05579
| 65>    C       18.49578        -6.28144        -2.44224
| 66>    C       18.75725        -7.54574        -1.88589
| 67>    S       17.49087        -8.08908        -0.87519
| 68>    C       20.02006        -7.98851        -2.34623
| 69>    C       20.56161        -7.00265        -3.19621
| 70>    C       19.62481        -5.89533        -3.27741
| 71>    C       19.76734        -4.73609        -3.98057
| 72>    C       18.77688        -3.73082        -3.97152
| 73>    N       17.96951        -2.91687        -3.96326
| 74>    C       20.90861        -4.46622        -4.76596
| 75>    N       21.82944        -4.24696        -5.41239
| 76>    C       21.79875        -7.36451        -3.71808
| 77>    C       22.22827        -8.59804        -3.25173
| 78>    S       21.03791        -9.34051        -2.18294
| 79>    C       23.40836        -9.26296        -3.65898
| 80>    C       24.05203       -10.32295        -3.10130
| 81>    C       24.96368       -11.14634        -3.95912
| 82>    O       25.38791       -10.84649        -5.05159
| 83>    C       25.15056       -12.38718        -3.20538
| 84>    C       25.76487       -13.58339        -3.41631
| 85>    S       25.54850       -14.60122        -2.01383
| 86>    C       24.65129       -13.39326        -1.16633
| 87>    C       24.51520       -12.27344        -1.92327
| 88>    C       23.95581       -10.94341        -1.79299
| 89>    C       23.66586       -10.33393        -0.59955
| 90>    C       23.69366       -11.04923         0.61404
| 91>    N       23.69782       -11.63222         1.60223
| 92>    C       23.41440        -8.95609        -0.46209
| 93>    N       23.24695        -7.82890        -0.32003
| 94>    C       26.52148       -14.03436        -4.60489
| 95>    H       -3.58897        -2.88808         6.31900
| 96>    H       -0.31963        -6.96544         7.37445
| 97>    H        0.27608        -5.79927         8.55023
| 98>    H        1.09403        -5.96542         6.98266
| 99>    H        0.57062        -1.24850         2.65195
|100>    H        2.47837        -0.75528         1.30268
|101>    H        8.27050        -2.38956        -0.17269
|102>    H        9.41732        -6.32519         2.40199
|103>    H       15.10173        -8.12817         0.69203
|104>    H       16.86173        -4.81444        -2.36513
|105>    H       22.38857        -6.76393        -4.38692
|106>    H       23.81708        -8.92878        -4.60869
|107>    H       24.28268       -13.60331        -0.18224
|108>    H       26.51621       -13.24506        -5.35323
|109>    H       26.07580       -14.93480        -5.02667
|110>    H       27.55190       -14.26751        -4.33785
|111> *
|112>
|113>                          ****END OF INPUT****

CARTESIAN COORDINATES (ANGSTROEM)
---------------------------------
  C     -1.541800   -3.185520    5.554250
  C     -2.641360   -3.388170    6.327500
  S     -2.369950   -4.661520    7.462600
  C     -0.742580   -4.939410    6.896210
  C      0.129620   -5.978850    7.485480
  C     -0.464960   -4.072680    5.883340
  C      0.671880   -3.794360    5.013590
  O      1.754680   -4.358470    5.005560
  C      0.245640   -2.682620    4.142610
  C     -1.125010   -2.318300    4.470430
  C     -1.920870   -1.362330    3.895610
  C     -3.241520   -1.150930    4.344300
  N     -4.317290   -0.968290    4.699120
  C     -1.563160   -0.508940    2.834300
  N     -1.336620    0.213750    1.971020
  C      1.020830   -2.073500    3.191820
  C      2.338940   -2.338320    2.783780
  C      2.969080   -1.578590    1.791260
  C      4.255760   -2.010410    1.530050
  C      4.618100   -3.121380    2.328310
  S      3.388190   -3.616120    3.396950
  C      5.940630   -3.491690    1.984180
  C      6.416280   -2.624970    0.983780
  C      5.371130   -1.665890    0.662280
  C      5.430810   -0.666960   -0.263630
  C      4.349350    0.207640   -0.503290
  N      3.475510    0.921730   -0.703720
  C      6.583880   -0.445390   -1.046290
  N      7.519960   -0.268810   -1.684340
  C      7.715790   -2.922840    0.578410
  C      8.229730   -4.014240    1.256700
  S      7.091800   -4.676940    2.419740
  C      9.504730   -4.609830    1.086500
  C      9.990030   -5.754640    1.693020
  C     11.279840   -6.064020    1.263780
  C     11.781690   -5.140530    0.330150
  S     10.666880   -3.897320   -0.023810
  C     13.082510   -5.549400   -0.056180
  C     13.400390   -6.737690    0.624840
  C     12.281250   -7.096570    1.482390
  C     12.188680   -8.174600    2.311880
  C     11.044770   -8.415380    3.102390
  N     10.114840   -8.608630    3.744480
  C     13.229860   -9.119830    2.429990
  N     14.074610   -9.889260    2.521800
  C     14.660890   -7.232200    0.293120
  C     15.305850   -6.425960   -0.627700
  S     14.337680   -5.033040   -1.090870
  C     16.586190   -6.620250   -1.203670
  C     17.262030   -5.763280   -2.055790
  C     18.495780   -6.281440   -2.442240
  C     18.757250   -7.545740   -1.885890
  S     17.490870   -8.089080   -0.875190
  C     20.020060   -7.988510   -2.346230
  C     20.561610   -7.002650   -3.196210
  C     19.624810   -5.895330   -3.277410
  C     19.767340   -4.736090   -3.980570
  C     18.776880   -3.730820   -3.971520
  N     17.969510   -2.916870   -3.963260
  C     20.908610   -4.466220   -4.765960
  N     21.829440   -4.246960   -5.412390
  C     21.798750   -7.364510   -3.718080
  C     22.228270   -8.598040   -3.251730
  S     21.037910   -9.340510   -2.182940
  C     23.408360   -9.262960   -3.658980
  C     24.052030  -10.322950   -3.101300
  C     24.963680  -11.146340   -3.959120
  O     25.387910  -10.846490   -5.051590
  C     25.150560  -12.387180   -3.205380
  C     25.764870  -13.583390   -3.416310
  S     25.548500  -14.601220   -2.013830
  C     24.651290  -13.393260   -1.166330
  C     24.515200  -12.273440   -1.923270
  C     23.955810  -10.943410   -1.792990
  C     23.665860  -10.333930   -0.599550
  C     23.693660  -11.049230    0.614040
  N     23.697820  -11.632220    1.602230
  C     23.414400   -8.956090   -0.462090
  N     23.246950   -7.828900   -0.320030
  C     26.521480  -14.034360   -4.604890
  H     -3.588970   -2.888080    6.319000
  H     -0.319630   -6.965440    7.374450
  H      0.276080   -5.799270    8.550230
  H      1.094030   -5.965420    6.982660
  H      0.570620   -1.248500    2.651950
  H      2.478370   -0.755280    1.302680
  H      8.270500   -2.389560   -0.172690
  H      9.417320   -6.325190    2.401990
  H     15.101730   -8.128170    0.692030
  H     16.861730   -4.814440   -2.365130
  H     22.388570   -6.763930   -4.386920
  H     23.817080   -8.928780   -4.608690
  H     24.282680  -13.603310   -0.182240
  H     26.516210  -13.245060   -5.353230
  H     26.075800  -14.934800   -5.026670
  H     27.551900  -14.267510   -4.337850

 Total Charge           Charge          ....    0
 Multiplicity           Mult            ....    1
 Number of Electrons    NEL             ....  590
 Basis Dimension        Dim             .... 1232

ORBITAL ENERGIES
----------------

  NO   OCC          E(Eh)            E(eV)
   0   2.0000     -89.004839     -2421.9448
   1   2.0000     -89.004726     -2421.9417
   2   2.0000     -89.004356     -2421.9317
   3   2.0000     -89.002794     -2421.8892
   4   2.0000     -89.001554     -2421.8554
   5   2.0000     -88.994764     -2421.6706
   6   2.0000     -88.981398     -2421.3070
   7   2.0000     -88.981256     -2421.3031
   8   2.0000     -19.229449      -523.2599
   9   2.0000     -19.218761      -522.9691
  10   2.0000     -14.442646      -393.0044
  11   2.0000     -14.442297      -392.9949
  12   2.0000     -14.439684      -392.9238
  13   2.0000     -14.438381      -392.8883
  14   2.0000     -14.438216      -392.8838
  15   2.0000     -14.435704      -392.8155
  16   2.0000     -14.419671      -392.3792
  17   2.0000     -14.419554      -392.3760
  18   2.0000     -14.418961      -392.3599
  19   2.0000     -14.415146      -392.2561
  20   2.0000     -10.380467      -282.4669
  21   2.0000     -10.378147      -282.4037
  22   2.0000     -10.375254      -282.3250
  23   2.0000     -10.373644      -282.2812
  24   2.0000     -10.372905      -282.2611
  25   2.0000     -10.364927      -282.0440
  26   2.0000     -10.362386      -281.9749
  27   2.0000     -10.360620      -281.9268
  28   2.0000     -10.350795      -281.6594
  29   2.0000     -10.349214      -281.6164
  30   2.0000     -10.347164      -281.5607
  31   2.0000     -10.346543      -281.5437
  32   2.0000     -10.346335      -281.5381
  33   2.0000     -10.346168      -281.5336
  34   2.0000     -10.345839      -281.5246
  35   2.0000     -10.345831      -281.5244
  36   2.0000     -10.343467      -281.4600
  37   2.0000     -10.343423      -281.4588
  38   2.0000     -10.343341      -281.4566
  39   2.0000     -10.342731      -281.4400
  40   2.0000     -10.342673      -281.4384
  41   2.0000     -10.342246      -281.4268
  42   2.0000     -10.341764      -281.4137
  43   2.0000     -10.339714      -281.3579
  44   2.0000     -10.339609      -281.3551
  45   2.0000     -10.338438      -281.3232
  46   2.0000     -10.338087      -281.3136
  47   2.0000     -10.335221      -281.2357
  48   2.0000     -10.333975      -281.2018
  49   2.0000     -10.333540      -281.1899
  50   2.0000     -10.332589      -281.1640
  51   2.0000     -10.331685      -281.1394
  52   2.0000     -10.331237      -281.1273
  53   2.0000     -10.328967      -281.0655
  54   2.0000     -10.322570      -280.8914
  55   2.0000     -10.322363      -280.8858
  56   2.0000     -10.321697      -280.8677
  57   2.0000     -10.321652      -280.8664
  58   2.0000     -10.321373      -280.8588
  59   2.0000     -10.319874      -280.8180
  60   2.0000     -10.319124      -280.7976
  61   2.0000     -10.319098      -280.7969
  62   2.0000     -10.318102      -280.7698
  63   2.0000     -10.317830      -280.7624
  64   2.0000     -10.317628      -280.7569
  65   2.0000     -10.317596      -280.7561
  66   2.0000     -10.316907      -280.7373
  67   2.0000     -10.316817      -280.7349
  68   2.0000     -10.315411      -280.6966
  69   2.0000     -10.314691      -280.6770
  70   2.0000     -10.313710      -280.6503
  71   2.0000     -10.310872      -280.5731
  72   2.0000     -10.305568      -280.4288
  73   2.0000     -10.305445      -280.4254
  74   2.0000     -10.305021      -280.4139
  75   2.0000     -10.304239      -280.3926
  76   2.0000     -10.289760      -279.9986
  77   2.0000     -10.289413      -279.9892
  78   2.0000     -10.288982      -279.9774
  79   2.0000     -10.287880      -279.9474
  80   2.0000      -8.099237      -220.3914
  81   2.0000      -8.099172      -220.3897
  82   2.0000      -8.098759      -220.3784
  83   2.0000      -8.097295      -220.3386
  84   2.0000      -8.095667      -220.2943
  85   2.0000      -8.087097      -220.0611
  86   2.0000      -8.077298      -219.7945
  87   2.0000      -8.077105      -219.7892
  88   2.0000      -6.068512      -165.1326
  89   2.0000      -6.068484      -165.1318
  90   2.0000      -6.068061      -165.1203
  91   2.0000      -6.066584      -165.0801
  92   2.0000      -6.064916      -165.0348
  93   2.0000      -6.064321      -165.0186
  94   2.0000      -6.064308      -165.0182
  95   2.0000      -6.063891      -165.0069
  96   2.0000      -6.062404      -164.9664
  97   2.0000      -6.061489      -164.9415
  98   2.0000      -6.061457      -164.9406
  99   2.0000      -6.060998      -164.9281
 100   2.0000      -6.060660      -164.9189
 101   2.0000      -6.059549      -164.8887
 102   2.0000      -6.058128      -164.8500
 103   2.0000      -6.056523      -164.8064
 104   2.0000      -6.051766      -164.6769
 105   2.0000      -6.049620      -164.6185
 106   2.0000      -6.046552      -164.5350
 107   2.0000      -6.046353      -164.5296
 108   2.0000      -6.041952      -164.4099
 109   2.0000      -6.041759      -164.4046
 110   2.0000      -6.039868      -164.3532
 111   2.0000      -6.039691      -164.3483
 112   2.0000      -1.145071       -31.1590
 113   2.0000      -1.134615       -30.8745
 114   2.0000      -1.060235       -28.8505
 115   2.0000      -1.057030       -28.7632
 116   2.0000      -1.053912       -28.6784
 117   2.0000      -1.034676       -28.1550
 118   2.0000      -1.031592       -28.0710
 119   2.0000      -1.029457       -28.0130
 120   2.0000      -1.027514       -27.9601
 121   2.0000      -1.025976       -27.9182
 122   2.0000      -1.021217       -27.7887
 123   2.0000      -1.019366       -27.7384
 124   2.0000      -1.016394       -27.6575
 125   2.0000      -1.014426       -27.6039
 126   2.0000      -1.011109       -27.5137
 127   2.0000      -1.009326       -27.4652
 128   2.0000      -1.008992       -27.4561
 129   2.0000      -1.001235       -27.2450
 130   2.0000      -0.997516       -27.1438
 131   2.0000      -0.995626       -27.0924
 132   2.0000      -0.977768       -26.6064
 133   2.0000      -0.971368       -26.4323
 134   2.0000      -0.967817       -26.3356
 135   2.0000      -0.964122       -26.2351
 136   2.0000      -0.963002       -26.2046
 137   2.0000      -0.934783       -25.4367
 138   2.0000      -0.927936       -25.2504
 139   2.0000      -0.918373       -24.9902
 140   2.0000      -0.906318       -24.6622
 141   2.0000      -0.904430       -24.6108
 142   2.0000      -0.890108       -24.2211
 143   2.0000      -0.888754       -24.1842
 144   2.0000      -0.883563       -24.0430
 145   2.0000      -0.882302       -24.0087
 146   2.0000      -0.877762       -23.8851
 147   2.0000      -0.875891       -23.8342
 148   2.0000      -0.873005       -23.7557
 149   2.0000      -0.872567       -23.7438
 150   2.0000      -0.866359       -23.5748
 151   2.0000      -0.862235       -23.4626
 152   2.0000      -0.847382       -23.0584
 153   2.0000      -0.825153       -22.4535
 154   2.0000      -0.806161       -21.9367
 155   2.0000      -0.800132       -21.7727
 156   2.0000      -0.799157       -21.7462
 157   2.0000      -0.794079       -21.6080
 158   2.0000      -0.792428       -21.5631
 159   2.0000      -0.786541       -21.4029
 160   2.0000      -0.780896       -21.2493
 161   2.0000      -0.765269       -20.8240
 162   2.0000      -0.750436       -20.4204
 163   2.0000      -0.745493       -20.2859
 164   2.0000      -0.737781       -20.0760
 165   2.0000      -0.723444       -19.6859
 166   2.0000      -0.712397       -19.3853
 167   2.0000      -0.711792       -19.3689
 168   2.0000      -0.708037       -19.2667
 169   2.0000      -0.701811       -19.0972
 170   2.0000      -0.698098       -18.9962
 171   2.0000      -0.694693       -18.9036
 172   2.0000      -0.689940       -18.7742
 173   2.0000      -0.688364       -18.7313
 174   2.0000      -0.680124       -18.5071
 175   2.0000      -0.673682       -18.3318
 176   2.0000      -0.670130       -18.2352
 177   2.0000      -0.669459       -18.2169
 178   2.0000      -0.649799       -17.6819
 179   2.0000      -0.645748       -17.5717
 180   2.0000      -0.640225       -17.4214
 181   2.0000      -0.639689       -17.4068
 182   2.0000      -0.634310       -17.2605
 183   2.0000      -0.632754       -17.2181
 184   2.0000      -0.630891       -17.1674
 185   2.0000      -0.630204       -17.1487
 186   2.0000      -0.623473       -16.9656
 187   2.0000      -0.619595       -16.8600
 188   2.0000      -0.608601       -16.5609
 189   2.0000      -0.606862       -16.5136
 190   2.0000      -0.602139       -16.3850
 191   2.0000      -0.601034       -16.3550
 192   2.0000      -0.586178       -15.9507
 193   2.0000      -0.582274       -15.8445
 194   2.0000      -0.571586       -15.5536
 195   2.0000      -0.567537       -15.4435
 196   2.0000      -0.563117       -15.3232
 197   2.0000      -0.559161       -15.2155
 198   2.0000      -0.556627       -15.1466
 199   2.0000      -0.553187       -15.0530
 200   2.0000      -0.550757       -14.9869
 201   2.0000      -0.550026       -14.9670
 202   2.0000      -0.547201       -14.8901
 203   2.0000      -0.544505       -14.8167
 204   2.0000      -0.540748       -14.7145
 205   2.0000      -0.533797       -14.5253
 206   2.0000      -0.531176       -14.4540
 207   2.0000      -0.529481       -14.4079
 208   2.0000      -0.523059       -14.2331
 209   2.0000      -0.521354       -14.1868
 210   2.0000      -0.520721       -14.1695
 211   2.0000      -0.520379       -14.1602
 212   2.0000      -0.519417       -14.1341
 213   2.0000      -0.519387       -14.1332
 214   2.0000      -0.518616       -14.1123
 215   2.0000      -0.516514       -14.0551
 216   2.0000      -0.514159       -13.9910
 217   2.0000      -0.512626       -13.9493
 218   2.0000      -0.512181       -13.9371
 219   2.0000      -0.509847       -13.8736
 220   2.0000      -0.506567       -13.7844
 221   2.0000      -0.503232       -13.6936
 222   2.0000      -0.501036       -13.6339
 223   2.0000      -0.500591       -13.6218
 224   2.0000      -0.498623       -13.5682
 225   2.0000      -0.496792       -13.5184
 226   2.0000      -0.494029       -13.4432
 227   2.0000      -0.492042       -13.3892
 228   2.0000      -0.488317       -13.2878
 229   2.0000      -0.484430       -13.1820
 230   2.0000      -0.482939       -13.1414
 231   2.0000      -0.482682       -13.1345
 232   2.0000      -0.478818       -13.0293
 233   2.0000      -0.473014       -12.8714
 234   2.0000      -0.469801       -12.7839
 235   2.0000      -0.469497       -12.7757
 236   2.0000      -0.469337       -12.7713
 237   2.0000      -0.467842       -12.7306
 238   2.0000      -0.465923       -12.6784
 239   2.0000      -0.465716       -12.6728
 240   2.0000      -0.464125       -12.6295
 241   2.0000      -0.463384       -12.6093
 242   2.0000      -0.462973       -12.5981
 243   2.0000      -0.460916       -12.5422
 244   2.0000      -0.457924       -12.4607
 245   2.0000      -0.454033       -12.3549
 246   2.0000      -0.453396       -12.3375
 247   2.0000      -0.452397       -12.3104
 248   2.0000      -0.452162       -12.3040
 249   2.0000      -0.451274       -12.2798
 250   2.0000      -0.450710       -12.2645
 251   2.0000      -0.449498       -12.2315
 252   2.0000      -0.448878       -12.2146
 253   2.0000      -0.448761       -12.2114
 254   2.0000      -0.447615       -12.1802
 255   2.0000      -0.447131       -12.1671
 256   2.0000      -0.446828       -12.1588
 257   2.0000      -0.446756       -12.1568
 258   2.0000      -0.445481       -12.1221
 259   2.0000      -0.442404       -12.0384
 260   2.0000      -0.440066       -11.9748
 261   2.0000      -0.438116       -11.9217
 262   2.0000      -0.436423       -11.8757
 263   2.0000      -0.436020       -11.8647
 264   2.0000      -0.434767       -11.8306
 265   2.0000      -0.432681       -11.7738
 266   2.0000      -0.432575       -11.7710
 267   2.0000      -0.429195       -11.6790
 268   2.0000      -0.428172       -11.6511
 269   2.0000      -0.422742       -11.5034
 270   2.0000      -0.421683       -11.4746
 271   2.0000      -0.415741       -11.3129
 272   2.0000      -0.415506       -11.3065
 273   2.0000      -0.412114       -11.2142
 274   2.0000      -0.408467       -11.1150
 275   2.0000      -0.403565       -10.9816
 276   2.0000      -0.395368       -10.7585
 277   2.0000      -0.382120       -10.3980
 278   2.0000      -0.365188        -9.9373
 279   2.0000      -0.362573        -9.8661
 280   2.0000      -0.359621        -9.7858
 281   2.0000      -0.356736        -9.7073
 282   2.0000      -0.345053        -9.3894
 283   2.0000      -0.343617        -9.3503
 284   2.0000      -0.340994        -9.2789
 285   2.0000      -0.336567        -9.1585
 286   2.0000      -0.334362        -9.0985
 287   2.0000      -0.332418        -9.0455
 288   2.0000      -0.331166        -9.0115
 289   2.0000      -0.328136        -8.9290
 290   2.0000      -0.316282        -8.6065
 291   2.0000      -0.310814        -8.4577
 292   2.0000      -0.299901        -8.1607
 293   2.0000      -0.275165        -7.4876
 294   2.0000      -0.250986        -6.8297
 295   0.0000      -0.124836        -3.3970
 296   0.0000      -0.116880        -3.1805
 297   0.0000      -0.113547        -3.0898
 298   0.0000      -0.092516        -2.5175
 299   0.0000      -0.091168        -2.4808

MULLIKEN ATOMIC CHARGES
-----------------------
   0 C :    0.036371
   1 C :   -0.139306
   2 S :    0.155575
   3 C :   -0.313429
   4 C :    0.116574
   5 C :    0.055180
   6 C :    0.171131
   7 O :   -0.201011
   8 C :   -0.105643
   9 C :    0.305677
  10 C :   -0.336243
  11 C :   -0.193960
  12 N :    0.155068
  13 C :   -0.188507
  14 N :    0.151371
  15 C :   -0.033843
  16 C :   -0.050214
  17 C :   -0.059892
  18 C :    0.045903
  19 C :   -0.068818
  20 S :    0.243991
  21 C :   -0.106148
  22 C :    0.026222
  23 C :    0.303014
  24 C :   -0.290509
  25 C :   -0.194055
  26 N :    0.186972
  27 C :   -0.187511
  28 N :    0.171539
  29 C :   -0.071669
  30 C :   -0.042661
  31 S :    0.206172
  32 C :   -0.052775
  33 C :   -0.066937
  34 C :    0.020043
  35 C :   -0.095020
  36 S :    0.205759
  37 C :   -0.098778
  38 C :    0.016495
  39 C :    0.296865
  40 C :   -0.290535
  41 C :   -0.187354
  42 N :    0.175057
  43 C :   -0.186541
  44 N :    0.177904
  45 C :   -0.059146
  46 C :   -0.055467
  47 S :    0.205018
  48 C :   -0.047234
  49 C :   -0.064217
  50 C :    0.023369
  51 C :   -0.104167
  52 S :    0.207752
  53 C :   -0.076519
  54 C :    0.026709
  55 C :    0.297437
  56 C :   -0.290817
  57 C :   -0.185259
  58 N :    0.175670
  59 C :   -0.188748
  60 N :    0.181370
  61 C :   -0.001408
  62 C :   -0.086664
  63 S :    0.211085
  64 C :    0.046415
  65 C :   -0.149703
  66 C :    0.139153
  67 O :   -0.147473
  68 C :    0.058536
  69 C :   -0.316240
  70 S :    0.154567
  71 C :   -0.135687
  72 C :    0.029646
  73 C :    0.243358
  74 C :   -0.317260
  75 C :   -0.180983
  76 N :    0.154112
  77 C :   -0.208382
  78 N :    0.173900
  79 C :    0.115437
  80 H :    0.050271
  81 H :    0.039897
  82 H :    0.039457
  83 H :    0.046101
  84 H :    0.016700
  85 H :    0.028943
  86 H :    0.014864
  87 H :    0.014761
  88 H :    0.014192
  89 H :    0.014587
  90 H :    0.019958
  91 H :    0.033653
  92 H :    0.047507
  93 H :    0.050525
  94 H :    0.037813
  95 H :    0.041086
Sum of atomic charges:   -0.0000000

LOEWDIN ATOMIC CHARGES
----------------------
   0 C :   -0.061649
   1 C :   -0.148311
   2 S :    0.466654
   3 C :   -0.127643
   4 C :   -0.057835
   5 C :   -0.104460
   6 C :    0.087786
   7 O :   -0.181218
   8 C :   -0.106355
   9 C :    0.076913
  10 C :   -0.143669
  11 C :   -0.014900
  12 N :   -0.055392
  13 C :   -0.025090
  14 N :   -0.048729
  15 C :    0.054488
  16 C :   -0.183955
  17 C :    0.012275
  18 C :   -0.079042
  19 C :   -0.167442
  20 S :    0.548225
  21 C :   -0.186621
  22 C :   -0.052623
  23 C :    0.077773
  24 C :   -0.098140
  25 C :   -0.020550
  26 N :   -0.020522
  27 C :   -0.015727
  28 N :   -0.031673
  29 C :   -0.041527
  30 C :   -0.169757
  31 S :    0.490774
  32 C :   -0.180945
  33 C :   -0.033696
  34 C :   -0.066725
  35 C :   -0.177602
  36 S :    0.492399
  37 C :   -0.177951
  38 C :   -0.066557
  39 C :    0.081058
  40 C :   -0.097012
  41 C :   -0.016202
  42 N :   -0.028714
  43 C :   -0.016765
  44 N :   -0.027655
  45 C :   -0.033262
  46 C :   -0.180648
  47 S :    0.492339
  48 C :   -0.170389
  49 C :   -0.039605
  50 C :   -0.052171
  51 C :   -0.187122
  52 S :    0.492509
  53 C :   -0.151317
  54 C :   -0.074623
  55 C :    0.079893
  56 C :   -0.095214
  57 C :   -0.015737
  58 N :   -0.029580
  59 C :   -0.017523
  60 N :   -0.024008
  61 C :    0.013682
  62 C :   -0.178517
  63 S :    0.515997
  64 C :    0.049344
  65 C :   -0.097372
  66 C :    0.083941
  67 O :   -0.147410
  68 C :   -0.105332
  69 C :   -0.128249
  70 S :    0.466155
  71 C :   -0.153221
  72 C :   -0.061100
  73 C :    0.062017
  74 C :   -0.148358
  75 C :   -0.017944
  76 N :   -0.051615
  77 C :   -0.039639
  78 N :   -0.049281
  79 C :   -0.057600
  80 H :    0.035580
  81 H :    0.044138
  82 H :    0.043919
  83 H :    0.047317
  84 H :    0.054268
  85 H :    0.048414
  86 H :    0.036448
  87 H :    0.036958
  88 H :    0.037153
  89 H :    0.036580
  90 H :    0.047535
  91 H :    0.055152
  92 H :    0.034955
  93 H :    0.049226
  94 H :    0.043116
  95 H :    0.044506

  Mayer bond orders larger than 0.100000
B(  0-C ,  1-C ) :   1.5535 B(  0-C ,  5-C ) :   1.2021 B(  0-C ,  9-C ) :   0.9888
B(  1-C ,  2-S ) :   1.1548 B(  1-C , 80-H ) :   0.9555 B(  2-S ,  3-C ) :   1.1673
B(  3-C ,  4-C ) :   1.0888 B(  3-C ,  5-C ) :   1.5371 B(  4-C , 81-H ) :   0.9423
B(  4-C , 82-H ) :   0.9422 B(  4-C , 83-H ) :   0.9457 B(  5-C ,  6-C ) :   0.9938
B(  6-C ,  7-O ) :   2.0626 B(  6-C ,  8-C ) :   0.9917 B(  8-C ,  9-C ) :   1.0836
B(  8-C , 15-C ) :   1.5090 B(  9-C , 10-C ) :   1.6380 B( 10-C , 11-C ) :   1.1508
B( 10-C , 13-C ) :   1.1372 B( 11-C , 12-N ) :   2.9905 B( 13-C , 14-N ) :   2.9620
B( 15-C , 16-C ) :   1.2569 B( 15-C , 84-H ) :   0.9417 B( 16-C , 17-C ) :   1.3327
B( 16-C , 20-S ) :   1.0706 B( 17-C , 18-C ) :   1.3268 B( 17-C , 85-H ) :   1.0101
B( 18-C , 19-C ) :   1.3560 B( 18-C , 23-C ) :   0.9867 B( 19-C , 20-S ) :   1.1259
B( 19-C , 21-C ) :   1.2039 B( 21-C , 22-C ) :   1.4344 B( 21-C , 31-S ) :   1.1115
B( 22-C , 23-C ) :   0.9957 B( 22-C , 29-C ) :   1.3045 B( 23-C , 24-C ) :   1.7178
B( 24-C , 25-C ) :   1.1341 B( 24-C , 27-C ) :   1.1329 B( 25-C , 26-N ) :   2.9958
B( 27-C , 28-N ) :   2.9875 B( 29-C , 30-C ) :   1.4478 B( 29-C , 86-H ) :   0.9871
B( 30-C , 31-S ) :   1.1194 B( 30-C , 32-C ) :   1.1703 B( 32-C , 33-C ) :   1.4546
B( 32-C , 36-S ) :   1.1083 B( 33-C , 34-C ) :   1.3042 B( 33-C , 87-H ) :   0.9875
B( 34-C , 35-C ) :   1.4392 B( 34-C , 39-C ) :   0.9947 B( 35-C , 36-S ) :   1.1254
B( 35-C , 37-C ) :   1.1889 B( 37-C , 38-C ) :   1.4425 B( 37-C , 47-S ) :   1.1244
B( 38-C , 39-C ) :   0.9934 B( 38-C , 45-C ) :   1.3034 B( 39-C , 40-C ) :   1.7191
B( 40-C , 41-C ) :   1.1331 B( 40-C , 43-C ) :   1.1311 B( 41-C , 42-N ) :   2.9909
B( 43-C , 44-N ) :   2.9925 B( 45-C , 46-C ) :   1.4538 B( 45-C , 88-H ) :   0.9876
B( 46-C , 47-S ) :   1.1090 B( 46-C , 48-C ) :   1.1719 B( 48-C , 49-C ) :   1.4447
B( 48-C , 52-S ) :   1.1218 B( 49-C , 50-C ) :   1.3104 B( 49-C , 89-H ) :   0.9863
B( 50-C , 51-C ) :   1.4406 B( 50-C , 55-C ) :   0.9923 B( 51-C , 52-S ) :   1.1090
B( 51-C , 53-C ) :   1.2107 B( 53-C , 54-C ) :   1.3937 B( 53-C , 63-S ) :   1.1631
B( 54-C , 55-C ) :   0.9945 B( 54-C , 61-C ) :   1.3058 B( 55-C , 56-C ) :   1.7216
B( 56-C , 57-C ) :   1.1323 B( 56-C , 59-C ) :   1.1331 B( 57-C , 58-N ) :   2.9898
B( 59-C , 60-N ) :   2.9943 B( 61-C , 62-C ) :   1.4002 B( 61-C , 90-H ) :   1.0018
B( 62-C , 63-S ) :   1.0827 B( 62-C , 64-C ) :   1.1438 B( 64-C , 65-C ) :   1.6492
B( 64-C , 91-H ) :   0.9433 B( 65-C , 66-C ) :   0.9474 B( 65-C , 73-C ) :   1.0405
B( 66-C , 67-O ) :   2.2286 B( 66-C , 68-C ) :   0.9458 B( 68-C , 69-C ) :   1.5563
B( 68-C , 72-C ) :   1.2018 B( 69-C , 70-S ) :   1.1680 B( 69-C , 79-C ) :   1.0857
B( 70-S , 71-C ) :   1.1561 B( 71-C , 72-C ) :   1.5536 B( 71-C , 92-H ) :   0.9588
B( 72-C , 73-C ) :   1.0112 B( 73-C , 74-C ) :   1.6540 B( 74-C , 75-C ) :   1.1370
B( 74-C , 77-C ) :   1.1498 B( 75-C , 76-N ) :   3.0033 B( 77-C , 78-N ) :   3.0222
B( 79-C , 93-H ) :   0.9458 B( 79-C , 94-H ) :   0.9424 B( 79-C , 95-H ) :   0.9430

-----------------------------------------------------------------------------
         ABSORPTION SPECTRUM VIA TRANSITION ELECTRIC DIPOLE MOMENTS
-----------------------------------------------------------------------------
State   Energy  Wavelength   fosc         T2         TX        TY        TZ
        (cm-1)    (nm)                  (au**2)     (au)      (au)      (au)
-----------------------------------------------------------------------------
   0   11215.1    891.7   0.616217291  18.08865  -3.91499   1.25649   1.08754
   1   12671.6    789.2   0.150145068   3.90080  -1.80540   0.66983   0.43894
   2   13459.8    743.0   0.146639484   3.58663   1.76470  -0.38873  -0.56688
   3   19726.8    506.9   1.653822610  27.59987   4.82113  -1.88615  -0.89387
   4   20085.2    497.9   0.021721706   0.35603   0.24937   0.30360  -0.44908
   5   20881.8    478.9   0.352086023   5.55081   1.91969   0.29299  -1.33408
   6   22017.9    454.2   0.084965620   1.27041  -1.04821   0.39615  -0.12133
   7   22844.3    437.7   0.136228262   1.96320  -1.26381   0.04670   0.60317
   8   25589.6    390.8   0.034416254   0.44277   0.66100   0.05594  -0.05217
   9   26411.3    378.6   0.126014128   1.57074  -0.90829   0.63158   0.58895
  10   27518.9    363.4   0.196906209   2.35561   1.24033  -0.27246  -0.86195
  11   27653.4    361.6   0.079370641   0.94490   0.84845  -0.23411  -0.41260
  12   28068.0    356.3   0.015160337   0.17782  -0.41425  -0.07557  -0.02249
  13   28506.6    350.8   0.028233220   0.32605   0.50919   0.01211  -0.25813
  14   28731.2    348.1   0.003717830   0.04260   0.04423  -0.01861  -0.20074
  15   28867.8    346.4   0.032129297   0.36641   0.05742  -0.41142   0.44028
  16   28978.1    345.1   0.023124661   0.26271   0.04934   0.36049  -0.36100
  17   29628.4    337.5   0.447013849   4.96693  -2.03629   0.29768   0.85548
  18   30374.5    329.2   0.171838054   1.86245   0.51671   0.87530  -0.91067
  19   30554.1    327.3   0.128473781   1.38427   0.96383  -0.39797  -0.54490
  20   30601.2    326.8   0.339227693   3.64946  -0.50993   1.69074  -0.72857
  21   30753.7    325.2   0.039308132   0.42079   0.41265  -0.48941  -0.10480
  22   30933.1    323.3   0.142440141   1.51595  -0.25349   0.76401  -0.93165
  23   31557.8    316.9   0.082267651   0.85822  -0.03518   0.84296  -0.38263
  24   31703.7    315.4   1.055470434  10.96003  -0.23576  -2.57132   2.07190
  25   32316.9    309.4   0.173532613   1.76777   0.06279  -0.98729   0.88831
  26   32571.2    307.0   0.117089635   1.18348  -0.40567   0.98304   0.22924
  27   32715.3    305.7   0.117525508   1.18265  -0.70527   0.78312   0.26826
  28   33000.0    303.0   0.119817478   1.19531   0.54046   0.21415  -0.92593
  29   33107.8    302.0   0.031790208   0.31611   0.52200   0.07722   0.19408
  30   33415.1    299.3   0.389024727   3.83274  -0.45207  -1.60855   1.02026
  31   33587.7    297.7   0.213782707   2.09540  -1.15937   0.85993  -0.10851
  32   33803.9    295.8   0.182767713   1.77995   1.07419  -0.26710  -0.74480
  33   34140.3    292.9   0.098966700   0.95433   0.29846  -0.89560   0.25130
  34   34300.5    291.5   0.015204330   0.14593  -0.21633   0.31291  -0.03489
  35   34509.0    289.8   0.094665031   0.90309  -0.23127  -0.77133   0.50464
  36   34537.4    289.5   0.109587384   1.04459  -0.88389   0.33084   0.39227
  37   34598.0    289.0   0.043695112   0.41577  -0.33095   0.51058  -0.21342
  38   34749.1    287.8   0.138973965   1.31664  -0.77941  -0.25388   0.80293
  39   35068.2    285.2   0.232796642   2.18544   0.11606   1.09309  -0.98849
  40   35380.3    282.6   0.008484364   0.07895  -0.19611  -0.09696   0.17631
  41   35629.9    280.7   0.096589299   0.89246  -0.33380   0.82394   0.31963
  42   35847.5    279.0   0.037361541   0.34312  -0.06104  -0.24560   0.52827
  43   35960.5    278.1   0.037828651   0.34631  -0.03203   0.54989  -0.20716
  44   36110.7    276.9   0.028134349   0.25649   0.36881   0.15809  -0.30900
  45   36445.8    274.4   0.008793233   0.07943  -0.10041   0.19258  -0.17960
  46   36756.4    272.1   0.090747498   0.81279   0.13664  -0.69071   0.56306
  47   36839.7    271.4   0.001834997   0.01640   0.06406   0.05796  -0.09452
  48   36922.1    270.8   0.088265870   0.78701  -0.09117  -0.53037   0.70527
  49   37192.0    268.9   0.029909670   0.26475  -0.03434   0.38760  -0.33666
  50   37309.9    268.0   0.101686426   0.89725   0.02271   0.62844  -0.70838
  51   37591.8    266.0   0.021892450   0.19172  -0.24620  -0.16018   0.32473
  52   37947.3    263.5   0.008020130   0.06958   0.01159  -0.00765   0.26341
  53   38072.9    262.7   0.089929624   0.77761  -0.65043   0.42932   0.41259
  54   38236.2    261.5   0.035715976   0.30751   0.04223  -0.08459   0.54642
  55   38364.2    260.7   0.227979451   1.95635  -0.32369   1.12978  -0.75840
  56   38506.9    259.7   0.023961278   0.20486   0.06995   0.02696   0.44636
  57   38688.5    258.5   0.390714052   3.32470  -0.73517   1.49619   0.73868
  58   38939.7    256.8   0.004359176   0.03685  -0.12265   0.14292   0.03719
  59   39032.0    256.2   0.017220264   0.14524  -0.19989   0.25058  -0.20615
  60   39298.2    254.5   0.032093153   0.26885   0.16167  -0.46702   0.15688
  61   39536.8    252.9   0.002992272   0.02492  -0.04594   0.11369  -0.09940
  62   39628.3    252.3   0.053876601   0.44758  -0.37391   0.31322   0.45789
  63   39943.3    250.4   0.003005310   0.02477   0.15199  -0.02929   0.02849
  64   40141.6    249.1   0.013408186   0.10996   0.14846  -0.17006   0.24291
  65   40279.5    248.3   0.058506683   0.47819   0.24844   0.34798  -0.54348

FINAL SINGLE POINT ENERGY     -6174.467358720180

DIPOLE MOMENT
-------------
                                X             Y             Z
Electronic contribution:     -5.42975      15.86181      -1.47002
Nuclear contribution   :      6.23448     -19.71367       2.10878
                        -----------------------------------------
Total Dipole Moment    :      0.80473      -3.85186       0.63876
                        -----------------------------------------
Magnitude (a.u.)       :      3.98653
Magnitude (Debye)      :     10.13295

Rotational constants in cm-1:     0.001842     0.000138     0.000130
Rotational constants in MHz :    55.235370     4.142048     3.890726

                             ****ORCA TERMINATED NORMALLY****
TOTAL RUN TIME: 0 days 0 hours 9 minutes 59 seconds 250 msec
