                         Program Version 4.2.0 -  RELEASE  -
|  1> # ORCA input file
|  2> # SCF done       -204.425955738223          0.000237717276
|  3> ! CAM-B3LYP def2-SVP def2/J RIJCOSX Grid4 TightSCF
|  4> %maxcore 5000
|  5> %tddft
|  6>     Mode sTDDFT
|  7>     Ethresh 5.0
|  8>     maxcore 5000
|  9> end
| 10>
| 11> %pal
| 12>   nprocs 6
| 13>   end
| 14> * xyz 0 1
| 15>    C       -0.22115        -1.95723         2.20814
| 16>    O        0.02358        -2.72812         1.30690
| 17>    C        0.68553        -0.90590         2.71786
| 18>    C        0.08062        -0.22993         3.79082
| 19>    C        0.76916         0.79261         4.42906
| 20>    C        2.04006         1.12111         3.98303
| 21>    C        2.61580         0.44194         2.91626
| 22>    C        1.94881        -0.58682         2.26494
| 23>   Br        4.35731         0.93174         2.34042
| 24>    C       -1.24642        -0.79653         4.01146
| 25>    C       -2.18094        -0.30865         4.88661
| 26>    C       -1.95539         0.78135         5.75453
| 27>    N       -1.83102         1.65518         6.48799
| 28>    C       -3.50073        -0.78962         5.02510
| 29>    N       -4.59232        -1.11078         5.17975
| 30>    C       -1.41829        -1.89963         3.08103
| 31>    C       -2.43194        -2.81691         3.14981
| 32>    C       -2.75802        -3.86311         2.26508
| 33>    C       -2.39938        -4.10741         0.94485
| 34>    C       -2.98542        -5.26254         0.44854
| 35>    C       -3.80351        -5.92288         1.39439
| 36>    S       -3.87546        -5.09432         2.87536
| 37>    C       -4.30076        -7.10902         0.80575
| 38>    C       -3.80657        -7.20184        -0.50817
| 39>    C       -2.98275        -6.03316        -0.78335
| 40>    C       -2.36211        -5.72525        -1.95699
| 41>    C       -2.43915        -6.57482        -3.08181
| 42>    N       -2.50303        -7.26954        -3.99154
| 43>    C       -1.62685        -4.53416        -2.14605
| 44>    N       -1.04619        -3.56390        -2.33150
| 45>    C       -4.22253        -8.35778        -1.16379
| 46>    C       -5.02758        -9.14697        -0.35941
| 47>    S       -5.28378        -8.44316         1.22843
| 48>    C       -5.59445       -10.40447        -0.68444
| 49>    C       -6.40027       -11.20006         0.11086
| 50>    C       -6.73947       -12.39425        -0.52263
| 51>    C       -6.18659       -12.50633        -1.81092
| 52>    S       -5.25888       -11.14154        -2.24540
| 53>    C       -6.55969       -13.76021        -2.35567
| 54>    C       -7.34954       -14.44206        -1.41295
| 55>    C       -7.49588       -13.60292        -0.23340
| 56>    C       -8.18988       -13.89056         0.90420
| 57>    C       -8.88488       -15.10785         1.06815
| 58>    N       -9.44603       -16.09890         1.19840
| 59>    C       -8.25401       -12.98931         1.98836
| 60>    N       -8.30227       -12.25503         2.86730
| 61>    C       -7.74319       -15.70625        -1.84836
| 62>    C       -7.25771       -15.99128        -3.11240
| 63>    S       -6.30716       -14.67011        -3.77738
| 64>    C       -7.42545       -17.18658        -3.85533
| 65>    C       -6.92489       -17.46844        -5.11515
| 66>    C       -7.25339       -18.75741        -5.52772
| 67>    C       -8.01248       -19.46250        -4.57578
| 68>    S       -8.32444       -18.53351        -3.17595
| 69>    C       -8.28083       -20.75937        -5.07821
| 70>    C       -7.68374       -20.87251        -6.35170
| 71>    C       -7.03458       -19.61648        -6.68110
| 72>    C       -6.38873       -19.30870        -7.84205
| 73>    C       -6.27989       -20.24719        -8.89035
| 74>    N       -6.19860       -21.02515        -9.72864
| 75>    C       -5.79840       -18.04596        -8.05927
| 76>    N       -5.31475       -17.01968        -8.22302
| 77>    C       -7.89431       -22.11067        -6.94041
| 78>    C       -8.65305       -22.95241        -6.13813
| 79>    S       -9.08089       -22.18537        -4.61125
| 80>    C       -9.03709       -24.28897        -6.37339
| 81>    C       -9.05116       -24.97818        -7.54924
| 82>    C       -9.04879       -26.46754        -7.50161
| 83>    O       -9.26535       -27.16128        -6.53722
| 84>    C       -8.66821       -26.89305        -8.86625
| 85>    C       -8.58955       -25.76537        -9.70422
| 86>    C       -8.97464       -24.58043        -8.93965
| 87>    C       -9.42782       -23.41020        -9.48961
| 88>    C       -9.45506       -23.15256       -10.87713
| 89>    N       -9.50523       -22.89620       -11.99402
| 90>    C      -10.00817       -22.36460        -8.74510
| 91>    N      -10.50612       -21.49893        -8.17887
| 92>    C       -8.20301       -25.91478       -11.02761
| 93>    C       -7.91288       -27.18718       -11.49590
| 94>    C       -8.01404       -28.29049       -10.65742
| 95>    C       -8.39060       -28.16366        -9.32651
| 96>   Br       -7.61703       -30.01411       -11.34764
| 97>    H        0.34510         1.32975         5.26126
| 98>    H        2.58995         1.91232         4.46903
| 99>    H        2.38859        -1.12032         1.43657
|100>    H       -3.07440        -2.76812         4.02152
|101>    H       -1.73876        -3.46675         0.39153
|102>    H       -3.95893        -8.63055        -2.16989
|103>    H       -6.70978       -10.91143         1.09938
|104>    H       -8.34577       -16.39720        -1.28648
|105>    H       -6.34942       -16.76201        -5.68625
|106>    H       -7.47983       -22.41651        -7.88345
|107>    H       -9.28573       -24.87934        -5.49664
|108>    H       -8.10959       -25.06826       -11.68827
|109>    H       -7.60466       -27.32386       -12.52100
|110>    H       -8.46422       -29.01790        -8.67159
|111> *
|112>
|113>                          ****END OF INPUT****

CARTESIAN COORDINATES (ANGSTROEM)
---------------------------------
  C     -0.221150   -1.957230    2.208140
  O      0.023580   -2.728120    1.306900
  C      0.685530   -0.905900    2.717860
  C      0.080620   -0.229930    3.790820
  C      0.769160    0.792610    4.429060
  C      2.040060    1.121110    3.983030
  C      2.615800    0.441940    2.916260
  C      1.948810   -0.586820    2.264940
  Br     4.357310    0.931740    2.340420
  C     -1.246420   -0.796530    4.011460
  C     -2.180940   -0.308650    4.886610
  C     -1.955390    0.781350    5.754530
  N     -1.831020    1.655180    6.487990
  C     -3.500730   -0.789620    5.025100
  N     -4.592320   -1.110780    5.179750
  C     -1.418290   -1.899630    3.081030
  C     -2.431940   -2.816910    3.149810
  C     -2.758020   -3.863110    2.265080
  C     -2.399380   -4.107410    0.944850
  C     -2.985420   -5.262540    0.448540
  C     -3.803510   -5.922880    1.394390
  S     -3.875460   -5.094320    2.875360
  C     -4.300760   -7.109020    0.805750
  C     -3.806570   -7.201840   -0.508170
  C     -2.982750   -6.033160   -0.783350
  C     -2.362110   -5.725250   -1.956990
  C     -2.439150   -6.574820   -3.081810
  N     -2.503030   -7.269540   -3.991540
  C     -1.626850   -4.534160   -2.146050
  N     -1.046190   -3.563900   -2.331500
  C     -4.222530   -8.357780   -1.163790
  C     -5.027580   -9.146970   -0.359410
  S     -5.283780   -8.443160    1.228430
  C     -5.594450  -10.404470   -0.684440
  C     -6.400270  -11.200060    0.110860
  C     -6.739470  -12.394250   -0.522630
  C     -6.186590  -12.506330   -1.810920
  S     -5.258880  -11.141540   -2.245400
  C     -6.559690  -13.760210   -2.355670
  C     -7.349540  -14.442060   -1.412950
  C     -7.495880  -13.602920   -0.233400
  C     -8.189880  -13.890560    0.904200
  C     -8.884880  -15.107850    1.068150
  N     -9.446030  -16.098900    1.198400
  C     -8.254010  -12.989310    1.988360
  N     -8.302270  -12.255030    2.867300
  C     -7.743190  -15.706250   -1.848360
  C     -7.257710  -15.991280   -3.112400
  S     -6.307160  -14.670110   -3.777380
  C     -7.425450  -17.186580   -3.855330
  C     -6.924890  -17.468440   -5.115150
  C     -7.253390  -18.757410   -5.527720
  C     -8.012480  -19.462500   -4.575780
  S     -8.324440  -18.533510   -3.175950
  C     -8.280830  -20.759370   -5.078210
  C     -7.683740  -20.872510   -6.351700
  C     -7.034580  -19.616480   -6.681100
  C     -6.388730  -19.308700   -7.842050
  C     -6.279890  -20.247190   -8.890350
  N     -6.198600  -21.025150   -9.728640
  C     -5.798400  -18.045960   -8.059270
  N     -5.314750  -17.019680   -8.223020
  C     -7.894310  -22.110670   -6.940410
  C     -8.653050  -22.952410   -6.138130
  S     -9.080890  -22.185370   -4.611250
  C     -9.037090  -24.288970   -6.373390
  C     -9.051160  -24.978180   -7.549240
  C     -9.048790  -26.467540   -7.501610
  O     -9.265350  -27.161280   -6.537220
  C     -8.668210  -26.893050   -8.866250
  C     -8.589550  -25.765370   -9.704220
  C     -8.974640  -24.580430   -8.939650
  C     -9.427820  -23.410200   -9.489610
  C     -9.455060  -23.152560  -10.877130
  N     -9.505230  -22.896200  -11.994020
  C    -10.008170  -22.364600   -8.745100
  N    -10.506120  -21.498930   -8.178870
  C     -8.203010  -25.914780  -11.027610
  C     -7.912880  -27.187180  -11.495900
  C     -8.014040  -28.290490  -10.657420
  C     -8.390600  -28.163660   -9.326510
  Br    -7.617030  -30.014110  -11.347640
  H      0.345100    1.329750    5.261260
  H      2.589950    1.912320    4.469030
  H      2.388590   -1.120320    1.436570
  H     -3.074400   -2.768120    4.021520
  H     -1.738760   -3.466750    0.391530
  H     -3.958930   -8.630550   -2.169890
  H     -6.709780  -10.911430    1.099380
  H     -8.345770  -16.397200   -1.286480
  H     -6.349420  -16.762010   -5.686250
  H     -7.479830  -22.416510   -7.883450
  H     -9.285730  -24.879340   -5.496640
  H     -8.109590  -25.068260  -11.688270
  H     -7.604660  -27.323860  -12.521000
  H     -8.464220  -29.017900   -8.671590

 Total Charge           Charge          ....    0
 Multiplicity           Mult            ....    1
 Number of Electrons    NEL             ....  638
 Basis Dimension        Dim             .... 1278

ORBITAL ENERGIES
----------------

  NO   OCC          E(Eh)            E(eV)
   0   2.0000    -482.875415    -13139.7080
   1   2.0000    -482.875040    -13139.6978
   2   2.0000     -89.007319     -2422.0123
   3   2.0000     -89.007073     -2422.0056
   4   2.0000     -89.006962     -2422.0026
   5   2.0000     -89.006555     -2421.9915
   6   2.0000     -89.004656     -2421.9398
   7   2.0000     -89.003892     -2421.9190
   8   2.0000     -62.553123     -1702.1570
   9   2.0000     -62.552738     -1702.1465
  10   2.0000     -56.386963     -1534.3673
  11   2.0000     -56.386577     -1534.3568
  12   2.0000     -56.384430     -1534.2983
  13   2.0000     -56.384427     -1534.2983
  14   2.0000     -56.384051     -1534.2880
  15   2.0000     -56.384035     -1534.2876
  16   2.0000     -19.228001      -523.2205
  17   2.0000     -19.225740      -523.1590
  18   2.0000     -14.444460      -393.0538
  19   2.0000     -14.444399      -393.0521
  20   2.0000     -14.441800      -392.9814
  21   2.0000     -14.441734      -392.9796
  22   2.0000     -14.441671      -392.9779
  23   2.0000     -14.437578      -392.8665
  24   2.0000     -14.425340      -392.5335
  25   2.0000     -14.423388      -392.4803
  26   2.0000     -14.420319      -392.3968
  27   2.0000     -14.420017      -392.3886
  28   2.0000     -10.380274      -282.4616
  29   2.0000     -10.379297      -282.4350
  30   2.0000     -10.377559      -282.3877
  31   2.0000     -10.377484      -282.3857
  32   2.0000     -10.376686      -282.3640
  33   2.0000     -10.366942      -282.0988
  34   2.0000     -10.364223      -282.0248
  35   2.0000     -10.363691      -282.0104
  36   2.0000     -10.355098      -281.7766
  37   2.0000     -10.352673      -281.7105
  38   2.0000     -10.352473      -281.7051
  39   2.0000     -10.351040      -281.6661
  40   2.0000     -10.350176      -281.6426
  41   2.0000     -10.349753      -281.6311
  42   2.0000     -10.349209      -281.6163
  43   2.0000     -10.349014      -281.6110
  44   2.0000     -10.348833      -281.6061
  45   2.0000     -10.348714      -281.6028
  46   2.0000     -10.348392      -281.5941
  47   2.0000     -10.347856      -281.5795
  48   2.0000     -10.346507      -281.5428
  49   2.0000     -10.346436      -281.5408
  50   2.0000     -10.345774      -281.5228
  51   2.0000     -10.345704      -281.5209
  52   2.0000     -10.344442      -281.4866
  53   2.0000     -10.344344      -281.4839
  54   2.0000     -10.341753      -281.4134
  55   2.0000     -10.341705      -281.4121
  56   2.0000     -10.341649      -281.4106
  57   2.0000     -10.336618      -281.2737
  58   2.0000     -10.335543      -281.2444
  59   2.0000     -10.335509      -281.2435
  60   2.0000     -10.335233      -281.2360
  61   2.0000     -10.333034      -281.1761
  62   2.0000     -10.326349      -280.9942
  63   2.0000     -10.326043      -280.9859
  64   2.0000     -10.323646      -280.9207
  65   2.0000     -10.323074      -280.9051
  66   2.0000     -10.322172      -280.8806
  67   2.0000     -10.321540      -280.8634
  68   2.0000     -10.320873      -280.8452
  69   2.0000     -10.320030      -280.8223
  70   2.0000     -10.319822      -280.8166
  71   2.0000     -10.319548      -280.8092
  72   2.0000     -10.318847      -280.7901
  73   2.0000     -10.318035      -280.7680
  74   2.0000     -10.317645      -280.7574
  75   2.0000     -10.316469      -280.7254
  76   2.0000     -10.316431      -280.7244
  77   2.0000     -10.316056      -280.7142
  78   2.0000     -10.315930      -280.7107
  79   2.0000     -10.315056      -280.6870
  80   2.0000     -10.309483      -280.5353
  81   2.0000     -10.308690      -280.5137
  82   2.0000     -10.308328      -280.5039
  83   2.0000     -10.308275      -280.5024
  84   2.0000     -10.308040      -280.4960
  85   2.0000     -10.307489      -280.4810
  86   2.0000     -10.307259      -280.4748
  87   2.0000     -10.306641      -280.4580
  88   2.0000     -10.305196      -280.4186
  89   2.0000     -10.303690      -280.3777
  90   2.0000      -8.782412      -238.9816
  91   2.0000      -8.782030      -238.9712
  92   2.0000      -8.101734      -220.4594
  93   2.0000      -8.101525      -220.4537
  94   2.0000      -8.101343      -220.4488
  95   2.0000      -8.100945      -220.4379
  96   2.0000      -8.099315      -220.3936
  97   2.0000      -8.098697      -220.3768
  98   2.0000      -6.618269      -180.0922
  99   2.0000      -6.617878      -180.0816
 100   2.0000      -6.604512      -179.7179
 101   2.0000      -6.604147      -179.7080
 102   2.0000      -6.604086      -179.7063
 103   2.0000      -6.603687      -179.6955
 104   2.0000      -6.071010      -165.2006
 105   2.0000      -6.070840      -165.1959
 106   2.0000      -6.070634      -165.1904
 107   2.0000      -6.070250      -165.1799
 108   2.0000      -6.068460      -165.1312
 109   2.0000      -6.067809      -165.1135
 110   2.0000      -6.066851      -165.0874
 111   2.0000      -6.066678      -165.0827
 112   2.0000      -6.066455      -165.0766
 113   2.0000      -6.066071      -165.0662
 114   2.0000      -6.064311      -165.0183
 115   2.0000      -6.064004      -165.0099
 116   2.0000      -6.063722      -165.0023
 117   2.0000      -6.063674      -165.0010
 118   2.0000      -6.063629      -164.9997
 119   2.0000      -6.063191      -164.9878
 120   2.0000      -6.061829      -164.9507
 121   2.0000      -6.061208      -164.9339
 122   2.0000      -2.734214       -74.4018
 123   2.0000      -2.733844       -74.3917
 124   2.0000      -2.730430       -74.2988
 125   2.0000      -2.730103       -74.2899
 126   2.0000      -2.730059       -74.2887
 127   2.0000      -2.729682       -74.2784
 128   2.0000      -2.719169       -73.9923
 129   2.0000      -2.719161       -73.9921
 130   2.0000      -2.718783       -73.9818
 131   2.0000      -2.718775       -73.9816
 132   2.0000      -1.143968       -31.1290
 133   2.0000      -1.141588       -31.0642
 134   2.0000      -1.062806       -28.9204
 135   2.0000      -1.060221       -28.8501
 136   2.0000      -1.058275       -28.7971
 137   2.0000      -1.036709       -28.2103
 138   2.0000      -1.033949       -28.1352
 139   2.0000      -1.032553       -28.0972
 140   2.0000      -1.028433       -27.9851
 141   2.0000      -1.026683       -27.9375
 142   2.0000      -1.023779       -27.8584
 143   2.0000      -1.021584       -27.7987
 144   2.0000      -1.019358       -27.7381
 145   2.0000      -1.016670       -27.6650
 146   2.0000      -1.014092       -27.5948
 147   2.0000      -1.008312       -27.4376
 148   2.0000      -1.007552       -27.4169
 149   2.0000      -1.004591       -27.3363
 150   2.0000      -1.000173       -27.2161
 151   2.0000      -0.999755       -27.2047
 152   2.0000      -0.980392       -26.6778
 153   2.0000      -0.973774       -26.4977
 154   2.0000      -0.970256       -26.4020
 155   2.0000      -0.967814       -26.3356
 156   2.0000      -0.966712       -26.3056
 157   2.0000      -0.937818       -25.5193
 158   2.0000      -0.932224       -25.3671
 159   2.0000      -0.922431       -25.1006
 160   2.0000      -0.916534       -24.9402
 161   2.0000      -0.915792       -24.9200
 162   2.0000      -0.906419       -24.6649
 163   2.0000      -0.904133       -24.6027
 164   2.0000      -0.888968       -24.1900
 165   2.0000      -0.888194       -24.1690
 166   2.0000      -0.885508       -24.0959
 167   2.0000      -0.882386       -24.0109
 168   2.0000      -0.876476       -23.8501
 169   2.0000      -0.876241       -23.8437
 170   2.0000      -0.869958       -23.6728
 171   2.0000      -0.865951       -23.5637
 172   2.0000      -0.861215       -23.4348
 173   2.0000      -0.858635       -23.3646
 174   2.0000      -0.846117       -23.0240
 175   2.0000      -0.824960       -22.4483
 176   2.0000      -0.809356       -22.0237
 177   2.0000      -0.799924       -21.7670
 178   2.0000      -0.794712       -21.6252
 179   2.0000      -0.788487       -21.4558
 180   2.0000      -0.782970       -21.3057
 181   2.0000      -0.775014       -21.0892
 182   2.0000      -0.774469       -21.0744
 183   2.0000      -0.768727       -20.9181
 184   2.0000      -0.749735       -20.4013
 185   2.0000      -0.732423       -19.9302
 186   2.0000      -0.723030       -19.6746
 187   2.0000      -0.719656       -19.5828
 188   2.0000      -0.711994       -19.3743
 189   2.0000      -0.708779       -19.2868
 190   2.0000      -0.704974       -19.1833
 191   2.0000      -0.702798       -19.1241
 192   2.0000      -0.701303       -19.0834
 193   2.0000      -0.696648       -18.9567
 194   2.0000      -0.694232       -18.8910
 195   2.0000      -0.691182       -18.8080
 196   2.0000      -0.687539       -18.7089
 197   2.0000      -0.686764       -18.6878
 198   2.0000      -0.665053       -18.0970
 199   2.0000      -0.661448       -17.9989
 200   2.0000      -0.649832       -17.6828
 201   2.0000      -0.647677       -17.6242
 202   2.0000      -0.644592       -17.5402
 203   2.0000      -0.643188       -17.5020
 204   2.0000      -0.636617       -17.3232
 205   2.0000      -0.635635       -17.2965
 206   2.0000      -0.631252       -17.1772
 207   2.0000      -0.626740       -17.0545
 208   2.0000      -0.622931       -16.9508
 209   2.0000      -0.621980       -16.9249
 210   2.0000      -0.616856       -16.7855
 211   2.0000      -0.614517       -16.7219
 212   2.0000      -0.599407       -16.3107
 213   2.0000      -0.595390       -16.2014
 214   2.0000      -0.589230       -16.0338
 215   2.0000      -0.586026       -15.9466
 216   2.0000      -0.577748       -15.7213
 217   2.0000      -0.566782       -15.4229
 218   2.0000      -0.565620       -15.3913
 219   2.0000      -0.562476       -15.3058
 220   2.0000      -0.561887       -15.2897
 221   2.0000      -0.559737       -15.2312
 222   2.0000      -0.556238       -15.1360
 223   2.0000      -0.549881       -14.9630
 224   2.0000      -0.549378       -14.9493
 225   2.0000      -0.547809       -14.9066
 226   2.0000      -0.546024       -14.8581
 227   2.0000      -0.544050       -14.8044
 228   2.0000      -0.541736       -14.7414
 229   2.0000      -0.537278       -14.6201
 230   2.0000      -0.535375       -14.5683
 231   2.0000      -0.534874       -14.5547
 232   2.0000      -0.528929       -14.3929
 233   2.0000      -0.525287       -14.2938
 234   2.0000      -0.522973       -14.2308
 235   2.0000      -0.522224       -14.2104
 236   2.0000      -0.518641       -14.1129
 237   2.0000      -0.517193       -14.0735
 238   2.0000      -0.515642       -14.0313
 239   2.0000      -0.514673       -14.0050
 240   2.0000      -0.514141       -13.9905
 241   2.0000      -0.510435       -13.8896
 242   2.0000      -0.508413       -13.8346
 243   2.0000      -0.506048       -13.7703
 244   2.0000      -0.502946       -13.6858
 245   2.0000      -0.502612       -13.6768
 246   2.0000      -0.499593       -13.5946
 247   2.0000      -0.498531       -13.5657
 248   2.0000      -0.495622       -13.4866
 249   2.0000      -0.492108       -13.3910
 250   2.0000      -0.489270       -13.3137
 251   2.0000      -0.486484       -13.2379
 252   2.0000      -0.484476       -13.1833
 253   2.0000      -0.480667       -13.0796
 254   2.0000      -0.479177       -13.0391
 255   2.0000      -0.474909       -12.9229
 256   2.0000      -0.472339       -12.8530
 257   2.0000      -0.471853       -12.8398
 258   2.0000      -0.471443       -12.8286
 259   2.0000      -0.471145       -12.8205
 260   2.0000      -0.469952       -12.7881
 261   2.0000      -0.469837       -12.7849
 262   2.0000      -0.468392       -12.7456
 263   2.0000      -0.465368       -12.6633
 264   2.0000      -0.463709       -12.6182
 265   2.0000      -0.459235       -12.4964
 266   2.0000      -0.457694       -12.4545
 267   2.0000      -0.456768       -12.4293
 268   2.0000      -0.456501       -12.4220
 269   2.0000      -0.456131       -12.4120
 270   2.0000      -0.455328       -12.3901
 271   2.0000      -0.454717       -12.3735
 272   2.0000      -0.454392       -12.3646
 273   2.0000      -0.453882       -12.3507
 274   2.0000      -0.451632       -12.2895
 275   2.0000      -0.451043       -12.2735
 276   2.0000      -0.450930       -12.2704
 277   2.0000      -0.449318       -12.2266
 278   2.0000      -0.449043       -12.2191
 279   2.0000      -0.448751       -12.2111
 280   2.0000      -0.447730       -12.1834
 281   2.0000      -0.447153       -12.1677
 282   2.0000      -0.440214       -11.9788
 283   2.0000      -0.438336       -11.9277
 284   2.0000      -0.437418       -11.9027
 285   2.0000      -0.434989       -11.8367
 286   2.0000      -0.434787       -11.8311
 287   2.0000      -0.433726       -11.8023
 288   2.0000      -0.431610       -11.7447
 289   2.0000      -0.430400       -11.7118
 290   2.0000      -0.428688       -11.6652
 291   2.0000      -0.424406       -11.5487
 292   2.0000      -0.421536       -11.4706
 293   2.0000      -0.418059       -11.3760
 294   2.0000      -0.415215       -11.2986
 295   2.0000      -0.408442       -11.1143
 296   2.0000      -0.404585       -11.0093
 297   2.0000      -0.398226       -10.8363
 298   2.0000      -0.384097       -10.4518
 299   2.0000      -0.373140       -10.1536
 300   2.0000      -0.370066       -10.0700
 301   2.0000      -0.369668       -10.0592
 302   2.0000      -0.368030       -10.0146
 303   2.0000      -0.364404        -9.9159
 304   2.0000      -0.361649        -9.8410
 305   2.0000      -0.358605        -9.7581
 306   2.0000      -0.355946        -9.6858
 307   2.0000      -0.355421        -9.6715
 308   2.0000      -0.350238        -9.5305
 309   2.0000      -0.345747        -9.4083
 310   2.0000      -0.340883        -9.2759
 311   2.0000      -0.335527        -9.1301
 312   2.0000      -0.334673        -9.1069
 313   2.0000      -0.331259        -9.0140
 314   2.0000      -0.316031        -8.5996
 315   2.0000      -0.313758        -8.5378
 316   2.0000      -0.304578        -8.2880
 317   2.0000      -0.278395        -7.5755
 318   2.0000      -0.253451        -6.8967
 319   0.0000      -0.127436        -3.4677
 320   0.0000      -0.119781        -3.2594
 321   0.0000      -0.116445        -3.1686
 322   0.0000      -0.094702        -2.5770
 323   0.0000      -0.094336        -2.5670

MULLIKEN ATOMIC CHARGES
-----------------------
   0 C :    0.155228
   1 O :   -0.146577
   2 C :   -0.024599
   3 C :    0.033029
   4 C :   -0.024025
   5 C :    0.050536
   6 C :   -0.005109
   7 C :   -0.009196
   8 Br:   -0.015053
   9 C :    0.293565
  10 C :   -0.338650
  11 C :   -0.188551
  12 N :    0.155042
  13 C :   -0.198917
  14 N :    0.157759
  15 C :   -0.093514
  16 C :    0.036609
  17 C :   -0.119060
  18 C :    0.025891
  19 C :   -0.020857
  20 C :   -0.076585
  21 S :    0.211776
  22 C :   -0.105451
  23 C :    0.024874
  24 C :    0.303704
  25 C :   -0.290842
  26 C :   -0.186367
  27 N :    0.173385
  28 C :   -0.186685
  29 N :    0.193006
  30 C :   -0.067904
  31 C :   -0.042141
  32 S :    0.206460
  33 C :   -0.055374
  34 C :   -0.059638
  35 C :    0.013669
  36 C :   -0.096220
  37 S :    0.205519
  38 C :   -0.095364
  39 C :    0.022772
  40 C :    0.296573
  41 C :   -0.292487
  42 C :   -0.188464
  43 N :    0.178415
  44 C :   -0.183293
  45 N :    0.177234
  46 C :   -0.069424
  47 C :   -0.050433
  48 S :    0.205017
  49 C :   -0.043278
  50 C :   -0.073003
  51 C :    0.030628
  52 C :   -0.105299
  53 S :    0.205977
  54 C :   -0.069750
  55 C :   -0.007935
  56 C :    0.301488
  57 C :   -0.286647
  58 C :   -0.179853
  59 N :    0.174161
  60 C :   -0.189566
  61 N :    0.179389
  62 C :    0.000596
  63 C :   -0.113326
  64 S :    0.220656
  65 C :    0.087642
  66 C :   -0.141063
  67 C :    0.137523
  68 O :   -0.136152
  69 C :   -0.003501
  70 C :    0.013443
  71 C :    0.262006
  72 C :   -0.324998
  73 C :   -0.173162
  74 N :    0.165007
  75 C :   -0.201739
  76 N :    0.169229
  77 C :   -0.022545
  78 C :    0.051046
  79 C :   -0.007439
  80 C :   -0.012372
  81 Br:   -0.016357
  82 H :    0.009535
  83 H :    0.007522
  84 H :    0.006339
  85 H :    0.019619
  86 H :    0.036334
  87 H :    0.015612
  88 H :    0.014373
  89 H :    0.014517
  90 H :    0.015495
  91 H :    0.026547
  92 H :    0.022129
  93 H :    0.017470
  94 H :    0.008603
  95 H :    0.005817
Sum of atomic charges:   -0.0000000

LOEWDIN ATOMIC CHARGES
----------------------
   0 C :    0.086241
   1 O :   -0.131889
   2 C :   -0.037205
   3 C :   -0.016702
   4 C :    0.008700
   5 C :   -0.012117
   6 C :   -0.097603
   7 C :    0.001871
   8 Br:    0.119166
   9 C :    0.074830
  10 C :   -0.137737
  11 C :   -0.019210
  12 N :   -0.048311
  13 C :   -0.024680
  14 N :   -0.049309
  15 C :   -0.098565
  16 C :    0.044606
  17 C :   -0.178891
  18 C :    0.024204
  19 C :   -0.075813
  20 C :   -0.157288
  21 S :    0.497689
  22 C :   -0.190577
  23 C :   -0.049730
  24 C :    0.075917
  25 C :   -0.090926
  26 C :   -0.014878
  27 N :   -0.029455
  28 C :   -0.020810
  29 N :   -0.014040
  30 C :   -0.041343
  31 C :   -0.167877
  32 S :    0.490562
  33 C :   -0.182113
  34 C :   -0.032163
  35 C :   -0.066891
  36 C :   -0.176379
  37 S :    0.493117
  38 C :   -0.178713
  39 C :   -0.065650
  40 C :    0.080871
  41 C :   -0.096536
  42 C :   -0.016415
  43 N :   -0.027626
  44 C :   -0.016344
  45 N :   -0.027814
  46 C :   -0.034454
  47 C :   -0.179507
  48 S :    0.492703
  49 C :   -0.171513
  50 C :   -0.038943
  51 C :   -0.053898
  52 C :   -0.184747
  53 S :    0.492092
  54 C :   -0.157858
  55 C :   -0.067314
  56 C :    0.081670
  57 C :   -0.094731
  58 C :   -0.012871
  59 N :   -0.028464
  60 C :   -0.016497
  61 N :   -0.027607
  62 C :    0.010798
  63 C :   -0.182360
  64 S :    0.503696
  65 C :    0.043931
  66 C :   -0.092928
  67 C :    0.084596
  68 O :   -0.135444
  69 C :   -0.040744
  70 C :   -0.012640
  71 C :    0.064081
  72 C :   -0.133265
  73 C :   -0.020141
  74 N :   -0.041173
  75 C :   -0.015676
  76 N :   -0.043775
  77 C :    0.008878
  78 C :   -0.009886
  79 C :   -0.098848
  80 C :    0.001256
  81 Br:    0.118135
  82 H :    0.043259
  83 H :    0.040978
  84 H :    0.045364
  85 H :    0.044120
  86 H :    0.045203
  87 H :    0.036650
  88 H :    0.037108
  89 H :    0.036932
  90 H :    0.036858
  91 H :    0.042807
  92 H :    0.046656
  93 H :    0.045073
  94 H :    0.041429
  95 H :    0.044834

  Mayer bond orders larger than 0.100000
B(  0-C ,  1-O ) :   2.1932 B(  0-C ,  2-C ) :   0.9468 B(  0-C , 15-C ) :   0.9483
B(  2-C ,  3-C ) :   1.3341 B(  2-C ,  7-C ) :   1.3787 B(  3-C ,  4-C ) :   1.3611
B(  3-C ,  9-C ) :   0.9926 B(  4-C ,  5-C ) :   1.3833 B(  4-C , 82-H ) :   0.9851
B(  5-C ,  6-C ) :   1.3873 B(  5-C , 83-H ) :   0.9846 B(  6-C ,  7-C ) :   1.3352
B(  6-C ,  8-Br) :   0.9958 B(  7-C , 84-H ) :   1.0083 B(  9-C , 10-C ) :   1.6388
B(  9-C , 15-C ) :   1.0771 B( 10-C , 11-C ) :   1.1399 B( 10-C , 13-C ) :   1.1374
B( 11-C , 12-N ) :   2.9783 B( 13-C , 14-N ) :   2.9873 B( 15-C , 16-C ) :   1.5913
B( 16-C , 17-C ) :   1.2093 B( 16-C , 85-H ) :   0.9225 B( 17-C , 18-C ) :   1.4002
B( 17-C , 21-S ) :   1.0724 B( 18-C , 19-C ) :   1.3384 B( 18-C , 86-H ) :   0.9737
B( 19-C , 20-C ) :   1.3757 B( 19-C , 24-C ) :   0.9965 B( 20-C , 21-S ) :   1.1692
B( 20-C , 22-C ) :   1.2062 B( 22-C , 23-C ) :   1.4389 B( 22-C , 32-S ) :   1.1058
B( 23-C , 24-C ) :   0.9923 B( 23-C , 30-C ) :   1.3118 B( 24-C , 25-C ) :   1.7226
B( 25-C , 26-C ) :   1.1330 B( 25-C , 28-C ) :   1.1341 B( 26-C , 27-N ) :   2.9879
B( 28-C , 29-N ) :   2.9941 B( 30-C , 31-C ) :   1.4434 B( 30-C , 87-H ) :   0.9856
B( 31-C , 32-S ) :   1.1225 B( 31-C , 33-C ) :   1.1750 B( 33-C , 34-C ) :   1.4522
B( 33-C , 37-S ) :   1.1082 B( 34-C , 35-C ) :   1.3061 B( 34-C , 88-H ) :   0.9865
B( 35-C , 36-C ) :   1.4432 B( 35-C , 40-C ) :   0.9935 B( 36-C , 37-S ) :   1.1257
B( 36-C , 38-C ) :   1.1885 B( 38-C , 39-C ) :   1.4391 B( 38-C , 48-S ) :   1.1244
B( 39-C , 40-C ) :   0.9927 B( 39-C , 46-C ) :   1.3068 B( 40-C , 41-C ) :   1.7217
B( 41-C , 42-C ) :   1.1345 B( 41-C , 44-C ) :   1.1290 B( 42-C , 43-N ) :   2.9912
B( 44-C , 45-N ) :   2.9924 B( 46-C , 47-C ) :   1.4544 B( 46-C , 89-H ) :   0.9866
B( 47-C , 48-S ) :   1.1091 B( 47-C , 49-C ) :   1.1718 B( 49-C , 50-C ) :   1.4479
B( 49-C , 53-S ) :   1.1189 B( 50-C , 51-C ) :   1.3116 B( 50-C , 90-H ) :   0.9860
B( 51-C , 52-C ) :   1.4396 B( 51-C , 56-C ) :   0.9898 B( 52-C , 53-S ) :   1.1128
B( 52-C , 54-C ) :   1.1972 B( 54-C , 55-C ) :   1.4081 B( 54-C , 64-S ) :   1.1579
B( 55-C , 56-C ) :   1.0001 B( 55-C , 62-C ) :   1.3635 B( 56-C , 57-C ) :   1.7230
B( 57-C , 58-C ) :   1.1311 B( 57-C , 60-C ) :   1.1343 B( 58-C , 59-N ) :   2.9837
B( 60-C , 61-N ) :   2.9914 B( 62-C , 63-C ) :   1.3910 B( 62-C , 91-H ) :   0.9783
B( 63-C , 64-S ) :   1.0880 B( 63-C , 65-C ) :   1.1425 B( 65-C , 66-C ) :   1.6660
B( 65-C , 92-H ) :   0.9291 B( 66-C , 67-C ) :   0.9481 B( 66-C , 71-C ) :   1.0386
B( 67-C , 68-O ) :   2.2690 B( 67-C , 69-C ) :   0.9190 B( 69-C , 70-C ) :   1.3351
B( 69-C , 80-C ) :   1.3819 B( 70-C , 71-C ) :   1.0029 B( 70-C , 77-C ) :   1.3681
B( 71-C , 72-C ) :   1.6546 B( 72-C , 73-C ) :   1.1243 B( 72-C , 75-C ) :   1.1708
B( 73-C , 74-N ) :   2.9994 B( 75-C , 76-N ) :   2.9971 B( 77-C , 78-C ) :   1.3813
B( 77-C , 93-H ) :   0.9874 B( 78-C , 79-C ) :   1.3899 B( 78-C , 94-H ) :   0.9849
B( 79-C , 80-C ) :   1.3390 B( 79-C , 81-Br) :   0.9955 B( 80-C , 95-H ) :   1.0079

-----------------------------------------------------------------------------
         ABSORPTION SPECTRUM VIA TRANSITION ELECTRIC DIPOLE MOMENTS
-----------------------------------------------------------------------------
State   Energy  Wavelength   fosc         T2         TX        TY        TZ
        (cm-1)    (nm)                  (au**2)     (au)      (au)      (au)
-----------------------------------------------------------------------------
   0   11250.5    888.9   0.669584110  19.59344   1.22035   3.82828   1.85700
   1   12702.9    787.2   0.189977674   4.92350  -0.51816  -1.88472  -1.05016
   2   13157.8    760.0   0.084805059   2.12185  -0.70238  -1.20371  -0.42378
   3   19569.0    511.0   1.594956781  26.83223   1.40407   4.25405   2.60074
   4   20218.9    494.6   0.031485811   0.51267  -0.34554  -0.58446  -0.22731
   5   20793.7    480.9   0.291133897   4.60932  -0.89671  -1.86973  -0.55618
   6   22202.5    450.4   0.254178199   3.76887  -0.67080  -1.36771  -1.20344
   7   22630.9    441.9   0.060576207   0.88120  -0.26788  -0.83070  -0.34551
   8   25585.7    390.8   0.264096821   3.39814  -0.47785  -1.69097  -0.55717
   9   26411.3    378.6   0.016694204   0.20809  -0.10716   0.37944   0.22942
  10   26769.2    373.6   0.090792823   1.11658   0.57054   0.88938   0.00889
  11   27148.5    368.3   0.226285773   2.74402  -0.11281   1.61529   0.34947
  12   27370.2    365.4   0.067053088   0.80652  -0.59556  -0.62800   0.23969
  13   28064.9    356.3   0.013894348   0.16299   0.03856  -0.38278   0.12237
  14   28435.6    351.7   0.061370506   0.71051  -0.49484   0.62294   0.27855
  15   28833.0    346.8   0.035883730   0.40972  -0.58706  -0.14916  -0.20696
  16   29231.3    342.1   0.035381875   0.39848  -0.32068  -0.54295  -0.02924
  17   29656.9    337.2   0.264096980   2.93166  -0.22976  -1.43396  -0.90699
  18   30207.0    331.0   0.165103562   1.79939  -0.80558  -0.98953  -0.41384
  19   30426.8    328.7   0.009986719   0.10805  -0.06668   0.21157   0.24258
  20   30856.0    324.1   0.518096136   5.52772   1.13877  -0.05157  -2.05627
  21   31018.4    322.4   0.117004711   1.24182   0.90397   0.43077  -0.48898
  22   31323.0    319.3   0.300033233   3.15342   1.00954  -0.69118  -1.28706
  23   31667.7    315.8   0.140650689   1.46218   0.43330   1.08872  -0.29855
  24   31707.2    315.4   0.917634137   9.52768   1.26418   0.87685  -2.67594
  25   32433.0    308.3   0.168248605   1.70781  -1.16372  -0.56017   0.19943
  26   32824.7    304.6   0.085942863   0.86195  -0.70664  -0.11409   0.59127
  27   32911.9    303.8   0.058467255   0.58484   0.17595   0.19839  -0.71730
  28   33141.5    301.7   0.036810796   0.36566  -0.03482   0.37063   0.47654
  29   33221.1    301.0   0.090989679   0.90168  -0.17359  -0.12399   0.92530
  30   33370.9    299.7   0.199020151   1.96338   0.02713  -1.34970  -0.37543
  31   33402.5    299.4   0.103591342   1.02099  -0.13958  -0.74734  -0.66557
  32   34007.0    294.1   0.060997486   0.59050  -0.64244  -0.33858   0.25127
  33   34090.1    293.3   0.032424393   0.31313   0.10791  -0.48177  -0.26341
  34   34211.1    292.3   0.034403710   0.33107   0.40831  -0.10327  -0.39202
  35   34455.0    290.2   0.052312695   0.49984  -0.58459   0.10968   0.38218
  36   34657.9    288.5   0.337232089   3.20334   0.75892   1.60255   0.24335
  37   34758.3    287.7   0.082360789   0.78008   0.64876  -0.03800  -0.59811
  38   34937.8    286.2   0.149441153   1.40815  -0.33546  -1.13698   0.05386
  39   35010.2    285.6   0.010822256   0.10177   0.07512   0.20469   0.23286
  40   35271.8    283.5   0.154738399   1.44426  -1.06393  -0.17617   0.53036
  41   35371.9    282.7   0.163530943   1.52201   0.16133   0.69081  -1.00934
  42   35596.8    280.9   0.307562420   2.84445  -1.20379   1.08009   0.47829
  43   35833.3    279.1   0.178815022   1.64283   0.69710   0.62447  -0.87574
  44   35886.6    278.7   0.113180078   1.03828   0.45240  -0.65883  -0.63210
  45   36078.7    277.2   0.141039559   1.28696  -0.36812  -0.83849   0.66962
  46   36231.1    276.0   0.280860398   2.55202  -0.85533   1.25393   0.49808
  47   36675.6    272.7   0.043498290   0.39045  -0.20723  -0.34511   0.47792
  48   37083.0    269.7   0.044184051   0.39225   0.14386   0.43431  -0.42771
  49   37221.3    268.7   0.008325863   0.07364  -0.09563   0.25143  -0.03572
  50   37541.3    266.4   0.020307515   0.17808   0.21250   0.33128  -0.15226
  51   37783.4    264.7   0.096818000   0.84359   0.55342  -0.02130  -0.73270
  52   37912.3    263.8   0.019652010   0.17065  -0.11649  -0.26064   0.29857
  53   38350.9    260.8   0.035799093   0.30731   0.41777  -0.01309  -0.36415
  54   38631.7    258.9   0.002169936   0.01849   0.12566  -0.00503   0.05173
  55   38909.8    257.0   0.008581480   0.07261   0.01331  -0.17976   0.20029
  56   38978.9    256.5   0.003540108   0.02990  -0.08747  -0.13922  -0.05353
  57   39318.0    254.3   0.004513567   0.03779  -0.11141  -0.15783  -0.02166
  58   39364.1    254.0   0.006616933   0.05534  -0.14153  -0.16943   0.08126
  59   39530.2    253.0   0.014775927   0.12306  -0.12376   0.13710  -0.29823
  60   39924.6    250.5   0.031019532   0.25578   0.05481   0.41715   0.28066
  61   40214.5    248.7   0.015576515   0.12752   0.17657   0.29368   0.10045

FINAL SINGLE POINT ENERGY    -10601.184155512634

DIPOLE MOMENT
-------------
                                X             Y             Z
Electronic contribution:     59.99520     -25.92466     -31.47763
Nuclear contribution   :    -58.90436      24.00667      32.40236
                        -----------------------------------------
Total Dipole Moment    :      1.09084      -1.91799       0.92474
                        -----------------------------------------
Magnitude (a.u.)       :      2.39244
Magnitude (Debye)      :      6.08109

Rotational constants in cm-1:     0.001689     0.000099     0.000095
Rotational constants in MHz :    50.640729     2.955256     2.845805

                             ****ORCA TERMINATED NORMALLY****
TOTAL RUN TIME: 0 days 0 hours 11 minutes 17 seconds 317 msec
