                         Program Version 4.2.0 -  RELEASE  -
|  1> # ORCA input file
|  2> # SCF done       -173.687288503911          0.000823805401
|  3> ! CAM-B3LYP def2-SVP def2/J RIJCOSX Grid4 TightSCF
|  4> %maxcore 5000
|  5> %tddft
|  6>     Mode sTDDFT
|  7>     Ethresh 5.0
|  8>     maxcore 5000
|  9> end
| 10>
| 11> %pal
| 12>   nprocs 6
| 13>   end
| 14> * xyz 0 1
| 15>    C       -6.50307        -5.13641         0.24687
| 16>    C       -5.27352        -5.22239         0.84869
| 17>    C       -5.08417        -5.96451         2.13714
| 18>    O       -6.04337        -6.48771         2.64693
| 19>    O       -3.88503        -6.01392         2.66647
| 20>    C       -4.43279        -4.48001        -0.05362
| 21>    N       -5.15795        -4.03321        -1.06145
| 22>    O       -6.42386        -4.43551        -0.87618
| 23>    C       -3.02238        -4.20401         0.03268
| 24>    N       -2.31912        -4.67193         1.04809
| 25>    C       -1.04578        -4.24505         0.85739
| 26>    C       -0.94411        -3.45172        -0.35906
| 27>    C        0.44143        -2.99072        -0.54742
| 28>    O        0.90116        -2.30055        -1.43252
| 29>    C        1.14090        -3.57182         0.61728
| 30>    C        0.18948        -4.33075         1.45369
| 31>    N        0.81629        -4.87320         2.52491
| 32>    C        2.06951        -4.50897         2.40786
| 33>    C        2.34179        -3.69395         1.23622
| 34>    C       -2.21132        -3.41791        -0.91122
| 35>    C       -2.69377        -2.80571        -2.09972
| 36>    C       -1.88535        -2.09533        -2.92354
| 37>    C       -2.26180        -1.44617        -4.14521
| 38>    C       -1.28401        -0.74773        -4.83515
| 39>    C       -1.59405        -0.09444        -6.03603
| 40>    C       -0.80055         0.66922        -6.89185
| 41>    C        0.64472         0.96920        -6.71568
| 42>    C        1.48361         0.43767        -7.89946
| 43>    N        2.82141         0.15827        -7.43527
| 44>    C        0.87845         2.47368        -6.48029
| 45>    N        2.26642         2.71800        -6.12281
| 46>    C       -1.65244         1.09281        -7.97782
| 47>    C       -1.40349         1.83408        -9.07353
| 48>    C       -2.47302         2.14232       -10.06841
| 49>    C       -3.80280         1.54019        -9.76631
| 50>    C       -4.03404         0.79178        -8.66990
| 51>    C       -2.99771         0.54712        -7.74014
| 52>    C       -2.95089        -0.16476        -6.55452
| 53>    C       -3.93156        -0.88339        -5.83440
| 54>    C       -3.59412        -1.49844        -4.67046
| 55>    C       -2.50359         3.64036       -10.23592
| 56>    C       -3.54154         4.41178        -9.89260
| 57>    C       -3.59506         5.83655       -10.00385
| 58>    N       -4.55170         6.49840        -9.36556
| 59>    C       -4.32920         7.80424        -9.59620
| 60>    C       -3.12487         7.99249       -10.41849
| 61>    C       -2.92776         9.41245       -10.74617
| 62>    O       -2.04236         9.91264       -11.41632
| 63>    C       -4.06877        10.05310       -10.08280
| 64>    C       -4.89449         9.04123        -9.38236
| 65>    N       -5.96531         9.62294        -8.79933
| 66>    C       -5.86844        10.89949        -9.09342
| 67>    C       -4.71792        11.23422        -9.90366
| 68>    C       -2.66956         6.73484       -10.72231
| 69>    C       -1.58815         6.43166       -11.61187
| 70>    C       -0.57975         7.30998       -11.77215
| 71>    C        0.44875         7.20135       -12.75559
| 72>    C        1.39679         8.12345       -13.17818
| 73>    C        1.72926         9.49742       -12.73274
| 74>    O        2.84969         9.91954       -12.84760
| 75>    O        0.76718        10.25305       -12.20391
| 76>    C        2.11195         7.41083       -14.17683
| 77>    N        1.63156         6.21334       -14.33416
| 78>    O        0.60656         6.06689       -13.46257
| 79>    H       -7.45516        -5.53178         0.53974
| 80>    H       -3.17702        -5.53453         2.13623
| 81>    H        2.79508        -4.81281         3.14184
| 82>    H        3.29955        -3.29806         0.96202
| 83>    H       -3.74440        -2.94639        -2.30056
| 84>    H       -0.84221        -1.99221        -2.65265
| 85>    H       -0.27929        -0.71339        -4.44029
| 86>    H        1.00493         0.43701        -5.83019
| 87>    H        1.44755         1.16587        -8.72591
| 88>    H        1.04322        -0.49941        -8.25697
| 89>    H        3.24861         1.01791        -7.10401
| 90>    H        3.39313        -0.24511        -8.16708
| 91>    H        0.16413         2.81689        -5.71214
| 92>    H        0.66924         3.03237        -7.39645
| 93>    H        2.47487         2.28657        -5.22745
| 94>    H        2.43770         3.71357        -6.03218
| 95>    H       -0.42900         2.25378        -9.27474
| 96>    H       -2.13549         1.73925       -11.03914
| 97>    H       -4.58276         1.72903       -10.48789
| 98>    H       -5.01013         0.36641        -8.48969
| 99>    H       -4.94041        -0.93608        -6.21570
|100>    H       -4.34193        -2.04701        -4.12047
|101>    H       -1.58927         4.07238       -10.61679
|102>    H       -4.42296         3.97287        -9.44470
|103>    H       -6.60630        11.59556        -8.73455
|104>    H       -4.46627        12.21399       -10.25827
|105>    H       -1.63734         5.53542       -12.21389
|106>    H       -0.53047         8.18175       -11.13809
|107>    H       -0.14060         9.90270       -12.18951
|108>    H        2.93846         7.75945       -14.76078
|109> *
|110>
|111>                          ****END OF INPUT****

CARTESIAN COORDINATES (ANGSTROEM)
---------------------------------
  C     -6.503070   -5.136410    0.246870
  C     -5.273520   -5.222390    0.848690
  C     -5.084170   -5.964510    2.137140
  O     -6.043370   -6.487710    2.646930
  O     -3.885030   -6.013920    2.666470
  C     -4.432790   -4.480010   -0.053620
  N     -5.157950   -4.033210   -1.061450
  O     -6.423860   -4.435510   -0.876180
  C     -3.022380   -4.204010    0.032680
  N     -2.319120   -4.671930    1.048090
  C     -1.045780   -4.245050    0.857390
  C     -0.944110   -3.451720   -0.359060
  C      0.441430   -2.990720   -0.547420
  O      0.901160   -2.300550   -1.432520
  C      1.140900   -3.571820    0.617280
  C      0.189480   -4.330750    1.453690
  N      0.816290   -4.873200    2.524910
  C      2.069510   -4.508970    2.407860
  C      2.341790   -3.693950    1.236220
  C     -2.211320   -3.417910   -0.911220
  C     -2.693770   -2.805710   -2.099720
  C     -1.885350   -2.095330   -2.923540
  C     -2.261800   -1.446170   -4.145210
  C     -1.284010   -0.747730   -4.835150
  C     -1.594050   -0.094440   -6.036030
  C     -0.800550    0.669220   -6.891850
  C      0.644720    0.969200   -6.715680
  C      1.483610    0.437670   -7.899460
  N      2.821410    0.158270   -7.435270
  C      0.878450    2.473680   -6.480290
  N      2.266420    2.718000   -6.122810
  C     -1.652440    1.092810   -7.977820
  C     -1.403490    1.834080   -9.073530
  C     -2.473020    2.142320  -10.068410
  C     -3.802800    1.540190   -9.766310
  C     -4.034040    0.791780   -8.669900
  C     -2.997710    0.547120   -7.740140
  C     -2.950890   -0.164760   -6.554520
  C     -3.931560   -0.883390   -5.834400
  C     -3.594120   -1.498440   -4.670460
  C     -2.503590    3.640360  -10.235920
  C     -3.541540    4.411780   -9.892600
  C     -3.595060    5.836550  -10.003850
  N     -4.551700    6.498400   -9.365560
  C     -4.329200    7.804240   -9.596200
  C     -3.124870    7.992490  -10.418490
  C     -2.927760    9.412450  -10.746170
  O     -2.042360    9.912640  -11.416320
  C     -4.068770   10.053100  -10.082800
  C     -4.894490    9.041230   -9.382360
  N     -5.965310    9.622940   -8.799330
  C     -5.868440   10.899490   -9.093420
  C     -4.717920   11.234220   -9.903660
  C     -2.669560    6.734840  -10.722310
  C     -1.588150    6.431660  -11.611870
  C     -0.579750    7.309980  -11.772150
  C      0.448750    7.201350  -12.755590
  C      1.396790    8.123450  -13.178180
  C      1.729260    9.497420  -12.732740
  O      2.849690    9.919540  -12.847600
  O      0.767180   10.253050  -12.203910
  C      2.111950    7.410830  -14.176830
  N      1.631560    6.213340  -14.334160
  O      0.606560    6.066890  -13.462570
  H     -7.455160   -5.531780    0.539740
  H     -3.177020   -5.534530    2.136230
  H      2.795080   -4.812810    3.141840
  H      3.299550   -3.298060    0.962020
  H     -3.744400   -2.946390   -2.300560
  H     -0.842210   -1.992210   -2.652650
  H     -0.279290   -0.713390   -4.440290
  H      1.004930    0.437010   -5.830190
  H      1.447550    1.165870   -8.725910
  H      1.043220   -0.499410   -8.256970
  H      3.248610    1.017910   -7.104010
  H      3.393130   -0.245110   -8.167080
  H      0.164130    2.816890   -5.712140
  H      0.669240    3.032370   -7.396450
  H      2.474870    2.286570   -5.227450
  H      2.437700    3.713570   -6.032180
  H     -0.429000    2.253780   -9.274740
  H     -2.135490    1.739250  -11.039140
  H     -4.582760    1.729030  -10.487890
  H     -5.010130    0.366410   -8.489690
  H     -4.940410   -0.936080   -6.215700
  H     -4.341930   -2.047010   -4.120470
  H     -1.589270    4.072380  -10.616790
  H     -4.422960    3.972870   -9.444700
  H     -6.606300   11.595560   -8.734550
  H     -4.466270   12.213990  -10.258270
  H     -1.637340    5.535420  -12.213890
  H     -0.530470    8.181750  -11.138090
  H     -0.140600    9.902700  -12.189510
  H      2.938460    7.759450  -14.760780

 Total Charge           Charge          ....    0
 Multiplicity           Mult            ....    1
 Number of Electrons    NEL             ....  438
 Basis Dimension        Dim             .... 1046

ORBITAL ENERGIES
----------------

  NO   OCC          E(Eh)            E(eV)
   0   2.0000     -19.347594      -526.4748
   1   2.0000     -19.325502      -525.8736
   2   2.0000     -19.252003      -523.8736
   3   2.0000     -19.238766      -523.5134
   4   2.0000     -19.223003      -523.0845
   5   2.0000     -19.221980      -523.0567
   6   2.0000     -19.193432      -522.2798
   7   2.0000     -19.177043      -521.8339
   8   2.0000     -14.491175      -394.3249
   9   2.0000     -14.468102      -393.6971
  10   2.0000     -14.449197      -393.1826
  11   2.0000     -14.424588      -392.5130
  12   2.0000     -14.421243      -392.4220
  13   2.0000     -14.419140      -392.3647
  14   2.0000     -14.395087      -391.7102
  15   2.0000     -14.361513      -390.7966
  16   2.0000     -10.406214      -283.1675
  17   2.0000     -10.397598      -282.9330
  18   2.0000     -10.393584      -282.8238
  19   2.0000     -10.382895      -282.5329
  20   2.0000     -10.374574      -282.3065
  21   2.0000     -10.366593      -282.0893
  22   2.0000     -10.363161      -281.9960
  23   2.0000     -10.360198      -281.9153
  24   2.0000     -10.351464      -281.6777
  25   2.0000     -10.349433      -281.6224
  26   2.0000     -10.349395      -281.6213
  27   2.0000     -10.341515      -281.4069
  28   2.0000     -10.340301      -281.3739
  29   2.0000     -10.340257      -281.3727
  30   2.0000     -10.339247      -281.3452
  31   2.0000     -10.325615      -280.9743
  32   2.0000     -10.325393      -280.9682
  33   2.0000     -10.318874      -280.7908
  34   2.0000     -10.317583      -280.7557
  35   2.0000     -10.317088      -280.7422
  36   2.0000     -10.316738      -280.7327
  37   2.0000     -10.315562      -280.7007
  38   2.0000     -10.315397      -280.6962
  39   2.0000     -10.310445      -280.5615
  40   2.0000     -10.307758      -280.4884
  41   2.0000     -10.307234      -280.4741
  42   2.0000     -10.306625      -280.4575
  43   2.0000     -10.304580      -280.4019
  44   2.0000     -10.303059      -280.3605
  45   2.0000     -10.301374      -280.3146
  46   2.0000     -10.301092      -280.3070
  47   2.0000     -10.297246      -280.2023
  48   2.0000     -10.293722      -280.1064
  49   2.0000     -10.287276      -279.9310
  50   2.0000     -10.284277      -279.8494
  51   2.0000     -10.282628      -279.8045
  52   2.0000     -10.282466      -279.8001
  53   2.0000     -10.280705      -279.7522
  54   2.0000     -10.280271      -279.7404
  55   2.0000     -10.279708      -279.7251
  56   2.0000     -10.275292      -279.6049
  57   2.0000     -10.275232      -279.6033
  58   2.0000     -10.274667      -279.5879
  59   2.0000     -10.273134      -279.5462
  60   2.0000     -10.272131      -279.5189
  61   2.0000     -10.271856      -279.5114
  62   2.0000     -10.270777      -279.4820
  63   2.0000     -10.269635      -279.4510
  64   2.0000      -1.288461       -35.0608
  65   2.0000      -1.262920       -34.3658
  66   2.0000      -1.176805       -32.0225
  67   2.0000      -1.159656       -31.5558
  68   2.0000      -1.150394       -31.3038
  69   2.0000      -1.137119       -30.9426
  70   2.0000      -1.105203       -30.0741
  71   2.0000      -1.095186       -29.8015
  72   2.0000      -1.090038       -29.6614
  73   2.0000      -1.077303       -29.3149
  74   2.0000      -1.075624       -29.2692
  75   2.0000      -1.071869       -29.1670
  76   2.0000      -0.996770       -27.1235
  77   2.0000      -0.994367       -27.0581
  78   2.0000      -0.978475       -26.6257
  79   2.0000      -0.976868       -26.5819
  80   2.0000      -0.962984       -26.2041
  81   2.0000      -0.954629       -25.9768
  82   2.0000      -0.951216       -25.8839
  83   2.0000      -0.944574       -25.7032
  84   2.0000      -0.944078       -25.6897
  85   2.0000      -0.932311       -25.3695
  86   2.0000      -0.917585       -24.9687
  87   2.0000      -0.915719       -24.9180
  88   2.0000      -0.909662       -24.7532
  89   2.0000      -0.895303       -24.3624
  90   2.0000      -0.881435       -23.9851
  91   2.0000      -0.875037       -23.8110
  92   2.0000      -0.872603       -23.7447
  93   2.0000      -0.854549       -23.2535
  94   2.0000      -0.850257       -23.1367
  95   2.0000      -0.844083       -22.9687
  96   2.0000      -0.835469       -22.7343
  97   2.0000      -0.817036       -22.2327
  98   2.0000      -0.815868       -22.2009
  99   2.0000      -0.785912       -21.3858
 100   2.0000      -0.782532       -21.2938
 101   2.0000      -0.771436       -20.9918
 102   2.0000      -0.764274       -20.7969
 103   2.0000      -0.761468       -20.7206
 104   2.0000      -0.756432       -20.5836
 105   2.0000      -0.744765       -20.2661
 106   2.0000      -0.740326       -20.1453
 107   2.0000      -0.731408       -19.9026
 108   2.0000      -0.727708       -19.8020
 109   2.0000      -0.720026       -19.5929
 110   2.0000      -0.706243       -19.2178
 111   2.0000      -0.703730       -19.1495
 112   2.0000      -0.698648       -19.0112
 113   2.0000      -0.691660       -18.8210
 114   2.0000      -0.689488       -18.7619
 115   2.0000      -0.681042       -18.5321
 116   2.0000      -0.680278       -18.5113
 117   2.0000      -0.673791       -18.3348
 118   2.0000      -0.667320       -18.1587
 119   2.0000      -0.655704       -17.8426
 120   2.0000      -0.653945       -17.7948
 121   2.0000      -0.647161       -17.6101
 122   2.0000      -0.639887       -17.4122
 123   2.0000      -0.636022       -17.3070
 124   2.0000      -0.631541       -17.1851
 125   2.0000      -0.627539       -17.0762
 126   2.0000      -0.623119       -16.9559
 127   2.0000      -0.610004       -16.5991
 128   2.0000      -0.606395       -16.5009
 129   2.0000      -0.605166       -16.4674
 130   2.0000      -0.604678       -16.4541
 131   2.0000      -0.599662       -16.3176
 132   2.0000      -0.595538       -16.2054
 133   2.0000      -0.592936       -16.1346
 134   2.0000      -0.587457       -15.9855
 135   2.0000      -0.585096       -15.9213
 136   2.0000      -0.577744       -15.7212
 137   2.0000      -0.574212       -15.6251
 138   2.0000      -0.568805       -15.4780
 139   2.0000      -0.567299       -15.4370
 140   2.0000      -0.566030       -15.4024
 141   2.0000      -0.562212       -15.2986
 142   2.0000      -0.561784       -15.2869
 143   2.0000      -0.555397       -15.1131
 144   2.0000      -0.553414       -15.0592
 145   2.0000      -0.551551       -15.0085
 146   2.0000      -0.542568       -14.7640
 147   2.0000      -0.536866       -14.6089
 148   2.0000      -0.533804       -14.5255
 149   2.0000      -0.531873       -14.4730
 150   2.0000      -0.528699       -14.3866
 151   2.0000      -0.526795       -14.3348
 152   2.0000      -0.524394       -14.2695
 153   2.0000      -0.522021       -14.2049
 154   2.0000      -0.521046       -14.1784
 155   2.0000      -0.520084       -14.1522
 156   2.0000      -0.518757       -14.1161
 157   2.0000      -0.517350       -14.0778
 158   2.0000      -0.514400       -13.9975
 159   2.0000      -0.510021       -13.8784
 160   2.0000      -0.508144       -13.8273
 161   2.0000      -0.506282       -13.7766
 162   2.0000      -0.505205       -13.7473
 163   2.0000      -0.503218       -13.6933
 164   2.0000      -0.501733       -13.6529
 165   2.0000      -0.497721       -13.5437
 166   2.0000      -0.495822       -13.4920
 167   2.0000      -0.493713       -13.4346
 168   2.0000      -0.492785       -13.4094
 169   2.0000      -0.488458       -13.2916
 170   2.0000      -0.485449       -13.2097
 171   2.0000      -0.483378       -13.1534
 172   2.0000      -0.478804       -13.0289
 173   2.0000      -0.477746       -13.0001
 174   2.0000      -0.475938       -12.9509
 175   2.0000      -0.474317       -12.9068
 176   2.0000      -0.469028       -12.7629
 177   2.0000      -0.466739       -12.7006
 178   2.0000      -0.452387       -12.3101
 179   2.0000      -0.450562       -12.2604
 180   2.0000      -0.449080       -12.2201
 181   2.0000      -0.445845       -12.1321
 182   2.0000      -0.441049       -12.0016
 183   2.0000      -0.437075       -11.8934
 184   2.0000      -0.433083       -11.7848
 185   2.0000      -0.420164       -11.4332
 186   2.0000      -0.418316       -11.3829
 187   2.0000      -0.416529       -11.3343
 188   2.0000      -0.406561       -11.0631
 189   2.0000      -0.403980       -10.9928
 190   2.0000      -0.400301       -10.8927
 191   2.0000      -0.397896       -10.8273
 192   2.0000      -0.397485       -10.8161
 193   2.0000      -0.392775       -10.6880
 194   2.0000      -0.387426       -10.5424
 195   2.0000      -0.385864       -10.4999
 196   2.0000      -0.382307       -10.4031
 197   2.0000      -0.376545       -10.2463
 198   2.0000      -0.375720       -10.2239
 199   2.0000      -0.374568       -10.1925
 200   2.0000      -0.369482       -10.0541
 201   2.0000      -0.367033        -9.9875
 202   2.0000      -0.366926        -9.9846
 203   2.0000      -0.353223        -9.6117
 204   2.0000      -0.352928        -9.6037
 205   2.0000      -0.351490        -9.5645
 206   2.0000      -0.349707        -9.5160
 207   2.0000      -0.347939        -9.4679
 208   2.0000      -0.344479        -9.3737
 209   2.0000      -0.342236        -9.3127
 210   2.0000      -0.340139        -9.2556
 211   2.0000      -0.333822        -9.0838
 212   2.0000      -0.332667        -9.0523
 213   2.0000      -0.323800        -8.8111
 214   2.0000      -0.317093        -8.6285
 215   2.0000      -0.301794        -8.2122
 216   2.0000      -0.289485        -7.8773
 217   2.0000      -0.279997        -7.6191
 218   2.0000      -0.229508        -6.2452
 219   0.0000      -0.131046        -3.5660
 220   0.0000      -0.128607        -3.4996
 221   0.0000      -0.083619        -2.2754
 222   0.0000      -0.076688        -2.0868
 223   0.0000      -0.055868        -1.5203

MULLIKEN ATOMIC CHARGES
-----------------------
   0 C :    0.182444
   1 C :   -0.160718
   2 C :    0.173561
   3 O :   -0.198769
   4 O :   -0.166488
   5 C :   -0.013080
   6 N :    0.002712
   7 O :   -0.119696
   8 C :    0.096393
   9 N :   -0.112060
  10 C :    0.107058
  11 C :   -0.179491
  12 C :    0.226217
  13 O :   -0.136501
  14 C :   -0.005836
  15 C :   -0.035652
  16 N :   -0.049551
  17 C :    0.097838
  18 C :   -0.093784
  19 C :    0.035886
  20 C :   -0.027896
  21 C :    0.004619
  22 C :    0.113734
  23 C :   -0.102846
  24 C :    0.064804
  25 C :   -0.012892
  26 C :   -0.065276
  27 C :    0.155546
  28 N :   -0.223116
  29 C :    0.142661
  30 N :   -0.216686
  31 C :    0.095808
  32 C :   -0.129793
  33 C :    0.178082
  34 C :   -0.068030
  35 C :    0.029842
  36 C :   -0.000444
  37 C :    0.047056
  38 C :   -0.002332
  39 C :   -0.004393
  40 C :   -0.100957
  41 C :    0.045403
  42 C :    0.047832
  43 N :   -0.022593
  44 C :    0.087872
  45 C :   -0.173972
  46 C :    0.244565
  47 O :   -0.178380
  48 C :   -0.029654
  49 C :   -0.034850
  50 N :   -0.049447
  51 C :    0.094854
  52 C :   -0.081970
  53 C :    0.031426
  54 C :   -0.040379
  55 C :   -0.027318
  56 C :    0.174075
  57 C :   -0.145028
  58 C :    0.171054
  59 O :   -0.180234
  60 O :   -0.159926
  61 C :    0.037733
  62 N :    0.021304
  63 O :   -0.184016
  64 H :    0.055794
  65 H :    0.184991
  66 H :    0.018070
  67 H :    0.001388
  68 H :   -0.001770
  69 H :   -0.004152
  70 H :   -0.016545
  71 H :   -0.020049
  72 H :   -0.031526
  73 H :    0.000489
  74 H :    0.083432
  75 H :    0.084254
  76 H :   -0.000729
  77 H :   -0.021385
  78 H :    0.105269
  79 H :    0.098142
  80 H :   -0.001400
  81 H :    0.052351
  82 H :   -0.003380
  83 H :   -0.031587
  84 H :   -0.036017
  85 H :   -0.019718
  86 H :    0.017769
  87 H :    0.022397
  88 H :    0.017431
  89 H :    0.003089
  90 H :    0.027696
  91 H :    0.020211
  92 H :    0.189704
  93 H :    0.029459
Sum of atomic charges:   -0.0000000

LOEWDIN ATOMIC CHARGES
----------------------
   0 C :    0.102695
   1 C :   -0.126309
   2 C :    0.064662
   3 O :   -0.185755
   4 O :   -0.032680
   5 C :   -0.045512
   6 N :   -0.015292
   7 O :    0.065995
   8 C :    0.088011
   9 N :   -0.060269
  10 C :    0.051921
  11 C :   -0.065204
  12 C :    0.073827
  13 O :   -0.134621
  14 C :   -0.036365
  15 C :    0.030598
  16 N :   -0.092434
  17 C :    0.085138
  18 C :   -0.023157
  19 C :   -0.004711
  20 C :   -0.058074
  21 C :    0.036369
  22 C :   -0.032526
  23 C :    0.014888
  24 C :   -0.023964
  25 C :   -0.012343
  26 C :   -0.041440
  27 C :    0.031458
  28 N :   -0.123857
  29 C :    0.027110
  30 N :   -0.103425
  31 C :   -0.011719
  32 C :    0.064790
  33 C :   -0.029439
  34 C :   -0.045239
  35 C :   -0.005696
  36 C :   -0.042281
  37 C :   -0.022259
  38 C :   -0.009315
  39 C :   -0.015674
  40 C :    0.043123
  41 C :   -0.037230
  42 C :    0.075666
  43 N :   -0.093304
  44 C :    0.048189
  45 C :   -0.041648
  46 C :    0.084981
  47 O :   -0.157357
  48 C :   -0.041980
  49 C :    0.028062
  50 N :   -0.088470
  51 C :    0.081005
  52 C :   -0.025139
  53 C :   -0.028689
  54 C :   -0.008994
  55 C :   -0.019197
  56 C :    0.042460
  57 C :   -0.136635
  58 C :    0.073519
  59 O :   -0.160809
  60 O :   -0.023174
  61 C :    0.005636
  62 N :   -0.021694
  63 O :    0.020668
  64 H :    0.045224
  65 H :    0.034812
  66 H :    0.027394
  67 H :    0.037205
  68 H :    0.024637
  69 H :    0.031038
  70 H :    0.033073
  71 H :    0.027388
  72 H :   -0.006908
  73 H :    0.018341
  74 H :    0.036978
  75 H :    0.050428
  76 H :    0.004952
  77 H :    0.010819
  78 H :    0.058872
  79 H :    0.058395
  80 H :    0.025877
  81 H :    0.068526
  82 H :    0.026243
  83 H :    0.032722
  84 H :    0.028147
  85 H :    0.030600
  86 H :    0.030284
  87 H :    0.047197
  88 H :    0.027253
  89 H :    0.037966
  90 H :    0.037684
  91 H :    0.037964
  92 H :    0.078405
  93 H :    0.041586

  Mayer bond orders larger than 0.100000
B(  0-C ,  1-C ) :   1.5696 B(  0-C ,  7-O ) :   1.1957 B(  0-C , 64-H ) :   0.9735
B(  1-C ,  2-C ) :   0.8800 B(  1-C ,  5-C ) :   1.1592 B(  2-C ,  3-O ) :   2.1702
B(  2-C ,  4-O ) :   1.3564 B(  4-O , 65-H ) :   0.8502 B(  5-C ,  6-N ) :   1.6824
B(  5-C ,  8-C ) :   1.0205 B(  6-N ,  7-O ) :   1.0442 B(  8-C ,  9-N ) :   1.5985
B(  8-C , 10-C ) :   0.1114 B(  8-C , 19-C ) :   1.0464 B(  9-N , 10-C ) :   1.2569
B(  9-N , 65-H ) :   0.1994 B( 10-C , 11-C ) :   1.0887 B( 10-C , 15-C ) :   1.4521
B( 11-C , 12-C ) :   0.9025 B( 11-C , 19-C ) :   1.4882 B( 12-C , 13-O ) :   2.1821
B( 12-C , 14-C ) :   0.9278 B( 13-O , 69-H ) :   0.1056 B( 14-C , 15-C ) :   1.0563
B( 14-C , 18-C ) :   1.6296 B( 15-C , 16-N ) :   1.2991 B( 16-N , 17-C ) :   1.6693
B( 17-C , 18-C ) :   1.0468 B( 17-C , 66-H ) :   0.9891 B( 18-C , 67-H ) :   1.0119
B( 19-C , 20-C ) :   1.1696 B( 20-C , 21-C ) :   1.5655 B( 20-C , 68-H ) :   0.9433
B( 21-C , 22-C ) :   1.0923 B( 21-C , 69-H ) :   0.9745 B( 22-C , 23-C ) :   1.4728
B( 22-C , 39-C ) :   1.1193 B( 23-C , 24-C ) :   1.1215 B( 23-C , 70-H ) :   1.0108
B( 24-C , 25-C ) :   1.4839 B( 24-C , 37-C ) :   1.1096 B( 25-C , 26-C ) :   1.0334
B( 25-C , 31-C ) :   1.0842 B( 26-C , 27-C ) :   1.0185 B( 26-C , 29-C ) :   1.0436
B( 26-C , 71-H ) :   0.8787 B( 27-C , 28-N ) :   1.1174 B( 27-C , 72-H ) :   0.9207
B( 27-C , 73-H ) :   0.9479 B( 28-N , 74-H ) :   0.9438 B( 28-N , 75-H ) :   0.9670
B( 29-C , 30-N ) :   1.0873 B( 29-C , 76-H ) :   0.9462 B( 29-C , 77-H ) :   0.9315
B( 30-N , 78-H ) :   0.9618 B( 30-N , 79-H ) :   0.9670 B( 31-C , 32-C ) :   1.7032
B( 31-C , 36-C ) :   1.0415 B( 32-C , 33-C ) :   0.9491 B( 32-C , 80-H ) :   0.9550
B( 33-C , 34-C ) :   1.0148 B( 33-C , 40-C ) :   0.9429 B( 33-C , 81-H ) :   0.8453
B( 34-C , 35-C ) :   1.7167 B( 34-C , 82-H ) :   0.9636 B( 35-C , 36-C ) :   1.1323
B( 35-C , 83-H ) :   0.9919 B( 36-C , 37-C ) :   1.4478 B( 37-C , 38-C ) :   1.1345
B( 38-C , 39-C ) :   1.6228 B( 38-C , 84-H ) :   0.9908 B( 39-C , 85-H ) :   0.9862
B( 40-C , 41-C ) :   1.7767 B( 40-C , 86-H ) :   0.9686 B( 41-C , 42-C ) :   1.0992
B( 41-C , 87-H ) :   0.9437 B( 42-C , 43-N ) :   1.5989 B( 42-C , 44-C ) :   0.1045
B( 42-C , 53-C ) :   1.0137 B( 43-N , 44-C ) :   1.3537 B( 44-C , 45-C ) :   1.0411
B( 44-C , 49-C ) :   1.4181 B( 45-C , 46-C ) :   0.9159 B( 45-C , 53-C ) :   1.5923
B( 46-C , 47-O ) :   2.1169 B( 46-C , 48-C ) :   0.9390 B( 48-C , 49-C ) :   1.0594
B( 48-C , 52-C ) :   1.5950 B( 49-C , 50-N ) :   1.3266 B( 50-N , 51-C ) :   1.6429
B( 51-C , 52-C ) :   1.0782 B( 51-C , 88-H ) :   0.9898 B( 52-C , 89-H ) :   1.0118
B( 53-C , 54-C ) :   1.0469 B( 54-C , 55-C ) :   1.7189 B( 54-C , 90-H ) :   0.9665
B( 55-C , 56-C ) :   1.1256 B( 55-C , 91-H ) :   0.9471 B( 56-C , 57-C ) :   1.4610
B( 56-C , 63-O ) :   1.1791 B( 57-C , 58-C ) :   0.9054 B( 57-C , 61-C ) :   1.2022
B( 58-C , 59-O ) :   2.1879 B( 58-C , 60-O ) :   1.2744 B( 60-O , 92-H ) :   0.9124
B( 61-C , 62-N ) :   1.7385 B( 61-C , 93-H ) :   0.9932 B( 62-N , 63-O ) :   1.0006

-----------------------------------------------------------------------------
         ABSORPTION SPECTRUM VIA TRANSITION ELECTRIC DIPOLE MOMENTS
-----------------------------------------------------------------------------
State   Energy  Wavelength   fosc         T2         TX        TY        TZ
        (cm-1)    (nm)                  (au**2)     (au)      (au)      (au)
-----------------------------------------------------------------------------
   0    8327.5   1200.8   0.127959496   5.05862   0.48259  -1.34935   1.73349
   1    9330.9   1071.7   0.014264432   0.50328  -0.13834  -0.65578  -0.23257
   2   13777.8    725.8   0.068148700   1.62837   1.16289  -0.20393   0.48422
   3   16206.9    617.0   0.011570379   0.23503  -0.31702   0.13445  -0.34125
   4   19261.6    519.2   0.065455822   1.11875  -0.79601   0.52450   0.45828
   5   21225.4    471.1   0.000183002   0.00284  -0.01629   0.04637   0.02056
   6   21385.0    467.6   0.011690547   0.17997  -0.01126  -0.11724   0.40755
   7   21949.6    455.6   0.419193202   6.28728  -0.67397   1.37985  -1.98219
   8   22381.2    446.8   0.045366816   0.66731  -0.09847   0.60122  -0.54420
   9   22812.8    438.4   0.004947702   0.07140   0.02082   0.04897  -0.26186
  10   22921.9    436.3   0.007478227   0.10741   0.31790  -0.02360  -0.07606
  11   24215.4    413.0   0.012458556   0.16938   0.04632  -0.32357   0.25006
  12   24613.8    406.3   0.046742195   0.62518  -0.37630   0.45350  -0.52718
  13   24900.0    401.6   0.370426366   4.89755   0.71065  -2.03967   0.48193
  14   25454.4    392.9   0.314635977   4.06931  -0.13656  -1.02701   1.73087
  15   25523.0    391.8   0.000320103   0.00413   0.01968  -0.05787  -0.01980
  16   25861.6    386.7   0.048463861   0.61693  -0.32793   0.45424   0.55051
  17   26011.8    384.4   0.000965501   0.01222  -0.01664   0.10127   0.04107
  18   27138.0    368.5   0.296000175   3.59079  -0.84320   1.68952   0.15917
  19   27337.9    365.8   0.008406119   0.10123   0.14193   0.17592   0.22392
  20   28288.2    353.5   0.201578145   2.34592  -0.96733   0.36286  -1.13072
  21   28365.7    352.5   0.128614266   1.49270   1.02217   0.47940  -0.46694
  22   28722.2    348.2   0.030926548   0.35448   0.54037  -0.02498   0.24870
  23   29313.9    341.1   0.076858476   0.86316   0.81746  -0.06057   0.43733
  24   29487.4    339.1   0.084896269   0.94782   0.46841  -0.15513   0.83926
  25   29635.6    337.4   0.428293493   4.75778   2.02333  -0.72463  -0.37261
  26   29824.2    335.3   0.072906214   0.80477  -0.10044   0.22993   0.86129
  27   30186.0    331.3   0.507918837   5.53941   0.11020  -1.16735   2.04073
  28   30486.7    328.0   0.021628345   0.23355  -0.19490  -0.15636   0.41367
  29   30870.1    323.9   0.158329570   1.68850   0.89087   0.62860  -0.70690
  30   30997.6    322.6   0.000089624   0.00095   0.00887  -0.01918  -0.02248
  31   31569.6    316.8   0.001626018   0.01696   0.02406  -0.11386  -0.05843
  32   31723.3    315.2   0.034233132   0.35526  -0.59295  -0.05837   0.01627
  33   31861.0    313.9   0.013609382   0.14062  -0.06679   0.07733  -0.36081
  34   31968.7    312.8   0.164256005   1.69150   1.19807   0.01935   0.50571
  35   32302.7    309.6   0.215210717   2.19331   1.40591   0.01971   0.46512
  36   32657.2    306.2   0.059304777   0.59784  -0.57738   0.24640   0.45141
  37   33176.3    301.4   0.001196797   0.01188  -0.09914  -0.03300   0.03095
  38   33624.7    297.4   0.008166800   0.07996   0.02665   0.28116  -0.01415
  39   33833.2    295.6   0.009738934   0.09476   0.19984   0.15689  -0.17382
  40   34504.3    289.8   0.011561310   0.11031   0.17633   0.11983  -0.25467
  41   34653.2    288.6   0.068111373   0.64707   0.10343  -0.79141   0.10018
  42   35002.7    285.7   0.110266205   1.03709  -0.26832   0.79733  -0.57390
  43   35269.3    283.5   0.082222263   0.76748   0.15070   0.74373  -0.43777
  44   35401.4    282.5   0.000901026   0.00838   0.03687  -0.07282  -0.04144
  45   35693.2    280.2   0.119228926   1.09969   0.26807  -0.94706  -0.36182
  46   36018.8    277.6   0.310665709   2.83948   0.79312  -1.48675   0.00394
  47   36692.5    272.5   0.068672590   0.61614  -0.38831   0.49145   0.47311
  48   37040.5    270.0   0.107343347   0.95406   0.25585   0.35350  -0.87386
  49   37492.3    266.7   0.002457008   0.02157   0.09928   0.01050  -0.10774
  50   38257.6    261.4   0.016125363   0.13876  -0.16785  -0.30599   0.13022
  51   38464.9    260.0   0.106326870   0.91003   0.15809   0.49054  -0.80275
  52   38588.3    259.1   0.001901332   0.01622   0.02348   0.07845   0.09755
  53   38622.0    258.9   0.000061759   0.00053  -0.01793  -0.00355  -0.01386
  54   38734.0    258.2   0.050160764   0.42633   0.44130  -0.15832   0.45444
  55   39113.0    255.7   0.283664452   2.38759  -0.88502  -0.99672   0.78158
  56   39308.9    254.4   0.003503114   0.02934   0.16715   0.03724   0.00336
  57   39382.1    253.9   0.060775079   0.50805   0.69540   0.06971   0.14003
  58   39424.9    253.6   0.001611508   0.01346  -0.05470  -0.03956  -0.09434
  59   39701.5    251.9   0.015692976   0.13013   0.13565  -0.32581  -0.07467
  60   39798.9    251.3   0.028511240   0.23584  -0.19621   0.24148  -0.37287
  61   39978.4    250.1   0.049163007   0.40485  -0.40684   0.43820   0.21749
  62   40317.1    248.0   0.011587451   0.09462   0.10329  -0.28552  -0.04924

FINAL SINGLE POINT ENERGY     -2883.125146697301

DIPOLE MOMENT
-------------
                                X             Y             Z
Electronic contribution:    -21.82209      -2.28731      19.41230
Nuclear contribution   :     21.63388       3.42794     -20.87126
                        -----------------------------------------
Total Dipole Moment    :     -0.18821       1.14064      -1.45896
                        -----------------------------------------
Magnitude (a.u.)       :      1.86146
Magnitude (Debye)      :      4.73146

Rotational constants in cm-1:     0.002076     0.000346     0.000320
Rotational constants in MHz :    62.251690    10.366847     9.602074

                             ****ORCA TERMINATED NORMALLY****
TOTAL RUN TIME: 0 days 0 hours 7 minutes 52 seconds 5 msec
