                         Program Version 4.2.0 -  RELEASE  -
|  1> # ORCA input file
|  2> # SCF done       -204.072375114215          0.000507562753
|  3> ! CAM-B3LYP def2-SVP def2/J RIJCOSX Grid4 TightSCF
|  4> %maxcore 5000
|  5> %tddft
|  6>     Mode sTDDFT
|  7>     Ethresh 5.0
|  8>     maxcore 5000
|  9> end
| 10>
| 11> %pal
| 12>   nprocs 6
| 13>   end
| 14> * xyz 0 1
| 15>    C      -10.93598         6.83759        -9.66393
| 16>    C      -11.15023         8.17042        -9.90879
| 17>    C      -11.34301         8.71530       -11.19593
| 18>    N      -11.51014         9.22237       -12.21222
| 19>    C      -11.17788         9.19689        -8.94143
| 20>    N      -11.19750        10.09490        -8.22516
| 21>    C      -10.81261         5.80785       -10.68871
| 22>    C      -10.45964         4.58857       -10.06301
| 23>    C      -10.25521         3.42421       -10.76240
| 24>    C      -10.40891         3.46451       -12.15181
| 25>    C      -10.76869         4.68612       -12.77015
| 26>    C      -10.97379         5.86320       -12.06109
| 27>    S      -10.91214         4.51176       -14.49290
| 28>    C      -10.49007         2.82488       -14.36123
| 29>    C      -10.25449         2.41085       -13.09350
| 30>   Br      -10.40236         1.77035       -15.90923
| 31>    C      -10.36428         4.78887        -8.60478
| 32>    O      -10.10122         3.92993        -7.79009
| 33>    C      -10.71214         6.21058        -8.37188
| 34>    C      -10.92879         6.83570        -7.17247
| 35>    C      -10.67327         6.41330        -5.85508
| 36>    C       -9.95397         5.34481        -5.33164
| 37>    C       -9.92379         5.36092        -3.94533
| 38>    C      -10.63361         6.45084        -3.38430
| 39>    S      -11.31222         7.45815        -4.57153
| 40>    C      -10.55586         6.36184        -1.97817
| 41>    C       -9.79721         5.22418        -1.63906
| 42>    C       -9.36569         4.56646        -2.86589
| 43>    C       -8.58093         3.45606        -2.96320
| 44>    C       -8.16318         2.90969        -4.19674
| 45>    N       -7.78890         2.45305        -5.17888
| 46>    C       -8.10555         2.78088        -1.81832
| 47>    N       -7.72066         2.22931        -0.88969
| 48>    C       -9.65852         5.05393        -0.26744
| 49>    C      -10.30563         6.05427         0.44630
| 50>    S      -11.09833         7.22036        -0.59950
| 51>    C      -10.35410         6.19316         1.84865
| 52>    C      -10.95802         7.16968         2.61785
| 53>    S      -11.89030         8.56720         2.20639
| 54>    C      -12.07333         8.95647         3.91129
| 55>    C      -12.84760        10.16134         4.29414
| 56>    C      -11.45591         8.06904         4.72684
| 57>    C      -10.79737         7.02390         4.02126
| 58>    C      -10.04362         5.89613         4.34765
| 59>    S       -9.56332         5.04318         2.89924
| 60>    C       -9.63956         5.41001         5.61028
| 61>    C       -9.82453         5.99573         6.85560
| 62>    C       -9.27120         5.23450         7.87785
| 63>    C       -8.65557         4.05362         7.42060
| 64>    S       -8.76430         3.88759         5.72341
| 65>    C       -8.10901         3.37037         8.53126
| 66>    C       -8.38072         4.12269         9.69575
| 67>    C       -9.11477         5.31603         9.32250
| 68>    C       -9.54020         6.31665        10.14707
| 69>    C      -10.24871         7.43178         9.65485
| 70>    N      -10.83387         8.32631         9.23905
| 71>    C       -9.29493         6.28119        11.53577
| 72>    N       -9.09107         6.23492        12.66319
| 73>    C       -7.84352         3.55664        10.84315
| 74>    C       -7.15955         2.37819        10.57807
| 75>    S       -7.22417         1.95763         8.86751
| 76>    C       -6.49587         1.51401        11.47332
| 77>    C       -6.04652         1.76757        12.73495
| 78>    C       -5.82516         2.98303        13.48891
| 79>    C       -5.48943         4.21544        12.98897
| 80>    C       -5.15058         5.32430        13.79257
| 81>    N       -4.86461         6.25593        14.39839
| 82>    C       -5.34122         4.49923        11.61807
| 83>    N       -5.17826         4.77109        10.51423
| 84>    C       -5.73593         2.60737        14.89681
| 85>    C       -5.65742         1.19461        14.98835
| 86>    C       -5.76726         0.61434        13.63661
| 87>    O       -5.69483        -0.54945        13.31607
| 88>    C       -5.51655         0.54080        16.18837
| 89>    C       -5.46366         1.31639        17.35149
| 90>    C       -5.56474         2.72512        17.25013
| 91>    C       -5.69892         3.38775        16.03602
| 92>    S       -5.49121         3.48523        18.80974
| 93>    C       -5.32019         1.92391        19.56709
| 94>    C       -5.32186         0.88468        18.69857
| 95>   Br       -5.15743         1.81313        21.43165
| 96>    H       -9.98330         2.51340       -10.25243
| 97>    H      -11.25005         6.76567       -12.57982
| 98>    H       -9.98300         1.40472       -12.83098
| 99>    H      -11.38038         7.81978        -7.22195
|100>    H       -9.49268         4.59938        -5.95353
|101>    H       -9.12075         4.25724         0.21438
|102>    H      -13.87033        10.09120         3.92444
|103>    H      -12.40048        11.05518         3.85983
|104>    H      -12.86804        10.26617         5.37580
|105>    H      -11.48080         8.16525         5.79585
|106>    H      -10.32117         6.93485         6.99953
|107>    H       -7.97110         3.94878        11.83579
|108>    H       -6.37439         0.48534        11.14698
|109>    H       -5.44836        -0.53489        16.22964
|110>    H       -5.78126         4.46161        16.00635
|111>    H       -5.22672        -0.14427        18.99374
|112> *
|113>
|114>                          ****END OF INPUT****

CARTESIAN COORDINATES (ANGSTROEM)
---------------------------------
  C    -10.935980    6.837590   -9.663930
  C    -11.150230    8.170420   -9.908790
  C    -11.343010    8.715300  -11.195930
  N    -11.510140    9.222370  -12.212220
  C    -11.177880    9.196890   -8.941430
  N    -11.197500   10.094900   -8.225160
  C    -10.812610    5.807850  -10.688710
  C    -10.459640    4.588570  -10.063010
  C    -10.255210    3.424210  -10.762400
  C    -10.408910    3.464510  -12.151810
  C    -10.768690    4.686120  -12.770150
  C    -10.973790    5.863200  -12.061090
  S    -10.912140    4.511760  -14.492900
  C    -10.490070    2.824880  -14.361230
  C    -10.254490    2.410850  -13.093500
  Br   -10.402360    1.770350  -15.909230
  C    -10.364280    4.788870   -8.604780
  O    -10.101220    3.929930   -7.790090
  C    -10.712140    6.210580   -8.371880
  C    -10.928790    6.835700   -7.172470
  C    -10.673270    6.413300   -5.855080
  C     -9.953970    5.344810   -5.331640
  C     -9.923790    5.360920   -3.945330
  C    -10.633610    6.450840   -3.384300
  S    -11.312220    7.458150   -4.571530
  C    -10.555860    6.361840   -1.978170
  C     -9.797210    5.224180   -1.639060
  C     -9.365690    4.566460   -2.865890
  C     -8.580930    3.456060   -2.963200
  C     -8.163180    2.909690   -4.196740
  N     -7.788900    2.453050   -5.178880
  C     -8.105550    2.780880   -1.818320
  N     -7.720660    2.229310   -0.889690
  C     -9.658520    5.053930   -0.267440
  C    -10.305630    6.054270    0.446300
  S    -11.098330    7.220360   -0.599500
  C    -10.354100    6.193160    1.848650
  C    -10.958020    7.169680    2.617850
  S    -11.890300    8.567200    2.206390
  C    -12.073330    8.956470    3.911290
  C    -12.847600   10.161340    4.294140
  C    -11.455910    8.069040    4.726840
  C    -10.797370    7.023900    4.021260
  C    -10.043620    5.896130    4.347650
  S     -9.563320    5.043180    2.899240
  C     -9.639560    5.410010    5.610280
  C     -9.824530    5.995730    6.855600
  C     -9.271200    5.234500    7.877850
  C     -8.655570    4.053620    7.420600
  S     -8.764300    3.887590    5.723410
  C     -8.109010    3.370370    8.531260
  C     -8.380720    4.122690    9.695750
  C     -9.114770    5.316030    9.322500
  C     -9.540200    6.316650   10.147070
  C    -10.248710    7.431780    9.654850
  N    -10.833870    8.326310    9.239050
  C     -9.294930    6.281190   11.535770
  N     -9.091070    6.234920   12.663190
  C     -7.843520    3.556640   10.843150
  C     -7.159550    2.378190   10.578070
  S     -7.224170    1.957630    8.867510
  C     -6.495870    1.514010   11.473320
  C     -6.046520    1.767570   12.734950
  C     -5.825160    2.983030   13.488910
  C     -5.489430    4.215440   12.988970
  C     -5.150580    5.324300   13.792570
  N     -4.864610    6.255930   14.398390
  C     -5.341220    4.499230   11.618070
  N     -5.178260    4.771090   10.514230
  C     -5.735930    2.607370   14.896810
  C     -5.657420    1.194610   14.988350
  C     -5.767260    0.614340   13.636610
  O     -5.694830   -0.549450   13.316070
  C     -5.516550    0.540800   16.188370
  C     -5.463660    1.316390   17.351490
  C     -5.564740    2.725120   17.250130
  C     -5.698920    3.387750   16.036020
  S     -5.491210    3.485230   18.809740
  C     -5.320190    1.923910   19.567090
  C     -5.321860    0.884680   18.698570
  Br    -5.157430    1.813130   21.431650
  H     -9.983300    2.513400  -10.252430
  H    -11.250050    6.765670  -12.579820
  H     -9.983000    1.404720  -12.830980
  H    -11.380380    7.819780   -7.221950
  H     -9.492680    4.599380   -5.953530
  H     -9.120750    4.257240    0.214380
  H    -13.870330   10.091200    3.924440
  H    -12.400480   11.055180    3.859830
  H    -12.868040   10.266170    5.375800
  H    -11.480800    8.165250    5.795850
  H    -10.321170    6.934850    6.999530
  H     -7.971100    3.948780   11.835790
  H     -6.374390    0.485340   11.146980
  H     -5.448360   -0.534890   16.229640
  H     -5.781260    4.461610   16.006350
  H     -5.226720   -0.144270   18.993740

 Total Charge           Charge          ....    0
 Multiplicity           Mult            ....    1
 Number of Electrons    NEL             ....  652
 Basis Dimension        Dim             .... 1282

ORBITAL ENERGIES
----------------

  NO   OCC          E(Eh)            E(eV)
   0   2.0000    -482.886462    -13140.0086
   1   2.0000    -482.885326    -13139.9778
   2   2.0000     -89.001857     -2421.8637
   3   2.0000     -88.999769     -2421.8068
   4   2.0000     -88.999226     -2421.7921
   5   2.0000     -88.997083     -2421.7338
   6   2.0000     -88.985349     -2421.4144
   7   2.0000     -88.976586     -2421.1760
   8   2.0000     -88.975384     -2421.1433
   9   2.0000     -88.971401     -2421.0349
  10   2.0000     -62.564154     -1702.4572
  11   2.0000     -62.563046     -1702.4270
  12   2.0000     -56.398108     -1534.6705
  13   2.0000     -56.396997     -1534.6403
  14   2.0000     -56.395388     -1534.5965
  15   2.0000     -56.395355     -1534.5956
  16   2.0000     -56.394278     -1534.5663
  17   2.0000     -56.394247     -1534.5655
  18   2.0000     -19.218963      -522.9746
  19   2.0000     -19.217706      -522.9404
  20   2.0000     -14.440141      -392.9362
  21   2.0000     -14.437915      -392.8756
  22   2.0000     -14.436439      -392.8355
  23   2.0000     -14.432112      -392.7177
  24   2.0000     -14.419914      -392.3858
  25   2.0000     -14.417374      -392.3167
  26   2.0000     -14.415827      -392.2746
  27   2.0000     -14.414328      -392.2338
  28   2.0000     -10.373072      -282.2656
  29   2.0000     -10.371555      -282.2244
  30   2.0000     -10.370188      -282.1872
  31   2.0000     -10.368802      -282.1494
  32   2.0000     -10.360497      -281.9235
  33   2.0000     -10.359765      -281.9035
  34   2.0000     -10.358759      -281.8762
  35   2.0000     -10.358124      -281.8589
  36   2.0000     -10.349556      -281.6257
  37   2.0000     -10.348165      -281.5879
  38   2.0000     -10.346054      -281.5305
  39   2.0000     -10.345473      -281.5146
  40   2.0000     -10.344937      -281.5001
  41   2.0000     -10.342750      -281.4405
  42   2.0000     -10.342430      -281.4318
  43   2.0000     -10.341551      -281.4079
  44   2.0000     -10.340709      -281.3850
  45   2.0000     -10.339839      -281.3613
  46   2.0000     -10.338052      -281.3127
  47   2.0000     -10.337998      -281.3112
  48   2.0000     -10.337191      -281.2893
  49   2.0000     -10.336724      -281.2766
  50   2.0000     -10.336513      -281.2708
  51   2.0000     -10.331132      -281.1244
  52   2.0000     -10.330290      -281.1015
  53   2.0000     -10.328932      -281.0645
  54   2.0000     -10.328055      -281.0407
  55   2.0000     -10.327324      -281.0208
  56   2.0000     -10.327305      -281.0203
  57   2.0000     -10.327253      -281.0189
  58   2.0000     -10.325392      -280.9682
  59   2.0000     -10.324739      -280.9504
  60   2.0000     -10.321456      -280.8611
  61   2.0000     -10.320629      -280.8386
  62   2.0000     -10.318372      -280.7772
  63   2.0000     -10.318145      -280.7710
  64   2.0000     -10.317594      -280.7560
  65   2.0000     -10.316366      -280.7226
  66   2.0000     -10.316040      -280.7137
  67   2.0000     -10.311071      -280.5785
  68   2.0000     -10.311015      -280.5770
  69   2.0000     -10.310947      -280.5751
  70   2.0000     -10.310718      -280.5689
  71   2.0000     -10.309803      -280.5440
  72   2.0000     -10.309162      -280.5265
  73   2.0000     -10.309004      -280.5223
  74   2.0000     -10.308530      -280.5094
  75   2.0000     -10.307940      -280.4933
  76   2.0000     -10.307351      -280.4773
  77   2.0000     -10.307246      -280.4744
  78   2.0000     -10.305453      -280.4256
  79   2.0000     -10.303316      -280.3675
  80   2.0000     -10.302261      -280.3388
  81   2.0000     -10.301207      -280.3101
  82   2.0000     -10.300439      -280.2892
  83   2.0000     -10.297662      -280.2136
  84   2.0000     -10.296297      -280.1765
  85   2.0000     -10.294991      -280.1409
  86   2.0000     -10.292491      -280.0729
  87   2.0000     -10.291876      -280.0562
  88   2.0000     -10.291485      -280.0456
  89   2.0000      -8.793569      -239.2852
  90   2.0000      -8.792482      -239.2556
  91   2.0000      -8.096096      -220.3060
  92   2.0000      -8.094438      -220.2609
  93   2.0000      -8.093986      -220.2486
  94   2.0000      -8.091907      -220.1920
  95   2.0000      -8.080323      -219.8768
  96   2.0000      -8.072660      -219.6682
  97   2.0000      -8.071363      -219.6329
  98   2.0000      -8.067336      -219.5234
  99   2.0000      -6.629877      -180.4081
 100   2.0000      -6.628790      -180.3785
 101   2.0000      -6.615304      -180.0116
 102   2.0000      -6.615096      -180.0059
 103   2.0000      -6.614222      -179.9821
 104   2.0000      -6.614004      -179.9762
 105   2.0000      -6.065468      -165.0498
 106   2.0000      -6.063794      -165.0042
 107   2.0000      -6.063158      -164.9869
 108   2.0000      -6.061226      -164.9344
 109   2.0000      -6.061007      -164.9284
 110   2.0000      -6.059531      -164.8882
 111   2.0000      -6.058984      -164.8733
 112   2.0000      -6.058299      -164.8547
 113   2.0000      -6.056908      -164.8168
 114   2.0000      -6.056628      -164.8092
 115   2.0000      -6.056443      -164.8042
 116   2.0000      -6.054401      -164.7486
 117   2.0000      -6.049932      -164.6270
 118   2.0000      -6.045665      -164.5109
 119   2.0000      -6.042347      -164.4206
 120   2.0000      -6.041971      -164.4104
 121   2.0000      -6.041041      -164.3851
 122   2.0000      -6.038064      -164.3041
 123   2.0000      -6.037143      -164.2790
 124   2.0000      -6.036788      -164.2693
 125   2.0000      -6.033861      -164.1897
 126   2.0000      -6.032777      -164.1602
 127   2.0000      -6.032585      -164.1550
 128   2.0000      -6.028496      -164.0437
 129   2.0000      -2.745740       -74.7154
 130   2.0000      -2.744668       -74.6862
 131   2.0000      -2.741649       -74.6041
 132   2.0000      -2.741518       -74.6005
 133   2.0000      -2.740569       -74.5747
 134   2.0000      -2.740414       -74.5704
 135   2.0000      -2.729926       -74.2851
 136   2.0000      -2.729899       -74.2843
 137   2.0000      -2.728841       -74.2555
 138   2.0000      -2.728818       -74.2549
 139   2.0000      -1.134619       -30.8746
 140   2.0000      -1.133213       -30.8363
 141   2.0000      -1.055287       -28.7158
 142   2.0000      -1.053926       -28.6788
 143   2.0000      -1.033841       -28.1322
 144   2.0000      -1.030143       -28.0316
 145   2.0000      -1.026628       -27.9360
 146   2.0000      -1.025269       -27.8990
 147   2.0000      -1.023267       -27.8445
 148   2.0000      -1.016816       -27.6690
 149   2.0000      -1.015761       -27.6403
 150   2.0000      -1.014041       -27.5935
 151   2.0000      -1.011233       -27.5171
 152   2.0000      -1.008159       -27.4334
 153   2.0000      -1.003919       -27.3180
 154   2.0000      -0.996231       -27.1088
 155   2.0000      -0.994829       -27.0707
 156   2.0000      -0.991638       -26.9839
 157   2.0000      -0.989954       -26.9380
 158   2.0000      -0.973999       -26.5039
 159   2.0000      -0.969214       -26.3737
 160   2.0000      -0.960302       -26.1311
 161   2.0000      -0.945154       -25.7189
 162   2.0000      -0.943553       -25.6754
 163   2.0000      -0.930071       -25.3085
 164   2.0000      -0.923075       -25.1181
 165   2.0000      -0.910525       -24.7767
 166   2.0000      -0.908546       -24.7228
 167   2.0000      -0.903538       -24.5865
 168   2.0000      -0.897030       -24.4094
 169   2.0000      -0.888361       -24.1735
 170   2.0000      -0.887657       -24.1544
 171   2.0000      -0.885691       -24.1009
 172   2.0000      -0.879257       -23.9258
 173   2.0000      -0.877399       -23.8752
 174   2.0000      -0.870076       -23.6760
 175   2.0000      -0.865994       -23.5649
 176   2.0000      -0.864078       -23.5127
 177   2.0000      -0.859592       -23.3907
 178   2.0000      -0.855194       -23.2710
 179   2.0000      -0.832770       -22.6608
 180   2.0000      -0.830700       -22.6045
 181   2.0000      -0.829099       -22.5609
 182   2.0000      -0.814402       -22.1610
 183   2.0000      -0.801110       -21.7993
 184   2.0000      -0.792125       -21.5548
 185   2.0000      -0.790659       -21.5149
 186   2.0000      -0.782452       -21.2916
 187   2.0000      -0.777424       -21.1548
 188   2.0000      -0.765522       -20.8309
 189   2.0000      -0.760915       -20.7055
 190   2.0000      -0.754118       -20.5206
 191   2.0000      -0.736977       -20.0542
 192   2.0000      -0.721471       -19.6322
 193   2.0000      -0.717856       -19.5338
 194   2.0000      -0.708799       -19.2874
 195   2.0000      -0.703239       -19.1361
 196   2.0000      -0.696042       -18.9403
 197   2.0000      -0.695213       -18.9177
 198   2.0000      -0.693683       -18.8761
 199   2.0000      -0.688621       -18.7383
 200   2.0000      -0.686222       -18.6730
 201   2.0000      -0.683505       -18.5991
 202   2.0000      -0.674656       -18.3583
 203   2.0000      -0.663418       -18.0525
 204   2.0000      -0.659604       -17.9487
 205   2.0000      -0.655045       -17.8247
 206   2.0000      -0.648193       -17.6382
 207   2.0000      -0.645748       -17.5717
 208   2.0000      -0.643191       -17.5021
 209   2.0000      -0.642157       -17.4740
 210   2.0000      -0.630768       -17.1641
 211   2.0000      -0.628102       -17.0915
 212   2.0000      -0.625434       -17.0189
 213   2.0000      -0.623893       -16.9770
 214   2.0000      -0.622218       -16.9314
 215   2.0000      -0.617901       -16.8139
 216   2.0000      -0.604727       -16.4555
 217   2.0000      -0.602023       -16.3819
 218   2.0000      -0.597608       -16.2617
 219   2.0000      -0.592093       -16.1117
 220   2.0000      -0.589799       -16.0492
 221   2.0000      -0.584189       -15.8966
 222   2.0000      -0.576437       -15.6856
 223   2.0000      -0.562221       -15.2988
 224   2.0000      -0.557896       -15.1811
 225   2.0000      -0.556359       -15.1393
 226   2.0000      -0.554842       -15.0980
 227   2.0000      -0.552704       -15.0398
 228   2.0000      -0.551225       -14.9996
 229   2.0000      -0.545397       -14.8410
 230   2.0000      -0.543233       -14.7821
 231   2.0000      -0.542049       -14.7499
 232   2.0000      -0.540228       -14.7003
 233   2.0000      -0.539029       -14.6677
 234   2.0000      -0.537021       -14.6131
 235   2.0000      -0.534188       -14.5360
 236   2.0000      -0.529080       -14.3970
 237   2.0000      -0.526422       -14.3247
 238   2.0000      -0.522365       -14.2143
 239   2.0000      -0.519704       -14.1419
 240   2.0000      -0.518766       -14.1163
 241   2.0000      -0.516606       -14.0576
 242   2.0000      -0.514183       -13.9916
 243   2.0000      -0.513336       -13.9686
 244   2.0000      -0.511887       -13.9292
 245   2.0000      -0.511168       -13.9096
 246   2.0000      -0.508695       -13.8423
 247   2.0000      -0.506893       -13.7933
 248   2.0000      -0.505838       -13.7645
 249   2.0000      -0.505233       -13.7481
 250   2.0000      -0.502406       -13.6712
 251   2.0000      -0.501133       -13.6365
 252   2.0000      -0.498710       -13.5706
 253   2.0000      -0.495094       -13.4722
 254   2.0000      -0.493562       -13.4305
 255   2.0000      -0.492641       -13.4054
 256   2.0000      -0.491014       -13.3612
 257   2.0000      -0.487648       -13.2696
 258   2.0000      -0.482886       -13.1400
 259   2.0000      -0.481794       -13.1103
 260   2.0000      -0.475192       -12.9306
 261   2.0000      -0.474280       -12.9058
 262   2.0000      -0.472570       -12.8593
 263   2.0000      -0.470917       -12.8143
 264   2.0000      -0.469848       -12.7852
 265   2.0000      -0.466966       -12.7068
 266   2.0000      -0.466075       -12.6825
 267   2.0000      -0.464425       -12.6376
 268   2.0000      -0.459907       -12.5147
 269   2.0000      -0.459428       -12.5017
 270   2.0000      -0.457126       -12.4390
 271   2.0000      -0.455065       -12.3830
 272   2.0000      -0.453138       -12.3305
 273   2.0000      -0.452592       -12.3157
 274   2.0000      -0.450710       -12.2645
 275   2.0000      -0.449800       -12.2397
 276   2.0000      -0.449442       -12.2300
 277   2.0000      -0.448578       -12.2064
 278   2.0000      -0.448331       -12.1997
 279   2.0000      -0.446644       -12.1538
 280   2.0000      -0.446177       -12.1411
 281   2.0000      -0.443832       -12.0773
 282   2.0000      -0.443726       -12.0744
 283   2.0000      -0.443450       -12.0669
 284   2.0000      -0.443190       -12.0598
 285   2.0000      -0.439378       -11.9561
 286   2.0000      -0.439003       -11.9459
 287   2.0000      -0.438073       -11.9206
 288   2.0000      -0.435724       -11.8566
 289   2.0000      -0.431570       -11.7436
 290   2.0000      -0.429716       -11.6932
 291   2.0000      -0.428517       -11.6606
 292   2.0000      -0.427653       -11.6370
 293   2.0000      -0.426617       -11.6088
 294   2.0000      -0.426518       -11.6062
 295   2.0000      -0.423617       -11.5272
 296   2.0000      -0.420588       -11.4448
 297   2.0000      -0.414862       -11.2890
 298   2.0000      -0.413068       -11.2402
 299   2.0000      -0.412121       -11.2144
 300   2.0000      -0.408116       -11.1054
 301   2.0000      -0.403470       -10.9790
 302   2.0000      -0.394210       -10.7270
 303   2.0000      -0.390286       -10.6202
 304   2.0000      -0.386241       -10.5101
 305   2.0000      -0.382967       -10.4211
 306   2.0000      -0.375867       -10.2279
 307   2.0000      -0.374669       -10.1953
 308   2.0000      -0.365697        -9.9511
 309   2.0000      -0.360728        -9.8159
 310   2.0000      -0.358848        -9.7647
 311   2.0000      -0.356319        -9.6959
 312   2.0000      -0.345410        -9.3991
 313   2.0000      -0.342869        -9.3299
 314   2.0000      -0.336525        -9.1573
 315   2.0000      -0.335187        -9.1209
 316   2.0000      -0.329774        -8.9736
 317   2.0000      -0.328569        -8.9408
 318   2.0000      -0.320702        -8.7268
 319   2.0000      -0.316850        -8.6219
 320   2.0000      -0.315665        -8.5897
 321   2.0000      -0.301214        -8.1965
 322   2.0000      -0.295603        -8.0438
 323   2.0000      -0.293433        -7.9847
 324   2.0000      -0.277348        -7.5470
 325   2.0000      -0.241703        -6.5771
 326   0.0000      -0.122543        -3.3346
 327   0.0000      -0.112189        -3.0528
 328   0.0000      -0.092600        -2.5198
 329   0.0000      -0.090487        -2.4623
 330   0.0000      -0.068087        -1.8528

MULLIKEN ATOMIC CHARGES
-----------------------
   0 C :    0.311914
   1 C :   -0.353265
   2 C :   -0.187287
   3 N :    0.147905
   4 C :   -0.198222
   5 N :    0.154165
   6 C :    0.013137
   7 C :   -0.013656
   8 C :   -0.070466
   9 C :    0.117504
  10 C :   -0.090889
  11 C :   -0.018834
  12 S :    0.186219
  13 C :   -0.124855
  14 C :    0.041193
  15 Br:    0.024669
  16 C :    0.152147
  17 O :   -0.153357
  18 C :   -0.092157
  19 C :    0.037713
  20 C :   -0.116799
  21 C :    0.004042
  22 C :   -0.015477
  23 C :   -0.075317
  24 S :    0.204108
  25 C :   -0.108155
  26 C :    0.038698
  27 C :    0.308016
  28 C :   -0.294769
  29 C :   -0.189932
  30 N :    0.195881
  31 C :   -0.192373
  32 N :    0.174303
  33 C :   -0.080704
  34 C :   -0.056189
  35 S :    0.194461
  36 C :   -0.104948
  37 C :   -0.070843
  38 S :    0.111476
  39 C :   -0.193340
  40 C :    0.113020
  41 C :   -0.023309
  42 C :    0.120604
  43 C :   -0.088177
  44 S :    0.147737
  45 C :   -0.047308
  46 C :   -0.050292
  47 C :    0.018686
  48 C :   -0.104487
  49 S :    0.198057
  50 C :   -0.068983
  51 C :   -0.005534
  52 C :    0.306311
  53 C :   -0.285863
  54 C :   -0.183305
  55 N :    0.165869
  56 C :   -0.185800
  57 N :    0.173673
  58 C :   -0.000633
  59 C :   -0.113134
  60 S :    0.217502
  61 C :    0.076597
  62 C :   -0.136422
  63 C :    0.273503
  64 C :   -0.333678
  65 C :   -0.174602
  66 N :    0.160439
  67 C :   -0.201928
  68 N :    0.167449
  69 C :   -0.005999
  70 C :    0.008309
  71 C :    0.132856
  72 O :   -0.145178
  73 C :   -0.071857
  74 C :    0.110739
  75 C :   -0.088297
  76 C :   -0.017070
  77 S :    0.188300
  78 C :   -0.124933
  79 C :    0.040893
  80 Br:    0.024912
  81 H :   -0.006801
  82 H :   -0.006580
  83 H :   -0.001677
  84 H :    0.010467
  85 H :    0.038677
  86 H :    0.015274
  87 H :    0.041703
  88 H :    0.042799
  89 H :    0.038013
  90 H :   -0.002816
  91 H :   -0.012701
  92 H :    0.023772
  93 H :    0.022487
  94 H :   -0.007389
  95 H :    0.002520
  96 H :   -0.002131
Sum of atomic charges:   -0.0000000

LOEWDIN ATOMIC CHARGES
----------------------
   0 C :    0.077204
   1 C :   -0.145510
   2 C :   -0.018309
   3 N :   -0.055043
   4 C :   -0.024617
   5 N :   -0.055517
   6 C :   -0.021912
   7 C :   -0.050125
   8 C :    0.023586
   9 C :   -0.032132
  10 C :   -0.143879
  11 C :   -0.009647
  12 S :    0.432920
  13 C :   -0.271292
  14 C :   -0.069770
  15 Br:    0.137523
  16 C :    0.086201
  17 O :   -0.139217
  18 C :   -0.099805
  19 C :    0.041934
  20 C :   -0.179052
  21 C :    0.021367
  22 C :   -0.079236
  23 C :   -0.154206
  24 S :    0.492685
  25 C :   -0.199724
  26 C :   -0.046659
  27 C :    0.076379
  28 C :   -0.093135
  29 C :   -0.022249
  30 N :   -0.014572
  31 C :   -0.015088
  32 N :   -0.031512
  33 C :   -0.040895
  34 C :   -0.164798
  35 S :    0.479400
  36 C :   -0.206854
  37 C :   -0.188915
  38 S :    0.385549
  39 C :   -0.129452
  40 C :   -0.057336
  41 C :   -0.071825
  42 C :   -0.059225
  43 C :   -0.187326
  44 S :    0.446101
  45 C :   -0.166218
  46 C :   -0.031104
  47 C :   -0.053494
  48 C :   -0.189059
  49 S :    0.476402
  50 C :   -0.154890
  51 C :   -0.069693
  52 C :    0.084805
  53 C :   -0.098827
  54 C :   -0.011724
  55 N :   -0.037724
  56 C :   -0.014328
  57 N :   -0.029426
  58 C :    0.010676
  59 C :   -0.182591
  60 S :    0.501021
  61 C :    0.041822
  62 C :   -0.092967
  63 C :    0.066115
  64 C :   -0.139087
  65 C :   -0.019708
  66 N :   -0.046848
  67 C :   -0.015868
  68 N :   -0.048057
  69 C :   -0.017765
  70 C :   -0.053292
  71 C :    0.083379
  72 O :   -0.144184
  73 C :    0.022934
  74 C :   -0.033189
  75 C :   -0.142512
  76 C :   -0.009624
  77 S :    0.435233
  78 C :   -0.271624
  79 C :   -0.070168
  80 Br:    0.137900
  81 H :    0.042378
  82 H :    0.040947
  83 H :    0.039444
  84 H :    0.042583
  85 H :    0.044041
  86 H :    0.037184
  87 H :    0.042398
  88 H :    0.043003
  89 H :    0.045398
  90 H :    0.034063
  91 H :    0.037492
  92 H :    0.042901
  93 H :    0.046106
  94 H :    0.041856
  95 H :    0.042733
  96 H :    0.039137

  Mayer bond orders larger than 0.100000
B(  0-C ,  1-C ) :   1.6178 B(  0-C ,  6-C ) :   1.0008 B(  0-C , 18-C ) :   1.0842
B(  1-C ,  2-C ) :   1.1462 B(  1-C ,  4-C ) :   1.1412 B(  2-C ,  3-N ) :   2.9687
B(  4-C ,  5-N ) :   2.9793 B(  6-C ,  7-C ) :   1.2746 B(  6-C , 11-C ) :   1.4099
B(  7-C ,  8-C ) :   1.4242 B(  7-C , 16-C ) :   0.9507 B(  8-C ,  9-C ) :   1.2435
B(  8-C , 81-H ) :   1.0173 B(  9-C , 10-C ) :   1.3051 B(  9-C , 14-C ) :   1.1636
B( 10-C , 11-C ) :   1.3314 B( 10-C , 12-S ) :   1.0858 B( 11-C , 82-H ) :   0.9795
B( 12-S , 13-C ) :   1.0869 B( 13-C , 14-C ) :   1.6171 B( 13-C , 15-Br) :   1.0199
B( 14-C , 83-H ) :   1.0001 B( 16-C , 17-O ) :   2.1718 B( 16-C , 18-C ) :   0.9441
B( 18-C , 19-C ) :   1.5823 B( 19-C , 20-C ) :   1.2236 B( 19-C , 84-H ) :   0.9128
B( 20-C , 21-C ) :   1.3950 B( 20-C , 24-S ) :   1.0674 B( 21-C , 22-C ) :   1.3264
B( 21-C , 85-H ) :   0.9701 B( 22-C , 23-C ) :   1.3647 B( 22-C , 27-C ) :   1.0014
B( 23-C , 24-S ) :   1.1682 B( 23-C , 25-C ) :   1.2173 B( 25-C , 26-C ) :   1.4178
B( 25-C , 35-S ) :   1.1031 B( 26-C , 27-C ) :   0.9874 B( 26-C , 33-C ) :   1.3259
B( 27-C , 28-C ) :   1.7180 B( 28-C , 29-C ) :   1.1351 B( 28-C , 31-C ) :   1.1367
B( 29-C , 30-N ) :   2.9976 B( 31-C , 32-N ) :   2.9882 B( 33-C , 34-C ) :   1.4105
B( 33-C , 86-H ) :   0.9896 B( 34-C , 35-S ) :   1.1174 B( 34-C , 36-C ) :   1.2018
B( 36-C , 37-C ) :   1.4891 B( 36-C , 43-C ) :   0.1131 B( 36-C , 44-S ) :   1.1232
B( 37-C , 38-S ) :   1.0486 B( 37-C , 42-C ) :   1.2497 B( 38-S , 39-C ) :   1.0641
B( 39-C , 40-C ) :   1.0702 B( 39-C , 41-C ) :   1.6911 B( 40-C , 87-H ) :   0.9472
B( 40-C , 88-H ) :   0.9467 B( 40-C , 89-H ) :   0.9556 B( 41-C , 42-C ) :   1.1230
B( 41-C , 90-H ) :   0.9954 B( 42-C , 43-C ) :   1.4346 B( 43-C , 44-S ) :   1.1026
B( 43-C , 45-C ) :   1.1693 B( 45-C , 46-C ) :   1.4428 B( 45-C , 49-S ) :   1.1061
B( 46-C , 47-C ) :   1.3184 B( 46-C , 91-H ) :   0.9921 B( 47-C , 48-C ) :   1.4273
B( 47-C , 52-C ) :   0.9921 B( 48-C , 49-S ) :   1.1097 B( 48-C , 50-C ) :   1.2064
B( 50-C , 51-C ) :   1.4012 B( 50-C , 60-S ) :   1.1581 B( 51-C , 52-C ) :   1.0020
B( 51-C , 58-C ) :   1.3575 B( 52-C , 53-C ) :   1.7157 B( 53-C , 54-C ) :   1.1330
B( 53-C , 56-C ) :   1.1324 B( 54-C , 55-N ) :   2.9961 B( 56-C , 57-N ) :   2.9851
B( 58-C , 59-C ) :   1.3940 B( 58-C , 92-H ) :   0.9818 B( 59-C , 60-S ) :   1.0842
B( 59-C , 61-C ) :   1.1392 B( 61-C , 62-C ) :   1.6654 B( 61-C , 93-H ) :   0.9278
B( 62-C , 63-C ) :   1.0396 B( 62-C , 71-C ) :   0.9462 B( 63-C , 64-C ) :   1.6426
B( 63-C , 69-C ) :   1.0123 B( 64-C , 65-C ) :   1.1268 B( 64-C , 67-C ) :   1.1729
B( 65-C , 66-N ) :   2.9929 B( 67-C , 68-N ) :   2.9963 B( 69-C , 70-C ) :   1.2753
B( 69-C , 76-C ) :   1.4161 B( 70-C , 71-C ) :   0.9216 B( 70-C , 73-C ) :   1.4246
B( 71-C , 72-O ) :   2.2623 B( 73-C , 74-C ) :   1.2524 B( 73-C , 94-H ) :   1.0165
B( 74-C , 75-C ) :   1.3052 B( 74-C , 79-C ) :   1.1651 B( 75-C , 76-C ) :   1.3290
B( 75-C , 77-S ) :   1.0854 B( 76-C , 95-H ) :   0.9832 B( 77-S , 78-C ) :   1.0876
B( 78-C , 79-C ) :   1.6161 B( 78-C , 80-Br) :   1.0195 B( 79-C , 96-H ) :   1.0009

-----------------------------------------------------------------------------
         ABSORPTION SPECTRUM VIA TRANSITION ELECTRIC DIPOLE MOMENTS
-----------------------------------------------------------------------------
State   Energy  Wavelength   fosc         T2         TX        TY        TZ
        (cm-1)    (nm)                  (au**2)     (au)      (au)      (au)
-----------------------------------------------------------------------------
   0   10429.8    958.8   0.794190531  25.06837   1.00876  -0.82372   4.83449
   1   12019.4    832.0   0.091764017   2.51343  -0.30030   0.38564   1.50816
   2   17647.2    566.7   1.654817180  30.87086   1.41791  -0.88591   5.29864
   3   19572.8    510.9   0.131249333   2.20760   0.34010  -0.10406  -1.44260
   4   20055.6    498.6   0.136720693   2.24427   0.72316  -0.07288  -1.30996
   5   21373.4    467.9   0.167199167   2.57535   0.40497  -0.16636   1.54392
   6   24086.4    415.2   0.095820516   1.30967   0.03361  -0.17067   1.13111
   7   25316.1    395.0   0.086658539   1.12691  -0.10068  -0.42170   0.96899
   8   25652.5    389.8   0.048262722   0.61938   0.05548  -0.43619  -0.65272
   9   26401.5    378.8   0.070177379   0.87507   0.31025  -0.29082  -0.83321
  10   26759.0    373.7   0.067411456   0.82935   0.57185  -0.70830   0.02568
  11   26937.0    371.2   0.126392542   1.54472   0.08838   1.08430   0.60099
  12   27501.8    363.6   0.147805327   1.76932   0.80873  -0.69386   0.79614
  13   27942.6    357.9   0.109304172   1.28779   0.09853  -0.07085   1.12830
  14   28068.4    356.3   0.043833476   0.51412  -0.24297  -0.04570  -0.67305
  15   28484.4    351.1   0.157703884   1.82268  -0.30544   0.49434  -1.21861
  16   28823.1    346.9   0.032689179   0.37337   0.17282   0.07659   0.58107
  17   29028.1    344.5   0.038323514   0.43463  -0.02057   0.55937   0.34830
  18   29246.6    341.9   0.099930514   1.12486   0.04267   0.01372   1.05965
  19   29382.9    340.3   0.150359295   1.68466   0.25116  -0.80891   0.98348
  20   29858.7    334.9   0.099110283   1.09276   0.17002  -0.70033   0.75723
  21   30081.9    332.4   0.175941756   1.92548  -0.21140  -0.58637  -1.23974
  22   30395.8    329.0   0.092444351   1.00125  -0.59796   0.64176   0.48149
  23   30535.9    327.5   0.367302501   3.95995  -0.54610   1.66298   0.94670
  24   30945.9    323.1   0.339045666   3.60687   1.14049  -1.51765   0.05382
  25   31581.4    316.6   0.154965946   1.61540   0.67643  -0.97996  -0.44444
  26   31864.9    313.8   0.014686111   0.15173  -0.08906  -0.29221  -0.24168
  27   32326.5    309.3   0.175485530   1.78714  -0.28866   1.30274  -0.08169
  28   32363.7    309.0   0.306693022   3.11976   0.07285  -0.01515   1.76472
  29   32402.8    308.6   0.215179437   2.18622   0.19236  -0.94749  -1.11869
  30   33181.9    301.4   0.014064142   0.13954  -0.00184  -0.18302   0.32563
  31   33256.6    300.7   0.002697384   0.02670   0.02464  -0.05926  -0.15027
  32   33316.2    300.2   0.034474282   0.34066   0.22349  -0.30815   0.44244
  33   33403.6    299.4   0.006215623   0.06126   0.14926  -0.02310  -0.19608
  34   33449.3    299.0   0.024278639   0.23895   0.12777   0.44288  -0.16274
  35   33736.3    296.4   0.155198362   1.51449  -0.16905   0.21581  -1.19972
  36   33827.0    295.6   0.066281402   0.64507  -0.09499   0.10777  -0.79021
  37   34065.0    293.6   0.136268497   1.31693   0.51652  -0.86336   0.55204
  38   34223.8    292.2   0.227454402   2.18797  -0.31889   1.44357   0.04885
  39   34311.0    291.5   0.176052868   1.68922   0.08465  -0.91354  -0.92059
  40   34509.0    289.8   0.303186731   2.89237   0.11330   0.96267  -1.39742
  41   34883.1    286.7   0.214491996   2.02429  -0.65137   1.01463   0.75534
  42   35054.1    285.3   0.129386816   1.21514   0.48893  -0.81495   0.55852
  43   35248.6    283.7   0.016292241   0.15217   0.10481  -0.34561  -0.14743
  44   35514.4    281.6   0.038577851   0.35761   0.13707  -0.47437   0.33733
  45   35908.4    278.5   0.227495732   2.08570   0.62097  -1.16323  -0.58906
  46   35978.5    277.9   0.017793151   0.16281   0.08669   0.08947  -0.38379
  47   36202.6    276.2   0.002577250   0.02344  -0.15166  -0.01154  -0.01743
  48   36568.9    273.5   0.082779760   0.74523  -0.35048   0.43638   0.65724
  49   36689.5    272.6   0.021908741   0.19659   0.16256   0.04173   0.41039
  50   37350.1    267.7   0.064777951   0.57097  -0.29677   0.54891   0.42613
  51   37689.7    265.3   0.023559516   0.20579  -0.26557   0.10781   0.35162
  52   37780.1    264.7   0.023304302   0.20307   0.13624  -0.36700   0.22320
  53   37989.8    263.2   0.043478365   0.37678  -0.33223   0.17243   0.48648
  54   38105.9    262.4   0.030562920   0.26405  -0.14120   0.42756   0.24759
  55   38203.7    261.8   0.013628291   0.11744  -0.00373   0.33666  -0.06389
  56   38622.0    258.9   0.038378501   0.32714  -0.08234   0.05940  -0.56287
  57   38741.4    258.1   0.012627365   0.10730  -0.19331   0.19696  -0.17647
  58   38955.7    256.7   0.071643549   0.60546   0.05558  -0.57862  -0.51727
  59   39065.4    256.0   0.042145184   0.35517   0.27983  -0.15076   0.50412
  60   39259.9    254.7   0.029647155   0.24860  -0.21272   0.35818  -0.27397
  61   39297.8    254.5   0.054696979   0.45822   0.16449  -0.51467   0.40776
  62   39490.9    253.2   0.094338759   0.78645  -0.33323   0.80120  -0.18299
  63   39741.8    251.6   0.107005561   0.88641   0.27932  -0.63493   0.63660
  64   39853.1    250.9   0.050985446   0.42117   0.02800  -0.61688   0.19961

FINAL SINGLE POINT ENERGY    -11251.180360486804

DIPOLE MOMENT
-------------
                                X             Y             Z
Electronic contribution:     28.56264     -61.59432      -5.19744
Nuclear contribution   :    -30.41109      59.82052       6.52891
                        -----------------------------------------
Total Dipole Moment    :     -1.84845      -1.77379       1.33147
                        -----------------------------------------
Magnitude (a.u.)       :      2.88720
Magnitude (Debye)      :      7.33867

Rotational constants in cm-1:     0.001717     0.000099     0.000094
Rotational constants in MHz :    51.465038     2.956523     2.820166

                             ****ORCA TERMINATED NORMALLY****
TOTAL RUN TIME: 0 days 0 hours 11 minutes 37 seconds 212 msec
