                         Program Version 4.2.0 -  RELEASE  -
|  1> # ORCA input file
|  2> # SCF done       -147.910877439003          0.000713800409
|  3> ! CAM-B3LYP def2-SVP def2/J RIJCOSX Grid4 TightSCF
|  4> %maxcore 5000
|  5> %tddft
|  6>     Mode sTDDFT
|  7>     Ethresh 5.0
|  8>     maxcore 5000
|  9> end
| 10>
| 11> %pal
| 12>   nprocs 6
| 13>   end
| 14> * xyz 0 1
| 15>    C        1.64959        10.74760         1.68132
| 16>    C        1.23733         9.72813         2.45794
| 17>    C       -0.12906         9.34178         2.27693
| 18>    S       -0.88777        10.34233         1.05421
| 19>    C        0.64450        11.28729         0.79112
| 20>    O        0.71224        12.18301        -0.00219
| 21>    C       -0.74012         8.33827         2.96997
| 22>    C       -2.06860         7.89027         2.86317
| 23>    C       -2.62973         6.86827         3.62431
| 24>    C       -3.96045         6.64020         3.30655
| 25>    C       -4.43053         7.49914         2.28099
| 26>    S       -3.22762         8.57930         1.72803
| 27>    C       -5.77874         7.19567         2.02796
| 28>    C       -6.17767         6.14386         2.88717
| 29>    C       -5.04516         5.77746         3.72936
| 30>    C       -5.01163         4.85304         4.73411
| 31>    C       -6.11852         4.08622         5.14505
| 32>    N       -6.98851         3.44908         5.53860
| 33>    C       -3.84093         4.62235         5.48986
| 34>    N       -2.89923         4.43831         6.11734
| 35>    C       -7.49173         5.75565         2.70915
| 36>    C       -8.14021         6.50339         1.71795
| 37>    S       -7.05447         7.70793         1.01146
| 38>    C       -9.45448         6.44422         1.24394
| 39>    C      -10.44159         5.55362         1.61472
| 40>    C      -11.77625         5.53757         1.14624
| 41>    C      -12.55238         4.54422         1.67862
| 42>    C      -11.86363         3.72063         2.58541
| 43>    S      -10.20763         4.24852         2.75141
| 44>    C      -12.26827         2.61819         3.32791
| 45>    C      -13.51743         1.99199         3.48498
| 46>    C      -13.49161         0.93012         4.34899
| 47>    C      -12.22045         0.65838         4.90589
| 48>    S      -11.05827         1.80793         4.28460
| 49>    C      -11.90237        -0.28997         5.85834
| 50>    C      -10.61594        -0.52167         6.36029
| 51>    C       -9.38742        -0.10137         5.84197
| 52>    C       -8.32794        -0.42335         6.66399
| 53>    C       -8.70864        -1.11508         7.83632
| 54>    S      -10.40003        -1.39283         7.88531
| 55>    C       -7.55566        -1.33400         8.61184
| 56>    C       -6.44186        -0.76877         7.94153
| 57>    C       -6.89102        -0.19598         6.68970
| 58>    C       -6.14330         0.41902         5.72751
| 59>    C       -4.75950         0.63891         5.88363
| 60>    N       -3.63427         0.82364         6.00894
| 61>    C       -6.68118         0.84036         4.49274
| 62>    N       -7.07644         1.14020         3.45831
| 63>    C       -5.24696        -0.92943         8.63088
| 64>    C       -5.40858        -1.60926         9.83042
| 65>    S       -7.10386        -2.05794        10.08895
| 66>    C       -4.49864        -2.00574        10.83254
| 67>    C       -3.15530        -1.79013        10.94063
| 68>    S       -2.29528        -2.47382        12.31939
| 69>    C       -0.71389        -1.80381        11.75604
| 70>    O        0.31355        -1.97562        12.35062
| 71>    C       -0.96445        -1.07487        10.52814
| 72>    C       -2.24264        -1.07088        10.10571
| 73>    H        2.63593        11.17623         1.67439
| 74>    H        1.85703         9.21471         3.17336
| 75>    H       -0.13802         7.81254         3.70153
| 76>    H       -2.07164         6.33086         4.36958
| 77>    H       -7.96489         4.97279         3.27071
| 78>    H       -9.72850         7.18041         0.49916
| 79>    H      -12.12687         6.26101         0.43139
| 80>    H      -13.58757         4.38569         1.43443
| 81>    H      -14.40022         2.33983         2.97879
| 82>    H      -14.35249         0.33632         4.60142
| 83>    H      -12.71818        -0.85316         6.29096
| 84>    H       -9.27160         0.37863         4.88998
| 85>    H       -4.30367        -0.57130         8.26699
| 86>    H       -4.94393        -2.57666        11.63846
| 87>    H       -0.14235        -0.58804        10.03359
| 88>    H       -2.56323        -0.55956         9.21701
| 89> *
| 90>
| 91>                          ****END OF INPUT****

CARTESIAN COORDINATES (ANGSTROEM)
---------------------------------
  C      1.649590   10.747600    1.681320
  C      1.237330    9.728130    2.457940
  C     -0.129060    9.341780    2.276930
  S     -0.887770   10.342330    1.054210
  C      0.644500   11.287290    0.791120
  O      0.712240   12.183010   -0.002190
  C     -0.740120    8.338270    2.969970
  C     -2.068600    7.890270    2.863170
  C     -2.629730    6.868270    3.624310
  C     -3.960450    6.640200    3.306550
  C     -4.430530    7.499140    2.280990
  S     -3.227620    8.579300    1.728030
  C     -5.778740    7.195670    2.027960
  C     -6.177670    6.143860    2.887170
  C     -5.045160    5.777460    3.729360
  C     -5.011630    4.853040    4.734110
  C     -6.118520    4.086220    5.145050
  N     -6.988510    3.449080    5.538600
  C     -3.840930    4.622350    5.489860
  N     -2.899230    4.438310    6.117340
  C     -7.491730    5.755650    2.709150
  C     -8.140210    6.503390    1.717950
  S     -7.054470    7.707930    1.011460
  C     -9.454480    6.444220    1.243940
  C    -10.441590    5.553620    1.614720
  C    -11.776250    5.537570    1.146240
  C    -12.552380    4.544220    1.678620
  C    -11.863630    3.720630    2.585410
  S    -10.207630    4.248520    2.751410
  C    -12.268270    2.618190    3.327910
  C    -13.517430    1.991990    3.484980
  C    -13.491610    0.930120    4.348990
  C    -12.220450    0.658380    4.905890
  S    -11.058270    1.807930    4.284600
  C    -11.902370   -0.289970    5.858340
  C    -10.615940   -0.521670    6.360290
  C     -9.387420   -0.101370    5.841970
  C     -8.327940   -0.423350    6.663990
  C     -8.708640   -1.115080    7.836320
  S    -10.400030   -1.392830    7.885310
  C     -7.555660   -1.334000    8.611840
  C     -6.441860   -0.768770    7.941530
  C     -6.891020   -0.195980    6.689700
  C     -6.143300    0.419020    5.727510
  C     -4.759500    0.638910    5.883630
  N     -3.634270    0.823640    6.008940
  C     -6.681180    0.840360    4.492740
  N     -7.076440    1.140200    3.458310
  C     -5.246960   -0.929430    8.630880
  C     -5.408580   -1.609260    9.830420
  S     -7.103860   -2.057940   10.088950
  C     -4.498640   -2.005740   10.832540
  C     -3.155300   -1.790130   10.940630
  S     -2.295280   -2.473820   12.319390
  C     -0.713890   -1.803810   11.756040
  O      0.313550   -1.975620   12.350620
  C     -0.964450   -1.074870   10.528140
  C     -2.242640   -1.070880   10.105710
  H      2.635930   11.176230    1.674390
  H      1.857030    9.214710    3.173360
  H     -0.138020    7.812540    3.701530
  H     -2.071640    6.330860    4.369580
  H     -7.964890    4.972790    3.270710
  H     -9.728500    7.180410    0.499160
  H    -12.126870    6.261010    0.431390
  H    -13.587570    4.385690    1.434430
  H    -14.400220    2.339830    2.978790
  H    -14.352490    0.336320    4.601420
  H    -12.718180   -0.853160    6.290960
  H     -9.271600    0.378630    4.889980
  H     -4.303670   -0.571300    8.266990
  H     -4.943930   -2.576660   11.638460
  H     -0.142350   -0.588040   10.033590
  H     -2.563230   -0.559560    9.217010

 Total Charge           Charge          ....    0
 Multiplicity           Mult            ....    1
 Number of Electrons    NEL             ....  452
 Basis Dimension        Dim             ....  924

ORBITAL ENERGIES
----------------

  NO   OCC          E(Eh)            E(eV)
   0   2.0000     -88.986986     -2421.4590
   1   2.0000     -88.986623     -2421.4491
   2   2.0000     -88.984167     -2421.3823
   3   2.0000     -88.984161     -2421.3821
   4   2.0000     -88.954754     -2420.5819
   5   2.0000     -88.953075     -2420.5362
   6   2.0000     -88.934414     -2420.0284
   7   2.0000     -88.925724     -2419.7920
   8   2.0000     -19.209037      -522.7045
   9   2.0000     -19.201573      -522.5014
  10   2.0000     -14.432756      -392.7353
  11   2.0000     -14.428831      -392.6284
  12   2.0000     -14.427124      -392.5820
  13   2.0000     -14.422322      -392.4513
  14   2.0000     -10.374035      -282.2918
  15   2.0000     -10.367437      -282.1123
  16   2.0000     -10.362959      -281.9905
  17   2.0000     -10.360102      -281.9127
  18   2.0000     -10.350824      -281.6602
  19   2.0000     -10.346025      -281.5296
  20   2.0000     -10.333593      -281.1914
  21   2.0000     -10.332892      -281.1723
  22   2.0000     -10.331801      -281.1426
  23   2.0000     -10.328773      -281.0602
  24   2.0000     -10.327160      -281.0163
  25   2.0000     -10.326553      -280.9998
  26   2.0000     -10.326552      -280.9998
  27   2.0000     -10.324420      -280.9417
  28   2.0000     -10.323807      -280.9251
  29   2.0000     -10.322954      -280.9019
  30   2.0000     -10.322696      -280.8948
  31   2.0000     -10.320493      -280.8349
  32   2.0000     -10.319728      -280.8141
  33   2.0000     -10.319128      -280.7977
  34   2.0000     -10.318996      -280.7942
  35   2.0000     -10.318829      -280.7896
  36   2.0000     -10.314155      -280.6624
  37   2.0000     -10.313387      -280.6415
  38   2.0000     -10.308189      -280.5001
  39   2.0000     -10.306185      -280.4455
  40   2.0000     -10.304803      -280.4079
  41   2.0000     -10.303318      -280.3675
  42   2.0000     -10.302238      -280.3382
  43   2.0000     -10.301315      -280.3130
  44   2.0000     -10.300608      -280.2938
  45   2.0000     -10.300059      -280.2789
  46   2.0000     -10.299858      -280.2734
  47   2.0000     -10.299809      -280.2721
  48   2.0000     -10.298710      -280.2421
  49   2.0000     -10.298278      -280.2304
  50   2.0000     -10.297540      -280.2103
  51   2.0000     -10.297316      -280.2042
  52   2.0000     -10.296829      -280.1910
  53   2.0000     -10.295779      -280.1624
  54   2.0000     -10.295103      -280.1440
  55   2.0000     -10.293374      -280.0969
  56   2.0000     -10.282690      -279.8062
  57   2.0000     -10.282617      -279.8042
  58   2.0000      -8.081300      -219.9033
  59   2.0000      -8.081073      -219.8972
  60   2.0000      -8.078934      -219.8390
  61   2.0000      -8.078730      -219.8334
  62   2.0000      -8.050783      -219.0729
  63   2.0000      -8.049321      -219.0332
  64   2.0000      -8.032246      -218.5685
  65   2.0000      -8.023747      -218.3373
  66   2.0000      -6.050470      -164.6417
  67   2.0000      -6.050345      -164.6383
  68   2.0000      -6.048175      -164.5792
  69   2.0000      -6.048035      -164.5754
  70   2.0000      -6.046407      -164.5311
  71   2.0000      -6.046079      -164.5222
  72   2.0000      -6.044131      -164.4692
  73   2.0000      -6.043959      -164.4645
  74   2.0000      -6.043718      -164.4579
  75   2.0000      -6.043451      -164.4507
  76   2.0000      -6.041154      -164.3882
  77   2.0000      -6.040917      -164.3817
  78   2.0000      -6.020522      -163.8267
  79   2.0000      -6.019077      -163.7874
  80   2.0000      -6.016288      -163.7115
  81   2.0000      -6.014763      -163.6700
  82   2.0000      -6.011844      -163.5906
  83   2.0000      -6.010342      -163.5497
  84   2.0000      -6.001567      -163.3109
  85   2.0000      -5.997933      -163.2121
  86   2.0000      -5.993158      -163.0821
  87   2.0000      -5.993102      -163.0806
  88   2.0000      -5.989567      -162.9844
  89   2.0000      -5.984503      -162.8466
  90   2.0000      -1.130557       -30.7640
  91   2.0000      -1.123354       -30.5680
  92   2.0000      -1.041419       -28.3384
  93   2.0000      -1.040154       -28.3040
  94   2.0000      -1.022563       -27.8253
  95   2.0000      -1.017321       -27.6827
  96   2.0000      -1.008315       -27.4376
  97   2.0000      -1.007033       -27.4028
  98   2.0000      -1.002090       -27.2683
  99   2.0000      -0.996264       -27.1097
 100   2.0000      -0.993227       -27.0271
 101   2.0000      -0.982720       -26.7412
 102   2.0000      -0.972127       -26.4529
 103   2.0000      -0.967757       -26.3340
 104   2.0000      -0.955085       -25.9892
 105   2.0000      -0.953062       -25.9341
 106   2.0000      -0.919755       -25.0278
 107   2.0000      -0.916080       -24.9278
 108   2.0000      -0.897320       -24.4173
 109   2.0000      -0.882884       -24.0245
 110   2.0000      -0.875601       -23.8263
 111   2.0000      -0.873138       -23.7593
 112   2.0000      -0.865331       -23.5469
 113   2.0000      -0.856315       -23.3015
 114   2.0000      -0.854565       -23.2539
 115   2.0000      -0.850304       -23.1379
 116   2.0000      -0.848946       -23.1010
 117   2.0000      -0.831049       -22.6140
 118   2.0000      -0.828843       -22.5540
 119   2.0000      -0.826488       -22.4899
 120   2.0000      -0.816892       -22.2288
 121   2.0000      -0.793052       -21.5800
 122   2.0000      -0.780506       -21.2387
 123   2.0000      -0.778554       -21.1855
 124   2.0000      -0.772231       -21.0135
 125   2.0000      -0.759308       -20.6618
 126   2.0000      -0.739740       -20.1294
 127   2.0000      -0.726400       -19.7664
 128   2.0000      -0.705508       -19.1979
 129   2.0000      -0.696631       -18.9563
 130   2.0000      -0.694946       -18.9104
 131   2.0000      -0.686570       -18.6825
 132   2.0000      -0.682822       -18.5805
 133   2.0000      -0.677480       -18.4352
 134   2.0000      -0.673377       -18.3235
 135   2.0000      -0.659148       -17.9363
 136   2.0000      -0.648765       -17.6538
 137   2.0000      -0.640010       -17.4156
 138   2.0000      -0.637755       -17.3542
 139   2.0000      -0.635551       -17.2942
 140   2.0000      -0.631533       -17.1849
 141   2.0000      -0.627162       -17.0660
 142   2.0000      -0.626248       -17.0411
 143   2.0000      -0.621633       -16.9155
 144   2.0000      -0.617055       -16.7909
 145   2.0000      -0.610805       -16.6209
 146   2.0000      -0.606329       -16.4990
 147   2.0000      -0.596626       -16.2350
 148   2.0000      -0.594087       -16.1659
 149   2.0000      -0.582865       -15.8606
 150   2.0000      -0.573736       -15.6122
 151   2.0000      -0.565224       -15.3805
 152   2.0000      -0.556412       -15.1408
 153   2.0000      -0.553312       -15.0564
 154   2.0000      -0.545646       -14.8478
 155   2.0000      -0.543013       -14.7761
 156   2.0000      -0.542473       -14.7614
 157   2.0000      -0.538861       -14.6631
 158   2.0000      -0.529836       -14.4176
 159   2.0000      -0.528299       -14.3757
 160   2.0000      -0.521953       -14.2031
 161   2.0000      -0.514365       -13.9966
 162   2.0000      -0.511782       -13.9263
 163   2.0000      -0.509605       -13.8671
 164   2.0000      -0.508578       -13.8391
 165   2.0000      -0.506915       -13.7939
 166   2.0000      -0.503589       -13.7033
 167   2.0000      -0.502958       -13.6862
 168   2.0000      -0.501729       -13.6527
 169   2.0000      -0.500456       -13.6181
 170   2.0000      -0.497892       -13.5483
 171   2.0000      -0.497730       -13.5439
 172   2.0000      -0.494952       -13.4683
 173   2.0000      -0.493485       -13.4284
 174   2.0000      -0.491861       -13.3842
 175   2.0000      -0.488372       -13.2893
 176   2.0000      -0.487825       -13.2744
 177   2.0000      -0.482225       -13.1220
 178   2.0000      -0.476676       -12.9710
 179   2.0000      -0.471567       -12.8320
 180   2.0000      -0.469235       -12.7685
 181   2.0000      -0.468128       -12.7384
 182   2.0000      -0.464349       -12.6356
 183   2.0000      -0.463021       -12.5995
 184   2.0000      -0.459356       -12.4997
 185   2.0000      -0.458035       -12.4638
 186   2.0000      -0.456049       -12.4097
 187   2.0000      -0.452589       -12.3156
 188   2.0000      -0.447766       -12.1843
 189   2.0000      -0.445634       -12.1263
 190   2.0000      -0.443290       -12.0625
 191   2.0000      -0.443087       -12.0570
 192   2.0000      -0.441178       -12.0051
 193   2.0000      -0.439081       -11.9480
 194   2.0000      -0.438369       -11.9286
 195   2.0000      -0.437691       -11.9102
 196   2.0000      -0.436522       -11.8784
 197   2.0000      -0.433371       -11.7926
 198   2.0000      -0.432693       -11.7742
 199   2.0000      -0.426274       -11.5995
 200   2.0000      -0.423945       -11.5361
 201   2.0000      -0.420254       -11.4357
 202   2.0000      -0.416103       -11.3227
 203   2.0000      -0.415042       -11.2939
 204   2.0000      -0.413178       -11.2431
 205   2.0000      -0.411054       -11.1854
 206   2.0000      -0.399557       -10.8725
 207   2.0000      -0.397302       -10.8111
 208   2.0000      -0.387902       -10.5554
 209   2.0000      -0.373141       -10.1537
 210   2.0000      -0.353853        -9.6288
 211   2.0000      -0.349930        -9.5221
 212   2.0000      -0.347619        -9.4592
 213   2.0000      -0.344986        -9.3875
 214   2.0000      -0.335889        -9.1400
 215   2.0000      -0.332310        -9.0426
 216   2.0000      -0.329144        -8.9565
 217   2.0000      -0.327928        -8.9234
 218   2.0000      -0.322532        -8.7765
 219   2.0000      -0.319259        -8.6875
 220   2.0000      -0.318329        -8.6622
 221   2.0000      -0.316390        -8.6094
 222   2.0000      -0.295642        -8.0448
 223   2.0000      -0.266917        -7.2632
 224   2.0000      -0.247243        -6.7278
 225   2.0000      -0.210585        -5.7303
 226   0.0000      -0.113771        -3.0959
 227   0.0000      -0.103560        -2.8180
 228   0.0000      -0.084237        -2.2922
 229   0.0000      -0.066045        -1.7972
 230   0.0000      -0.059437        -1.6174

MULLIKEN ATOMIC CHARGES
-----------------------
   0 C :   -0.011463
   1 C :    0.079729
   2 C :   -0.077140
   3 S :   -0.016093
   4 C :    0.091062
   5 O :   -0.156731
   6 C :    0.009093
   7 C :   -0.061668
   8 C :   -0.038890
   9 C :    0.014921
  10 C :   -0.084667
  11 S :    0.190011
  12 C :   -0.101087
  13 C :   -0.002408
  14 C :    0.325527
  15 C :   -0.308134
  16 C :   -0.146280
  17 N :    0.146927
  18 C :   -0.200405
  19 N :    0.178015
  20 C :   -0.039900
  21 C :   -0.094626
  22 S :    0.182698
  23 C :    0.034489
  24 C :   -0.029040
  25 C :    0.031965
  26 C :    0.031225
  27 C :   -0.021503
  28 S :    0.057076
  29 C :   -0.036645
  30 C :    0.037189
  31 C :    0.033086
  32 C :   -0.032879
  33 S :    0.067692
  34 C :    0.035390
  35 C :   -0.097405
  36 C :   -0.034769
  37 C :   -0.004040
  38 C :   -0.102838
  39 S :    0.180580
  40 C :   -0.096229
  41 C :   -0.016370
  42 C :    0.325953
  43 C :   -0.294477
  44 C :   -0.201811
  45 N :    0.175411
  46 C :   -0.187226
  47 N :    0.176523
  48 C :   -0.013838
  49 C :   -0.103696
  50 S :    0.182001
  51 C :    0.113092
  52 C :   -0.111098
  53 S :    0.006607
  54 C :    0.081104
  55 O :   -0.162274
  56 C :   -0.011897
  57 C :    0.074532
  58 H :    0.007635
  59 H :    0.005734
  60 H :    0.003230
  61 H :    0.009781
  62 H :    0.032470
  63 H :   -0.015033
  64 H :   -0.009174
  65 H :   -0.010137
  66 H :   -0.011145
  67 H :   -0.009013
  68 H :   -0.013516
  69 H :    0.037024
  70 H :   -0.005694
  71 H :   -0.004986
  72 H :    0.012277
  73 H :    0.006173
Sum of atomic charges:   -0.0000000

LOEWDIN ATOMIC CHARGES
----------------------
   0 C :   -0.084358
   1 C :    0.013249
   2 C :   -0.176117
   3 S :    0.282490
   4 C :   -0.049167
   5 O :   -0.144293
   6 C :   -0.034174
   7 C :   -0.177720
   8 C :   -0.012253
   9 C :   -0.076786
  10 C :   -0.169803
  11 S :    0.482951
  12 C :   -0.192482
  13 C :   -0.057704
  14 C :    0.084639
  15 C :   -0.102256
  16 C :   -0.006308
  17 N :   -0.036223
  18 C :   -0.017264
  19 N :   -0.029025
  20 C :   -0.040385
  21 C :   -0.155956
  22 S :    0.468495
  23 C :   -0.080201
  24 C :   -0.144800
  25 C :   -0.030127
  26 C :   -0.034553
  27 C :   -0.175260
  28 S :    0.409378
  29 C :   -0.176552
  30 C :   -0.033511
  31 C :   -0.030260
  32 C :   -0.143353
  33 S :    0.416055
  34 C :   -0.076184
  35 C :   -0.160696
  36 C :   -0.041897
  37 C :   -0.055309
  38 C :   -0.190990
  39 S :    0.460571
  40 C :   -0.173170
  41 C :   -0.069563
  42 C :    0.081689
  43 C :   -0.094368
  44 C :   -0.016793
  45 N :   -0.035205
  46 C :   -0.017626
  47 N :   -0.036704
  48 C :   -0.022418
  49 C :   -0.166770
  50 S :    0.473524
  51 C :   -0.047422
  52 C :   -0.156551
  53 S :    0.297443
  54 C :   -0.059196
  55 O :   -0.149695
  56 C :   -0.061110
  57 C :    0.000983
  58 H :    0.038767
  59 H :    0.038959
  60 H :    0.046642
  61 H :    0.042374
  62 H :    0.025428
  63 H :    0.034233
  64 H :    0.034299
  65 H :    0.034051
  66 H :    0.033533
  67 H :    0.034353
  68 H :    0.034284
  69 H :    0.025513
  70 H :    0.036462
  71 H :    0.033250
  72 H :    0.040628
  73 H :    0.038315

  Mayer bond orders larger than 0.100000
B(  0-C ,  1-C ) :   1.6453 B(  0-C ,  4-C ) :   0.9972 B(  0-C , 58-H ) :   0.9951
B(  1-C ,  2-C ) :   1.0977 B(  1-C , 59-H ) :   0.9992 B(  2-C ,  3-S ) :   1.0268
B(  2-C ,  6-C ) :   1.6154 B(  3-S ,  4-C ) :   0.9624 B(  3-S ,  5-O ) :   0.1058
B(  4-C ,  5-O ) :   2.1417 B(  6-C ,  7-C ) :   1.1855 B(  6-C , 60-H ) :   0.9705
B(  7-C ,  8-C ) :   1.3937 B(  7-C , 11-S ) :   1.0751 B(  8-C ,  9-C ) :   1.3085
B(  8-C , 61-H ) :   1.0037 B(  9-C , 10-C ) :   1.3801 B(  9-C , 14-C ) :   1.0021
B( 10-C , 11-S ) :   1.1415 B( 10-C , 12-C ) :   1.2299 B( 12-C , 13-C ) :   1.4004
B( 12-C , 22-S ) :   1.1091 B( 13-C , 14-C ) :   0.9923 B( 13-C , 20-C ) :   1.3664
B( 14-C , 15-C ) :   1.6945 B( 15-C , 16-C ) :   1.1567 B( 15-C , 18-C ) :   1.1401
B( 16-C , 17-N ) :   2.8912 B( 18-C , 19-N ) :   2.9816 B( 20-C , 21-C ) :   1.3783
B( 20-C , 62-H ) :   0.9658 B( 21-C , 22-S ) :   1.0954 B( 21-C , 23-C ) :   1.2011
B( 23-C , 24-C ) :   1.5559 B( 23-C , 63-H ) :   0.9528 B( 24-C , 25-C ) :   1.1674
B( 24-C , 28-S ) :   1.0556 B( 25-C , 26-C ) :   1.5625 B( 25-C , 64-H ) :   0.9992
B( 26-C , 27-C ) :   1.2130 B( 26-C , 65-H ) :   0.9949 B( 27-C , 28-S ) :   1.0540
B( 27-C , 29-C ) :   1.4584 B( 29-C , 30-C ) :   1.2098 B( 29-C , 33-S ) :   1.0584
B( 30-C , 31-C ) :   1.5639 B( 30-C , 66-H ) :   0.9953 B( 31-C , 32-C ) :   1.1690
B( 31-C , 67-H ) :   0.9975 B( 32-C , 33-S ) :   1.0504 B( 32-C , 34-C ) :   1.5556
B( 34-C , 35-C ) :   1.1926 B( 34-C , 68-H ) :   0.9587 B( 35-C , 36-C ) :   1.3824
B( 35-C , 39-S ) :   1.0900 B( 36-C , 37-C ) :   1.3711 B( 36-C , 69-H ) :   0.9535
B( 37-C , 38-C ) :   1.4093 B( 37-C , 42-C ) :   0.9957 B( 38-C , 39-S ) :   1.1042
B( 38-C , 40-C ) :   1.2292 B( 40-C , 41-C ) :   1.3959 B( 40-C , 50-S ) :   1.1307
B( 41-C , 42-C ) :   1.0047 B( 41-C , 48-C ) :   1.3379 B( 42-C , 43-C ) :   1.7107
B( 43-C , 44-C ) :   1.1463 B( 43-C , 46-C ) :   1.1298 B( 44-C , 45-N ) :   2.9869
B( 46-C , 47-N ) :   2.9735 B( 48-C , 49-C ) :   1.4203 B( 48-C , 70-H ) :   0.9877
B( 49-C , 50-S ) :   1.0916 B( 49-C , 51-C ) :   1.1709 B( 51-C , 52-C ) :   1.6779
B( 51-C , 71-H ) :   0.9289 B( 52-C , 53-S ) :   1.0265 B( 52-C , 57-C ) :   1.0785
B( 53-S , 54-C ) :   0.9927 B( 53-S , 55-O ) :   0.1148 B( 54-C , 55-O ) :   2.1288
B( 54-C , 56-C ) :   0.9855 B( 56-C , 57-C ) :   1.6821 B( 56-C , 72-H ) :   0.9910
B( 57-C , 73-H ) :   0.9943

-----------------------------------------------------------------------------
         ABSORPTION SPECTRUM VIA TRANSITION ELECTRIC DIPOLE MOMENTS
-----------------------------------------------------------------------------
State   Energy  Wavelength   fosc         T2         TX        TY        TZ
        (cm-1)    (nm)                  (au**2)     (au)      (au)      (au)
-----------------------------------------------------------------------------
   0    6725.1   1487.0   0.255770515  12.52070   1.16623   2.80644  -1.81233
   1    7822.0   1278.5   0.096734026   4.07135   1.68286  -0.44988   1.01830
   2   12883.3    776.2   0.640119085  16.35718  -0.93106  -3.26493   2.19784
   3   14804.1    675.5   0.146755332   3.26354   1.73466   0.22119   0.45341
   4   16021.3    624.2   0.001430325   0.02939   0.06044  -0.09265   0.13098
   5   19718.7    507.1   1.160992515  19.38330   4.19737   0.60743   1.18170
   6   20438.0    489.3   0.042468120   0.68407  -0.78996  -0.24381  -0.02446
   7   20926.3    477.9   0.814278763  12.81020  -3.36728  -0.20557  -1.19557
   8   21764.5    459.5   0.097399397   1.47327  -0.97521  -0.55461   0.46330
   9   22668.7    441.1   0.179422611   2.60571   1.54400   0.29229   0.36923
  10   25360.1    394.3   0.074029958   0.96102   0.93685   0.28360   0.05380
  11   25949.7    385.4   0.097093019   1.23177   0.22724  -0.56668   0.92683
  12   26893.2    371.8   0.129647149   1.58707  -0.23343   0.81948  -0.92792
  13   27663.3    361.5   0.023058718   0.27441   0.28757  -0.31540   0.30372
  14   28014.5    357.0   0.233921317   2.74893   1.55789  -0.10528   0.55751
  15   28530.1    350.5   0.248076272   2.86258   0.70871   1.28057  -0.84879
  16   29146.3    343.1   0.031607667   0.35701   0.36445   0.41433  -0.22917
  17   29255.9    341.8   0.000277706   0.00312   0.03481   0.03883  -0.02013
  18   30028.6    333.0   0.411914482   4.51593  -0.65233  -1.20036   1.62774
  19   30073.6    332.5   0.248202251   2.71704   0.78591   1.01561  -1.03339
  20   30191.8    331.2   0.008202207   0.08944   0.13970   0.14751  -0.21946
  21   31122.7    321.3   0.147172539   1.55677   1.02311  -0.45884   0.54726
  22   31388.6    318.6   0.136783137   1.43462   1.18215   0.03898   0.18870
  23   31834.5    314.1   0.114800438   1.18719   0.13803   0.38933  -1.00825
  24   31970.7    312.8   0.057204403   0.58905  -0.76233   0.01771  -0.08713
  25   32322.3    309.4   0.248894918   2.53507   0.30539  -0.99706   1.20320
  26   32385.2    308.8   0.111672432   1.13521   0.33554   0.79355  -0.62682
  27   33177.4    301.4   0.173323583   1.71985  -0.78045  -0.82062   0.66131
  28   33269.6    300.6   0.002705279   0.02677   0.16041  -0.00031   0.03220
  29   33519.3    298.3   0.004793533   0.04708   0.01500   0.05556  -0.20921
  30   33715.7    296.6   0.242607454   2.36891  -1.33932   0.22406  -0.72453
  31   34034.0    293.8   0.002720374   0.02631   0.11515   0.09675  -0.06078
  32   34188.6    292.5   0.062958533   0.60625  -0.52104   0.07182  -0.57411
  33   34325.1    291.3   0.178173528   1.70886  -0.78459  -0.89506   0.54050
  34   35050.2    285.3   0.029512241   0.27720   0.18539  -0.36068   0.33576
  35   35444.1    282.1   0.241732283   2.24526   0.55217   0.86569  -1.09131
  36   35876.9    278.7   0.001872887   0.01719   0.11405  -0.02228   0.06068
  37   36120.3    276.9   0.003216423   0.02932  -0.05301  -0.14806   0.06771
  38   36203.3    276.2   0.000021236   0.00019  -0.01066  -0.00707  -0.00543
  39   36304.3    275.4   0.009711579   0.08807  -0.28547   0.07203   0.03724
  40   36476.1    274.2   0.001733246   0.01564   0.04926   0.07053   0.09078
  41   36743.9    272.2   0.019834749   0.17771  -0.25935   0.08478  -0.32134
  42   37020.1    270.1   0.007500963   0.06670  -0.23620  -0.07684  -0.07077
  43   37133.5    269.3   0.018187887   0.16125   0.04369  -0.19278   0.34954
  44   37519.5    266.5   0.003922350   0.03442   0.14225  -0.03063   0.11508
  45   37526.7    266.5   0.047074507   0.41297   0.55140  -0.11344   0.30993
  46   37699.3    265.3   0.003665280   0.03201   0.12913  -0.08827   0.08684
  47   37791.3    264.6   0.002229852   0.01942  -0.00136  -0.12449   0.06265
  48   38202.4    261.8   0.003974148   0.03425  -0.13017   0.03439  -0.12696
  49   38219.0    261.6   0.020246645   0.17440   0.29624  -0.07710   0.28407
  50   38491.1    259.8   0.026194896   0.22404   0.14408  -0.31137   0.32609
  51   38690.7    258.5   0.034122350   0.29034   0.46814  -0.02312   0.26580
  52   38789.4    257.8   0.019390132   0.16457  -0.03029   0.27862  -0.29330
  53   38890.0    257.1   0.041931496   0.35496   0.17599  -0.30419   0.48110
  54   39147.6    255.4   0.030134113   0.25341  -0.46002  -0.17577  -0.10441
  55   39290.6    254.5   0.029266878   0.24522  -0.38338  -0.30695   0.06345
  56   39572.2    252.7   0.014026904   0.11669   0.28645   0.13799  -0.12488
  57   39996.7    250.0   0.040002183   0.32926   0.35898  -0.19190   0.40443

FINAL SINGLE POINT ENERGY     -5237.528274086668

DIPOLE MOMENT
-------------
                                X             Y             Z
Electronic contribution:      2.34464      -2.59710       3.71296
Nuclear contribution   :     -6.62094       2.51205      -4.64451
                        -----------------------------------------
Total Dipole Moment    :     -4.27630      -0.08506      -0.93154
                        -----------------------------------------
Magnitude (a.u.)       :      4.37741
Magnitude (Debye)      :     11.12650

Rotational constants in cm-1:     0.001091     0.000633     0.000406
Rotational constants in MHz :    32.719990    18.980641    12.166212

                             ****ORCA TERMINATED NORMALLY****
TOTAL RUN TIME: 0 days 0 hours 6 minutes 47 seconds 113 msec
