                         Program Version 4.2.0 -  RELEASE  -
|  1> # ORCA input file
|  2> # SCF done       -193.138895946849          0.000390786681
|  3> ! CAM-B3LYP def2-SVP def2/J RIJCOSX Grid4 TightSCF
|  4> %maxcore 5000
|  5> %tddft
|  6>     Mode sTDDFT
|  7>     Ethresh 5.0
|  8>     maxcore 5000
|  9> end
| 10>
| 11> %pal
| 12>   nprocs 6
| 13>   end
| 14> * xyz 0 1
| 15>    C        0.84067         0.76354         2.38554
| 16>    O        1.86561         1.21742         1.92570
| 17>    C       -0.46476         1.40915         2.44764
| 18>    C       -1.42066         0.57765         3.01654
| 19>    C       -2.69147         1.18126         3.08281
| 20>    C       -2.65799         2.44152         2.56237
| 21>    S       -1.10526         2.92392         1.98825
| 22>    C       -0.79421        -0.67612         3.38051
| 23>    C       -1.43231        -1.69736         4.03353
| 24>    C       -2.80224        -1.61778         4.36587
| 25>    N       -3.91518        -1.57993         4.64145
| 26>    C       -0.85213        -2.90520         4.47017
| 27>    N       -0.44884        -3.90443         4.86791
| 28>    C        0.60336        -0.59206         2.96813
| 29>    C        1.46985        -1.64478         3.02713
| 30>    C        2.84829        -1.73041         2.73602
| 31>    C        3.82317        -0.76872         2.50832
| 32>    C        5.07681        -1.33108         2.30600
| 33>    C        5.06962        -2.74293         2.36753
| 34>    S        3.52645        -3.36668         2.70410
| 35>    C        6.38286        -3.21031         2.12197
| 36>    C        7.22337        -2.10260         1.91500
| 37>    C        6.43296        -0.88491         2.03419
| 38>    C        6.88708         0.39599         1.93193
| 39>    C        6.06098         1.52767         2.11094
| 40>    N        5.42529         2.46725         2.27233
| 41>    C        8.24254         0.68195         1.65953
| 42>    N        9.34364         0.91073         1.43634
| 43>    C        8.54590        -2.46412         1.66811
| 44>    C        8.71718        -3.83783         1.67950
| 45>    S        7.22064        -4.69651         2.00521
| 46>    C        9.92210        -4.55362         1.46676
| 47>    C       10.09683        -5.92531         1.42486
| 48>    C       11.42736        -6.27366         1.19601
| 49>    C       12.27067        -5.15616         1.06780
| 50>    S       11.42831        -3.67990         1.22066
| 51>    C       13.59485        -5.61130         0.84817
| 52>    C       13.58976        -7.01692         0.83165
| 53>    C       12.22762        -7.48000         1.04949
| 54>    C       11.79324        -8.77098         1.10801
| 55>    C       10.43750        -9.09478         1.32864
| 56>    N        9.33568        -9.35571         1.50779
| 57>    C       12.67214        -9.86419         0.95356
| 58>    N       13.38823       -10.75076         0.82944
| 59>    C       14.85704        -7.56138         0.62656
| 60>    C       15.82447        -6.58156         0.49352
| 61>    S       15.15539        -4.96016         0.61675
| 62>    C       17.21702        -6.75612         0.29289
| 63>    C       18.18352        -5.76754         0.22670
| 64>    C       19.45793        -6.29846         0.04065
| 65>    C       19.46162        -7.70200        -0.04313
| 66>    S       17.89498        -8.36633         0.11244
| 67>    C       20.79639        -8.14213        -0.22961
| 68>    C       21.63635        -7.01076        -0.25143
| 69>    C       20.82421        -5.81779        -0.09761
| 70>    C       21.25623        -4.52450        -0.11607
| 71>    C       20.37163        -3.43574         0.03199
| 72>    N       19.64729        -2.55673         0.16221
| 73>    C       22.62131        -4.20909        -0.28435
| 74>    N       23.73487        -3.97027        -0.41736
| 75>    C       22.97350        -7.33179        -0.44874
| 76>    C       23.16971        -8.69632        -0.59266
| 77>    S       21.66145        -9.59213        -0.43802
| 78>    C       24.37915        -9.40487        -0.77788
| 79>    C       25.57910        -8.94777        -1.22304
| 80>    C       26.79939        -9.77596        -0.93908
| 81>    O       26.81419       -10.91578        -0.53778
| 82>    C       27.90424        -8.86768        -1.21446
| 83>    C       27.44655        -7.65917        -1.72955
| 84>    C       26.00377        -7.72008        -1.87516
| 85>    C       25.27981        -6.89001        -2.68978
| 86>    C       25.87228        -5.78611        -3.34090
| 87>    N       26.33662        -4.88586        -3.87839
| 88>    C       23.93116        -7.08207        -3.04239
| 89>    N       22.84180        -7.21085        -3.38164
| 90>    C       28.49016        -6.75682        -2.00670
| 91>    C       29.69987        -7.30111        -1.68860
| 92>    S       29.60658        -8.90667        -1.06775
| 93>    H       -3.57698         0.72378         3.48283
| 94>    H       -3.47628         3.13035         2.48302
| 95>    H        1.04471        -2.59186         3.34004
| 96>    H        3.60523         0.28346         2.48611
| 97>    H        9.35364        -1.77865         1.48436
| 98>    H        9.28624        -6.61984         1.55471
| 99>    H       15.08169        -8.61184         0.57859
|100>    H       17.95484        -4.72059         0.31590
|101>    H       23.77926        -6.62091        -0.44069
|102>    H       24.37791       -10.44496        -0.46541
|103>    H       28.36437        -5.76685        -2.40396
|104>    H       30.66343        -6.84122        -1.79082
|105> *
|106>
|107>                          ****END OF INPUT****

CARTESIAN COORDINATES (ANGSTROEM)
---------------------------------
  C      0.840670    0.763540    2.385540
  O      1.865610    1.217420    1.925700
  C     -0.464760    1.409150    2.447640
  C     -1.420660    0.577650    3.016540
  C     -2.691470    1.181260    3.082810
  C     -2.657990    2.441520    2.562370
  S     -1.105260    2.923920    1.988250
  C     -0.794210   -0.676120    3.380510
  C     -1.432310   -1.697360    4.033530
  C     -2.802240   -1.617780    4.365870
  N     -3.915180   -1.579930    4.641450
  C     -0.852130   -2.905200    4.470170
  N     -0.448840   -3.904430    4.867910
  C      0.603360   -0.592060    2.968130
  C      1.469850   -1.644780    3.027130
  C      2.848290   -1.730410    2.736020
  C      3.823170   -0.768720    2.508320
  C      5.076810   -1.331080    2.306000
  C      5.069620   -2.742930    2.367530
  S      3.526450   -3.366680    2.704100
  C      6.382860   -3.210310    2.121970
  C      7.223370   -2.102600    1.915000
  C      6.432960   -0.884910    2.034190
  C      6.887080    0.395990    1.931930
  C      6.060980    1.527670    2.110940
  N      5.425290    2.467250    2.272330
  C      8.242540    0.681950    1.659530
  N      9.343640    0.910730    1.436340
  C      8.545900   -2.464120    1.668110
  C      8.717180   -3.837830    1.679500
  S      7.220640   -4.696510    2.005210
  C      9.922100   -4.553620    1.466760
  C     10.096830   -5.925310    1.424860
  C     11.427360   -6.273660    1.196010
  C     12.270670   -5.156160    1.067800
  S     11.428310   -3.679900    1.220660
  C     13.594850   -5.611300    0.848170
  C     13.589760   -7.016920    0.831650
  C     12.227620   -7.480000    1.049490
  C     11.793240   -8.770980    1.108010
  C     10.437500   -9.094780    1.328640
  N      9.335680   -9.355710    1.507790
  C     12.672140   -9.864190    0.953560
  N     13.388230  -10.750760    0.829440
  C     14.857040   -7.561380    0.626560
  C     15.824470   -6.581560    0.493520
  S     15.155390   -4.960160    0.616750
  C     17.217020   -6.756120    0.292890
  C     18.183520   -5.767540    0.226700
  C     19.457930   -6.298460    0.040650
  C     19.461620   -7.702000   -0.043130
  S     17.894980   -8.366330    0.112440
  C     20.796390   -8.142130   -0.229610
  C     21.636350   -7.010760   -0.251430
  C     20.824210   -5.817790   -0.097610
  C     21.256230   -4.524500   -0.116070
  C     20.371630   -3.435740    0.031990
  N     19.647290   -2.556730    0.162210
  C     22.621310   -4.209090   -0.284350
  N     23.734870   -3.970270   -0.417360
  C     22.973500   -7.331790   -0.448740
  C     23.169710   -8.696320   -0.592660
  S     21.661450   -9.592130   -0.438020
  C     24.379150   -9.404870   -0.777880
  C     25.579100   -8.947770   -1.223040
  C     26.799390   -9.775960   -0.939080
  O     26.814190  -10.915780   -0.537780
  C     27.904240   -8.867680   -1.214460
  C     27.446550   -7.659170   -1.729550
  C     26.003770   -7.720080   -1.875160
  C     25.279810   -6.890010   -2.689780
  C     25.872280   -5.786110   -3.340900
  N     26.336620   -4.885860   -3.878390
  C     23.931160   -7.082070   -3.042390
  N     22.841800   -7.210850   -3.381640
  C     28.490160   -6.756820   -2.006700
  C     29.699870   -7.301110   -1.688600
  S     29.606580   -8.906670   -1.067750
  H     -3.576980    0.723780    3.482830
  H     -3.476280    3.130350    2.483020
  H      1.044710   -2.591860    3.340040
  H      3.605230    0.283460    2.486110
  H      9.353640   -1.778650    1.484360
  H      9.286240   -6.619840    1.554710
  H     15.081690   -8.611840    0.578590
  H     17.954840   -4.720590    0.315900
  H     23.779260   -6.620910   -0.440690
  H     24.377910  -10.444960   -0.465410
  H     28.364370   -5.766850   -2.403960
  H     30.663430   -6.841220   -1.790820

 Total Charge           Charge          ....    0
 Multiplicity           Mult            ....    1
 Number of Electrons    NEL             ....  574
 Basis Dimension        Dim             .... 1184

ORBITAL ENERGIES
----------------

  NO   OCC          E(Eh)            E(eV)
   0   2.0000     -89.003793     -2421.9163
   1   2.0000     -89.003355     -2421.9044
   2   2.0000     -89.003207     -2421.9004
   3   2.0000     -89.002648     -2421.8852
   4   2.0000     -89.000379     -2421.8234
   5   2.0000     -88.999660     -2421.8039
   6   2.0000     -88.991374     -2421.5784
   7   2.0000     -88.991175     -2421.5730
   8   2.0000     -19.225214      -523.1447
   9   2.0000     -19.222194      -523.0625
  10   2.0000     -14.441484      -392.9728
  11   2.0000     -14.441423      -392.9711
  12   2.0000     -14.438433      -392.8897
  13   2.0000     -14.438289      -392.8858
  14   2.0000     -14.438234      -392.8843
  15   2.0000     -14.433847      -392.7649
  16   2.0000     -14.424094      -392.4996
  17   2.0000     -14.423912      -392.4946
  18   2.0000     -14.418884      -392.3578
  19   2.0000     -14.418417      -392.3451
  20   2.0000     -10.384083      -282.5653
  21   2.0000     -10.380498      -282.4677
  22   2.0000     -10.377059      -282.3741
  23   2.0000     -10.373867      -282.2873
  24   2.0000     -10.373641      -282.2811
  25   2.0000     -10.363933      -282.0169
  26   2.0000     -10.360455      -281.9223
  27   2.0000     -10.360115      -281.9131
  28   2.0000     -10.352277      -281.6998
  29   2.0000     -10.351264      -281.6722
  30   2.0000     -10.350320      -281.6465
  31   2.0000     -10.349945      -281.6363
  32   2.0000     -10.349530      -281.6250
  33   2.0000     -10.347784      -281.5775
  34   2.0000     -10.345567      -281.5172
  35   2.0000     -10.345526      -281.5161
  36   2.0000     -10.344685      -281.4932
  37   2.0000     -10.343550      -281.4623
  38   2.0000     -10.342644      -281.4377
  39   2.0000     -10.342576      -281.4358
  40   2.0000     -10.342292      -281.4281
  41   2.0000     -10.342144      -281.4240
  42   2.0000     -10.341541      -281.4076
  43   2.0000     -10.341483      -281.4061
  44   2.0000     -10.338478      -281.3243
  45   2.0000     -10.338398      -281.3221
  46   2.0000     -10.338363      -281.3212
  47   2.0000     -10.332846      -281.1710
  48   2.0000     -10.331771      -281.1418
  49   2.0000     -10.331727      -281.1406
  50   2.0000     -10.330732      -281.1135
  51   2.0000     -10.328115      -281.0423
  52   2.0000     -10.326509      -280.9986
  53   2.0000     -10.325369      -280.9676
  54   2.0000     -10.325147      -280.9615
  55   2.0000     -10.324480      -280.9434
  56   2.0000     -10.321488      -280.8620
  57   2.0000     -10.320462      -280.8340
  58   2.0000     -10.319653      -280.8120
  59   2.0000     -10.319178      -280.7991
  60   2.0000     -10.318571      -280.7826
  61   2.0000     -10.317121      -280.7431
  62   2.0000     -10.316474      -280.7255
  63   2.0000     -10.316388      -280.7232
  64   2.0000     -10.316378      -280.7229
  65   2.0000     -10.316158      -280.7169
  66   2.0000     -10.316008      -280.7128
  67   2.0000     -10.315230      -280.6917
  68   2.0000     -10.314245      -280.6649
  69   2.0000     -10.314178      -280.6631
  70   2.0000     -10.313766      -280.6518
  71   2.0000     -10.312097      -280.6064
  72   2.0000     -10.311600      -280.5929
  73   2.0000     -10.309723      -280.5418
  74   2.0000     -10.309142      -280.5260
  75   2.0000     -10.308204      -280.5005
  76   2.0000     -10.301903      -280.3290
  77   2.0000     -10.301466      -280.3171
  78   2.0000      -8.098196      -220.3631
  79   2.0000      -8.097765      -220.3514
  80   2.0000      -8.097657      -220.3484
  81   2.0000      -8.097101      -220.3333
  82   2.0000      -8.095090      -220.2786
  83   2.0000      -8.094391      -220.2596
  84   2.0000      -8.086483      -220.0444
  85   2.0000      -8.086072      -220.0332
  86   2.0000      -6.067491      -165.1048
  87   2.0000      -6.067101      -165.0942
  88   2.0000      -6.066966      -165.0905
  89   2.0000      -6.066416      -165.0756
  90   2.0000      -6.064253      -165.0167
  91   2.0000      -6.063498      -164.9962
  92   2.0000      -6.063301      -164.9908
  93   2.0000      -6.062902      -164.9799
  94   2.0000      -6.062766      -164.9763
  95   2.0000      -6.062233      -164.9617
  96   2.0000      -6.060464      -164.9136
  97   2.0000      -6.060087      -164.9033
  98   2.0000      -6.059970      -164.9002
  99   2.0000      -6.059914      -164.8986
 100   2.0000      -6.059351      -164.8833
 101   2.0000      -6.059324      -164.8826
 102   2.0000      -6.057572      -164.8349
 103   2.0000      -6.056954      -164.8181
 104   2.0000      -6.055658      -164.7828
 105   2.0000      -6.055198      -164.7703
 106   2.0000      -6.051177      -164.6609
 107   2.0000      -6.050794      -164.6505
 108   2.0000      -6.049209      -164.6073
 109   2.0000      -6.048888      -164.5986
 110   2.0000      -1.142552       -31.0904
 111   2.0000      -1.139417       -31.0051
 112   2.0000      -1.059117       -28.8200
 113   2.0000      -1.056108       -28.7382
 114   2.0000      -1.054393       -28.6915
 115   2.0000      -1.033679       -28.1278
 116   2.0000      -1.032354       -28.0918
 117   2.0000      -1.031734       -28.0749
 118   2.0000      -1.030310       -28.0361
 119   2.0000      -1.029041       -28.0016
 120   2.0000      -1.020779       -27.7768
 121   2.0000      -1.018601       -27.7175
 122   2.0000      -1.015964       -27.6458
 123   2.0000      -1.014310       -27.6008
 124   2.0000      -1.014162       -27.5968
 125   2.0000      -1.012907       -27.5626
 126   2.0000      -1.010004       -27.4836
 127   2.0000      -1.001124       -27.2420
 128   2.0000      -0.999616       -27.2009
 129   2.0000      -0.998328       -27.1659
 130   2.0000      -0.977305       -26.5938
 131   2.0000      -0.971646       -26.4398
 132   2.0000      -0.968334       -26.3497
 133   2.0000      -0.964783       -26.2531
 134   2.0000      -0.963324       -26.2134
 135   2.0000      -0.933895       -25.4126
 136   2.0000      -0.927578       -25.2407
 137   2.0000      -0.918084       -24.9823
 138   2.0000      -0.908225       -24.7141
 139   2.0000      -0.906367       -24.6635
 140   2.0000      -0.889779       -24.2121
 141   2.0000      -0.888741       -24.1839
 142   2.0000      -0.882441       -24.0124
 143   2.0000      -0.881466       -23.9859
 144   2.0000      -0.873266       -23.7628
 145   2.0000      -0.872232       -23.7346
 146   2.0000      -0.865629       -23.5550
 147   2.0000      -0.861843       -23.4519
 148   2.0000      -0.858779       -23.3686
 149   2.0000      -0.858093       -23.3499
 150   2.0000      -0.844264       -22.9736
 151   2.0000      -0.820861       -22.3368
 152   2.0000      -0.802045       -21.8248
 153   2.0000      -0.793683       -21.5972
 154   2.0000      -0.790489       -21.5103
 155   2.0000      -0.783841       -21.3294
 156   2.0000      -0.777982       -21.1700
 157   2.0000      -0.772899       -21.0316
 158   2.0000      -0.769146       -20.9295
 159   2.0000      -0.758111       -20.6293
 160   2.0000      -0.739433       -20.1210
 161   2.0000      -0.722328       -19.6555
 162   2.0000      -0.714069       -19.4308
 163   2.0000      -0.713161       -19.4061
 164   2.0000      -0.707136       -19.2421
 165   2.0000      -0.702015       -19.1028
 166   2.0000      -0.698068       -18.9954
 167   2.0000      -0.693283       -18.8652
 168   2.0000      -0.692748       -18.8506
 169   2.0000      -0.687427       -18.7058
 170   2.0000      -0.682779       -18.5794
 171   2.0000      -0.678878       -18.4732
 172   2.0000      -0.671060       -18.2605
 173   2.0000      -0.670309       -18.2400
 174   2.0000      -0.651663       -17.7327
 175   2.0000      -0.645690       -17.5701
 176   2.0000      -0.643936       -17.5224
 177   2.0000      -0.642524       -17.4840
 178   2.0000      -0.637051       -17.3351
 179   2.0000      -0.632511       -17.2115
 180   2.0000      -0.630490       -17.1565
 181   2.0000      -0.629622       -17.1329
 182   2.0000      -0.624727       -16.9997
 183   2.0000      -0.622180       -16.9304
 184   2.0000      -0.614099       -16.7105
 185   2.0000      -0.613360       -16.6904
 186   2.0000      -0.607411       -16.5285
 187   2.0000      -0.601574       -16.3697
 188   2.0000      -0.589594       -16.0437
 189   2.0000      -0.581953       -15.8357
 190   2.0000      -0.573889       -15.6163
 191   2.0000      -0.571331       -15.5467
 192   2.0000      -0.562059       -15.2944
 193   2.0000      -0.560042       -15.2395
 194   2.0000      -0.557557       -15.1719
 195   2.0000      -0.556123       -15.1329
 196   2.0000      -0.552959       -15.0468
 197   2.0000      -0.548534       -14.9264
 198   2.0000      -0.546852       -14.8806
 199   2.0000      -0.543982       -14.8025
 200   2.0000      -0.538114       -14.6428
 201   2.0000      -0.534233       -14.5372
 202   2.0000      -0.529294       -14.4028
 203   2.0000      -0.527178       -14.3452
 204   2.0000      -0.525168       -14.2905
 205   2.0000      -0.522386       -14.2149
 206   2.0000      -0.519728       -14.1425
 207   2.0000      -0.518617       -14.1123
 208   2.0000      -0.514805       -14.0086
 209   2.0000      -0.513714       -13.9789
 210   2.0000      -0.512357       -13.9419
 211   2.0000      -0.510561       -13.8931
 212   2.0000      -0.509656       -13.8685
 213   2.0000      -0.507480       -13.8092
 214   2.0000      -0.505236       -13.7482
 215   2.0000      -0.502968       -13.6865
 216   2.0000      -0.501187       -13.6380
 217   2.0000      -0.499646       -13.5961
 218   2.0000      -0.498170       -13.5559
 219   2.0000      -0.494526       -13.4567
 220   2.0000      -0.491619       -13.3776
 221   2.0000      -0.490369       -13.3436
 222   2.0000      -0.486828       -13.2473
 223   2.0000      -0.484491       -13.1837
 224   2.0000      -0.482280       -13.1235
 225   2.0000      -0.480237       -13.0679
 226   2.0000      -0.478166       -13.0116
 227   2.0000      -0.474817       -12.9204
 228   2.0000      -0.472701       -12.8628
 229   2.0000      -0.472091       -12.8463
 230   2.0000      -0.468857       -12.7583
 231   2.0000      -0.468695       -12.7538
 232   2.0000      -0.467916       -12.7326
 233   2.0000      -0.467228       -12.7139
 234   2.0000      -0.465669       -12.6715
 235   2.0000      -0.461620       -12.5613
 236   2.0000      -0.459099       -12.4927
 237   2.0000      -0.456886       -12.4325
 238   2.0000      -0.456525       -12.4227
 239   2.0000      -0.454120       -12.3572
 240   2.0000      -0.453525       -12.3410
 241   2.0000      -0.452376       -12.3098
 242   2.0000      -0.451949       -12.2981
 243   2.0000      -0.451476       -12.2853
 244   2.0000      -0.450714       -12.2646
 245   2.0000      -0.450162       -12.2495
 246   2.0000      -0.448242       -12.1973
 247   2.0000      -0.447758       -12.1841
 248   2.0000      -0.447410       -12.1746
 249   2.0000      -0.446026       -12.1370
 250   2.0000      -0.445867       -12.1327
 251   2.0000      -0.445641       -12.1265
 252   2.0000      -0.444835       -12.1046
 253   2.0000      -0.444275       -12.0893
 254   2.0000      -0.437214       -11.8972
 255   2.0000      -0.436534       -11.8787
 256   2.0000      -0.434100       -11.8125
 257   2.0000      -0.433707       -11.8018
 258   2.0000      -0.433170       -11.7872
 259   2.0000      -0.432775       -11.7764
 260   2.0000      -0.430749       -11.7213
 261   2.0000      -0.430470       -11.7137
 262   2.0000      -0.422906       -11.5079
 263   2.0000      -0.417437       -11.3590
 264   2.0000      -0.417263       -11.3543
 265   2.0000      -0.415806       -11.3147
 266   2.0000      -0.415618       -11.3096
 267   2.0000      -0.402699       -10.9580
 268   2.0000      -0.394846       -10.7443
 269   2.0000      -0.383383       -10.4324
 270   2.0000      -0.364444        -9.9170
 271   2.0000      -0.364324        -9.9137
 272   2.0000      -0.360199        -9.8015
 273   2.0000      -0.356780        -9.7085
 274   2.0000      -0.350542        -9.5387
 275   2.0000      -0.349427        -9.5084
 276   2.0000      -0.346616        -9.4319
 277   2.0000      -0.342866        -9.3299
 278   2.0000      -0.338145        -9.2014
 279   2.0000      -0.332213        -9.0400
 280   2.0000      -0.331414        -9.0182
 281   2.0000      -0.328807        -8.9473
 282   2.0000      -0.318228        -8.6594
 283   2.0000      -0.316166        -8.6033
 284   2.0000      -0.303043        -8.2462
 285   2.0000      -0.275434        -7.4949
 286   2.0000      -0.250026        -6.8036
 287   0.0000      -0.122651        -3.3375
 288   0.0000      -0.115004        -3.1294
 289   0.0000      -0.112769        -3.0686
 290   0.0000      -0.087664        -2.3855
 291   0.0000      -0.087041        -2.3685

MULLIKEN ATOMIC CHARGES
-----------------------
   0 C :    0.139610
   1 O :   -0.143791
   2 C :   -0.168632
   3 C :    0.001290
   4 C :    0.028151
   5 C :   -0.059341
   6 S :    0.218626
   7 C :    0.303953
   8 C :   -0.344795
   9 C :   -0.191328
  10 N :    0.155366
  11 C :   -0.182195
  12 N :    0.156608
  13 C :   -0.101275
  14 C :    0.028223
  15 C :   -0.113872
  16 C :   -0.000299
  17 C :   -0.009932
  18 C :   -0.082407
  19 S :    0.207328
  20 C :   -0.105013
  21 C :    0.024960
  22 C :    0.305940
  23 C :   -0.292681
  24 C :   -0.191431
  25 N :    0.196456
  26 C :   -0.189891
  27 N :    0.173333
  28 C :   -0.069150
  29 C :   -0.043322
  30 S :    0.205637
  31 C :   -0.056010
  32 C :   -0.061275
  33 C :    0.015477
  34 C :   -0.094954
  35 S :    0.204314
  36 C :   -0.097586
  37 C :    0.017678
  38 C :    0.295436
  39 C :   -0.289651
  40 C :   -0.187272
  41 N :    0.176741
  42 C :   -0.188725
  43 N :    0.178234
  44 C :   -0.064808
  45 C :   -0.051880
  46 S :    0.203137
  47 C :   -0.045685
  48 C :   -0.068033
  49 C :    0.024567
  50 C :   -0.105639
  51 S :    0.204032
  52 C :   -0.070757
  53 C :   -0.006443
  54 C :    0.301798
  55 C :   -0.282247
  56 C :   -0.189353
  57 N :    0.177458
  58 C :   -0.184824
  59 N :    0.173530
  60 C :   -0.006004
  61 C :   -0.108869
  62 S :    0.214899
  63 C :    0.078822
  64 C :   -0.152140
  65 C :    0.115989
  66 O :   -0.139567
  67 C :   -0.153814
  68 C :   -0.020750
  69 C :    0.279072
  70 C :   -0.322421
  71 C :   -0.173488
  72 N :    0.160885
  73 C :   -0.198604
  74 N :    0.172116
  75 C :    0.036529
  76 C :   -0.061328
  77 S :    0.212569
  78 H :    0.018197
  79 H :    0.045016
  80 H :    0.007838
  81 H :    0.038224
  82 H :    0.015147
  83 H :    0.014640
  84 H :    0.013851
  85 H :    0.015314
  86 H :    0.026315
  87 H :    0.021795
  88 H :    0.021236
  89 H :    0.045149
Sum of atomic charges:   -0.0000000

LOEWDIN ATOMIC CHARGES
----------------------
   0 C :    0.069845
   1 O :   -0.134782
   2 C :   -0.207942
   3 C :   -0.040773
   4 C :   -0.043866
   5 C :   -0.148680
   6 S :    0.508643
   7 C :    0.076904
   8 C :   -0.138501
   9 C :   -0.016915
  10 N :   -0.050641
  11 C :   -0.024498
  12 N :   -0.048008
  13 C :   -0.091604
  14 C :    0.034829
  15 C :   -0.178622
  16 C :    0.016230
  17 C :   -0.076021
  18 C :   -0.160871
  19 S :    0.496778
  20 C :   -0.189627
  21 C :   -0.052053
  22 C :    0.076064
  23 C :   -0.092112
  24 C :   -0.022690
  25 N :   -0.013065
  26 C :   -0.014739
  27 N :   -0.031008
  28 C :   -0.041576
  29 C :   -0.169840
  30 S :    0.489197
  31 C :   -0.181668
  32 C :   -0.033343
  33 C :   -0.067584
  34 C :   -0.176784
  35 S :    0.492163
  36 C :   -0.179202
  37 C :   -0.066232
  38 C :    0.081360
  39 C :   -0.097422
  40 C :   -0.016495
  41 N :   -0.028572
  42 C :   -0.016493
  43 N :   -0.028665
  44 C :   -0.035363
  45 C :   -0.178971
  46 S :    0.491740
  47 C :   -0.173700
  48 C :   -0.038790
  49 C :   -0.055682
  50 C :   -0.183759
  51 S :    0.490314
  52 C :   -0.160459
  53 C :   -0.067799
  54 C :    0.082829
  55 C :   -0.095544
  56 C :   -0.016365
  57 N :   -0.029179
  58 C :   -0.012995
  59 N :   -0.029547
  60 C :    0.007084
  61 C :   -0.182877
  62 S :    0.499381
  63 C :    0.036141
  64 C :   -0.086094
  65 C :    0.066567
  66 O :   -0.141007
  67 C :   -0.212645
  68 C :   -0.035099
  69 C :    0.065770
  70 C :   -0.133265
  71 C :   -0.017300
  72 N :   -0.043418
  73 C :   -0.016707
  74 N :   -0.043036
  75 C :   -0.043415
  76 C :   -0.146827
  77 S :    0.504180
  78 H :    0.043720
  79 H :    0.031873
  80 H :    0.042858
  81 H :    0.043714
  82 H :    0.036295
  83 H :    0.037047
  84 H :    0.036873
  85 H :    0.036555
  86 H :    0.042353
  87 H :    0.046288
  88 H :    0.045077
  89 H :    0.032070

  Mayer bond orders larger than 0.100000
B(  0-C ,  1-O ) :   2.1630 B(  0-C ,  2-C ) :   1.0656 B(  0-C , 13-C ) :   0.9312
B(  2-C ,  3-C ) :   1.4571 B(  2-C ,  6-S ) :   1.1318 B(  3-C ,  4-C ) :   1.2700
B(  3-C ,  7-C ) :   1.0007 B(  4-C ,  5-C ) :   1.5428 B(  4-C , 78-H ) :   0.9950
B(  5-C ,  6-S ) :   1.1874 B(  5-C , 79-H ) :   0.9620 B(  7-C ,  8-C ) :   1.6443
B(  7-C , 13-C ) :   1.0710 B(  8-C ,  9-C ) :   1.1498 B(  8-C , 11-C ) :   1.1321
B(  9-C , 10-N ) :   2.9882 B( 11-C , 12-N ) :   2.9733 B( 13-C , 14-C ) :   1.6424
B( 14-C , 15-C ) :   1.1935 B( 14-C , 80-H ) :   0.9129 B( 15-C , 16-C ) :   1.4121
B( 15-C , 19-S ) :   1.0779 B( 16-C , 17-C ) :   1.3136 B( 16-C , 81-H ) :   0.9729
B( 17-C , 18-C ) :   1.3861 B( 17-C , 22-C ) :   0.9969 B( 18-C , 19-S ) :   1.1649
B( 18-C , 20-C ) :   1.2009 B( 20-C , 21-C ) :   1.4421 B( 20-C , 30-S ) :   1.1075
B( 21-C , 22-C ) :   0.9925 B( 21-C , 28-C ) :   1.3092 B( 22-C , 23-C ) :   1.7185
B( 23-C , 24-C ) :   1.1347 B( 23-C , 26-C ) :   1.1353 B( 24-C , 25-N ) :   2.9976
B( 26-C , 27-N ) :   2.9873 B( 28-C , 29-C ) :   1.4475 B( 28-C , 82-H ) :   0.9850
B( 29-C , 30-S ) :   1.1199 B( 29-C , 31-C ) :   1.1718 B( 31-C , 32-C ) :   1.4554
B( 31-C , 35-S ) :   1.1075 B( 32-C , 33-C ) :   1.3052 B( 32-C , 83-H ) :   0.9866
B( 33-C , 34-C ) :   1.4415 B( 33-C , 38-C ) :   0.9945 B( 34-C , 35-S ) :   1.1252
B( 34-C , 36-C ) :   1.1879 B( 36-C , 37-C ) :   1.4446 B( 36-C , 46-S ) :   1.1227
B( 37-C , 38-C ) :   0.9934 B( 37-C , 44-C ) :   1.3036 B( 38-C , 39-C ) :   1.7195
B( 39-C , 40-C ) :   1.1325 B( 39-C , 42-C ) :   1.1322 B( 40-C , 41-N ) :   2.9917
B( 42-C , 43-N ) :   2.9929 B( 44-C , 45-C ) :   1.4550 B( 44-C , 84-H ) :   0.9878
B( 45-C , 46-S ) :   1.1095 B( 45-C , 47-C ) :   1.1708 B( 47-C , 48-C ) :   1.4487
B( 47-C , 51-S ) :   1.1173 B( 48-C , 49-C ) :   1.3085 B( 48-C , 85-H ) :   0.9864
B( 49-C , 50-C ) :   1.4465 B( 49-C , 54-C ) :   0.9922 B( 50-C , 51-S ) :   1.1130
B( 50-C , 52-C ) :   1.1931 B( 52-C , 53-C ) :   1.4157 B( 52-C , 62-S ) :   1.1523
B( 53-C , 54-C ) :   1.0014 B( 53-C , 60-C ) :   1.3518 B( 54-C , 55-C ) :   1.7207
B( 55-C , 56-C ) :   1.1310 B( 55-C , 58-C ) :   1.1349 B( 56-C , 57-N ) :   2.9921
B( 58-C , 59-N ) :   2.9831 B( 60-C , 61-C ) :   1.4078 B( 60-C , 86-H ) :   0.9795
B( 61-C , 62-S ) :   1.0907 B( 61-C , 63-C ) :   1.1188 B( 63-C , 64-C ) :   1.7155
B( 63-C , 87-H ) :   0.9259 B( 64-C , 65-C ) :   0.9426 B( 64-C , 69-C ) :   1.0198
B( 65-C , 66-O ) :   2.2389 B( 65-C , 67-C ) :   1.0333 B( 67-C , 68-C ) :   1.4519
B( 67-C , 77-S ) :   1.1283 B( 68-C , 69-C ) :   1.0178 B( 68-C , 75-C ) :   1.2787
B( 69-C , 70-C ) :   1.6650 B( 70-C , 71-C ) :   1.1261 B( 70-C , 73-C ) :   1.1648
B( 71-C , 72-N ) :   3.0003 B( 73-C , 74-N ) :   2.9993 B( 75-C , 76-C ) :   1.5369
B( 75-C , 88-H ) :   0.9944 B( 76-C , 77-S ) :   1.1908 B( 76-C , 89-H ) :   0.9628

-----------------------------------------------------------------------------
         ABSORPTION SPECTRUM VIA TRANSITION ELECTRIC DIPOLE MOMENTS
-----------------------------------------------------------------------------
State   Energy  Wavelength   fosc         T2         TX        TY        TZ
        (cm-1)    (nm)                  (au**2)     (au)      (au)      (au)
-----------------------------------------------------------------------------
   0   11236.1    890.0   0.529855954  15.52450   3.70766  -1.16595  -0.64675
   1   12793.4    781.7   0.213870287   5.50349  -2.23893   0.55162   0.43176
   2   13241.4    755.2   0.072956447   1.81386   1.16058  -0.65721  -0.18703
   3   20274.0    493.2   0.960184937  15.59160   3.75627  -0.77097  -0.94215
   4   20405.2    490.1   0.555235145   8.95803   2.81720  -0.77220  -0.65202
   5   21462.6    465.9   0.209849548   3.21886   1.57195  -0.86462   0.01622
   6   22495.1    444.5   0.108739791   1.59139   1.15550  -0.04178  -0.50445
   7   22862.2    437.4   0.298178428   4.29372  -1.99018   0.43206   0.38241
   8   24595.1    406.6   0.730298083   9.77522   2.81570  -1.34088  -0.22151
   9   25518.7    391.9   0.114832193   1.48143   1.18105   0.08992  -0.28012
  10   26641.0    375.4   0.018379063   0.22712   0.43737  -0.18636  -0.03304
  11   27724.6    360.7   0.023425923   0.27817   0.50427  -0.09400   0.12266
  12   28162.0    355.1   0.023899968   0.27939  -0.17830   0.48278  -0.12051
  13   28568.8    350.0   0.097875234   1.12786   0.76177  -0.70177   0.23469
  14   29211.3    342.3   0.013399068   0.15101   0.32856  -0.16593  -0.12460
  15   29748.8    336.1   0.018656220   0.20646  -0.13596  -0.42931  -0.06052
  16   30106.6    332.2   0.028581586   0.31254   0.02370  -0.38066  -0.40874
  17   30490.3    328.0   0.336961008   3.63826   1.85165  -0.00471  -0.45787
  18   31019.2    322.4   0.341479336   3.62417   0.44439   1.85112  -0.00690
  19   31238.9    320.1   0.048135855   0.50728   0.27922   0.65408   0.03868
  20   31340.4    319.1   0.043607081   0.45807   0.51840  -0.39406  -0.18453
  21   31592.4    316.5   1.145292805  11.93466   1.34666   3.18100   0.04894
  22   31895.7    313.5   0.027382687   0.28263  -0.13823   0.50775   0.07556
  23   32103.9    311.5   0.102316772   1.04922  -0.45390  -0.91735   0.04062
  24   32626.0    306.5   0.099817587   1.00721  -0.17691  -0.90070   0.40578
  25   32891.2    304.0   0.142807944   1.42938   1.18183   0.16598   0.07155
  26   32994.8    303.1   0.039656204   0.39568  -0.42751   0.44842   0.10877
  27   33019.9    302.8   0.015140851   0.15096   0.32783  -0.20685   0.02646
  28   33198.0    301.2   0.218316938   2.16497   1.36943   0.48125  -0.24087
  29   33291.3    300.4   0.245113442   2.42389  -0.94940   1.23375  -0.01984
  30   33466.3    298.8   0.167793626   1.65060  -1.04440   0.74644  -0.05161
  31   33946.4    294.6   0.052189594   0.50613   0.56159   0.19456  -0.39101
  32   34118.5    293.1   0.028764580   0.27755   0.47595  -0.08857   0.20778
  33   34291.9    291.6   0.016724873   0.16056   0.36346  -0.11229   0.12590
  34   34446.4    290.3   0.045787707   0.43760   0.08810  -0.63441   0.16541
  35   34659.3    288.5   0.176996697   1.68121   0.85275  -0.92654   0.30911
  36   34797.6    287.4   0.149028371   1.40992   1.14211  -0.19772  -0.25772
  37   34992.8    285.8   0.073298751   0.68959  -0.11178  -0.76519   0.30263
  38   35567.5    281.2   0.042341072   0.39191  -0.31971  -0.50004  -0.19914
  39   35640.3    280.6   0.056524466   0.52212   0.06568  -0.71012  -0.11633
  40   35690.1    280.2   0.032312675   0.29806   0.54344   0.03385  -0.03982
  41   35873.8    278.8   0.146725103   1.34649   0.93608  -0.57869   0.36791
  42   36055.7    277.3   0.153303192   1.39976   0.64838  -0.96185   0.23280
  43   36121.3    276.8   0.207907080   1.89488  -0.36487  -1.22823   0.50319
  44   36320.7    275.3   0.062474672   0.56627  -0.00056  -0.67477   0.33310
  45   36453.3    274.3   0.006089618   0.05500   0.21262  -0.01978   0.09695
  46   36744.9    272.1   0.008206209   0.07352  -0.10112  -0.25155   0.00419
  47   37125.2    269.4   0.021608447   0.19162   0.42752   0.01955  -0.09196
  48   37345.8    267.8   0.405847399   3.57764   0.94162   1.43613  -0.79280
  49   37568.0    266.2   0.191623185   1.67921  -1.18836   0.39901  -0.32834
  50   37674.6    265.4   0.478108806   4.17786   0.34392  -1.70201   1.07830
  51   38193.0    261.8   0.187659765   1.61757  -1.14816  -0.51454   0.18583
  52   38521.7    259.6   0.112560900   0.96196   0.32573  -0.79020   0.48108
  53   38618.2    258.9   0.004874943   0.04156   0.14806   0.14009   0.00320
  54   38901.8    257.1   0.004368231   0.03697  -0.13429   0.06401   0.12179
  55   39059.4    256.0   0.070199218   0.59167  -0.71722   0.27795   0.00390
  56   39185.0    255.2   0.002226434   0.01871   0.02409   0.11979  -0.06145
  57   39224.5    254.9   0.000951470   0.00799   0.02662   0.06236   0.05821
  58   39361.9    254.1   0.004137127   0.03460  -0.14539   0.11168   0.03147
  59   39461.1    253.4   0.034022865   0.28384   0.10065  -0.51136   0.11056
  60   39591.3    252.6   0.007971098   0.06628   0.25432  -0.02464  -0.03153
  61   39616.7    252.4   0.085772748   0.71277   0.26427   0.73877  -0.31167
  62   39749.0    251.6   0.026411777   0.21875   0.46003  -0.08392   0.00918
  63   40099.2    249.4   0.004161958   0.03417   0.08589   0.14336  -0.07899
  64   40270.0    248.3   0.030455906   0.24898  -0.49460   0.04756   0.04566

FINAL SINGLE POINT ENERGY     -6095.929692098577

DIPOLE MOMENT
-------------
                                X             Y             Z
Electronic contribution:      0.80107      -5.89830       0.06400
Nuclear contribution   :      0.23356       5.45483       0.16184
                        -----------------------------------------
Total Dipole Moment    :      1.03462      -0.44347       0.22584
                        -----------------------------------------
Magnitude (a.u.)       :      1.14809
Magnitude (Debye)      :      2.91822

Rotational constants in cm-1:     0.002545     0.000137     0.000131
Rotational constants in MHz :    76.290092     4.109167     3.927849

                             ****ORCA TERMINATED NORMALLY****
TOTAL RUN TIME: 0 days 0 hours 9 minutes 3 seconds 917 msec
