                         Program Version 4.2.0 -  RELEASE  -
|  1> # ORCA input file
|  2> # SCF done       -147.942352968728          0.000653837052
|  3> ! CAM-B3LYP def2-SVP def2/J RIJCOSX Grid4 TightSCF
|  4> %maxcore 5000
|  5> %tddft
|  6>     Mode sTDDFT
|  7>     Ethresh 5.0
|  8>     maxcore 5000
|  9> end
| 10>
| 11> %pal
| 12>   nprocs 6
| 13>   end
| 14> * xyz 0 1
| 15>    C       -1.45253        -7.34657         0.50911
| 16>    S       -2.45548        -6.26322        -0.38871
| 17>    C       -1.12474        -5.17535        -0.62284
| 18>    O       -1.25929        -4.02875        -1.30967
| 19>    C        0.03143        -5.63776        -0.03161
| 20>    C       -0.18747        -6.89233         0.61386
| 21>    C        1.29337        -4.95477        -0.05912
| 22>    C        1.59665        -3.74477        -0.64058
| 23>    C        2.94235        -3.40014        -0.46428
| 24>    C        3.66263        -4.36200         0.25891
| 25>    S        2.68724        -5.68529         0.72197
| 26>    C        5.00658        -3.92697         0.37886
| 27>    C        5.13735        -2.68965        -0.26962
| 28>    C        3.84000        -2.31573        -0.81844
| 29>    C        3.53813        -1.18157        -1.51469
| 30>    C        2.24185        -0.91608        -2.00290
| 31>    N        1.19184        -0.68418        -2.40213
| 32>    C        4.50540        -0.19418        -1.79420
| 33>    N        5.28884         0.61178        -2.02323
| 34>    C        6.43335        -2.17827        -0.21378
| 35>    C        7.29694        -3.01379         0.47144
| 36>    S        6.47839        -4.46109         1.06111
| 37>    C        8.68425        -2.82177         0.72904
| 38>    C        9.43882        -3.73761         1.42176
| 39>    C       10.79656        -3.61252         1.70939
| 40>    C       11.56772        -2.48571         1.16236
| 41>    C       11.02885        -1.46141         0.46738
| 42>    S        9.35807        -1.32135         0.10118
| 43>    C       12.91911        -2.73867         1.52487
| 44>    C       12.99297        -3.92486         2.25330
| 45>    C       14.31546        -4.22751         2.64585
| 46>    C       15.19179        -3.28457         2.21153
| 47>    S       14.45520        -1.99564         1.31886
| 48>    C       11.66862        -4.47292         2.40562
| 49>    C       11.41252        -5.64511         3.15631
| 50>    C       10.21068        -6.06277         3.63689
| 51>    C       10.00595        -7.25206         4.37565
| 52>    C       10.90921        -8.23444         4.75613
| 53>    C       10.30220        -9.25692         5.47956
| 54>    C        8.92097        -9.06737         5.65579
| 55>    S        8.37442        -7.62047         4.93044
| 56>    C        8.40687       -10.16015         6.39509
| 57>    C        9.45947       -11.04166         6.68932
| 58>    C       10.68469       -10.50542         6.12877
| 59>    C       11.93597       -11.04684         6.19656
| 60>    C       13.05603       -10.41963         5.61418
| 61>    N       13.96982        -9.91233         5.14102
| 62>    C       12.19373       -12.26589         6.85651
| 63>    N       12.41160       -13.25650         7.39208
| 64>    C        9.04453       -12.15970         7.42111
| 65>    C        7.69195       -12.13500         7.68340
| 66>    S        6.91004       -10.70527         7.01719
| 67>    C        6.92082       -13.09435         8.39375
| 68>    S        7.67850       -14.52606         9.05358
| 69>    C        6.15256       -15.07507         9.68498
| 70>    O        6.03679       -16.22666        10.36609
| 71>    C        5.14004       -14.20616         9.40009
| 72>    C        5.57822       -13.08812         8.67017
| 73>    H       -1.87915        -8.24900         0.89682
| 74>    H       -2.16074        -3.91688        -1.63409
| 75>    H        0.59267        -7.41878         1.13396
| 76>    H        0.86999        -3.15263        -1.16352
| 77>    H        6.74640        -1.24570        -0.64761
| 78>    H        8.92444        -4.63602         1.73170
| 79>    H       11.61941        -0.63983         0.09383
| 80>    H       14.60992        -5.09137         3.21363
| 81>    H       16.25364        -3.25663         2.35956
| 82>    H       12.28987        -6.23123         3.39619
| 83>    H        9.32965        -5.45544         3.49491
| 84>    H       11.95493        -8.19696         4.51412
| 85>    H        9.68555       -12.95746         7.75130
| 86>    H        6.88807       -16.67283        10.44345
| 87>    H        4.12530       -14.37352         9.70751
| 88>    H        4.92727       -12.29319         8.35215
| 89> *
| 90>
| 91>                          ****END OF INPUT****

CARTESIAN COORDINATES (ANGSTROEM)
---------------------------------
  C     -1.452530   -7.346570    0.509110
  S     -2.455480   -6.263220   -0.388710
  C     -1.124740   -5.175350   -0.622840
  O     -1.259290   -4.028750   -1.309670
  C      0.031430   -5.637760   -0.031610
  C     -0.187470   -6.892330    0.613860
  C      1.293370   -4.954770   -0.059120
  C      1.596650   -3.744770   -0.640580
  C      2.942350   -3.400140   -0.464280
  C      3.662630   -4.362000    0.258910
  S      2.687240   -5.685290    0.721970
  C      5.006580   -3.926970    0.378860
  C      5.137350   -2.689650   -0.269620
  C      3.840000   -2.315730   -0.818440
  C      3.538130   -1.181570   -1.514690
  C      2.241850   -0.916080   -2.002900
  N      1.191840   -0.684180   -2.402130
  C      4.505400   -0.194180   -1.794200
  N      5.288840    0.611780   -2.023230
  C      6.433350   -2.178270   -0.213780
  C      7.296940   -3.013790    0.471440
  S      6.478390   -4.461090    1.061110
  C      8.684250   -2.821770    0.729040
  C      9.438820   -3.737610    1.421760
  C     10.796560   -3.612520    1.709390
  C     11.567720   -2.485710    1.162360
  C     11.028850   -1.461410    0.467380
  S      9.358070   -1.321350    0.101180
  C     12.919110   -2.738670    1.524870
  C     12.992970   -3.924860    2.253300
  C     14.315460   -4.227510    2.645850
  C     15.191790   -3.284570    2.211530
  S     14.455200   -1.995640    1.318860
  C     11.668620   -4.472920    2.405620
  C     11.412520   -5.645110    3.156310
  C     10.210680   -6.062770    3.636890
  C     10.005950   -7.252060    4.375650
  C     10.909210   -8.234440    4.756130
  C     10.302200   -9.256920    5.479560
  C      8.920970   -9.067370    5.655790
  S      8.374420   -7.620470    4.930440
  C      8.406870  -10.160150    6.395090
  C      9.459470  -11.041660    6.689320
  C     10.684690  -10.505420    6.128770
  C     11.935970  -11.046840    6.196560
  C     13.056030  -10.419630    5.614180
  N     13.969820   -9.912330    5.141020
  C     12.193730  -12.265890    6.856510
  N     12.411600  -13.256500    7.392080
  C      9.044530  -12.159700    7.421110
  C      7.691950  -12.135000    7.683400
  S      6.910040  -10.705270    7.017190
  C      6.920820  -13.094350    8.393750
  S      7.678500  -14.526060    9.053580
  C      6.152560  -15.075070    9.684980
  O      6.036790  -16.226660   10.366090
  C      5.140040  -14.206160    9.400090
  C      5.578220  -13.088120    8.670170
  H     -1.879150   -8.249000    0.896820
  H     -2.160740   -3.916880   -1.634090
  H      0.592670   -7.418780    1.133960
  H      0.869990   -3.152630   -1.163520
  H      6.746400   -1.245700   -0.647610
  H      8.924440   -4.636020    1.731700
  H     11.619410   -0.639830    0.093830
  H     14.609920   -5.091370    3.213630
  H     16.253640   -3.256630    2.359560
  H     12.289870   -6.231230    3.396190
  H      9.329650   -5.455440    3.494910
  H     11.954930   -8.196960    4.514120
  H      9.685550  -12.957460    7.751300
  H      6.888070  -16.672830   10.443450
  H      4.125300  -14.373520    9.707510
  H      4.927270  -12.293190    8.352150

 Total Charge           Charge          ....    0
 Multiplicity           Mult            ....    1
 Number of Electrons    NEL             ....  452
 Basis Dimension        Dim             ....  924

ORBITAL ENERGIES
----------------

  NO   OCC          E(Eh)            E(eV)
   0   2.0000     -88.985003     -2421.4050
   1   2.0000     -88.979863     -2421.2652
   2   2.0000     -88.977934     -2421.2127
   3   2.0000     -88.975693     -2421.1517
   4   2.0000     -88.972952     -2421.0771
   5   2.0000     -88.967197     -2420.9205
   6   2.0000     -88.960199     -2420.7301
   7   2.0000     -88.951624     -2420.4967
   8   2.0000     -19.278387      -524.5916
   9   2.0000     -19.266128      -524.2580
  10   2.0000     -14.424888      -392.5211
  11   2.0000     -14.423875      -392.4936
  12   2.0000     -14.422084      -392.4449
  13   2.0000     -14.421865      -392.4389
  14   2.0000     -10.367527      -282.1148
  15   2.0000     -10.359216      -281.8886
  16   2.0000     -10.357634      -281.8455
  17   2.0000     -10.354044      -281.7479
  18   2.0000     -10.344868      -281.4982
  19   2.0000     -10.341919      -281.4179
  20   2.0000     -10.326477      -280.9977
  21   2.0000     -10.325720      -280.9771
  22   2.0000     -10.325465      -280.9702
  23   2.0000     -10.324391      -280.9410
  24   2.0000     -10.323839      -280.9259
  25   2.0000     -10.323018      -280.9036
  26   2.0000     -10.322687      -280.8946
  27   2.0000     -10.321066      -280.8505
  28   2.0000     -10.319753      -280.8147
  29   2.0000     -10.319215      -280.8001
  30   2.0000     -10.316259      -280.7197
  31   2.0000     -10.316084      -280.7149
  32   2.0000     -10.315928      -280.7107
  33   2.0000     -10.309577      -280.5379
  34   2.0000     -10.303862      -280.3823
  35   2.0000     -10.299642      -280.2675
  36   2.0000     -10.295678      -280.1597
  37   2.0000     -10.294832      -280.1366
  38   2.0000     -10.294525      -280.1283
  39   2.0000     -10.293797      -280.1085
  40   2.0000     -10.292475      -280.0725
  41   2.0000     -10.291747      -280.0527
  42   2.0000     -10.290269      -280.0125
  43   2.0000     -10.289360      -279.9877
  44   2.0000     -10.287294      -279.9315
  45   2.0000     -10.286662      -279.9143
  46   2.0000     -10.285517      -279.8832
  47   2.0000     -10.285069      -279.8709
  48   2.0000     -10.283248      -279.8214
  49   2.0000     -10.282647      -279.8050
  50   2.0000     -10.281201      -279.7657
  51   2.0000     -10.279084      -279.7081
  52   2.0000     -10.278942      -279.7042
  53   2.0000     -10.278035      -279.6795
  54   2.0000     -10.271752      -279.5086
  55   2.0000     -10.269759      -279.4544
  56   2.0000     -10.268011      -279.4068
  57   2.0000     -10.264558      -279.3128
  58   2.0000      -8.079213      -219.8466
  59   2.0000      -8.074463      -219.7173
  60   2.0000      -8.072468      -219.6630
  61   2.0000      -8.070363      -219.6057
  62   2.0000      -8.068137      -219.5452
  63   2.0000      -8.064142      -219.4365
  64   2.0000      -8.056640      -219.2323
  65   2.0000      -8.047029      -218.9708
  66   2.0000      -6.048515      -164.5885
  67   2.0000      -6.044436      -164.4775
  68   2.0000      -6.043710      -164.4577
  69   2.0000      -6.041804      -164.4059
  70   2.0000      -6.041481      -164.3970
  71   2.0000      -6.039571      -164.3451
  72   2.0000      -6.039548      -164.3445
  73   2.0000      -6.037766      -164.2960
  74   2.0000      -6.037662      -164.2931
  75   2.0000      -6.036857      -164.2712
  76   2.0000      -6.035462      -164.2333
  77   2.0000      -6.034681      -164.2120
  78   2.0000      -6.033608      -164.1828
  79   2.0000      -6.033224      -164.1724
  80   2.0000      -6.032819      -164.1613
  81   2.0000      -6.029899      -164.0819
  82   2.0000      -6.029346      -164.0669
  83   2.0000      -6.026001      -163.9758
  84   2.0000      -6.025849      -163.9717
  85   2.0000      -6.022172      -163.8716
  86   2.0000      -6.018163      -163.7625
  87   2.0000      -6.016500      -163.7173
  88   2.0000      -6.012242      -163.6014
  89   2.0000      -6.009013      -163.5136
  90   2.0000      -1.174695       -31.9651
  91   2.0000      -1.163148       -31.6509
  92   2.0000      -1.036626       -28.2080
  93   2.0000      -1.031934       -28.0803
  94   2.0000      -1.015906       -27.6442
  95   2.0000      -1.012822       -27.5603
  96   2.0000      -1.003338       -27.3022
  97   2.0000      -1.001621       -27.2555
  98   2.0000      -0.999644       -27.2017
  99   2.0000      -0.994242       -27.0547
 100   2.0000      -0.990215       -26.9451
 101   2.0000      -0.982564       -26.7369
 102   2.0000      -0.971681       -26.4408
 103   2.0000      -0.965648       -26.2766
 104   2.0000      -0.948731       -25.8163
 105   2.0000      -0.946321       -25.7507
 106   2.0000      -0.924601       -25.1597
 107   2.0000      -0.910275       -24.7698
 108   2.0000      -0.903897       -24.5963
 109   2.0000      -0.885922       -24.1072
 110   2.0000      -0.873323       -23.7643
 111   2.0000      -0.865506       -23.5516
 112   2.0000      -0.858122       -23.3507
 113   2.0000      -0.851739       -23.1770
 114   2.0000      -0.845750       -23.0140
 115   2.0000      -0.843647       -22.9568
 116   2.0000      -0.840559       -22.8728
 117   2.0000      -0.830119       -22.5887
 118   2.0000      -0.823508       -22.4088
 119   2.0000      -0.819631       -22.3033
 120   2.0000      -0.809354       -22.0236
 121   2.0000      -0.793715       -21.5981
 122   2.0000      -0.775742       -21.1090
 123   2.0000      -0.771291       -20.9879
 124   2.0000      -0.764651       -20.8072
 125   2.0000      -0.756390       -20.5824
 126   2.0000      -0.737871       -20.0785
 127   2.0000      -0.725619       -19.7451
 128   2.0000      -0.709022       -19.2935
 129   2.0000      -0.707164       -19.2429
 130   2.0000      -0.695300       -18.9201
 131   2.0000      -0.693057       -18.8590
 132   2.0000      -0.682563       -18.5735
 133   2.0000      -0.675765       -18.3885
 134   2.0000      -0.672173       -18.2908
 135   2.0000      -0.668263       -18.1844
 136   2.0000      -0.657482       -17.8910
 137   2.0000      -0.649218       -17.6661
 138   2.0000      -0.643519       -17.5110
 139   2.0000      -0.638373       -17.3710
 140   2.0000      -0.627337       -17.0707
 141   2.0000      -0.621083       -16.9005
 142   2.0000      -0.616766       -16.7831
 143   2.0000      -0.616076       -16.7643
 144   2.0000      -0.613157       -16.6849
 145   2.0000      -0.608165       -16.5490
 146   2.0000      -0.602197       -16.3866
 147   2.0000      -0.597862       -16.2686
 148   2.0000      -0.593543       -16.1511
 149   2.0000      -0.583134       -15.8679
 150   2.0000      -0.578442       -15.7402
 151   2.0000      -0.567254       -15.4358
 152   2.0000      -0.558349       -15.1934
 153   2.0000      -0.552679       -15.0392
 154   2.0000      -0.550059       -14.9679
 155   2.0000      -0.541693       -14.7402
 156   2.0000      -0.540612       -14.7108
 157   2.0000      -0.535522       -14.5723
 158   2.0000      -0.527681       -14.3589
 159   2.0000      -0.526492       -14.3266
 160   2.0000      -0.525585       -14.3019
 161   2.0000      -0.517750       -14.0887
 162   2.0000      -0.515377       -14.0241
 163   2.0000      -0.513603       -13.9758
 164   2.0000      -0.510506       -13.8916
 165   2.0000      -0.508953       -13.8493
 166   2.0000      -0.503317       -13.6960
 167   2.0000      -0.501173       -13.6376
 168   2.0000      -0.497372       -13.5342
 169   2.0000      -0.496798       -13.5186
 170   2.0000      -0.494978       -13.4690
 171   2.0000      -0.487055       -13.2534
 172   2.0000      -0.485041       -13.1986
 173   2.0000      -0.481687       -13.1074
 174   2.0000      -0.479253       -13.0411
 175   2.0000      -0.477694       -12.9987
 176   2.0000      -0.474779       -12.9194
 177   2.0000      -0.472949       -12.8696
 178   2.0000      -0.468717       -12.7544
 179   2.0000      -0.465761       -12.6740
 180   2.0000      -0.457866       -12.4592
 181   2.0000      -0.456165       -12.4129
 182   2.0000      -0.455673       -12.3995
 183   2.0000      -0.454153       -12.3581
 184   2.0000      -0.452545       -12.3144
 185   2.0000      -0.452168       -12.3041
 186   2.0000      -0.449724       -12.2376
 187   2.0000      -0.445608       -12.1256
 188   2.0000      -0.445069       -12.1110
 189   2.0000      -0.441373       -12.0104
 190   2.0000      -0.441065       -12.0020
 191   2.0000      -0.438722       -11.9382
 192   2.0000      -0.434562       -11.8250
 193   2.0000      -0.434219       -11.8157
 194   2.0000      -0.432672       -11.7736
 195   2.0000      -0.432158       -11.7596
 196   2.0000      -0.431676       -11.7465
 197   2.0000      -0.429541       -11.6884
 198   2.0000      -0.427400       -11.6301
 199   2.0000      -0.426651       -11.6098
 200   2.0000      -0.425542       -11.5796
 201   2.0000      -0.420383       -11.4392
 202   2.0000      -0.419059       -11.4032
 203   2.0000      -0.417426       -11.3587
 204   2.0000      -0.415100       -11.2955
 205   2.0000      -0.414027       -11.2663
 206   2.0000      -0.411822       -11.2062
 207   2.0000      -0.404139       -10.9972
 208   2.0000      -0.399286       -10.8651
 209   2.0000      -0.390215       -10.6183
 210   2.0000      -0.378965       -10.3122
 211   2.0000      -0.368499       -10.0274
 212   2.0000      -0.349894        -9.5211
 213   2.0000      -0.341404        -9.2901
 214   2.0000      -0.337604        -9.1867
 215   2.0000      -0.329688        -8.9713
 216   2.0000      -0.327501        -8.9117
 217   2.0000      -0.326542        -8.8857
 218   2.0000      -0.314431        -8.5561
 219   2.0000      -0.312356        -8.4996
 220   2.0000      -0.303204        -8.2506
 221   2.0000      -0.294966        -8.0264
 222   2.0000      -0.276629        -7.5275
 223   2.0000      -0.257794        -7.0149
 224   2.0000      -0.240919        -6.5558
 225   2.0000      -0.212418        -5.7802
 226   0.0000      -0.098291        -2.6746
 227   0.0000      -0.093645        -2.5482
 228   0.0000      -0.061715        -1.6793
 229   0.0000      -0.025606        -0.6968
 230   0.0000      -0.019565        -0.5324

MULLIKEN ATOMIC CHARGES
-----------------------
   0 C :   -0.080536
   1 S :    0.068239
   2 C :   -0.068048
   3 O :   -0.158628
   4 C :    0.097604
   5 C :    0.023826
   6 C :   -0.070262
   7 C :   -0.057046
   8 C :    0.014512
   9 C :   -0.100008
  10 S :    0.155502
  11 C :   -0.090852
  12 C :    0.013153
  13 C :    0.303894
  14 C :   -0.305728
  15 C :   -0.186942
  16 N :    0.173868
  17 C :   -0.187008
  18 N :    0.167044
  19 C :   -0.058063
  20 C :   -0.062235
  21 S :    0.155118
  22 C :   -0.021156
  23 C :   -0.106154
  24 C :    0.055380
  25 C :    0.057645
  26 C :   -0.125612
  27 S :    0.130507
  28 C :   -0.107113
  29 C :    0.049086
  30 C :    0.007004
  31 C :   -0.069639
  32 S :    0.126218
  33 C :    0.081958
  34 C :   -0.025617
  35 C :    0.026936
  36 C :   -0.075845
  37 C :   -0.040505
  38 C :    0.005614
  39 C :   -0.107870
  40 S :    0.166787
  41 C :   -0.103450
  42 C :    0.008985
  43 C :    0.303196
  44 C :   -0.305272
  45 C :   -0.183882
  46 N :    0.164506
  47 C :   -0.190078
  48 N :    0.168501
  49 C :   -0.075771
  50 C :   -0.017297
  51 S :    0.168256
  52 C :   -0.087749
  53 S :    0.074397
  54 C :    0.050733
  55 O :   -0.167938
  56 C :   -0.002042
  57 C :   -0.004541
  58 H :    0.029933
  59 H :    0.200047
  60 H :   -0.001289
  61 H :    0.009488
  62 H :    0.017909
  63 H :   -0.011442
  64 H :    0.036779
  65 H :   -0.012015
  66 H :    0.027279
  67 H :   -0.019826
  68 H :   -0.029076
  69 H :    0.002615
  70 H :    0.006100
  71 H :    0.194402
  72 H :   -0.015141
  73 H :   -0.011349
Sum of atomic charges:   -0.0000000

LOEWDIN ATOMIC CHARGES
----------------------
   0 C :   -0.190172
   1 S :    0.393697
   2 C :   -0.095157
   3 O :   -0.032724
   4 C :   -0.131864
   5 C :   -0.053806
   6 C :   -0.146590
   7 C :   -0.039409
   8 C :   -0.068530
   9 C :   -0.192526
  10 S :    0.464608
  11 C :   -0.173047
  12 C :   -0.074870
  13 C :    0.085393
  14 C :   -0.104559
  15 C :   -0.016069
  16 N :   -0.035473
  17 C :   -0.015830
  18 N :   -0.036997
  19 C :   -0.039927
  20 C :   -0.183363
  21 S :    0.467354
  22 C :   -0.179514
  23 C :   -0.038259
  24 C :   -0.021075
  25 C :   -0.045913
  26 C :   -0.141379
  27 S :    0.458067
  28 C :   -0.205502
  29 C :   -0.038886
  30 C :   -0.063713
  31 C :   -0.164502
  32 S :    0.419369
  33 C :   -0.052864
  34 C :   -0.006699
  35 C :   -0.065003
  36 C :   -0.157551
  37 C :   -0.036221
  38 C :   -0.068581
  39 C :   -0.193867
  40 S :    0.460153
  41 C :   -0.180100
  42 C :   -0.075806
  43 C :    0.087120
  44 C :   -0.108378
  45 C :   -0.014713
  46 N :   -0.040901
  47 C :   -0.015837
  48 N :   -0.039102
  49 C :   -0.050091
  50 C :   -0.171294
  51 S :    0.462941
  52 C :   -0.205902
  53 S :    0.387969
  54 C :   -0.091828
  55 O :   -0.044383
  56 C :   -0.111594
  57 C :   -0.050796
  58 H :    0.025801
  59 H :    0.103801
  60 H :    0.026271
  61 H :    0.037262
  62 H :    0.034375
  63 H :    0.023206
  64 H :    0.037030
  65 H :    0.031806
  66 H :    0.023571
  67 H :    0.031223
  68 H :    0.021207
  69 H :    0.036863
  70 H :    0.033844
  71 H :    0.099036
  72 H :    0.033146
  73 H :    0.026056

  Mayer bond orders larger than 0.100000
B(  0-C ,  1-S ) :   1.1161 B(  0-C ,  5-C ) :   1.6319 B(  0-C , 58-H ) :   0.9690
B(  1-S ,  2-C ) :   1.1234 B(  2-C ,  3-O ) :   1.2113 B(  2-C ,  4-C ) :   1.4715
B(  3-O , 59-H ) :   0.9459 B(  4-C ,  5-C ) :   1.2134 B(  4-C ,  6-C ) :   1.0887
B(  5-C , 60-H ) :   0.9895 B(  6-C ,  7-C ) :   1.5059 B(  6-C , 10-S ) :   1.1035
B(  7-C ,  8-C ) :   1.2438 B(  7-C , 61-H ) :   0.9946 B(  8-C ,  9-C ) :   1.4568
B(  8-C , 13-C ) :   0.9970 B(  9-C , 10-S ) :   1.1066 B(  9-C , 11-C ) :   1.1783
B( 11-C , 12-C ) :   1.4541 B( 11-C , 21-S ) :   1.1234 B( 12-C , 13-C ) :   0.9945
B( 12-C , 19-C ) :   1.2960 B( 13-C , 14-C ) :   1.7097 B( 14-C , 15-C ) :   1.1361
B( 14-C , 17-C ) :   1.1316 B( 15-C , 16-N ) :   2.9935 B( 17-C , 18-N ) :   2.9903
B( 19-C , 20-C ) :   1.4642 B( 19-C , 62-H ) :   0.9798 B( 20-C , 21-S ) :   1.0942
B( 20-C , 22-C ) :   1.1678 B( 22-C , 23-C ) :   1.5249 B( 22-C , 27-S ) :   1.0578
B( 23-C , 24-C ) :   1.2409 B( 23-C , 63-H ) :   0.9576 B( 24-C , 25-C ) :   1.0547
B( 24-C , 33-C ) :   1.3833 B( 25-C , 26-C ) :   1.6151 B( 25-C , 28-C ) :   1.1732
B( 26-C , 27-S ) :   1.1309 B( 26-C , 64-H ) :   0.9405 B( 28-C , 29-C ) :   1.4473
B( 28-C , 32-S ) :   1.0729 B( 29-C , 30-C ) :   1.2191 B( 29-C , 33-C ) :   1.0956
B( 30-C , 31-C ) :   1.5865 B( 30-C , 65-H ) :   0.9976 B( 31-C , 32-S ) :   1.1554
B( 31-C , 66-H ) :   0.9658 B( 33-C , 34-C ) :   1.1698 B( 34-C , 35-C ) :   1.6410
B( 34-C , 67-H ) :   0.9604 B( 35-C , 36-C ) :   1.1306 B( 35-C , 68-H ) :   0.9528
B( 36-C , 37-C ) :   1.4466 B( 36-C , 40-S ) :   1.1037 B( 37-C , 38-C ) :   1.3051
B( 37-C , 69-H ) :   0.9892 B( 38-C , 39-C ) :   1.4423 B( 38-C , 43-C ) :   0.9909
B( 39-C , 40-S ) :   1.1097 B( 39-C , 41-C ) :   1.1918 B( 41-C , 42-C ) :   1.4559
B( 41-C , 51-S ) :   1.1120 B( 42-C , 43-C ) :   1.0040 B( 42-C , 49-C ) :   1.2764
B( 43-C , 44-C ) :   1.7056 B( 44-C , 45-C ) :   1.1346 B( 44-C , 47-C ) :   1.1339
B( 45-C , 46-N ) :   2.9867 B( 47-C , 48-N ) :   2.9946 B( 49-C , 50-C ) :   1.4840
B( 49-C , 70-H ) :   0.9881 B( 50-C , 51-S ) :   1.0968 B( 50-C , 52-C ) :   1.1624
B( 52-C , 53-S ) :   1.0885 B( 52-C , 57-C ) :   1.5420 B( 53-S , 54-C ) :   1.1064
B( 54-C , 55-O ) :   1.1991 B( 54-C , 56-C ) :   1.5308 B( 55-O , 71-H ) :   0.9546
B( 56-C , 57-C ) :   1.2290 B( 56-C , 72-H ) :   1.0020 B( 57-C , 73-H ) :   0.9908

-----------------------------------------------------------------------------
         ABSORPTION SPECTRUM VIA TRANSITION ELECTRIC DIPOLE MOMENTS
-----------------------------------------------------------------------------
State   Energy  Wavelength   fosc         T2         TX        TY        TZ
        (cm-1)    (nm)                  (au**2)     (au)      (au)      (au)
-----------------------------------------------------------------------------
   0    8953.6   1116.9   0.129110642   4.74722  -0.21257   1.67926  -1.37190
   1    9893.7   1010.7   0.086634672   2.88275   1.65324   0.24075   0.30264
   2   15654.6    638.8   0.057654681   1.21246   0.23532   0.90748  -0.57754
   3   16928.1    590.7   0.362092156   7.04186   1.48316  -1.54379   1.56806
   4   18090.3    552.8   0.344881314   6.27625   1.13655  -1.64777   1.50644
   5   22526.5    443.9   0.202479023   2.95911  -0.79312   1.09003  -1.06860
   6   22555.7    443.3   0.038698523   0.56482  -0.44432  -0.51904   0.31305
   7   23358.3    428.1   0.131478640   1.85306  -0.80700  -0.97500   0.50119
   8   24999.9    400.0   0.707652697   9.31873  -2.22920  -1.90996   0.83754
   9   25478.8    392.5   0.176975176   2.28670  -1.28263  -0.76670   0.23179
  10   27128.8    368.6   0.309840315   3.75995   1.31228   1.24276  -0.70245
  11   27678.9    361.3   0.507745879   6.03910  -1.46190  -1.69228   1.01889
  12   28270.6    353.7   0.036545663   0.42557   0.23320   0.42495  -0.43659
  13   28777.0    347.5   0.201350802   2.30348  -1.38769  -0.61291   0.04638
  14   29306.3    341.2   0.004662754   0.05238  -0.05175  -0.17138  -0.14259
  15   31211.1    320.4   0.454168787   4.79054  -2.15405  -0.10787   0.37277
  16   31309.5    319.4   0.703961791   7.40199  -1.01865   2.35531  -0.90381
  17   31573.1    316.7   0.359760022   3.75121   0.58211  -1.40432   1.20010
  18   32355.7    309.1   0.102302252   1.04090  -0.89314   0.33044  -0.36609
  19   32660.3    306.2   0.210949084   2.12634  -1.45287  -0.12411   0.01051
  20   32820.2    304.7   0.280386583   2.81250  -0.84077  -1.14288   0.89411
  21   33115.6    302.0   0.533769212   5.30635  -2.26555  -0.29367  -0.29563
  22   33158.7    301.6   0.006142496   0.06099  -0.18348   0.14360  -0.08184
  23   34293.7    291.6   0.475424297   4.56397   2.07234   0.47019   0.21978
  24   35204.9    284.1   0.108706142   1.01654  -0.97813  -0.03182  -0.24249
  25   35452.9    282.1   0.011955970   0.11102   0.25133  -0.09731  -0.19592
  26   35638.2    280.6   0.017389332   0.16064  -0.23291   0.28148  -0.16479
  27   35993.7    277.8   0.032122980   0.29381   0.15609  -0.42639   0.29603
  28   36829.2    271.5   0.070901339   0.63378   0.62231   0.43148  -0.24563
  29   36979.5    270.4   0.012193179   0.10855  -0.07484  -0.29471   0.12686
  30   37048.9    269.9   0.029175836   0.25925  -0.46658  -0.20244   0.02397
  31   37338.8    267.8   0.043557525   0.38404  -0.23462  -0.48023   0.31365
  32   37819.5    264.4   0.047099725   0.40999  -0.38168   0.42601  -0.28781
  33   38892.6    257.1   0.041970602   0.35527  -0.48807   0.27958  -0.19720
  34   38997.4    256.4   0.012327463   0.10407   0.11039  -0.25185   0.16867
  35   39395.0    253.8   0.137615775   1.15001   0.75961   0.70293  -0.28088
  36   40309.4    248.1   0.012616287   0.10304   0.15259   0.28029  -0.03449

FINAL SINGLE POINT ENERGY     -5237.552130077196

DIPOLE MOMENT
-------------
                                X             Y             Z
Electronic contribution:     -2.98051       7.40195      -6.06006
Nuclear contribution   :      0.50489      -8.41095       6.51834
                        -----------------------------------------
Total Dipole Moment    :     -2.47562      -1.00900       0.45827
                        -----------------------------------------
Magnitude (a.u.)       :      2.71234
Magnitude (Debye)      :      6.89423

Rotational constants in cm-1:     0.000964     0.000564     0.000360
Rotational constants in MHz :    28.898232    16.907856    10.783579

                             ****ORCA TERMINATED NORMALLY****
TOTAL RUN TIME: 0 days 0 hours 5 minutes 54 seconds 922 msec
