                         Program Version 4.2.0 -  RELEASE  -
|  1> # ORCA input file
|  2> # SCF done       -193.384969447337          0.000634252474
|  3> ! CAM-B3LYP def2-SVP def2/J RIJCOSX Grid4 TightSCF
|  4> %maxcore 5000
|  5> %tddft
|  6>     Mode sTDDFT
|  7>     Ethresh 5.0
|  8>     maxcore 5000
|  9> end
| 10>
| 11> %pal
| 12>   nprocs 6
| 13>   end
| 14> * xyz 0 1
| 15>    C       -3.53074         3.26365         0.85280
| 16>    C       -3.36539         4.04225         1.96358
| 17>    F       -3.24077         5.37174         1.84208
| 18>    C       -3.32385         3.46179         3.24665
| 19>    F       -3.16043         4.25077         4.31877
| 20>    C       -3.44814         2.10962         3.40173
| 21>    C       -3.61997         1.28057         2.27644
| 22>    C       -3.66310         1.86604         0.97826
| 23>    C       -3.83947         1.05493        -0.16656
| 24>    C       -3.97111        -0.30064        -0.01731
| 25>    C       -3.92140        -0.87418         1.28137
| 26>    C       -3.75086        -0.12010         2.40554
| 27>    C       -4.07828        -2.33894         1.17998
| 28>    O       -4.04938        -3.11325         2.11447
| 29>    C       -4.22484        -2.62937        -0.26166
| 30>    C       -4.17710        -1.37440        -0.98730
| 31>    C       -4.34770        -1.18020        -2.33623
| 32>    C       -4.61750        -2.17312        -3.30045
| 33>    N       -4.85321        -2.90513        -4.15469
| 34>    C       -4.29796         0.08184        -2.96402
| 35>    N       -4.26672         1.07290        -3.54347
| 36>    C       -4.31916        -3.85775        -0.87242
| 37>    C       -4.48551        -5.14599        -0.34684
| 38>    C       -4.71297        -5.62622         0.94031
| 39>    C       -4.89385        -6.99824         0.96850
| 40>    C       -4.79728        -7.60331        -0.31409
| 41>    S       -4.49151        -6.46669        -1.54002
| 42>    C       -5.00621        -8.98572        -0.17172
| 43>    C       -5.24204        -9.27427         1.18700
| 44>    C       -5.17642        -8.03083         1.94555
| 45>    C       -5.36283        -7.88938         3.28999
| 46>    C       -5.63087        -8.99830         4.11953
| 47>    N       -5.84565        -9.90217         4.79233
| 48>    C       -5.32068        -6.64543         3.95586
| 49>    N       -5.31182        -5.65676         4.53571
| 50>    C       -5.49045       -10.61867         1.42768
| 51>    C       -5.44803       -11.37673         0.26365
| 52>    S       -5.08391       -10.39418        -1.14888
| 53>    C       -5.68659       -12.76425         0.15034
| 54>    N       -5.59591       -13.44408        -1.04723
| 55>    C       -5.91276       -14.74706        -0.82684
| 56>    C       -6.06595       -15.98574        -1.43743
| 57>    C       -6.46439       -16.86996        -0.42426
| 58>    N       -6.54698       -16.18682         0.77133
| 59>    C       -6.21328       -14.88928         0.55486
| 60>    C       -6.06869       -13.65234         1.16755
| 61>    C       -6.78649       -18.24781        -0.48177
| 62>    C       -6.71222       -19.03646        -1.58263
| 63>    C       -7.07666       -20.40513        -1.59340
| 64>    S       -7.72449       -21.17602        -0.17018
| 65>    C       -7.88950       -22.69596        -1.00667
| 66>    C       -7.43865       -22.59433        -2.31477
| 67>    C       -7.00070       -21.30283        -2.64861
| 68>    C       -6.49214       -20.94453        -4.00875
| 69>    C       -6.85172       -22.01268        -5.03984
| 70>    C       -6.54163       -23.40849        -4.49998
| 71>    C       -5.07862       -23.58044        -4.17382
| 72>    O       -4.18801       -22.87296        -4.54731
| 73>    C       -7.42168       -23.72963        -3.28865
| 74>    C       -8.45992       -23.78726        -0.30299
| 75>    C       -8.84223       -23.77472         1.02916
| 76>    C       -9.40852       -24.98215         1.42994
| 77>    C       -9.46493       -25.93025         0.40135
| 78>    S       -8.81829       -25.33251        -1.06317
| 79>    C      -10.05892       -27.11713         0.91347
| 80>    C      -10.37924       -26.91132         2.26183
| 81>    C       -9.98581       -25.56908         2.63645
| 82>    C      -10.12490       -24.96476         3.85217
| 83>    C      -10.70517       -25.62233         4.95680
| 84>    N      -11.17663       -26.15199         5.85816
| 85>    C       -9.70049       -23.64026         4.08491
| 86>    N       -9.35818       -22.56262         4.27775
| 87>    C      -10.98101       -28.04204         2.84938
| 88>    C      -11.10237       -29.06061         1.95594
| 89>    S      -10.49142       -28.67887         0.37718
| 90>    H       -3.56155         3.72409        -0.12239
| 91>    H       -3.41457         1.67998         4.39066
| 92>    H       -3.86450         1.53165        -1.13269
| 93>    H       -3.71954        -0.58713         3.37817
| 94>    H       -4.26814        -3.84844        -1.95488
| 95>    H       -4.73437        -4.97718         1.79753
| 96>    H       -5.69536       -11.04564         2.39095
| 97>    H       -5.33841       -13.02212        -1.92310
| 98>    H       -5.92195       -16.23640        -2.46830
| 99>    H       -6.80973       -16.60365         1.64804
|100>    H       -6.21842       -13.39873         2.19668
|101>    H       -7.12490       -18.69465         0.44567
|102>    H       -6.35547       -18.62540        -2.51507
|103>    H       -5.40453       -20.83674        -3.96514
|104>    H       -6.90490       -19.98241        -4.31959
|105>    H       -6.28138       -21.83660        -5.95241
|106>    H       -7.91509       -21.95501        -5.28062
|107>    H       -6.74573       -24.15677        -5.27771
|108>    H       -4.87426       -24.47592        -3.55139
|109>    H       -7.05655       -24.63665        -2.79800
|110>    H       -8.44447       -23.93441        -3.62158
|111>    H       -8.70597       -22.91435         1.65910
|112>    H      -11.30669       -28.10228         3.87172
|113>    H      -11.51911       -30.03412         2.11900
|114> *
|115>
|116>                          ****END OF INPUT****

CARTESIAN COORDINATES (ANGSTROEM)
---------------------------------
  C     -3.530740    3.263650    0.852800
  C     -3.365390    4.042250    1.963580
  F     -3.240770    5.371740    1.842080
  C     -3.323850    3.461790    3.246650
  F     -3.160430    4.250770    4.318770
  C     -3.448140    2.109620    3.401730
  C     -3.619970    1.280570    2.276440
  C     -3.663100    1.866040    0.978260
  C     -3.839470    1.054930   -0.166560
  C     -3.971110   -0.300640   -0.017310
  C     -3.921400   -0.874180    1.281370
  C     -3.750860   -0.120100    2.405540
  C     -4.078280   -2.338940    1.179980
  O     -4.049380   -3.113250    2.114470
  C     -4.224840   -2.629370   -0.261660
  C     -4.177100   -1.374400   -0.987300
  C     -4.347700   -1.180200   -2.336230
  C     -4.617500   -2.173120   -3.300450
  N     -4.853210   -2.905130   -4.154690
  C     -4.297960    0.081840   -2.964020
  N     -4.266720    1.072900   -3.543470
  C     -4.319160   -3.857750   -0.872420
  C     -4.485510   -5.145990   -0.346840
  C     -4.712970   -5.626220    0.940310
  C     -4.893850   -6.998240    0.968500
  C     -4.797280   -7.603310   -0.314090
  S     -4.491510   -6.466690   -1.540020
  C     -5.006210   -8.985720   -0.171720
  C     -5.242040   -9.274270    1.187000
  C     -5.176420   -8.030830    1.945550
  C     -5.362830   -7.889380    3.289990
  C     -5.630870   -8.998300    4.119530
  N     -5.845650   -9.902170    4.792330
  C     -5.320680   -6.645430    3.955860
  N     -5.311820   -5.656760    4.535710
  C     -5.490450  -10.618670    1.427680
  C     -5.448030  -11.376730    0.263650
  S     -5.083910  -10.394180   -1.148880
  C     -5.686590  -12.764250    0.150340
  N     -5.595910  -13.444080   -1.047230
  C     -5.912760  -14.747060   -0.826840
  C     -6.065950  -15.985740   -1.437430
  C     -6.464390  -16.869960   -0.424260
  N     -6.546980  -16.186820    0.771330
  C     -6.213280  -14.889280    0.554860
  C     -6.068690  -13.652340    1.167550
  C     -6.786490  -18.247810   -0.481770
  C     -6.712220  -19.036460   -1.582630
  C     -7.076660  -20.405130   -1.593400
  S     -7.724490  -21.176020   -0.170180
  C     -7.889500  -22.695960   -1.006670
  C     -7.438650  -22.594330   -2.314770
  C     -7.000700  -21.302830   -2.648610
  C     -6.492140  -20.944530   -4.008750
  C     -6.851720  -22.012680   -5.039840
  C     -6.541630  -23.408490   -4.499980
  C     -5.078620  -23.580440   -4.173820
  O     -4.188010  -22.872960   -4.547310
  C     -7.421680  -23.729630   -3.288650
  C     -8.459920  -23.787260   -0.302990
  C     -8.842230  -23.774720    1.029160
  C     -9.408520  -24.982150    1.429940
  C     -9.464930  -25.930250    0.401350
  S     -8.818290  -25.332510   -1.063170
  C    -10.058920  -27.117130    0.913470
  C    -10.379240  -26.911320    2.261830
  C     -9.985810  -25.569080    2.636450
  C    -10.124900  -24.964760    3.852170
  C    -10.705170  -25.622330    4.956800
  N    -11.176630  -26.151990    5.858160
  C     -9.700490  -23.640260    4.084910
  N     -9.358180  -22.562620    4.277750
  C    -10.981010  -28.042040    2.849380
  C    -11.102370  -29.060610    1.955940
  S    -10.491420  -28.678870    0.377180
  H     -3.561550    3.724090   -0.122390
  H     -3.414570    1.679980    4.390660
  H     -3.864500    1.531650   -1.132690
  H     -3.719540   -0.587130    3.378170
  H     -4.268140   -3.848440   -1.954880
  H     -4.734370   -4.977180    1.797530
  H     -5.695360  -11.045640    2.390950
  H     -5.338410  -13.022120   -1.923100
  H     -5.921950  -16.236400   -2.468300
  H     -6.809730  -16.603650    1.648040
  H     -6.218420  -13.398730    2.196680
  H     -7.124900  -18.694650    0.445670
  H     -6.355470  -18.625400   -2.515070
  H     -5.404530  -20.836740   -3.965140
  H     -6.904900  -19.982410   -4.319590
  H     -6.281380  -21.836600   -5.952410
  H     -7.915090  -21.955010   -5.280620
  H     -6.745730  -24.156770   -5.277710
  H     -4.874260  -24.475920   -3.551390
  H     -7.056550  -24.636650   -2.798000
  H     -8.444470  -23.934410   -3.621580
  H     -8.705970  -22.914350    1.659100
  H    -11.306690  -28.102280    3.871720
  H    -11.519110  -30.034120    2.119000

 Total Charge           Charge          ....    0
 Multiplicity           Mult            ....    1
 Number of Electrons    NEL             ....  542
 Basis Dimension        Dim             .... 1190

ORBITAL ENERGIES
----------------

  NO   OCC          E(Eh)            E(eV)
   0   2.0000     -88.993857     -2421.6460
   1   2.0000     -88.991645     -2421.5858
   2   2.0000     -88.989522     -2421.5280
   3   2.0000     -88.986963     -2421.4584
   4   2.0000     -88.959603     -2420.7139
   5   2.0000     -24.792010      -674.6249
   6   2.0000     -24.791244      -674.6040
   7   2.0000     -19.228616      -523.2373
   8   2.0000     -19.211541      -522.7726
   9   2.0000     -14.474522      -393.8718
  10   2.0000     -14.468449      -393.7065
  11   2.0000     -14.431351      -392.6970
  12   2.0000     -14.429531      -392.6475
  13   2.0000     -14.428541      -392.6205
  14   2.0000     -14.426607      -392.5679
  15   2.0000     -14.411827      -392.1657
  16   2.0000     -14.407618      -392.0512
  17   2.0000     -10.374887      -282.3150
  18   2.0000     -10.374081      -282.2931
  19   2.0000     -10.366966      -282.0995
  20   2.0000     -10.365410      -282.0572
  21   2.0000     -10.362826      -281.9868
  22   2.0000     -10.362322      -281.9731
  23   2.0000     -10.352241      -281.6988
  24   2.0000     -10.350172      -281.6425
  25   2.0000     -10.345251      -281.5086
  26   2.0000     -10.338011      -281.3116
  27   2.0000     -10.335657      -281.2475
  28   2.0000     -10.333662      -281.1932
  29   2.0000     -10.331738      -281.1409
  30   2.0000     -10.330267      -281.1009
  31   2.0000     -10.329688      -281.0851
  32   2.0000     -10.328943      -281.0648
  33   2.0000     -10.328446      -281.0513
  34   2.0000     -10.327816      -281.0342
  35   2.0000     -10.326009      -280.9850
  36   2.0000     -10.325854      -280.9808
  37   2.0000     -10.325627      -280.9746
  38   2.0000     -10.321837      -280.8715
  39   2.0000     -10.321453      -280.8610
  40   2.0000     -10.319047      -280.7956
  41   2.0000     -10.315418      -280.6968
  42   2.0000     -10.315215      -280.6913
  43   2.0000     -10.313162      -280.6354
  44   2.0000     -10.311515      -280.5906
  45   2.0000     -10.310095      -280.5519
  46   2.0000     -10.308703      -280.5141
  47   2.0000     -10.305114      -280.4164
  48   2.0000     -10.304919      -280.4111
  49   2.0000     -10.303278      -280.3664
  50   2.0000     -10.303006      -280.3590
  51   2.0000     -10.302941      -280.3573
  52   2.0000     -10.302314      -280.3402
  53   2.0000     -10.301485      -280.3177
  54   2.0000     -10.301226      -280.3106
  55   2.0000     -10.299644      -280.2676
  56   2.0000     -10.297553      -280.2107
  57   2.0000     -10.297079      -280.1978
  58   2.0000     -10.296553      -280.1835
  59   2.0000     -10.295676      -280.1596
  60   2.0000     -10.294806      -280.1359
  61   2.0000     -10.294465      -280.1266
  62   2.0000     -10.294391      -280.1246
  63   2.0000     -10.294096      -280.1166
  64   2.0000     -10.293872      -280.1105
  65   2.0000     -10.292885      -280.0836
  66   2.0000     -10.290720      -280.0247
  67   2.0000     -10.290656      -280.0230
  68   2.0000     -10.290020      -280.0057
  69   2.0000     -10.284898      -279.8663
  70   2.0000     -10.284811      -279.8639
  71   2.0000     -10.282658      -279.8053
  72   2.0000     -10.278614      -279.6953
  73   2.0000     -10.277026      -279.6521
  74   2.0000     -10.273626      -279.5596
  75   2.0000      -8.088493      -220.0991
  76   2.0000      -8.085252      -220.0109
  77   2.0000      -8.084331      -219.9858
  78   2.0000      -8.081864      -219.9187
  79   2.0000      -8.054923      -219.1856
  80   2.0000      -6.057827      -164.8418
  81   2.0000      -6.054609      -164.7543
  82   2.0000      -6.053802      -164.7323
  83   2.0000      -6.053489      -164.7238
  84   2.0000      -6.051145      -164.6600
  85   2.0000      -6.050597      -164.6451
  86   2.0000      -6.050315      -164.6374
  87   2.0000      -6.049380      -164.6120
  88   2.0000      -6.047719      -164.5668
  89   2.0000      -6.046729      -164.5399
  90   2.0000      -6.046679      -164.5385
  91   2.0000      -6.044510      -164.4795
  92   2.0000      -6.024215      -163.9272
  93   2.0000      -6.020353      -163.8221
  94   2.0000      -6.016776      -163.7248
  95   2.0000      -1.314081       -35.7580
  96   2.0000      -1.299250       -35.3544
  97   2.0000      -1.143543       -31.1174
  98   2.0000      -1.126927       -30.6653
  99   2.0000      -1.104288       -30.0492
 100   2.0000      -1.068601       -29.0781
 101   2.0000      -1.046035       -28.4640
 102   2.0000      -1.041812       -28.3491
 103   2.0000      -1.021414       -27.7941
 104   2.0000      -1.020618       -27.7724
 105   2.0000      -1.013853       -27.5883
 106   2.0000      -1.006845       -27.3976
 107   2.0000      -1.005664       -27.3655
 108   2.0000      -1.004734       -27.3402
 109   2.0000      -0.998412       -27.1682
 110   2.0000      -0.997807       -27.1517
 111   2.0000      -0.988309       -26.8933
 112   2.0000      -0.987209       -26.8633
 113   2.0000      -0.974775       -26.5250
 114   2.0000      -0.959886       -26.1198
 115   2.0000      -0.954960       -25.9858
 116   2.0000      -0.937451       -25.5093
 117   2.0000      -0.927694       -25.2438
 118   2.0000      -0.917611       -24.9695
 119   2.0000      -0.917282       -24.9605
 120   2.0000      -0.903282       -24.5796
 121   2.0000      -0.895464       -24.3668
 122   2.0000      -0.887606       -24.1530
 123   2.0000      -0.885203       -24.0876
 124   2.0000      -0.879641       -23.9363
 125   2.0000      -0.874661       -23.8007
 126   2.0000      -0.872559       -23.7435
 127   2.0000      -0.865255       -23.5448
 128   2.0000      -0.861880       -23.4529
 129   2.0000      -0.856088       -23.2953
 130   2.0000      -0.852107       -23.1870
 131   2.0000      -0.840986       -22.8844
 132   2.0000      -0.833845       -22.6901
 133   2.0000      -0.832937       -22.6654
 134   2.0000      -0.822532       -22.3822
 135   2.0000      -0.807704       -21.9787
 136   2.0000      -0.790863       -21.5205
 137   2.0000      -0.778267       -21.1777
 138   2.0000      -0.775569       -21.1043
 139   2.0000      -0.764707       -20.8087
 140   2.0000      -0.761014       -20.7082
 141   2.0000      -0.751122       -20.4391
 142   2.0000      -0.744570       -20.2608
 143   2.0000      -0.732014       -19.9191
 144   2.0000      -0.725812       -19.7503
 145   2.0000      -0.714794       -19.4505
 146   2.0000      -0.707753       -19.2590
 147   2.0000      -0.706918       -19.2362
 148   2.0000      -0.706192       -19.2165
 149   2.0000      -0.701868       -19.0988
 150   2.0000      -0.697777       -18.9875
 151   2.0000      -0.690762       -18.7966
 152   2.0000      -0.683392       -18.5960
 153   2.0000      -0.681692       -18.5498
 154   2.0000      -0.678121       -18.4526
 155   2.0000      -0.672631       -18.3032
 156   2.0000      -0.662978       -18.0406
 157   2.0000      -0.654743       -17.8165
 158   2.0000      -0.649068       -17.6620
 159   2.0000      -0.647282       -17.6134
 160   2.0000      -0.637095       -17.3362
 161   2.0000      -0.636358       -17.3162
 162   2.0000      -0.634900       -17.2765
 163   2.0000      -0.632357       -17.2073
 164   2.0000      -0.626296       -17.0424
 165   2.0000      -0.618615       -16.8334
 166   2.0000      -0.615778       -16.7562
 167   2.0000      -0.614156       -16.7120
 168   2.0000      -0.610968       -16.6253
 169   2.0000      -0.608235       -16.5509
 170   2.0000      -0.602711       -16.4006
 171   2.0000      -0.593486       -16.1496
 172   2.0000      -0.585154       -15.9228
 173   2.0000      -0.580734       -15.8026
 174   2.0000      -0.578843       -15.7511
 175   2.0000      -0.572912       -15.5897
 176   2.0000      -0.570480       -15.5235
 177   2.0000      -0.566829       -15.4242
 178   2.0000      -0.558852       -15.2071
 179   2.0000      -0.553161       -15.0523
 180   2.0000      -0.550775       -14.9874
 181   2.0000      -0.548660       -14.9298
 182   2.0000      -0.546713       -14.8768
 183   2.0000      -0.545494       -14.8436
 184   2.0000      -0.544006       -14.8031
 185   2.0000      -0.541946       -14.7471
 186   2.0000      -0.540589       -14.7102
 187   2.0000      -0.539788       -14.6884
 188   2.0000      -0.535796       -14.5798
 189   2.0000      -0.534947       -14.5566
 190   2.0000      -0.532126       -14.4799
 191   2.0000      -0.529696       -14.4138
 192   2.0000      -0.524860       -14.2822
 193   2.0000      -0.523723       -14.2512
 194   2.0000      -0.521332       -14.1862
 195   2.0000      -0.519004       -14.1228
 196   2.0000      -0.514650       -14.0043
 197   2.0000      -0.514011       -13.9869
 198   2.0000      -0.508808       -13.8454
 199   2.0000      -0.505930       -13.7670
 200   2.0000      -0.505502       -13.7554
 201   2.0000      -0.502696       -13.6791
 202   2.0000      -0.500635       -13.6230
 203   2.0000      -0.499896       -13.6029
 204   2.0000      -0.497576       -13.5397
 205   2.0000      -0.497090       -13.5265
 206   2.0000      -0.493774       -13.4363
 207   2.0000      -0.491534       -13.3753
 208   2.0000      -0.489787       -13.3278
 209   2.0000      -0.487481       -13.2650
 210   2.0000      -0.482342       -13.1252
 211   2.0000      -0.481094       -13.0912
 212   2.0000      -0.480367       -13.0715
 213   2.0000      -0.477450       -12.9921
 214   2.0000      -0.473734       -12.8910
 215   2.0000      -0.472222       -12.8498
 216   2.0000      -0.466305       -12.6888
 217   2.0000      -0.464299       -12.6342
 218   2.0000      -0.462657       -12.5895
 219   2.0000      -0.461890       -12.5687
 220   2.0000      -0.461345       -12.5538
 221   2.0000      -0.460865       -12.5408
 222   2.0000      -0.459491       -12.5034
 223   2.0000      -0.456731       -12.4283
 224   2.0000      -0.456417       -12.4197
 225   2.0000      -0.456029       -12.4092
 226   2.0000      -0.453430       -12.3385
 227   2.0000      -0.448775       -12.2118
 228   2.0000      -0.447630       -12.1806
 229   2.0000      -0.444452       -12.0941
 230   2.0000      -0.442343       -12.0368
 231   2.0000      -0.441828       -12.0228
 232   2.0000      -0.440011       -11.9733
 233   2.0000      -0.439486       -11.9590
 234   2.0000      -0.438543       -11.9334
 235   2.0000      -0.437863       -11.9148
 236   2.0000      -0.437338       -11.9006
 237   2.0000      -0.437023       -11.8920
 238   2.0000      -0.436519       -11.8783
 239   2.0000      -0.427011       -11.6196
 240   2.0000      -0.425991       -11.5918
 241   2.0000      -0.424213       -11.5434
 242   2.0000      -0.423963       -11.5366
 243   2.0000      -0.419105       -11.4044
 244   2.0000      -0.416855       -11.3432
 245   2.0000      -0.416514       -11.3339
 246   2.0000      -0.412102       -11.2139
 247   2.0000      -0.411224       -11.1900
 248   2.0000      -0.403171       -10.9708
 249   2.0000      -0.402114       -10.9421
 250   2.0000      -0.400776       -10.9057
 251   2.0000      -0.400035       -10.8855
 252   2.0000      -0.385971       -10.5028
 253   2.0000      -0.378760       -10.3066
 254   2.0000      -0.373015       -10.1503
 255   2.0000      -0.358686        -9.7603
 256   2.0000      -0.352112        -9.5815
 257   2.0000      -0.346429        -9.4268
 258   2.0000      -0.339102        -9.2274
 259   2.0000      -0.336101        -9.1458
 260   2.0000      -0.332984        -9.0610
 261   2.0000      -0.324199        -8.8219
 262   2.0000      -0.320838        -8.7305
 263   2.0000      -0.318852        -8.6764
 264   2.0000      -0.312498        -8.5035
 265   2.0000      -0.309490        -8.4216
 266   2.0000      -0.302727        -8.2376
 267   2.0000      -0.295106        -8.0302
 268   2.0000      -0.279268        -7.5993
 269   2.0000      -0.255270        -6.9463
 270   2.0000      -0.219889        -5.9835
 271   0.0000      -0.112100        -3.0504
 272   0.0000      -0.101342        -2.7577
 273   0.0000      -0.087655        -2.3852
 274   0.0000      -0.059708        -1.6247
 275   0.0000      -0.052840        -1.4379

MULLIKEN ATOMIC CHARGES
-----------------------
   0 C :   -0.108362
   1 C :    0.243079
   2 F :   -0.173985
   3 C :    0.237483
   4 F :   -0.174248
   5 C :   -0.104262
   6 C :    0.115751
   7 C :    0.111656
   8 C :   -0.083780
   9 C :    0.045544
  10 C :    0.000445
  11 C :   -0.083020
  12 C :    0.152964
  13 O :   -0.153512
  14 C :   -0.098829
  15 C :    0.323969
  16 C :   -0.367453
  17 C :   -0.187769
  18 N :    0.143463
  19 C :   -0.182847
  20 N :    0.138906
  21 C :    0.041291
  22 C :   -0.116861
  23 C :   -0.005425
  24 C :   -0.018781
  25 C :   -0.068212
  26 S :    0.193031
  27 C :   -0.119174
  28 C :    0.049149
  29 C :    0.311823
  30 C :   -0.296952
  31 C :   -0.188078
  32 N :    0.166069
  33 C :   -0.192104
  34 N :    0.194600
  35 C :   -0.081856
  36 C :   -0.029730
  37 S :    0.161065
  38 C :    0.069669
  39 N :   -0.047952
  40 C :    0.121915
  41 C :   -0.179338
  42 C :    0.115169
  43 N :   -0.028867
  44 C :    0.120680
  45 C :   -0.166718
  46 C :   -0.001474
  47 C :   -0.020589
  48 C :   -0.073254
  49 S :    0.094321
  50 C :   -0.076779
  51 C :   -0.103307
  52 C :   -0.083481
  53 C :    0.100909
  54 C :    0.082251
  55 C :   -0.107398
  56 C :    0.147455
  57 O :   -0.168875
  58 C :    0.109106
  59 C :   -0.071026
  60 C :   -0.076585
  61 C :    0.035420
  62 C :   -0.097280
  63 S :    0.143684
  64 C :   -0.110205
  65 C :   -0.040457
  66 C :    0.300975
  67 C :   -0.305151
  68 C :   -0.191358
  69 N :    0.174854
  70 C :   -0.184967
  71 N :    0.169206
  72 C :    0.041944
  73 C :   -0.083536
  74 S :    0.174074
  75 H :    0.005244
  76 H :   -0.000892
  77 H :   -0.008110
  78 H :   -0.008546
  79 H :    0.003320
  80 H :    0.038748
  81 H :    0.005859
  82 H :    0.127091
  83 H :   -0.034025
  84 H :    0.126964
  85 H :   -0.019955
  86 H :   -0.018413
  87 H :   -0.011339
  88 H :    0.042133
  89 H :    0.014441
  90 H :    0.013498
  91 H :    0.007385
  92 H :    0.030923
  93 H :   -0.006596
  94 H :    0.025724
  95 H :    0.027903
  96 H :    0.015316
  97 H :    0.011243
  98 H :    0.033999
Sum of atomic charges:   -0.0000000

LOEWDIN ATOMIC CHARGES
----------------------
   0 C :   -0.029614
   1 C :    0.065360
   2 F :   -0.051518
   3 C :    0.066731
   4 F :   -0.051658
   5 C :   -0.033303
   6 C :   -0.009061
   7 C :   -0.007675
   8 C :    0.015932
   9 C :   -0.023079
  10 C :   -0.050352
  11 C :    0.028711
  12 C :    0.084726
  13 O :   -0.142734
  14 C :   -0.109510
  15 C :    0.077714
  16 C :   -0.150981
  17 C :   -0.023761
  18 N :   -0.060743
  19 C :   -0.017152
  20 N :   -0.061629
  21 C :    0.043143
  22 C :   -0.182344
  23 C :    0.024203
  24 C :   -0.085909
  25 C :   -0.145560
  26 S :    0.482584
  27 C :   -0.214551
  28 C :   -0.038206
  29 C :    0.076893
  30 C :   -0.095590
  31 C :   -0.013399
  32 N :   -0.036126
  33 C :   -0.023340
  34 N :   -0.015065
  35 C :   -0.039765
  36 C :   -0.139884
  37 S :    0.446669
  38 C :   -0.029230
  39 N :    0.064843
  40 C :   -0.007508
  41 C :   -0.097602
  42 C :    0.010914
  43 N :    0.073940
  44 C :   -0.021689
  45 C :   -0.071253
  46 C :   -0.042545
  47 C :   -0.035037
  48 C :   -0.167000
  49 S :    0.434257
  50 C :   -0.184443
  51 C :   -0.065923
  52 C :   -0.055528
  53 C :   -0.029189
  54 C :   -0.015929
  55 C :   -0.072415
  56 C :    0.120583
  57 O :   -0.118646
  58 C :   -0.031572
  59 C :   -0.174851
  60 C :   -0.042870
  61 C :   -0.064223
  62 C :   -0.195379
  63 S :    0.480869
  64 C :   -0.179221
  65 C :   -0.082621
  66 C :    0.084770
  67 C :   -0.105335
  68 C :   -0.017093
  69 N :   -0.033876
  70 C :   -0.015174
  71 N :   -0.038088
  72 C :   -0.033378
  73 C :   -0.180753
  74 S :    0.471318
  75 H :    0.047010
  76 H :    0.044772
  77 H :    0.039296
  78 H :    0.040872
  79 H :    0.041879
  80 H :    0.043391
  81 H :    0.039988
  82 H :    0.083706
  83 H :    0.024114
  84 H :    0.092936
  85 H :    0.030691
  86 H :    0.021336
  87 H :    0.032637
  88 H :    0.037996
  89 H :    0.031823
  90 H :    0.031518
  91 H :    0.025420
  92 H :    0.048253
  93 H :   -0.005818
  94 H :    0.018565
  95 H :    0.033809
  96 H :    0.033319
  97 H :    0.042410
  98 H :    0.026796

  Mayer bond orders larger than 0.100000
B(  0-C ,  1-C ) :   1.4388 B(  0-C ,  5-C ) :   0.1088 B(  0-C ,  7-C ) :   1.1892
B(  0-C , 75-H ) :   1.0080 B(  1-C ,  2-F ) :   1.1319 B(  1-C ,  3-C ) :   1.1920
B(  3-C ,  4-F ) :   1.1315 B(  3-C ,  5-C ) :   1.4415 B(  5-C ,  6-C ) :   1.1911
B(  5-C , 76-H ) :   1.0085 B(  6-C ,  7-C ) :   1.2601 B(  6-C , 11-C ) :   1.1814
B(  7-C ,  8-C ) :   1.2132 B(  8-C ,  9-C ) :   1.4519 B(  8-C , 77-H ) :   0.9898
B(  9-C , 10-C ) :   1.2248 B(  9-C , 15-C ) :   0.9745 B( 10-C , 11-C ) :   1.4730
B( 10-C , 12-C ) :   0.9471 B( 11-C , 78-H ) :   1.0184 B( 12-C , 13-O ) :   2.1651
B( 12-C , 14-C ) :   0.9505 B( 14-C , 15-C ) :   1.1067 B( 14-C , 21-C ) :   1.5351
B( 15-C , 16-C ) :   1.5995 B( 16-C , 17-C ) :   1.1423 B( 16-C , 19-C ) :   1.1534
B( 17-C , 18-N ) :   2.9624 B( 19-C , 20-N ) :   2.9556 B( 21-C , 22-C ) :   1.2674
B( 21-C , 79-H ) :   0.9078 B( 22-C , 23-C ) :   1.3689 B( 22-C , 26-S ) :   1.0517
B( 23-C , 24-C ) :   1.3353 B( 23-C , 80-H ) :   0.9686 B( 24-C , 25-C ) :   1.3336
B( 24-C , 29-C ) :   1.0081 B( 25-C , 26-S ) :   1.1668 B( 25-C , 27-C ) :   1.2517
B( 27-C , 28-C ) :   1.4048 B( 27-C , 37-S ) :   1.0750 B( 28-C , 29-C ) :   0.9847
B( 28-C , 35-C ) :   1.3223 B( 29-C , 30-C ) :   1.7105 B( 30-C , 31-C ) :   1.1391
B( 30-C , 33-C ) :   1.1351 B( 31-C , 32-N ) :   2.9814 B( 33-C , 34-N ) :   2.9983
B( 35-C , 36-C ) :   1.4250 B( 35-C , 81-H ) :   0.9927 B( 36-C , 37-S ) :   1.0977
B( 36-C , 38-C ) :   1.1319 B( 38-C , 39-N ) :   1.1902 B( 38-C , 45-C ) :   1.3947
B( 39-N , 40-C ) :   1.1665 B( 39-N , 82-H ) :   0.9309 B( 40-C , 41-C ) :   1.2648
B( 40-C , 44-C ) :   1.2997 B( 41-C , 42-C ) :   1.3964 B( 41-C , 83-H ) :   1.0325
B( 42-C , 43-N ) :   1.1831 B( 42-C , 46-C ) :   1.1140 B( 43-N , 44-C ) :   1.1650
B( 43-N , 84-H ) :   0.9346 B( 44-C , 45-C ) :   1.2713 B( 45-C , 85-H ) :   1.0298
B( 46-C , 47-C ) :   1.6426 B( 46-C , 86-H ) :   0.9604 B( 47-C , 48-C ) :   1.1729
B( 47-C , 87-H ) :   0.9730 B( 48-C , 49-S ) :   1.0901 B( 48-C , 50-C ) :   0.1027
B( 48-C , 52-C ) :   1.4877 B( 49-S , 50-C ) :   1.1243 B( 50-C , 51-C ) :   1.5056
B( 50-C , 59-C ) :   1.1657 B( 51-C , 52-C ) :   1.3116 B( 51-C , 58-C ) :   1.0455
B( 52-C , 53-C ) :   1.0536 B( 53-C , 54-C ) :   1.0866 B( 53-C , 88-H ) :   0.9053
B( 53-C , 89-H ) :   0.9109 B( 54-C , 55-C ) :   1.0462 B( 54-C , 90-H ) :   0.9242
B( 54-C , 91-H ) :   0.9459 B( 55-C , 56-C ) :   0.9193 B( 55-C , 58-C ) :   1.0426
B( 55-C , 92-H ) :   0.8916 B( 56-C , 57-O ) :   2.1915 B( 56-C , 93-H ) :   0.9479
B( 58-C , 94-H ) :   0.9093 B( 58-C , 95-H ) :   0.9037 B( 59-C , 60-C ) :   1.4373
B( 59-C , 63-S ) :   1.1047 B( 60-C , 61-C ) :   1.3028 B( 60-C , 96-H ) :   0.9875
B( 61-C , 62-C ) :   1.4550 B( 61-C , 66-C ) :   0.9867 B( 62-C , 63-S ) :   1.1073
B( 62-C , 64-C ) :   1.1783 B( 64-C , 65-C ) :   1.4522 B( 64-C , 74-S ) :   1.1370
B( 65-C , 66-C ) :   1.0234 B( 65-C , 72-C ) :   1.2727 B( 66-C , 67-C ) :   1.7074
B( 67-C , 68-C ) :   1.1306 B( 67-C , 70-C ) :   1.1375 B( 68-C , 69-N ) :   3.0044
B( 70-C , 71-N ) :   2.9875 B( 72-C , 73-C ) :   1.5555 B( 72-C , 97-H ) :   0.9953
B( 73-C , 74-S ) :   1.1416 B( 73-C , 98-H ) :   0.9643

-----------------------------------------------------------------------------
         ABSORPTION SPECTRUM VIA TRANSITION ELECTRIC DIPOLE MOMENTS
-----------------------------------------------------------------------------
State   Energy  Wavelength   fosc         T2         TX        TY        TZ
        (cm-1)    (nm)                  (au**2)     (au)      (au)      (au)
-----------------------------------------------------------------------------
   0    9233.3   1083.0   0.742093086  26.45912  -0.93473  -5.05793  -0.05229
   1   11865.6    842.8   0.119034062   3.30261   0.69428   1.57217  -0.59065
   2   16300.0    613.5   1.700206537  34.33918  -1.00141  -5.76739   0.27130
   3   18729.9    533.9   0.073580564   1.29331  -0.04257  -1.10827   0.25147
   4   19282.8    518.6   0.013868459   0.23677  -0.18220  -0.23879  -0.38282
   5   21645.6    462.0   0.607258095   9.23589  -0.99406  -2.86490  -0.20023
   6   23872.7    418.9   0.049292673   0.67976  -0.01185   0.82408  -0.02267
   7   24856.6    402.3   0.125071473   1.65650  -0.08517  -1.18838   0.48682
   8   25368.0    394.2   0.099491277   1.29114  -0.09133  -0.50862   1.01198
   9   26488.3    377.5   0.018620925   0.23143  -0.03404   0.01499   0.47963
  10   27386.0    365.1   0.081490259   0.97961  -0.09995  -0.87747  -0.44684
  11   27592.3    362.4   0.079651370   0.95034   0.34012   0.80114  -0.43914
  12   28437.4    351.7   0.030078073   0.34821   0.00541   0.47993   0.34329
  13   28746.3    347.9   0.135897088   1.55634   0.37718  -0.25677  -1.16109
  14   29233.8    342.1   0.188686623   2.12486   0.29621  -0.15925  -1.41837
  15   29503.4    338.9   0.083300311   0.92950   0.11400  -0.54174  -0.78932
  16   30075.3    332.5   0.251626670   2.75437  -0.52751  -1.20289   1.01448
  17   30843.9    324.2   0.104194141   1.11211   0.01331   0.07108   1.05209
  18   31361.8    318.9   0.006307702   0.06621  -0.07634   0.22547   0.09771
  19   31458.5    317.9   0.024361587   0.25494  -0.21986  -0.17389   0.41996
  20   31548.7    317.0   0.245329414   2.56002  -0.10175  -1.41756  -0.73498
  21   31776.8    314.7   0.505398310   5.23600  -0.10776   1.20135   1.94451
  22   32549.5    307.2   0.525913259   5.31919  -0.34504  -1.65582  -1.56793
  23   32629.9    306.5   0.088908294   0.89702  -0.19208  -0.60480  -0.70310
  24   32749.4    305.3   0.015405418   0.15486   0.16677   0.21927  -0.28102
  25   32988.7    303.1   0.001027433   0.01025  -0.03120   0.08735   0.04061
  26   33157.6    301.6   0.008853370   0.08790  -0.02491   0.28827   0.06468
  27   33722.7    296.5   0.119279338   1.16444  -0.22295   0.28256   1.01730
  28   33959.5    294.5   0.159090301   1.54226   0.48806   1.11116  -0.26342
  29   33976.0    294.3   0.027040677   0.26201  -0.15263  -0.34073   0.35017
  30   34442.8    290.3   0.010234864   0.09783   0.03348  -0.21576  -0.22395
  31   34937.4    286.2   0.475074711   4.47658   0.08754   0.65081   2.01131
  32   35076.0    285.1   0.042366965   0.39764   0.20326   0.38558   0.45569
  33   35278.8    283.5   0.032276345   0.30119   0.22419   0.48139  -0.13853
  34   35626.0    280.7   0.218346421   2.01769   0.08626  -0.28853  -1.38816
  35   36007.4    277.7   0.003785010   0.03461   0.11394   0.00150  -0.14704
  36   36103.5    277.0   0.021997818   0.20059   0.08595   0.19405  -0.39439
  37   36880.7    271.1   0.152769497   1.36368   0.49689   0.40846  -0.97465
  38   37334.1    267.9   0.104900393   0.92501  -0.29508  -0.64092   0.65358
  39   37879.2    264.0   0.008074766   0.07018   0.08185   0.25093   0.02265
  40   38240.4    261.5   0.194737750   1.67650   0.23735   0.26355  -1.24527
  41   38422.0    260.3   0.010929520   0.09365   0.05884   0.23169  -0.19106
  42   38423.3    260.3   0.038693620   0.33153   0.09498  -0.18571   0.53667
  43   38806.3    257.7   0.011137764   0.09449  -0.05247   0.07742   0.29281
  44   38920.6    256.9   0.000613979   0.00519  -0.04749   0.00355   0.05409
  45   39111.1    255.7   0.023567772   0.19838   0.08314   0.38421  -0.20941
  46   39485.0    253.3   0.006988844   0.05827   0.10557   0.21354  -0.03907
  47   39798.9    251.3   0.126126987   1.04331   0.10936   0.92013  -0.42978
  48   39892.0    250.7   0.116079884   0.95796  -0.08208   0.90561  -0.36206

FINAL SINGLE POINT ENERGY     -4999.190457127803

DIPOLE MOMENT
-------------
                                X             Y             Z
Electronic contribution:      7.14065      86.31840      29.40058
Nuclear contribution   :     -7.71098     -92.05977     -31.60303
                        -----------------------------------------
Total Dipole Moment    :     -0.57033      -5.74136      -2.20246
                        -----------------------------------------
Magnitude (a.u.)       :      6.17571
Magnitude (Debye)      :     15.69740

Rotational constants in cm-1:     0.002194     0.000137     0.000130
Rotational constants in MHz :    65.786810     4.103085     3.894413

                             ****ORCA TERMINATED NORMALLY****
TOTAL RUN TIME: 0 days 0 hours 10 minutes 40 seconds 811 msec
