                         Program Version 4.2.0 -  RELEASE  -
|  1> # ORCA input file
|  2> # SCF done       -188.965860599327          0.000563725432
|  3> ! CAM-B3LYP def2-SVP def2/J RIJCOSX Grid4 TightSCF
|  4> %maxcore 5000
|  5> %tddft
|  6>     Mode sTDDFT
|  7>     Ethresh 5.0
|  8>     maxcore 5000
|  9> end
| 10>
| 11> %pal
| 12>   nprocs 6
| 13>   end
| 14> * xyz 0 1
| 15>    C       -3.31700         1.31348         7.66308
| 16>    C       -3.32530         0.78321         6.40837
| 17>    C       -3.00008         1.75354         5.44139
| 18>    C       -2.75239         3.00852         6.00701
| 19>    S       -2.91637         2.99723         7.70586
| 20>    C       -2.43575         3.92486         4.96185
| 21>    C       -2.48425         3.23785         3.73905
| 22>    C       -2.84230         1.84920         4.00001
| 23>    C       -3.00057         0.85195         3.08380
| 24>    C       -2.82312         1.05811         1.69878
| 25>    N       -2.68357         1.20821         0.57098
| 26>    C       -3.35692        -0.46105         3.45883
| 27>    N       -3.64611        -1.52914         3.75866
| 28>    C       -2.19035         4.05627         2.64664
| 29>    C       -1.92487         5.34963         3.04682
| 30>    S       -2.03290         5.57029         4.77763
| 31>    C       -1.60029         6.45289         2.20969
| 32>    O       -1.39432         7.68008         2.77732
| 33>    C       -1.12394         8.49520         1.73134
| 34>    C       -1.17667         7.70238         0.54756
| 35>    N       -1.48259         6.41971         0.91925
| 36>    C       -0.94712         8.23907        -0.70750
| 37>    C       -0.66976         9.59762        -0.71439
| 38>    C       -0.62707        10.36780         0.48523
| 39>    C       -0.84897         9.84716         1.74552
| 40>    O       -0.34369        11.64165         0.13757
| 41>    C       -0.22502        11.61286        -1.22476
| 42>    N       -0.40602        10.44179        -1.75666
| 43>    C        0.06703        12.83094        -1.91028
| 44>    C        0.21740        12.87499        -3.24919
| 45>    C        0.49484        14.05736        -3.99583
| 46>    S        0.72946        13.95095        -5.72365
| 47>    C        0.98990        15.66463        -5.88785
| 48>    C        0.88690        16.26296        -4.62396
| 49>    C        0.61454        15.35530        -3.57998
| 50>    N        1.03043        17.63003        -4.33151
| 51>    O        1.22558        18.41137        -5.25619
| 52>    O        0.95361        17.97521        -3.16983
| 53>    C        1.25882        16.16910        -7.18439
| 54>    C        1.36965        15.35167        -8.31001
| 55>    C        1.62956        16.07318        -9.46310
| 56>    C        1.71302        17.45969        -9.21695
| 57>    S        1.48302        17.86762        -7.57831
| 58>    C        1.97436        18.10844       -10.44794
| 59>    C        2.05784        17.13679       -11.47185
| 60>    C        1.84378        15.82493       -10.88243
| 61>    C        1.84176        14.61387       -11.50743
| 62>    C        2.05007        14.45024       -12.89481
| 63>    N        2.20893        14.27476       -14.01595
| 64>    C        1.62468        13.41503       -10.79367
| 65>    N        1.44936        12.44222       -10.21284
| 66>    C        2.31146        17.68274       -12.72376
| 67>    C        2.42484        19.06678       -12.67595
| 68>    S        2.20410        19.68508       -11.03099
| 69>    C        2.64941        20.05450       -13.65864
| 70>    C        2.90638        19.96925       -14.99782
| 71>    C        3.08044        21.13250       -15.85826
| 72>    C        2.83229        22.44327       -15.54143
| 73>    C        3.01759        23.51995       -16.43558
| 74>    N        3.14732        24.44535       -17.10241
| 75>    C        2.33354        22.93094       -14.31480
| 76>    N        1.91663        23.41761       -13.36110
| 77>    C        3.51628        20.66026       -17.16654
| 78>    C        3.54118        19.23774       -17.14833
| 79>    C        3.14461        18.75218       -15.81750
| 80>    O        3.05651        17.59000       -15.48220
| 81>    C        3.89635        18.50438       -18.24379
| 82>    C        4.25672        19.17607       -19.43300
| 83>    C        4.24526        20.60086       -19.45791
| 84>    C        3.86912        21.33170       -18.30790
| 85>    C        4.61260        21.26217       -20.64765
| 86>    C        4.97205        20.55202       -21.76064
| 87>    C        4.98086        19.14927       -21.73557
| 88>    C        4.63080        18.47582       -20.59667
| 89>    H       -3.52522         0.81330         8.58767
| 90>    H       -3.55276        -0.24537         6.19653
| 91>    H       -2.16472         3.76122         1.61424
| 92>    H       -0.98447         7.64945        -1.60558
| 93>    H       -0.81395        10.43612         2.64541
| 94>    H        0.15760        13.70801        -1.28806
| 95>    H        0.12268        11.95245        -3.80413
| 96>    H        0.50963        15.68556        -2.56312
| 97>    H        1.26369        14.28251        -8.26145
| 98>    H        2.41876        17.12836       -13.63963
| 99>    H        2.61346        21.05729       -13.24872
|100>    H        3.90157        17.42537       -18.20105
|101>    H        3.87428        22.40850       -18.36117
|102>    H        4.60272        22.34219       -20.66240
|103>    H        5.25139        21.06766       -22.66720
|104>    H        5.26668        18.60511       -22.62327
|105>    H        4.63578        17.39601       -20.57121
|106> *
|107>
|108>                          ****END OF INPUT****

CARTESIAN COORDINATES (ANGSTROEM)
---------------------------------
  C     -3.317000    1.313480    7.663080
  C     -3.325300    0.783210    6.408370
  C     -3.000080    1.753540    5.441390
  C     -2.752390    3.008520    6.007010
  S     -2.916370    2.997230    7.705860
  C     -2.435750    3.924860    4.961850
  C     -2.484250    3.237850    3.739050
  C     -2.842300    1.849200    4.000010
  C     -3.000570    0.851950    3.083800
  C     -2.823120    1.058110    1.698780
  N     -2.683570    1.208210    0.570980
  C     -3.356920   -0.461050    3.458830
  N     -3.646110   -1.529140    3.758660
  C     -2.190350    4.056270    2.646640
  C     -1.924870    5.349630    3.046820
  S     -2.032900    5.570290    4.777630
  C     -1.600290    6.452890    2.209690
  O     -1.394320    7.680080    2.777320
  C     -1.123940    8.495200    1.731340
  C     -1.176670    7.702380    0.547560
  N     -1.482590    6.419710    0.919250
  C     -0.947120    8.239070   -0.707500
  C     -0.669760    9.597620   -0.714390
  C     -0.627070   10.367800    0.485230
  C     -0.848970    9.847160    1.745520
  O     -0.343690   11.641650    0.137570
  C     -0.225020   11.612860   -1.224760
  N     -0.406020   10.441790   -1.756660
  C      0.067030   12.830940   -1.910280
  C      0.217400   12.874990   -3.249190
  C      0.494840   14.057360   -3.995830
  S      0.729460   13.950950   -5.723650
  C      0.989900   15.664630   -5.887850
  C      0.886900   16.262960   -4.623960
  C      0.614540   15.355300   -3.579980
  N      1.030430   17.630030   -4.331510
  O      1.225580   18.411370   -5.256190
  O      0.953610   17.975210   -3.169830
  C      1.258820   16.169100   -7.184390
  C      1.369650   15.351670   -8.310010
  C      1.629560   16.073180   -9.463100
  C      1.713020   17.459690   -9.216950
  S      1.483020   17.867620   -7.578310
  C      1.974360   18.108440  -10.447940
  C      2.057840   17.136790  -11.471850
  C      1.843780   15.824930  -10.882430
  C      1.841760   14.613870  -11.507430
  C      2.050070   14.450240  -12.894810
  N      2.208930   14.274760  -14.015950
  C      1.624680   13.415030  -10.793670
  N      1.449360   12.442220  -10.212840
  C      2.311460   17.682740  -12.723760
  C      2.424840   19.066780  -12.675950
  S      2.204100   19.685080  -11.030990
  C      2.649410   20.054500  -13.658640
  C      2.906380   19.969250  -14.997820
  C      3.080440   21.132500  -15.858260
  C      2.832290   22.443270  -15.541430
  C      3.017590   23.519950  -16.435580
  N      3.147320   24.445350  -17.102410
  C      2.333540   22.930940  -14.314800
  N      1.916630   23.417610  -13.361100
  C      3.516280   20.660260  -17.166540
  C      3.541180   19.237740  -17.148330
  C      3.144610   18.752180  -15.817500
  O      3.056510   17.590000  -15.482200
  C      3.896350   18.504380  -18.243790
  C      4.256720   19.176070  -19.433000
  C      4.245260   20.600860  -19.457910
  C      3.869120   21.331700  -18.307900
  C      4.612600   21.262170  -20.647650
  C      4.972050   20.552020  -21.760640
  C      4.980860   19.149270  -21.735570
  C      4.630800   18.475820  -20.596670
  H     -3.525220    0.813300    8.587670
  H     -3.552760   -0.245370    6.196530
  H     -2.164720    3.761220    1.614240
  H     -0.984470    7.649450   -1.605580
  H     -0.813950   10.436120    2.645410
  H      0.157600   13.708010   -1.288060
  H      0.122680   11.952450   -3.804130
  H      0.509630   15.685560   -2.563120
  H      1.263690   14.282510   -8.261450
  H      2.418760   17.128360  -13.639630
  H      2.613460   21.057290  -13.248720
  H      3.901570   17.425370  -18.201050
  H      3.874280   22.408500  -18.361170
  H      4.602720   22.342190  -20.662400
  H      5.251390   21.067660  -22.667200
  H      5.266680   18.605110  -22.623270
  H      4.635780   17.396010  -20.571210

 Total Charge           Charge          ....    0
 Multiplicity           Mult            ....    1
 Number of Electrons    NEL             ....  530
 Basis Dimension        Dim             .... 1141

ORBITAL ENERGIES
----------------

  NO   OCC          E(Eh)            E(eV)
   0   2.0000     -88.999739     -2421.8060
   1   2.0000     -88.997893     -2421.7558
   2   2.0000     -88.995327     -2421.6860
   3   2.0000     -88.993675     -2421.6410
   4   2.0000     -88.990197     -2421.5464
   5   2.0000     -19.307312      -525.3787
   6   2.0000     -19.304187      -525.2936
   7   2.0000     -19.259193      -524.0693
   8   2.0000     -19.257340      -524.0189
   9   2.0000     -19.219921      -523.0006
  10   2.0000     -14.665918      -399.0799
  11   2.0000     -14.435582      -392.8122
  12   2.0000     -14.430557      -392.6754
  13   2.0000     -14.429454      -392.6454
  14   2.0000     -14.428233      -392.6122
  15   2.0000     -14.418767      -392.3546
  16   2.0000     -14.414342      -392.2342
  17   2.0000     -14.412299      -392.1786
  18   2.0000     -14.411825      -392.1657
  19   2.0000     -10.383436      -282.5476
  20   2.0000     -10.376381      -282.3557
  21   2.0000     -10.370751      -282.2025
  22   2.0000     -10.370322      -282.1908
  23   2.0000     -10.364176      -282.0236
  24   2.0000     -10.363288      -281.9994
  25   2.0000     -10.357835      -281.8510
  26   2.0000     -10.351649      -281.6827
  27   2.0000     -10.349864      -281.6341
  28   2.0000     -10.347553      -281.5712
  29   2.0000     -10.347013      -281.5565
  30   2.0000     -10.345656      -281.5196
  31   2.0000     -10.344596      -281.4908
  32   2.0000     -10.342767      -281.4410
  33   2.0000     -10.342201      -281.4256
  34   2.0000     -10.336238      -281.2633
  35   2.0000     -10.335755      -281.2502
  36   2.0000     -10.334812      -281.2245
  37   2.0000     -10.334188      -281.2075
  38   2.0000     -10.332164      -281.1525
  39   2.0000     -10.331182      -281.1258
  40   2.0000     -10.329676      -281.0848
  41   2.0000     -10.329587      -281.0823
  42   2.0000     -10.329372      -281.0765
  43   2.0000     -10.328136      -281.0429
  44   2.0000     -10.326023      -280.9854
  45   2.0000     -10.321727      -280.8685
  46   2.0000     -10.317544      -280.7547
  47   2.0000     -10.316412      -280.7238
  48   2.0000     -10.314946      -280.6839
  49   2.0000     -10.314937      -280.6837
  50   2.0000     -10.312577      -280.6195
  51   2.0000     -10.312287      -280.6116
  52   2.0000     -10.310612      -280.5660
  53   2.0000     -10.310204      -280.5549
  54   2.0000     -10.309425      -280.5337
  55   2.0000     -10.307814      -280.4899
  56   2.0000     -10.306011      -280.4408
  57   2.0000     -10.304984      -280.4129
  58   2.0000     -10.304564      -280.4014
  59   2.0000     -10.304307      -280.3944
  60   2.0000     -10.302765      -280.3525
  61   2.0000     -10.302638      -280.3490
  62   2.0000     -10.299661      -280.2680
  63   2.0000     -10.297912      -280.2204
  64   2.0000     -10.297512      -280.2095
  65   2.0000     -10.297283      -280.2033
  66   2.0000     -10.296680      -280.1869
  67   2.0000     -10.296197      -280.1738
  68   2.0000     -10.288293      -279.9587
  69   2.0000     -10.286344      -279.9057
  70   2.0000     -10.285776      -279.8902
  71   2.0000     -10.285604      -279.8855
  72   2.0000     -10.285175      -279.8738
  73   2.0000     -10.284070      -279.8438
  74   2.0000      -8.092689      -220.2133
  75   2.0000      -8.091924      -220.1925
  76   2.0000      -8.089757      -220.1335
  77   2.0000      -8.088964      -220.1119
  78   2.0000      -8.085214      -220.0099
  79   2.0000      -6.061725      -164.9479
  80   2.0000      -6.061449      -164.9404
  81   2.0000      -6.058939      -164.8721
  82   2.0000      -6.058406      -164.8576
  83   2.0000      -6.057599      -164.8357
  84   2.0000      -6.056647      -164.8097
  85   2.0000      -6.055322      -164.7737
  86   2.0000      -6.054749      -164.7581
  87   2.0000      -6.054456      -164.7501
  88   2.0000      -6.054372      -164.7478
  89   2.0000      -6.054056      -164.7392
  90   2.0000      -6.052269      -164.6906
  91   2.0000      -6.050912      -164.6537
  92   2.0000      -6.050031      -164.6297
  93   2.0000      -6.047831      -164.5698
  94   2.0000      -1.337716       -36.4011
  95   2.0000      -1.235937       -33.6316
  96   2.0000      -1.232678       -33.5429
  97   2.0000      -1.155295       -31.4372
  98   2.0000      -1.135257       -30.8919
  99   2.0000      -1.053495       -28.6670
 100   2.0000      -1.045383       -28.4463
 101   2.0000      -1.032265       -28.0894
 102   2.0000      -1.028873       -27.9970
 103   2.0000      -1.025699       -27.9107
 104   2.0000      -1.023577       -27.8529
 105   2.0000      -1.020802       -27.7774
 106   2.0000      -1.019908       -27.7531
 107   2.0000      -1.009880       -27.4802
 108   2.0000      -1.006348       -27.3841
 109   2.0000      -1.004003       -27.3203
 110   2.0000      -0.999637       -27.2015
 111   2.0000      -0.998441       -27.1689
 112   2.0000      -0.994450       -27.0604
 113   2.0000      -0.972711       -26.4688
 114   2.0000      -0.965592       -26.2751
 115   2.0000      -0.963633       -26.2218
 116   2.0000      -0.955543       -26.0016
 117   2.0000      -0.937430       -25.5088
 118   2.0000      -0.930193       -25.3118
 119   2.0000      -0.922335       -25.0980
 120   2.0000      -0.914605       -24.8877
 121   2.0000      -0.909062       -24.7368
 122   2.0000      -0.899626       -24.4801
 123   2.0000      -0.884645       -24.0724
 124   2.0000      -0.881574       -23.9888
 125   2.0000      -0.878386       -23.9021
 126   2.0000      -0.871435       -23.7129
 127   2.0000      -0.865044       -23.5390
 128   2.0000      -0.861463       -23.4416
 129   2.0000      -0.855713       -23.2851
 130   2.0000      -0.853695       -23.2302
 131   2.0000      -0.846771       -23.0418
 132   2.0000      -0.828293       -22.5390
 133   2.0000      -0.820018       -22.3138
 134   2.0000      -0.814278       -22.1576
 135   2.0000      -0.803695       -21.8697
 136   2.0000      -0.785197       -21.3663
 137   2.0000      -0.781826       -21.2746
 138   2.0000      -0.776546       -21.1309
 139   2.0000      -0.763322       -20.7711
 140   2.0000      -0.762609       -20.7517
 141   2.0000      -0.741282       -20.1713
 142   2.0000      -0.728651       -19.8276
 143   2.0000      -0.728178       -19.8147
 144   2.0000      -0.709440       -19.3048
 145   2.0000      -0.707690       -19.2572
 146   2.0000      -0.705245       -19.1907
 147   2.0000      -0.703192       -19.1348
 148   2.0000      -0.700446       -19.0601
 149   2.0000      -0.698171       -18.9982
 150   2.0000      -0.695972       -18.9384
 151   2.0000      -0.685950       -18.6656
 152   2.0000      -0.680333       -18.5128
 153   2.0000      -0.677877       -18.4460
 154   2.0000      -0.671899       -18.2833
 155   2.0000      -0.665916       -18.1205
 156   2.0000      -0.656171       -17.8553
 157   2.0000      -0.651950       -17.7405
 158   2.0000      -0.648460       -17.6455
 159   2.0000      -0.647899       -17.6302
 160   2.0000      -0.643673       -17.5152
 161   2.0000      -0.635106       -17.2821
 162   2.0000      -0.630667       -17.1613
 163   2.0000      -0.629470       -17.1287
 164   2.0000      -0.622580       -16.9413
 165   2.0000      -0.619057       -16.8454
 166   2.0000      -0.616175       -16.7670
 167   2.0000      -0.609733       -16.5917
 168   2.0000      -0.606707       -16.5093
 169   2.0000      -0.605679       -16.4814
 170   2.0000      -0.597388       -16.2558
 171   2.0000      -0.589917       -16.0525
 172   2.0000      -0.589650       -16.0452
 173   2.0000      -0.581430       -15.8215
 174   2.0000      -0.577002       -15.7010
 175   2.0000      -0.573458       -15.6046
 176   2.0000      -0.568271       -15.4634
 177   2.0000      -0.564212       -15.3530
 178   2.0000      -0.561312       -15.2741
 179   2.0000      -0.555661       -15.1203
 180   2.0000      -0.553046       -15.0491
 181   2.0000      -0.547257       -14.8916
 182   2.0000      -0.546056       -14.8589
 183   2.0000      -0.545938       -14.8557
 184   2.0000      -0.543365       -14.7857
 185   2.0000      -0.540258       -14.7012
 186   2.0000      -0.538927       -14.6650
 187   2.0000      -0.535622       -14.5750
 188   2.0000      -0.529296       -14.4029
 189   2.0000      -0.525002       -14.2860
 190   2.0000      -0.524043       -14.2599
 191   2.0000      -0.521118       -14.1803
 192   2.0000      -0.518763       -14.1163
 193   2.0000      -0.510901       -13.9023
 194   2.0000      -0.509055       -13.8521
 195   2.0000      -0.508445       -13.8355
 196   2.0000      -0.507320       -13.8049
 197   2.0000      -0.503551       -13.7023
 198   2.0000      -0.499627       -13.5955
 199   2.0000      -0.498330       -13.5602
 200   2.0000      -0.495955       -13.4956
 201   2.0000      -0.495640       -13.4870
 202   2.0000      -0.493307       -13.4236
 203   2.0000      -0.492997       -13.4151
 204   2.0000      -0.491295       -13.3688
 205   2.0000      -0.490644       -13.3511
 206   2.0000      -0.483947       -13.1689
 207   2.0000      -0.482468       -13.1286
 208   2.0000      -0.478924       -13.0322
 209   2.0000      -0.474652       -12.9159
 210   2.0000      -0.471347       -12.8260
 211   2.0000      -0.465338       -12.6625
 212   2.0000      -0.465054       -12.6548
 213   2.0000      -0.460034       -12.5182
 214   2.0000      -0.458073       -12.4648
 215   2.0000      -0.456424       -12.4199
 216   2.0000      -0.455245       -12.3879
 217   2.0000      -0.453890       -12.3510
 218   2.0000      -0.452517       -12.3136
 219   2.0000      -0.450469       -12.2579
 220   2.0000      -0.450388       -12.2557
 221   2.0000      -0.449753       -12.2384
 222   2.0000      -0.446828       -12.1588
 223   2.0000      -0.445828       -12.1316
 224   2.0000      -0.444595       -12.0980
 225   2.0000      -0.442707       -12.0467
 226   2.0000      -0.442553       -12.0425
 227   2.0000      -0.441923       -12.0253
 228   2.0000      -0.439716       -11.9653
 229   2.0000      -0.438977       -11.9452
 230   2.0000      -0.437945       -11.9171
 231   2.0000      -0.434934       -11.8352
 232   2.0000      -0.434122       -11.8130
 233   2.0000      -0.432932       -11.7807
 234   2.0000      -0.428413       -11.6577
 235   2.0000      -0.427201       -11.6247
 236   2.0000      -0.425151       -11.5689
 237   2.0000      -0.424371       -11.5477
 238   2.0000      -0.419830       -11.4241
 239   2.0000      -0.409449       -11.1417
 240   2.0000      -0.408858       -11.1256
 241   2.0000      -0.406486       -11.0610
 242   2.0000      -0.405162       -11.0250
 243   2.0000      -0.403188       -10.9713
 244   2.0000      -0.398513       -10.8441
 245   2.0000      -0.385417       -10.4877
 246   2.0000      -0.376226       -10.2376
 247   2.0000      -0.375867       -10.2279
 248   2.0000      -0.375215       -10.2101
 249   2.0000      -0.371941       -10.1210
 250   2.0000      -0.370566       -10.0836
 251   2.0000      -0.362781        -9.8718
 252   2.0000      -0.355429        -9.6717
 253   2.0000      -0.352509        -9.5923
 254   2.0000      -0.349306        -9.5051
 255   2.0000      -0.340855        -9.2751
 256   2.0000      -0.329563        -8.9679
 257   2.0000      -0.323566        -8.8047
 258   2.0000      -0.321678        -8.7533
 259   2.0000      -0.316532        -8.6133
 260   2.0000      -0.313285        -8.5249
 261   2.0000      -0.296392        -8.0652
 262   2.0000      -0.289555        -7.8792
 263   2.0000      -0.269739        -7.3400
 264   2.0000      -0.258770        -7.0415
 265   0.0000      -0.117425        -3.1953
 266   0.0000      -0.103096        -2.8054
 267   0.0000      -0.094424        -2.5694
 268   0.0000      -0.077044        -2.0965
 269   0.0000      -0.064396        -1.7523

MULLIKEN ATOMIC CHARGES
-----------------------
   0 C :   -0.079239
   1 C :    0.035304
   2 C :   -0.025819
   3 C :   -0.120354
   4 S :    0.184731
   5 C :   -0.095338
   6 C :    0.011377
   7 C :    0.295590
   8 C :   -0.293531
   9 C :   -0.194453
  10 N :    0.182129
  11 C :   -0.190231
  12 N :    0.175602
  13 C :   -0.029181
  14 C :   -0.128378
  15 S :    0.225571
  16 C :    0.123443
  17 O :   -0.215053
  18 C :    0.223486
  19 C :    0.034500
  20 N :   -0.044891
  21 C :   -0.091411
  22 C :    0.027760
  23 C :    0.208313
  24 C :   -0.163489
  25 O :   -0.201102
  26 C :    0.111947
  27 N :   -0.053644
  28 C :   -0.015226
  29 C :    0.078080
  30 C :   -0.037070
  31 S :    0.174000
  32 C :   -0.145856
  33 C :    0.144899
  34 C :   -0.036729
  35 N :    0.288915
  36 O :   -0.276576
  37 O :   -0.229589
  38 C :   -0.050673
  39 C :   -0.090190
  40 C :    0.046033
  41 C :   -0.081169
  42 S :    0.254564
  43 C :   -0.085504
  44 C :   -0.001792
  45 C :    0.313272
  46 C :   -0.298269
  47 C :   -0.193534
  48 N :    0.199058
  49 C :   -0.192915
  50 N :    0.170754
  51 C :   -0.014898
  52 C :   -0.113609
  53 S :    0.213308
  54 C :    0.036138
  55 C :   -0.083766
  56 C :    0.319327
  57 C :   -0.361725
  58 C :   -0.181792
  59 N :    0.147071
  60 C :   -0.190654
  61 N :    0.152832
  62 C :    0.049475
  63 C :   -0.001277
  64 C :    0.158633
  65 O :   -0.147686
  66 C :   -0.083255
  67 C :    0.101306
  68 C :    0.099855
  69 C :   -0.086862
  70 C :   -0.023518
  71 C :    0.038369
  72 C :    0.037836
  73 C :   -0.019637
  74 H :    0.037450
  75 H :    0.014072
  76 H :    0.026810
  77 H :   -0.020276
  78 H :   -0.013925
  79 H :    0.007678
  80 H :    0.019628
  81 H :    0.008033
  82 H :    0.027079
  83 H :    0.040608
  84 H :    0.006212
  85 H :   -0.007379
  86 H :   -0.007695
  87 H :   -0.007447
  88 H :   -0.005143
  89 H :   -0.004855
  90 H :   -0.014445
Sum of atomic charges:   -0.0000000

LOEWDIN ATOMIC CHARGES
----------------------
   0 C :   -0.174334
   1 C :   -0.034231
   2 C :   -0.071373
   3 C :   -0.188516
   4 S :    0.479526
   5 C :   -0.173196
   6 C :   -0.073116
   7 C :    0.080579
   8 C :   -0.099794
   9 C :   -0.019618
  10 N :   -0.026403
  11 C :   -0.016380
  12 N :   -0.032125
  13 C :    0.007229
  14 C :   -0.201499
  15 S :    0.498994
  16 C :    0.045587
  17 O :   -0.021967
  18 C :    0.035603
  19 C :   -0.032399
  20 N :   -0.103299
  21 C :   -0.018036
  22 C :   -0.034218
  23 C :    0.033382
  24 C :   -0.063258
  25 O :   -0.009549
  26 C :    0.058324
  27 N :   -0.103762
  28 C :   -0.033759
  29 C :    0.001064
  30 C :   -0.163698
  31 S :    0.488111
  32 C :   -0.142844
  33 C :   -0.082526
  34 C :   -0.030616
  35 N :    0.291836
  36 O :   -0.236361
  37 O :   -0.193266
  38 C :   -0.193665
  39 C :   -0.025026
  40 C :   -0.058453
  41 C :   -0.192472
  42 S :    0.548873
  43 C :   -0.161389
  44 C :   -0.071277
  45 C :    0.075160
  46 C :   -0.095339
  47 C :   -0.024407
  48 N :   -0.013190
  49 C :   -0.014924
  50 N :   -0.032459
  51 C :    0.014548
  52 C :   -0.172711
  53 S :    0.504713
  54 C :    0.040289
  55 C :   -0.091673
  56 C :    0.077426
  57 C :   -0.142394
  58 C :   -0.016718
  59 N :   -0.054101
  60 C :   -0.024439
  61 N :   -0.053292
  62 C :   -0.026989
  63 C :   -0.055750
  64 C :    0.087683
  65 O :   -0.135674
  66 C :    0.033868
  67 C :   -0.007845
  68 C :   -0.006035
  69 C :    0.019787
  70 C :   -0.005571
  71 C :   -0.012958
  72 C :   -0.011579
  73 C :   -0.009064
  74 H :    0.028459
  75 H :    0.043153
  76 H :    0.050436
  77 H :    0.044263
  78 H :    0.043782
  79 H :    0.039070
  80 H :    0.042592
  81 H :    0.041806
  82 H :    0.033762
  83 H :    0.043381
  84 H :    0.042216
  85 H :    0.040848
  86 H :    0.039083
  87 H :    0.035070
  88 H :    0.033229
  89 H :    0.033008
  90 H :    0.032798

  Mayer bond orders larger than 0.100000
B(  0-C ,  1-C ) :   1.5473 B(  0-C ,  4-S ) :   1.1548 B(  0-C , 74-H ) :   0.9642
B(  1-C ,  2-C ) :   1.2787 B(  1-C , 75-H ) :   0.9953 B(  2-C ,  3-C ) :   1.4601
B(  2-C ,  7-C ) :   1.0155 B(  3-C ,  4-S ) :   1.1336 B(  3-C ,  5-C ) :   1.1840
B(  5-C ,  6-C ) :   1.4478 B(  5-C , 15-S ) :   1.1397 B(  6-C ,  7-C ) :   0.9857
B(  6-C , 13-C ) :   1.2670 B(  7-C ,  8-C ) :   1.7190 B(  8-C ,  9-C ) :   1.1323
B(  8-C , 11-C ) :   1.1305 B(  9-C , 10-N ) :   3.0006 B( 11-C , 12-N ) :   3.0018
B( 13-C , 14-C ) :   1.4914 B( 13-C , 76-H ) :   1.0092 B( 14-C , 15-S ) :   1.0999
B( 14-C , 16-C ) :   1.0559 B( 16-C , 17-O ) :   1.1718 B( 16-C , 20-N ) :   1.8021
B( 17-O , 18-C ) :   1.0881 B( 18-C , 19-C ) :   1.2494 B( 18-C , 24-C ) :   1.3194
B( 19-C , 20-N ) :   1.2727 B( 19-C , 21-C ) :   1.2901 B( 21-C , 22-C ) :   1.2728
B( 21-C , 24-C ) :   0.1481 B( 21-C , 77-H ) :   1.0537 B( 22-C , 23-C ) :   1.2569
B( 22-C , 27-N ) :   1.2917 B( 23-C , 24-C ) :   1.3099 B( 23-C , 25-O ) :   1.1086
B( 24-C , 78-H ) :   1.0472 B( 25-O , 26-C ) :   1.1316 B( 26-C , 27-N ) :   1.7507
B( 26-C , 28-C ) :   1.0995 B( 28-C , 29-C ) :   1.7263 B( 28-C , 79-H ) :   0.9560
B( 29-C , 30-C ) :   1.0874 B( 29-C , 80-H ) :   0.9666 B( 30-C , 31-S ) :   1.0836
B( 30-C , 34-C ) :   1.5021 B( 31-S , 32-C ) :   1.1901 B( 32-C , 33-C ) :   1.4220
B( 32-C , 38-C ) :   1.2139 B( 33-C , 34-C ) :   1.2355 B( 33-C , 35-N ) :   0.9702
B( 34-C , 81-H ) :   0.9952 B( 35-N , 36-O ) :   1.4326 B( 35-N , 37-O ) :   1.5622
B( 36-O , 37-O ) :   0.2486 B( 38-C , 39-C ) :   1.3772 B( 38-C , 42-S ) :   1.1131
B( 39-C , 40-C ) :   1.3525 B( 39-C , 82-H ) :   0.9796 B( 40-C , 41-C ) :   1.3948
B( 40-C , 45-C ) :   0.9881 B( 41-C , 42-S ) :   1.1030 B( 41-C , 43-C ) :   1.1936
B( 43-C , 44-C ) :   1.3828 B( 43-C , 53-S ) :   1.1678 B( 44-C , 45-C ) :   0.9962
B( 44-C , 51-C ) :   1.2977 B( 45-C , 46-C ) :   1.7149 B( 46-C , 47-C ) :   1.1354
B( 46-C , 49-C ) :   1.1384 B( 47-C , 48-N ) :   3.0007 B( 49-C , 50-N ) :   2.9836
B( 51-C , 52-C ) :   1.4032 B( 51-C , 83-H ) :   0.9710 B( 52-C , 53-S ) :   1.0824
B( 52-C , 54-C ) :   1.2091 B( 54-C , 55-C ) :   1.6054 B( 54-C , 84-H ) :   0.9067
B( 55-C , 56-C ) :   1.0791 B( 55-C , 64-C ) :   0.9320 B( 56-C , 57-C ) :   1.6164
B( 56-C , 62-C ) :   0.9849 B( 57-C , 58-C ) :   1.1522 B( 57-C , 60-C ) :   1.1406
B( 58-C , 59-N ) :   2.9618 B( 60-C , 61-N ) :   2.9686 B( 62-C , 63-C ) :   1.2145
B( 62-C , 69-C ) :   1.4454 B( 63-C , 64-C ) :   0.9552 B( 63-C , 66-C ) :   1.4696
B( 64-C , 65-O ) :   2.1660 B( 66-C , 67-C ) :   1.1756 B( 66-C , 85-H ) :   1.0178
B( 67-C , 68-C ) :   1.2547 B( 67-C , 73-C ) :   1.2431 B( 68-C , 69-C ) :   1.2071
B( 68-C , 70-C ) :   1.2381 B( 69-C , 86-H ) :   0.9906 B( 70-C , 71-C ) :   1.4899
B( 70-C , 87-H ) :   0.9981 B( 71-C , 72-C ) :   1.2593 B( 71-C , 88-H ) :   0.9880
B( 72-C , 73-C ) :   1.4888 B( 72-C , 89-H ) :   0.9884 B( 73-C , 90-H ) :   0.9986

-----------------------------------------------------------------------------
         ABSORPTION SPECTRUM VIA TRANSITION ELECTRIC DIPOLE MOMENTS
-----------------------------------------------------------------------------
State   Energy  Wavelength   fosc         T2         TX        TY        TZ
        (cm-1)    (nm)                  (au**2)     (au)      (au)      (au)
-----------------------------------------------------------------------------
   0   14764.6    677.3   0.580068492  12.93399  -0.68620  -1.72432   3.08056
   1   16129.3    620.0   0.083780732   1.71003  -0.29535  -0.95139   0.84715
   2   19991.1    500.2   1.873141388  30.84671   1.04763   2.71540  -4.73031
   3   23405.0    427.3   0.007657532   0.10771  -0.15861  -0.28060   0.06178
   4   24945.3    400.9   0.039523516   0.52161   0.20139  -0.10137  -0.68613
   5   25178.5    397.2   0.064949188   0.84922   0.17199  -0.63350  -0.64678
   6   26073.7    383.5   0.615047658   7.76571   0.58308   2.33809  -1.39967
   7   26800.7    373.1   0.168241997   2.06663  -0.29301  -1.18456   0.75999
   8   27360.6    365.5   0.518610183   6.24009   0.56281   1.91604  -1.50071
   9   27683.9    361.2   0.016099457   0.19145   0.08108   0.35410  -0.24391
  10   28313.2    353.2   0.006247839   0.07265   0.04291   0.11329  -0.24077
  11   28957.1    345.3   0.041966956   0.47712  -0.05330   0.40876   0.55425
  12   29613.4    337.7   0.010606587   0.11791  -0.00776   0.33316  -0.08280
  13   29641.0    337.4   0.036020533   0.40007   0.16406   0.55424  -0.25686
  14   29927.2    334.1   0.027364246   0.30102   0.29572   0.41166  -0.21002
  15   30523.3    327.6   0.445621396   4.80630   0.24489  -1.80582  -1.21874
  16   30692.7    325.8   0.338644297   3.63232   0.51918   1.60619  -0.88483
  17   31347.5    319.0   0.168105124   1.76544  -0.35335   0.07295   1.27878
  18   31964.8    312.8   0.035969732   0.37046  -0.13521  -0.58997  -0.06417
  19   32199.6    310.6   0.381872860   3.90431   0.11512   1.05359   1.66763
  20   32531.2    307.4   0.067360984   0.68169  -0.39062  -0.72143  -0.09300
  21   32626.8    306.5   0.295966793   2.98637  -0.27502  -0.04855   1.70540
  22   32779.3    305.1   0.174528494   1.75284  -0.23957   0.70226   1.09648
  23   33181.1    301.4   0.304877328   3.02489   0.32375  -0.53226  -1.62382
  24   33461.5    298.9   0.041613204   0.40941  -0.08422   0.11512   0.62375
  25   33687.7    296.8   0.056724916   0.55434   0.02227  -0.71177   0.21732
  26   33931.7    294.7   0.000740248   0.00718   0.01961  -0.04969   0.06579
  27   34224.1    292.2   0.738813282   7.10686  -0.34122  -2.64341  -0.05311
  28   34499.6    289.9   0.175372245   1.67349   0.44064  -0.44482  -1.13201
  29   34832.5    287.1   0.061814490   0.58423   0.43985   0.20319  -0.59116
  30   35140.0    284.6   0.228917432   2.14463   0.32531  -0.62849  -1.28211
  31   35963.0    278.1   0.034372210   0.31465  -0.15918  -0.28644   0.45526
  32   36489.4    274.1   0.048794168   0.44023   0.01968  -0.57931  -0.32286
  33   36880.1    271.1   0.057872410   0.51660   0.09847  -0.48565  -0.52062
  34   37356.1    267.7   0.174510601   1.53793  -0.18756  -0.74462   0.97380
  35   37777.2    264.7   0.017829449   0.15538   0.02172   0.12020  -0.37478
  36   37906.7    263.8   0.057613709   0.50036   0.05203   0.70294   0.05938
  37   38044.9    262.8   0.046930877   0.40610   0.01444  -0.63130  -0.08580
  38   38335.1    260.9   0.093952239   0.80684  -0.16660  -0.16984   0.86616
  39   38751.0    258.1   0.058958150   0.50088   0.10366  -0.60939  -0.34465
  40   38914.9    257.0   0.021438173   0.18136   0.06147  -0.39719   0.14080
  41   39197.0    255.1   0.007603920   0.06386   0.04353  -0.22151  -0.11359
  42   39323.4    254.3   0.174886728   1.46414  -0.00167  -1.17338   0.29548
  43   39418.6    253.7   0.046791068   0.39078   0.08524   0.20105  -0.58575
  44   39553.7    252.8   0.038981686   0.32445   0.01302  -0.52179  -0.22806
  45   40120.6    249.2   0.132581335   1.08790   0.14588   0.30333  -0.98723

FINAL SINGLE POINT ENERGY     -4961.371447900053

DIPOLE MOMENT
-------------
                                X             Y             Z
Electronic contribution:    -11.70665     -13.35867      44.20482
Nuclear contribution   :     12.26608      13.12392     -41.97506
                        -----------------------------------------
Total Dipole Moment    :      0.55943      -0.23475       2.22975
                        -----------------------------------------
Magnitude (a.u.)       :      2.31082
Magnitude (Debye)      :      5.87363

Rotational constants in cm-1:     0.002439     0.000133     0.000126
Rotational constants in MHz :    73.114203     3.984617     3.785573

                             ****ORCA TERMINATED NORMALLY****
TOTAL RUN TIME: 0 days 0 hours 9 minutes 41 seconds 806 msec
