                         Program Version 4.2.0 -  RELEASE  -
|  1> # ORCA input file
|  2> # SCF done       -179.759127211607          0.000980851039
|  3> ! CAM-B3LYP def2-SVP def2/J RIJCOSX Grid4 TightSCF
|  4> %maxcore 5000
|  5> %tddft
|  6>     Mode sTDDFT
|  7>     Ethresh 5.0
|  8>     maxcore 5000
|  9> end
| 10>
| 11> %pal
| 12>   nprocs 6
| 13>   end
| 14> * xyz 0 1
| 15>    C       -5.53914         1.47264         1.95164
| 16>    C       -4.23929         1.07634         1.89455
| 17>    C       -3.36771         2.17728         1.78098
| 18>    C       -4.05675         3.40441         1.75664
| 19>    S       -5.75003         3.19504         1.87251
| 20>    C       -3.11722         4.45341         1.64007
| 21>    C       -1.82762         3.88641         1.58967
| 22>    C       -1.95012         2.43398         1.69883
| 23>    C       -0.93032         1.52481         1.75285
| 24>    C        0.43192         1.88315         1.75644
| 25>    N        1.55193         2.13103         1.79633
| 26>    C       -1.17119         0.13960         1.86528
| 27>    N       -1.35779        -0.98768         1.96655
| 28>    C       -0.81875         4.81915         1.43915
| 29>    C       -1.30683         6.12833         1.37847
| 30>    S       -3.06918         6.15996         1.53093
| 31>    C       -0.62594         7.33980         1.21534
| 32>    C        0.71022         7.50303         0.90962
| 33>    C        1.39957         8.72859         0.76685
| 34>    C        2.71737         8.60052         0.41685
| 35>    C        3.12741         7.26705         0.25706
| 36>    S        1.80353         6.17872         0.58121
| 37>    C        4.35293         6.71556        -0.10280
| 38>    C        5.60093         7.30286        -0.36068
| 39>    C        6.57920         6.39306        -0.66951
| 40>    C        6.14658         5.05029        -0.67816
| 41>    S        4.44684         4.98320        -0.28115
| 42>    C        6.92825         3.92894        -0.89960
| 43>    C        6.49401         2.60486        -0.91304
| 44>    C        5.19278         2.08472        -0.89468
| 45>    C        5.17148         0.70778        -0.85508
| 46>    C        6.46583         0.11835        -0.83869
| 47>    S        7.70168         1.30410        -0.91776
| 48>    C        6.32389        -1.26430        -0.73572
| 49>    C        4.93610        -1.58070        -0.67781
| 50>    C        4.17683        -0.34630        -0.78569
| 51>    C        2.81944        -0.20986        -0.85213
| 52>    C        1.95361        -1.31976        -0.76778
| 53>    N        1.24636        -2.22101        -0.70671
| 54>    C        2.17765         1.02621        -1.07080
| 55>    N        1.62125         2.00409        -1.29530
| 56>    C        4.69496        -2.93059        -0.54497
| 57>    C        5.87587        -3.68871        -0.49954
| 58>    S        7.30996        -2.66423        -0.63905
| 59>    C        5.93986        -5.06942        -0.34715
| 60>    C        7.07136        -5.86231        -0.30828
| 61>    C        7.10230        -7.25910        -0.11814
| 62>    C        8.35934        -7.79944        -0.12217
| 63>    C        9.37813        -6.85318        -0.32493
| 64>    S        8.70011        -5.25210        -0.49829
| 65>    C       10.75127        -7.05159        -0.40601
| 66>    C       11.48147        -8.24459        -0.26223
| 67>    C       12.83046        -8.08375        -0.41313
| 68>    C       13.22946        -6.75775        -0.69198
| 69>    S       11.82428        -5.71346        -0.73825
| 70>    C       14.51907        -6.32514        -0.91546
| 71>    C       14.93987        -5.03232        -1.23296
| 72>    C       16.26427        -4.64900        -1.48249
| 73>    C       16.37375        -3.30788        -1.79743
| 74>    C       15.13320        -2.63502        -1.79061
| 75>    S       13.83057        -3.67142        -1.39241
| 76>    C       15.35892        -1.28412        -2.13089
| 77>    C       16.73578        -1.09450        -2.35476
| 78>    C       17.41807        -2.34797        -2.15474
| 79>    C       18.75730        -2.60348        -2.27458
| 80>    C       19.68174        -1.60160        -2.62892
| 81>    N       20.43841        -0.78823        -2.91705
| 82>    C       19.29845        -3.88433        -2.05338
| 83>    N       19.74259        -4.92745        -1.87461
| 84>    C       17.04238         0.23538        -2.70629
| 85>    C       15.92639         1.01142        -2.74283
| 86>    S       14.46465         0.15668        -2.35092
| 87>    H       -6.41205         0.85695         2.03660
| 88>    H       -3.92597         0.04888         1.92923
| 89>    H        0.22320         4.56741         1.39340
| 90>    H       -1.21370         8.24338         1.31296
| 91>    H        0.90551         9.67100         0.92585
| 92>    H        3.38708         9.42785         0.26329
| 93>    H        5.75790         8.36523        -0.30361
| 94>    H        7.59941         6.65554        -0.88839
| 95>    H        7.98864         4.09805        -1.03455
| 96>    H        4.30847         2.69124        -0.92775
| 97>    H        3.72262        -3.38400        -0.47531
| 98>    H        4.99011        -5.57812        -0.24170
| 99>    H        6.19874        -7.82655         0.01850
|100>    H        8.56786        -8.84599         0.00819
|101>    H       11.00444        -9.18464        -0.05110
|102>    H       13.54909        -8.88058        -0.33800
|103>    H       15.29939        -7.07279        -0.85274
|104>    H       17.08149        -5.34555        -1.43118
|105>    H       18.03033         0.59980        -2.92129
|106>    H       15.85764         2.05438        -2.97922
|107> *
|108>
|109>                          ****END OF INPUT****

CARTESIAN COORDINATES (ANGSTROEM)
---------------------------------
  C     -5.539140    1.472640    1.951640
  C     -4.239290    1.076340    1.894550
  C     -3.367710    2.177280    1.780980
  C     -4.056750    3.404410    1.756640
  S     -5.750030    3.195040    1.872510
  C     -3.117220    4.453410    1.640070
  C     -1.827620    3.886410    1.589670
  C     -1.950120    2.433980    1.698830
  C     -0.930320    1.524810    1.752850
  C      0.431920    1.883150    1.756440
  N      1.551930    2.131030    1.796330
  C     -1.171190    0.139600    1.865280
  N     -1.357790   -0.987680    1.966550
  C     -0.818750    4.819150    1.439150
  C     -1.306830    6.128330    1.378470
  S     -3.069180    6.159960    1.530930
  C     -0.625940    7.339800    1.215340
  C      0.710220    7.503030    0.909620
  C      1.399570    8.728590    0.766850
  C      2.717370    8.600520    0.416850
  C      3.127410    7.267050    0.257060
  S      1.803530    6.178720    0.581210
  C      4.352930    6.715560   -0.102800
  C      5.600930    7.302860   -0.360680
  C      6.579200    6.393060   -0.669510
  C      6.146580    5.050290   -0.678160
  S      4.446840    4.983200   -0.281150
  C      6.928250    3.928940   -0.899600
  C      6.494010    2.604860   -0.913040
  C      5.192780    2.084720   -0.894680
  C      5.171480    0.707780   -0.855080
  C      6.465830    0.118350   -0.838690
  S      7.701680    1.304100   -0.917760
  C      6.323890   -1.264300   -0.735720
  C      4.936100   -1.580700   -0.677810
  C      4.176830   -0.346300   -0.785690
  C      2.819440   -0.209860   -0.852130
  C      1.953610   -1.319760   -0.767780
  N      1.246360   -2.221010   -0.706710
  C      2.177650    1.026210   -1.070800
  N      1.621250    2.004090   -1.295300
  C      4.694960   -2.930590   -0.544970
  C      5.875870   -3.688710   -0.499540
  S      7.309960   -2.664230   -0.639050
  C      5.939860   -5.069420   -0.347150
  C      7.071360   -5.862310   -0.308280
  C      7.102300   -7.259100   -0.118140
  C      8.359340   -7.799440   -0.122170
  C      9.378130   -6.853180   -0.324930
  S      8.700110   -5.252100   -0.498290
  C     10.751270   -7.051590   -0.406010
  C     11.481470   -8.244590   -0.262230
  C     12.830460   -8.083750   -0.413130
  C     13.229460   -6.757750   -0.691980
  S     11.824280   -5.713460   -0.738250
  C     14.519070   -6.325140   -0.915460
  C     14.939870   -5.032320   -1.232960
  C     16.264270   -4.649000   -1.482490
  C     16.373750   -3.307880   -1.797430
  C     15.133200   -2.635020   -1.790610
  S     13.830570   -3.671420   -1.392410
  C     15.358920   -1.284120   -2.130890
  C     16.735780   -1.094500   -2.354760
  C     17.418070   -2.347970   -2.154740
  C     18.757300   -2.603480   -2.274580
  C     19.681740   -1.601600   -2.628920
  N     20.438410   -0.788230   -2.917050
  C     19.298450   -3.884330   -2.053380
  N     19.742590   -4.927450   -1.874610
  C     17.042380    0.235380   -2.706290
  C     15.926390    1.011420   -2.742830
  S     14.464650    0.156680   -2.350920
  H     -6.412050    0.856950    2.036600
  H     -3.925970    0.048880    1.929230
  H      0.223200    4.567410    1.393400
  H     -1.213700    8.243380    1.312960
  H      0.905510    9.671000    0.925850
  H      3.387080    9.427850    0.263290
  H      5.757900    8.365230   -0.303610
  H      7.599410    6.655540   -0.888390
  H      7.988640    4.098050   -1.034550
  H      4.308470    2.691240   -0.927750
  H      3.722620   -3.384000   -0.475310
  H      4.990110   -5.578120   -0.241700
  H      6.198740   -7.826550    0.018500
  H      8.567860   -8.845990    0.008190
  H     11.004440   -9.184640   -0.051100
  H     13.549090   -8.880580   -0.338000
  H     15.299390   -7.072790   -0.852740
  H     17.081490   -5.345550   -1.431180
  H     18.030330    0.599800   -2.921290
  H     15.857640    2.054380   -2.979220

 Total Charge           Charge          ....    0
 Multiplicity           Mult            ....    1
 Number of Electrons    NEL             ....  558
 Basis Dimension        Dim             .... 1148

ORBITAL ENERGIES
----------------

  NO   OCC          E(Eh)            E(eV)
   0   2.0000     -88.978630     -2421.2316
   1   2.0000     -88.978356     -2421.2242
   2   2.0000     -88.977949     -2421.2131
   3   2.0000     -88.976886     -2421.1842
   4   2.0000     -88.975517     -2421.1469
   5   2.0000     -88.975143     -2421.1367
   6   2.0000     -88.953755     -2420.5547
   7   2.0000     -88.953369     -2420.5442
   8   2.0000     -88.945513     -2420.3305
   9   2.0000     -88.945350     -2420.3260
  10   2.0000     -14.421003      -392.4154
  11   2.0000     -14.420575      -392.4038
  12   2.0000     -14.419271      -392.3683
  13   2.0000     -14.418510      -392.3476
  14   2.0000     -14.417750      -392.3269
  15   2.0000     -14.417352      -392.3161
  16   2.0000     -10.352799      -281.7140
  17   2.0000     -10.352603      -281.7087
  18   2.0000     -10.351357      -281.6747
  19   2.0000     -10.341501      -281.4065
  20   2.0000     -10.339694      -281.3574
  21   2.0000     -10.338604      -281.3277
  22   2.0000     -10.322080      -280.8781
  23   2.0000     -10.321891      -280.8729
  24   2.0000     -10.321306      -280.8570
  25   2.0000     -10.319996      -280.8214
  26   2.0000     -10.319543      -280.8090
  27   2.0000     -10.319222      -280.8003
  28   2.0000     -10.319082      -280.7965
  29   2.0000     -10.318992      -280.7940
  30   2.0000     -10.318169      -280.7716
  31   2.0000     -10.317399      -280.7507
  32   2.0000     -10.316554      -280.7277
  33   2.0000     -10.316344      -280.7220
  34   2.0000     -10.315456      -280.6978
  35   2.0000     -10.314866      -280.6818
  36   2.0000     -10.314735      -280.6782
  37   2.0000     -10.314704      -280.6774
  38   2.0000     -10.313792      -280.6525
  39   2.0000     -10.313162      -280.6354
  40   2.0000     -10.312961      -280.6299
  41   2.0000     -10.311906      -280.6012
  42   2.0000     -10.310479      -280.5624
  43   2.0000     -10.310006      -280.5495
  44   2.0000     -10.309195      -280.5275
  45   2.0000     -10.309143      -280.5261
  46   2.0000     -10.302229      -280.3379
  47   2.0000     -10.301015      -280.3049
  48   2.0000     -10.294032      -280.1149
  49   2.0000     -10.293157      -280.0910
  50   2.0000     -10.292845      -280.0825
  51   2.0000     -10.292093      -280.0621
  52   2.0000     -10.292062      -280.0612
  53   2.0000     -10.291678      -280.0508
  54   2.0000     -10.291062      -280.0340
  55   2.0000     -10.290460      -280.0177
  56   2.0000     -10.290208      -280.0108
  57   2.0000     -10.290137      -280.0089
  58   2.0000     -10.290037      -280.0061
  59   2.0000     -10.289943      -280.0036
  60   2.0000     -10.289517      -279.9920
  61   2.0000     -10.289076      -279.9800
  62   2.0000     -10.288825      -279.9731
  63   2.0000     -10.288087      -279.9531
  64   2.0000     -10.288039      -279.9518
  65   2.0000     -10.287858      -279.9469
  66   2.0000     -10.287383      -279.9339
  67   2.0000     -10.286990      -279.9232
  68   2.0000     -10.286922      -279.9214
  69   2.0000     -10.286779      -279.9175
  70   2.0000     -10.286694      -279.9152
  71   2.0000     -10.286108      -279.8992
  72   2.0000      -8.073385      -219.6880
  73   2.0000      -8.072738      -219.6704
  74   2.0000      -8.072001      -219.6503
  75   2.0000      -8.071879      -219.6470
  76   2.0000      -8.070080      -219.5980
  77   2.0000      -8.069611      -219.5853
  78   2.0000      -8.050010      -219.0519
  79   2.0000      -8.049606      -219.0409
  80   2.0000      -8.041590      -218.8228
  81   2.0000      -8.041417      -218.8181
  82   2.0000      -6.042645      -164.4287
  83   2.0000      -6.042022      -164.4118
  84   2.0000      -6.041338      -164.3932
  85   2.0000      -6.041155      -164.3882
  86   2.0000      -6.039327      -164.3385
  87   2.0000      -6.038922      -164.3274
  88   2.0000      -6.038258      -164.3094
  89   2.0000      -6.037801      -164.2969
  90   2.0000      -6.037124      -164.2785
  91   2.0000      -6.036753      -164.2684
  92   2.0000      -6.035922      -164.2458
  93   2.0000      -6.035321      -164.2294
  94   2.0000      -6.035107      -164.2236
  95   2.0000      -6.034896      -164.2179
  96   2.0000      -6.034423      -164.2050
  97   2.0000      -6.034262      -164.2006
  98   2.0000      -6.032353      -164.1487
  99   2.0000      -6.031793      -164.1334
 100   2.0000      -6.019703      -163.8044
 101   2.0000      -6.019295      -163.7933
 102   2.0000      -6.015592      -163.6926
 103   2.0000      -6.015197      -163.6818
 104   2.0000      -6.011306      -163.5760
 105   2.0000      -6.011160      -163.5720
 106   2.0000      -6.011044      -163.5688
 107   2.0000      -6.010642      -163.5579
 108   2.0000      -6.007076      -163.4609
 109   2.0000      -6.006932      -163.4569
 110   2.0000      -6.002674      -163.3411
 111   2.0000      -6.002457      -163.3352
 112   2.0000      -1.031991       -28.0819
 113   2.0000      -1.031265       -28.0622
 114   2.0000      -1.029933       -28.0259
 115   2.0000      -1.011773       -27.5318
 116   2.0000      -1.010877       -27.5074
 117   2.0000      -1.008467       -27.4418
 118   2.0000      -1.002984       -27.2926
 119   2.0000      -0.998950       -27.1828
 120   2.0000      -0.998157       -27.1612
 121   2.0000      -0.996496       -27.1160
 122   2.0000      -0.993866       -27.0445
 123   2.0000      -0.988235       -26.8912
 124   2.0000      -0.983780       -26.7700
 125   2.0000      -0.981089       -26.6968
 126   2.0000      -0.975769       -26.5520
 127   2.0000      -0.971712       -26.4416
 128   2.0000      -0.947054       -25.7706
 129   2.0000      -0.945902       -25.7393
 130   2.0000      -0.943667       -25.6785
 131   2.0000      -0.912689       -24.8355
 132   2.0000      -0.906991       -24.6805
 133   2.0000      -0.903887       -24.5960
 134   2.0000      -0.890793       -24.2397
 135   2.0000      -0.881678       -23.9917
 136   2.0000      -0.870232       -23.6802
 137   2.0000      -0.865745       -23.5581
 138   2.0000      -0.857765       -23.3410
 139   2.0000      -0.855289       -23.2736
 140   2.0000      -0.853234       -23.2177
 141   2.0000      -0.848699       -23.0943
 142   2.0000      -0.846150       -23.0249
 143   2.0000      -0.841908       -22.9095
 144   2.0000      -0.841134       -22.8884
 145   2.0000      -0.840138       -22.8613
 146   2.0000      -0.827324       -22.5126
 147   2.0000      -0.820883       -22.3374
 148   2.0000      -0.819628       -22.3032
 149   2.0000      -0.809180       -22.0189
 150   2.0000      -0.787752       -21.4358
 151   2.0000      -0.776855       -21.1393
 152   2.0000      -0.766846       -20.8669
 153   2.0000      -0.766162       -20.8483
 154   2.0000      -0.765530       -20.8311
 155   2.0000      -0.755211       -20.5503
 156   2.0000      -0.744166       -20.2498
 157   2.0000      -0.725870       -19.7519
 158   2.0000      -0.705941       -19.2096
 159   2.0000      -0.696685       -18.9578
 160   2.0000      -0.693629       -18.8746
 161   2.0000      -0.689439       -18.7606
 162   2.0000      -0.684097       -18.6152
 163   2.0000      -0.678116       -18.4525
 164   2.0000      -0.675539       -18.3824
 165   2.0000      -0.672591       -18.3021
 166   2.0000      -0.670496       -18.2451
 167   2.0000      -0.666503       -18.1365
 168   2.0000      -0.662947       -18.0397
 169   2.0000      -0.647888       -17.6299
 170   2.0000      -0.638074       -17.3629
 171   2.0000      -0.636365       -17.3164
 172   2.0000      -0.629747       -17.1363
 173   2.0000      -0.627894       -17.0859
 174   2.0000      -0.626318       -17.0430
 175   2.0000      -0.623878       -16.9766
 176   2.0000      -0.619676       -16.8622
 177   2.0000      -0.616756       -16.7828
 178   2.0000      -0.613961       -16.7067
 179   2.0000      -0.607163       -16.5217
 180   2.0000      -0.602638       -16.3986
 181   2.0000      -0.601921       -16.3791
 182   2.0000      -0.601423       -16.3656
 183   2.0000      -0.598636       -16.2897
 184   2.0000      -0.589937       -16.0530
 185   2.0000      -0.583034       -15.8651
 186   2.0000      -0.567540       -15.4436
 187   2.0000      -0.562112       -15.2958
 188   2.0000      -0.553777       -15.0690
 189   2.0000      -0.550925       -14.9914
 190   2.0000      -0.545288       -14.8380
 191   2.0000      -0.535872       -14.5818
 192   2.0000      -0.535464       -14.5707
 193   2.0000      -0.535059       -14.5597
 194   2.0000      -0.532734       -14.4964
 195   2.0000      -0.532577       -14.4922
 196   2.0000      -0.525471       -14.2988
 197   2.0000      -0.518242       -14.1021
 198   2.0000      -0.514952       -14.0126
 199   2.0000      -0.512290       -13.9401
 200   2.0000      -0.505456       -13.7542
 201   2.0000      -0.504761       -13.7352
 202   2.0000      -0.500751       -13.6261
 203   2.0000      -0.500054       -13.6072
 204   2.0000      -0.497978       -13.5507
 205   2.0000      -0.495686       -13.4883
 206   2.0000      -0.495350       -13.4792
 207   2.0000      -0.494330       -13.4514
 208   2.0000      -0.492847       -13.4111
 209   2.0000      -0.490587       -13.3495
 210   2.0000      -0.488356       -13.2888
 211   2.0000      -0.486341       -13.2340
 212   2.0000      -0.485040       -13.1986
 213   2.0000      -0.483461       -13.1556
 214   2.0000      -0.482686       -13.1345
 215   2.0000      -0.480138       -13.0652
 216   2.0000      -0.477869       -13.0035
 217   2.0000      -0.475395       -12.9362
 218   2.0000      -0.473385       -12.8815
 219   2.0000      -0.472106       -12.8467
 220   2.0000      -0.469513       -12.7761
 221   2.0000      -0.462194       -12.5769
 222   2.0000      -0.460679       -12.5357
 223   2.0000      -0.459035       -12.4910
 224   2.0000      -0.456923       -12.4335
 225   2.0000      -0.454957       -12.3800
 226   2.0000      -0.454582       -12.3698
 227   2.0000      -0.452684       -12.3182
 228   2.0000      -0.451378       -12.2826
 229   2.0000      -0.451069       -12.2742
 230   2.0000      -0.449966       -12.2442
 231   2.0000      -0.448577       -12.2064
 232   2.0000      -0.446994       -12.1633
 233   2.0000      -0.444457       -12.0943
 234   2.0000      -0.438431       -11.9303
 235   2.0000      -0.437834       -11.9141
 236   2.0000      -0.436904       -11.8888
 237   2.0000      -0.436023       -11.8648
 238   2.0000      -0.433035       -11.7835
 239   2.0000      -0.431257       -11.7351
 240   2.0000      -0.431055       -11.7296
 241   2.0000      -0.428854       -11.6697
 242   2.0000      -0.428666       -11.6646
 243   2.0000      -0.428149       -11.6505
 244   2.0000      -0.427602       -11.6357
 245   2.0000      -0.424421       -11.5491
 246   2.0000      -0.423816       -11.5326
 247   2.0000      -0.422090       -11.4857
 248   2.0000      -0.418861       -11.3978
 249   2.0000      -0.417315       -11.3557
 250   2.0000      -0.415231       -11.2990
 251   2.0000      -0.412603       -11.2275
 252   2.0000      -0.410419       -11.1681
 253   2.0000      -0.409413       -11.1407
 254   2.0000      -0.405638       -11.0380
 255   2.0000      -0.393150       -10.6982
 256   2.0000      -0.392302       -10.6751
 257   2.0000      -0.390889       -10.6366
 258   2.0000      -0.388259       -10.5651
 259   2.0000      -0.380589       -10.3564
 260   2.0000      -0.369701       -10.0601
 261   2.0000      -0.354747        -9.6531
 262   2.0000      -0.346714        -9.4346
 263   2.0000      -0.342205        -9.3119
 264   2.0000      -0.339962        -9.2508
 265   2.0000      -0.337243        -9.1768
 266   2.0000      -0.334587        -9.1046
 267   2.0000      -0.333032        -9.0623
 268   2.0000      -0.327412        -8.9093
 269   2.0000      -0.321784        -8.7562
 270   2.0000      -0.315456        -8.5840
 271   2.0000      -0.310664        -8.4536
 272   2.0000      -0.308812        -8.4032
 273   2.0000      -0.307640        -8.3713
 274   2.0000      -0.291155        -7.9227
 275   2.0000      -0.270521        -7.3613
 276   2.0000      -0.251556        -6.8452
 277   2.0000      -0.216253        -5.8846
 278   2.0000      -0.193246        -5.2585
 279   0.0000      -0.110738        -3.0133
 280   0.0000      -0.095848        -2.6082
 281   0.0000      -0.091562        -2.4915
 282   0.0000      -0.076973        -2.0945
 283   0.0000      -0.070655        -1.9226

MULLIKEN ATOMIC CHARGES
-----------------------
   0 C :   -0.086012
   1 C :    0.040288
   2 C :   -0.037660
   3 C :   -0.117804
   4 S :    0.171808
   5 C :   -0.102876
   6 C :   -0.005279
   7 C :    0.309527
   8 C :   -0.300312
   9 C :   -0.162500
  10 N :    0.155484
  11 C :   -0.202901
  12 N :    0.176393
  13 C :   -0.035357
  14 C :   -0.101637
  15 S :    0.170792
  16 C :    0.035412
  17 C :   -0.031565
  18 C :    0.030251
  19 C :    0.029394
  20 C :   -0.026663
  21 S :    0.061239
  22 C :   -0.028333
  23 C :    0.027219
  24 C :    0.032884
  25 C :   -0.036157
  26 S :    0.061912
  27 C :    0.036566
  28 C :   -0.097735
  29 C :   -0.036246
  30 C :   -0.009403
  31 C :   -0.089778
  32 S :    0.167460
  33 C :   -0.093784
  34 C :    0.032406
  35 C :    0.312599
  36 C :   -0.294713
  37 C :   -0.202481
  38 N :    0.178252
  39 C :   -0.173023
  40 N :    0.165743
  41 C :   -0.048229
  42 C :   -0.051367
  43 S :    0.150309
  44 C :   -0.004081
  45 C :   -0.038965
  46 C :    0.034131
  47 C :    0.023467
  48 C :   -0.027234
  49 S :    0.056360
  50 C :   -0.031518
  51 C :    0.028827
  52 C :    0.031287
  53 C :   -0.033964
  54 S :    0.053273
  55 C :   -0.007249
  56 C :   -0.051151
  57 C :   -0.054775
  58 C :    0.034375
  59 C :   -0.099924
  60 S :    0.153068
  61 C :   -0.105266
  62 C :   -0.040864
  63 C :    0.298126
  64 C :   -0.301265
  65 C :   -0.190989
  66 N :    0.167113
  67 C :   -0.183264
  68 N :    0.162954
  69 C :    0.038505
  70 C :   -0.085397
  71 S :    0.169730
  72 H :    0.033143
  73 H :    0.011578
  74 H :    0.034390
  75 H :   -0.017944
  76 H :   -0.013016
  77 H :   -0.013476
  78 H :   -0.013413
  79 H :   -0.013650
  80 H :   -0.018294
  81 H :    0.035543
  82 H :    0.006867
  83 H :   -0.001944
  84 H :   -0.008551
  85 H :   -0.011816
  86 H :   -0.012959
  87 H :   -0.008495
  88 H :   -0.003203
  89 H :    0.005201
  90 H :    0.008718
  91 H :    0.031892
Sum of atomic charges:   -0.0000000

LOEWDIN ATOMIC CHARGES
----------------------
   0 C :   -0.181818
   1 C :   -0.033365
   2 C :   -0.080496
   3 C :   -0.177832
   4 S :    0.466986
   5 C :   -0.191547
   6 C :   -0.061850
   7 C :    0.083932
   8 C :   -0.102232
   9 C :   -0.012876
  10 N :   -0.038439
  11 C :   -0.018477
  12 N :   -0.032246
  13 C :   -0.039638
  14 C :   -0.163023
  15 S :    0.459743
  16 C :   -0.078449
  17 C :   -0.147947
  18 C :   -0.032127
  19 C :   -0.037856
  20 C :   -0.177203
  21 S :    0.409792
  22 C :   -0.178104
  23 C :   -0.038704
  24 C :   -0.033057
  25 C :   -0.148997
  26 S :    0.412560
  27 C :   -0.079249
  28 C :   -0.161386
  29 C :   -0.037992
  30 C :   -0.062145
  31 C :   -0.183766
  32 S :    0.450484
  33 C :   -0.186309
  34 C :   -0.065759
  35 C :    0.082336
  36 C :   -0.098105
  37 C :   -0.017993
  38 N :   -0.032169
  39 C :   -0.014737
  40 N :   -0.035052
  41 C :   -0.020106
  42 C :   -0.166447
  43 S :    0.455187
  44 C :   -0.062465
  45 C :   -0.162684
  46 C :   -0.027492
  47 C :   -0.041283
  48 C :   -0.173830
  49 S :    0.373134
  50 C :   -0.180354
  51 C :   -0.036568
  52 C :   -0.032109
  53 C :   -0.156573
  54 S :    0.370825
  55 C :   -0.070138
  56 C :   -0.163528
  57 C :   -0.026812
  58 C :   -0.064454
  59 C :   -0.200674
  60 S :    0.462616
  61 C :   -0.173383
  62 C :   -0.085812
  63 C :    0.084978
  64 C :   -0.110275
  65 C :   -0.016495
  66 N :   -0.039151
  67 C :   -0.015675
  68 N :   -0.041656
  69 C :   -0.033482
  70 C :   -0.183671
  71 S :    0.465142
  72 H :    0.025915
  73 H :    0.042490
  74 H :    0.025032
  75 H :    0.032812
  76 H :    0.032726
  77 H :    0.032531
  78 H :    0.032331
  79 H :    0.032496
  80 H :    0.032798
  81 H :    0.025334
  82 H :    0.041507
  83 H :    0.045357
  84 H :    0.035221
  85 H :    0.032816
  86 H :    0.032814
  87 H :    0.034804
  88 H :    0.044284
  89 H :    0.040051
  90 H :    0.041618
  91 H :    0.025407

  Mayer bond orders larger than 0.100000
B(  0-C ,  1-C ) :   1.5544 B(  0-C ,  4-S ) :   1.1374 B(  0-C , 72-H ) :   0.9642
B(  1-C ,  2-C ) :   1.2696 B(  1-C , 73-H ) :   0.9959 B(  2-C ,  3-C ) :   1.4370
B(  2-C ,  7-C ) :   1.0311 B(  3-C ,  4-S ) :   1.1333 B(  3-C ,  5-C ) :   1.2127
B(  5-C ,  6-C ) :   1.4296 B(  5-C , 15-S ) :   1.1117 B(  6-C ,  7-C ) :   0.9917
B(  6-C , 13-C ) :   1.3565 B(  7-C ,  8-C ) :   1.6944 B(  8-C ,  9-C ) :   1.1476
B(  8-C , 11-C ) :   1.1375 B(  9-C , 10-N ) :   2.9217 B( 11-C , 12-N ) :   2.9970
B( 13-C , 14-C ) :   1.3916 B( 13-C , 74-H ) :   0.9630 B( 14-C , 15-S ) :   1.0914
B( 14-C , 16-C ) :   1.1922 B( 16-C , 17-C ) :   1.5597 B( 16-C , 75-H ) :   0.9545
B( 17-C , 18-C ) :   1.1700 B( 17-C , 21-S ) :   1.0504 B( 18-C , 19-C ) :   1.5580
B( 18-C , 76-H ) :   0.9986 B( 19-C , 20-C ) :   1.2165 B( 19-C , 77-H ) :   0.9953
B( 20-C , 21-S ) :   1.0567 B( 20-C , 22-C ) :   1.4492 B( 22-C , 23-C ) :   1.2202
B( 22-C , 26-S ) :   1.0568 B( 23-C , 24-C ) :   1.5501 B( 23-C , 78-H ) :   0.9954
B( 24-C , 25-C ) :   1.1820 B( 24-C , 79-H ) :   0.9977 B( 25-C , 26-S ) :   1.0546
B( 25-C , 27-C ) :   1.5337 B( 27-C , 28-C ) :   1.2205 B( 27-C , 80-H ) :   0.9540
B( 28-C , 29-C ) :   1.3674 B( 28-C , 32-S ) :   1.0758 B( 29-C , 30-C ) :   1.3795
B( 29-C , 81-H ) :   0.9590 B( 30-C , 31-C ) :   1.3695 B( 30-C , 35-C ) :   1.0057
B( 31-C , 32-S ) :   1.1032 B( 31-C , 33-C ) :   1.2725 B( 33-C , 34-C ) :   1.3570
B( 33-C , 43-S ) :   1.1107 B( 34-C , 35-C ) :   0.9872 B( 34-C , 41-C ) :   1.3546
B( 35-C , 36-C ) :   1.7063 B( 36-C , 37-C ) :   1.1408 B( 36-C , 39-C ) :   1.1429
B( 37-C , 38-N ) :   2.9883 B( 39-C , 40-N ) :   2.9401 B( 41-C , 42-C ) :   1.3341
B( 41-C , 82-H ) :   1.0045 B( 42-C , 43-S ) :   1.0719 B( 42-C , 44-C ) :   1.2502
B( 44-C , 45-C ) :   1.4940 B( 44-C , 83-H ) :   0.9715 B( 45-C , 46-C ) :   1.1797
B( 45-C , 49-S ) :   1.0372 B( 46-C , 47-C ) :   1.5515 B( 46-C , 84-H ) :   1.0010
B( 47-C , 48-C ) :   1.2161 B( 47-C , 85-H ) :   0.9940 B( 48-C , 49-S ) :   1.0522
B( 48-C , 50-C ) :   1.4653 B( 50-C , 51-C ) :   1.2139 B( 50-C , 54-S ) :   1.0460
B( 51-C , 52-C ) :   1.5594 B( 51-C , 86-H ) :   0.9936 B( 52-C , 53-C ) :   1.1692
B( 52-C , 87-H ) :   1.0009 B( 53-C , 54-S ) :   1.0391 B( 53-C , 55-C ) :   1.5157
B( 55-C , 56-C ) :   1.2243 B( 55-C , 88-H ) :   0.9709 B( 56-C , 57-C ) :   1.3566
B( 56-C , 60-S ) :   1.0897 B( 57-C , 58-C ) :   1.3326 B( 57-C , 89-H ) :   1.0057
B( 58-C , 59-C ) :   1.4078 B( 58-C , 63-C ) :   0.9784 B( 59-C , 60-S ) :   1.1127
B( 59-C , 61-C ) :   1.2165 B( 61-C , 62-C ) :   1.4239 B( 61-C , 71-S ) :   1.1356
B( 62-C , 63-C ) :   1.0412 B( 62-C , 69-C ) :   1.2674 B( 63-C , 64-C ) :   1.6982
B( 64-C , 65-C ) :   1.1334 B( 64-C , 67-C ) :   1.1344 B( 65-C , 66-N ) :   2.9994
B( 67-C , 68-N ) :   2.9878 B( 69-C , 70-C ) :   1.5588 B( 69-C , 90-H ) :   0.9963
B( 70-C , 71-S ) :   1.1318 B( 70-C , 91-H ) :   0.9638

-----------------------------------------------------------------------------
         ABSORPTION SPECTRUM VIA TRANSITION ELECTRIC DIPOLE MOMENTS
-----------------------------------------------------------------------------
State   Energy  Wavelength   fosc         T2         TX        TY        TZ
        (cm-1)    (nm)                  (au**2)     (au)      (au)      (au)
-----------------------------------------------------------------------------
   0    4980.3   2007.9   0.427037884  28.22844  -4.38952   2.90137   0.73663
   1    7946.3   1258.4   0.081334527   3.36966  -1.74307  -0.28460   0.50035
   2    8388.4   1192.1   0.171741660   6.74020   2.48506   0.59527  -0.45862
   3   10822.1    924.0   0.021408930   0.65127   0.73502  -0.31456   0.10981
   4   11779.5    848.9   0.889153778  24.84990   3.69339  -3.27267  -0.70599
   5   14520.6    688.7   0.035292033   0.80014  -0.68934   0.24787  -0.51334
   6   15538.5    643.6   0.022287615   0.47220  -0.36090  -0.56251   0.15981
   7   15633.2    639.7   0.147925490   3.11509   1.38570   1.07353  -0.20610
   8   17626.1    567.3   0.048100534   0.89840   0.34849   0.87201  -0.12864
   9   18390.3    543.8   0.003557035   0.06368  -0.13146  -0.15471   0.14986
  10   20070.4    498.2   0.079592981   1.30555   0.88809   0.71240  -0.09664
  11   20206.6    494.9   0.235046691   3.82945  -1.69995  -0.88947   0.38529
  12   21509.4    464.9   0.588209750   9.00286   1.72403   2.39929  -0.52345
  13   23256.6    430.0   0.011052520   0.15646   0.15532   0.36010   0.05157
  14   23454.8    426.4   0.036918570   0.51819  -0.55973  -0.42282   0.16161
  15   25270.0    395.7   1.508364042  19.65066   1.75269   4.02790  -0.59559
  16   25434.9    393.2   0.274447279   3.55226   0.83008   1.66228  -0.31633
  17   25966.0    385.1   0.087037592   1.10351   0.52810  -0.90798   0.01391
  18   26810.0    373.0   0.021566103   0.26482   0.01113   0.49614  -0.13615
  19   27853.7    359.0   0.135117698   1.59700   1.20652  -0.06250   0.37069
  20   28174.3    354.9   0.070987205   0.82947   0.64967   0.60951  -0.18947
  21   28259.2    353.9   0.003243494   0.03779  -0.03150   0.12977  -0.14125
  22   29264.8    341.7   0.218800244   2.46138  -1.50210   0.45278   0.00751
  23   29681.6    336.9   0.201690732   2.23704   1.25794  -0.79920   0.12611
  24   29833.4    335.2   0.126757464   1.39877   1.16124   0.08889  -0.20591
  25   30195.9    331.2   0.119452801   1.30234   1.06927   0.39643  -0.04307
  26   30733.5    325.4   0.158200855   1.69462  -0.85027   0.98547  -0.02227
  27   30998.8    322.6   0.209075118   2.22041  -1.46474   0.26355   0.07398
  28   31205.9    320.5   0.120507075   1.27131   1.12287  -0.05734   0.08473
  29   31300.0    319.5   0.233007533   2.45076   0.39592  -1.51357   0.05581
  30   31571.5    316.7   0.070497773   0.73512  -0.61016   0.60235  -0.00057
  31   31738.9    315.1   0.105652234   1.09588  -0.92746   0.48476   0.02673
  32   32036.6    312.1   0.273780471   2.81340   1.26791  -1.09685   0.05210
  33   32371.0    308.9   0.064561730   0.65659   0.26556   0.76474  -0.03513
  34   32884.0    304.1   0.001890370   0.01893   0.01499   0.13602   0.01410
  35   32960.1    303.4   0.005454559   0.05448   0.08462   0.21751   0.00333
  36   32979.3    303.2   0.003978697   0.03972  -0.13624   0.10308  -0.10262
  37   33266.3    300.6   0.422395353   4.18014  -2.04269  -0.05672   0.06596
  38   33654.5    297.1   0.095410960   0.93332   0.70969  -0.65198   0.06770
  39   33892.2    295.1   0.197506043   1.91847  -0.56723   1.26126  -0.07718
  40   34043.1    293.7   0.177430782   1.71583   1.22212   0.38889  -0.26648
  41   34142.8    292.9   0.180928502   1.74455   0.72538   1.08295  -0.21355
  42   34349.3    291.1   0.033423238   0.32034  -0.56089   0.02215  -0.07244
  43   34484.2    290.0   0.079908925   0.76287   0.42512  -0.75972   0.07044
  44   34589.8    289.1   0.036387409   0.34632   0.07929   0.56694  -0.13644
  45   34738.3    287.9   0.004039664   0.03828   0.06395   0.18261  -0.02913
  46   34883.4    286.7   0.087765872   0.82829   0.89728   0.09945  -0.11527
  47   35001.7    285.7   0.062096751   0.58406   0.69091  -0.31941   0.06839
  48   35343.5    282.9   0.033997545   0.31667   0.46047  -0.32236  -0.02694
  49   35722.4    279.9   0.266671695   2.45761   1.09078  -1.12460   0.05556
  50   36074.6    277.2   0.004229727   0.03860  -0.19285   0.01280  -0.03526
  51   36097.6    277.0   0.036009260   0.32841   0.28533   0.49332  -0.06027
  52   36421.0    274.6   0.000834660   0.00754  -0.07578   0.04193  -0.00665
  53   36486.7    274.1   0.005320736   0.04801  -0.17595   0.11012   0.07016
  54   36690.8    272.5   0.004037412   0.03623  -0.02958   0.18715  -0.01807
  55   37289.6    268.2   0.017739039   0.15661   0.25039   0.30266   0.04809
  56   37435.4    267.1   0.011363470   0.09993  -0.29400  -0.03528  -0.11068
  57   37523.4    266.5   0.029344639   0.25746   0.06127  -0.48601   0.13226
  58   37901.5    263.8   0.000819016   0.00711  -0.04619  -0.07056   0.00130
  59   37948.6    263.5   0.037350968   0.32403   0.21553   0.52587  -0.03221
  60   38119.2    262.3   0.008793635   0.07595   0.16858   0.20040  -0.08584
  61   38234.3    261.5   0.008912328   0.07674  -0.19562  -0.19439   0.02616
  62   38443.6    260.1   0.065291285   0.55912  -0.50867  -0.53278   0.12856
  63   38532.3    259.5   0.000426390   0.00364  -0.02542  -0.04411   0.03242
  64   38705.8    258.4   0.001218968   0.01037  -0.05854  -0.07808   0.02905
  65   38846.3    257.4   0.031756547   0.26913   0.37002   0.35759  -0.06591
  66   38871.5    257.3   0.006550231   0.05548   0.23481  -0.01491  -0.01077
  67   39139.3    255.5   0.000028176   0.00024  -0.01505  -0.00308  -0.00093
  68   39191.6    255.2   0.047963510   0.40290   0.15387   0.61336  -0.05488
  69   39490.9    253.2   0.002306765   0.01923  -0.13664   0.02314   0.00503
  70   39561.6    252.8   0.020272390   0.16870   0.36345  -0.18725  -0.03925
  71   39740.5    251.6   0.000597395   0.00495   0.06819   0.00109   0.01724
  72   39860.6    250.9   0.014596350   0.12055  -0.16402   0.30559   0.01628
  73   40102.6    249.4   0.006800101   0.05582  -0.14868  -0.17817   0.04442
  74   40179.0    248.9   0.007948542   0.06513  -0.20845   0.14675  -0.01182
  75   40322.9    248.0   0.004287447   0.03500   0.15273   0.10185   0.03612

FINAL SINGLE POINT ENERGY     -6451.763778780552

DIPOLE MOMENT
-------------
                                X             Y             Z
Electronic contribution:     -4.89543       2.11074      -1.18792
Nuclear contribution   :      2.84384      -0.67756       1.62688
                        -----------------------------------------
Total Dipole Moment    :     -2.05159       1.43318       0.43895
                        -----------------------------------------
Magnitude (a.u.)       :      2.54081
Magnitude (Debye)      :      6.45824

Rotational constants in cm-1:     0.001294     0.000255     0.000215
Rotational constants in MHz :    38.807494     7.655777     6.451175

                             ****ORCA TERMINATED NORMALLY****
TOTAL RUN TIME: 0 days 0 hours 10 minutes 35 seconds 122 msec
