                         Program Version 4.2.0 -  RELEASE  -
|  1> # ORCA input file
|  2> # SCF done       -148.310790184757          0.000343092058
|  3> ! CAM-B3LYP def2-SVP def2/J RIJCOSX Grid4 TightSCF
|  4> %maxcore 5000
|  5> %tddft
|  6>     Mode sTDDFT
|  7>     Ethresh 5.0
|  8>     maxcore 5000
|  9> end
| 10>
| 11> %pal
| 12>   nprocs 6
| 13>   end
| 14> * xyz 0 1
| 15>    C       -1.13576        -0.16393        -2.72332
| 16>    O        0.09987         0.31357        -2.57764
| 17>    C        0.11847         1.59088        -3.01903
| 18>    C       -1.15174         1.94317        -3.46430
| 19>    C       -1.96804         0.78265        -3.26450
| 20>    C       -3.33533         0.65402        -3.56198
| 21>    N       -4.45006         0.55485        -3.80377
| 22>    C       -1.57893         3.16498        -3.99817
| 23>    N       -1.94536         4.15929        -4.43646
| 24>    C        1.33215         2.33444        -2.95923
| 25>    C        2.53329         1.87966        -2.47076
| 26>    C        3.50041         2.92250        -2.58854
| 27>    C        2.79364         4.07269        -3.17723
| 28>    C        1.49999         3.71211        -3.39151
| 29>    C        3.31179         5.35555        -3.40024
| 30>    N        3.68474         6.42976        -3.55762
| 31>    C        4.82590         2.87585        -2.21928
| 32>    C        5.81564         3.87640        -2.40920
| 33>    C        6.99736         3.47008        -1.81732
| 34>    C        6.77198         2.15041        -1.24174
| 35>    C        5.49203         1.77536        -1.49814
| 36>    C        4.93030         0.55506        -1.10627
| 37>    N        4.50795        -0.45787        -0.76692
| 38>    C        8.18656         4.24395        -1.82742
| 39>    N        9.27052         4.13229        -0.98824
| 40>    C        9.42179         3.29022         0.17622
| 41>    C        8.41419         3.62850         1.26976
| 42>    C       10.25494         5.09468        -1.27779
| 43>    O       11.29296         5.19887        -0.65277
| 44>    C        9.73110         5.82430        -2.40830
| 45>    C        8.46244         5.28808        -2.71626
| 46>    C        7.95833         5.97679        -3.88916
| 47>    O        6.95154         5.84863        -4.54628
| 48>    N        8.96049         6.92794        -4.18467
| 49>    C        8.82965         7.80941        -5.31967
| 50>    C        9.64131         7.31859        -6.51597
| 51>    C       10.02097         6.84644        -3.32113
| 52>    C       11.16021         7.68407        -3.38018
| 53>    C       12.19201         7.55481        -2.50351
| 54>    C       13.35766         8.35956        -2.48671
| 55>    S       14.57742         8.03677        -1.28149
| 56>    C       15.57671         9.32468        -1.86277
| 57>    C       14.96893         9.96526        -2.94837
| 58>    C       13.72641         9.41976        -3.29367
| 59>    C       15.56107        11.05098        -3.61817
| 60>    N       16.04235        11.93653        -4.16482
| 61>    C       16.83270         9.65937        -1.29637
| 62>    C       17.39166         9.01030        -0.24920
| 63>    C       18.65405         9.35587         0.30820
| 64>    O       19.38952        10.38057        -0.17856
| 65>    C       20.51343        10.46318         0.53680
| 66>    C       20.55119         9.49890         1.51184
| 67>    C       19.33055         8.76424         1.36965
| 68>    C       18.89804         7.67378         2.13438
| 69>    N       18.53452         6.78071         2.75446
| 70>    C       21.56821         9.27122         2.45469
| 71>    N       22.39384         9.08016         3.22449
| 72>    H       -1.32741        -1.17429        -2.41858
| 73>    H        2.72338         0.89874        -2.08241
| 74>    H        0.72266         4.32921        -3.80056
| 75>    H        5.66071         4.79795        -2.93371
| 76>    H        7.50089         1.54400        -0.74003
| 77>    H       10.43650         3.48152         0.53892
| 78>    H        9.35822         2.23757        -0.11059
| 79>    H        8.52230         4.66877         1.56755
| 80>    H        8.59289         2.99915         2.13707
| 81>    H        7.39272         3.47035         0.93050
| 82>    H        9.12746         8.82165        -5.03278
| 83>    H        7.76663         7.81465        -5.57605
| 84>    H       10.69956         7.25109        -6.27195
| 85>    H        9.51657         8.00349        -7.34986
| 86>    H        9.29357         6.33480        -6.82082
| 87>    H       11.18730         8.44507        -4.14589
| 88>    H       12.14216         6.78171        -1.74737
| 89>    H       13.12795         9.79519        -4.10400
| 90>    H       17.35463        10.49114        -1.75276
| 91>    H       16.88749         8.17641         0.22021
| 92>    H       21.21885        11.23010         0.28272
| 93> *
| 94>
| 95>                          ****END OF INPUT****

CARTESIAN COORDINATES (ANGSTROEM)
---------------------------------
  C     -1.135760   -0.163930   -2.723320
  O      0.099870    0.313570   -2.577640
  C      0.118470    1.590880   -3.019030
  C     -1.151740    1.943170   -3.464300
  C     -1.968040    0.782650   -3.264500
  C     -3.335330    0.654020   -3.561980
  N     -4.450060    0.554850   -3.803770
  C     -1.578930    3.164980   -3.998170
  N     -1.945360    4.159290   -4.436460
  C      1.332150    2.334440   -2.959230
  C      2.533290    1.879660   -2.470760
  C      3.500410    2.922500   -2.588540
  C      2.793640    4.072690   -3.177230
  C      1.499990    3.712110   -3.391510
  C      3.311790    5.355550   -3.400240
  N      3.684740    6.429760   -3.557620
  C      4.825900    2.875850   -2.219280
  C      5.815640    3.876400   -2.409200
  C      6.997360    3.470080   -1.817320
  C      6.771980    2.150410   -1.241740
  C      5.492030    1.775360   -1.498140
  C      4.930300    0.555060   -1.106270
  N      4.507950   -0.457870   -0.766920
  C      8.186560    4.243950   -1.827420
  N      9.270520    4.132290   -0.988240
  C      9.421790    3.290220    0.176220
  C      8.414190    3.628500    1.269760
  C     10.254940    5.094680   -1.277790
  O     11.292960    5.198870   -0.652770
  C      9.731100    5.824300   -2.408300
  C      8.462440    5.288080   -2.716260
  C      7.958330    5.976790   -3.889160
  O      6.951540    5.848630   -4.546280
  N      8.960490    6.927940   -4.184670
  C      8.829650    7.809410   -5.319670
  C      9.641310    7.318590   -6.515970
  C     10.020970    6.846440   -3.321130
  C     11.160210    7.684070   -3.380180
  C     12.192010    7.554810   -2.503510
  C     13.357660    8.359560   -2.486710
  S     14.577420    8.036770   -1.281490
  C     15.576710    9.324680   -1.862770
  C     14.968930    9.965260   -2.948370
  C     13.726410    9.419760   -3.293670
  C     15.561070   11.050980   -3.618170
  N     16.042350   11.936530   -4.164820
  C     16.832700    9.659370   -1.296370
  C     17.391660    9.010300   -0.249200
  C     18.654050    9.355870    0.308200
  O     19.389520   10.380570   -0.178560
  C     20.513430   10.463180    0.536800
  C     20.551190    9.498900    1.511840
  C     19.330550    8.764240    1.369650
  C     18.898040    7.673780    2.134380
  N     18.534520    6.780710    2.754460
  C     21.568210    9.271220    2.454690
  N     22.393840    9.080160    3.224490
  H     -1.327410   -1.174290   -2.418580
  H      2.723380    0.898740   -2.082410
  H      0.722660    4.329210   -3.800560
  H      5.660710    4.797950   -2.933710
  H      7.500890    1.544000   -0.740030
  H     10.436500    3.481520    0.538920
  H      9.358220    2.237570   -0.110590
  H      8.522300    4.668770    1.567550
  H      8.592890    2.999150    2.137070
  H      7.392720    3.470350    0.930500
  H      9.127460    8.821650   -5.032780
  H      7.766630    7.814650   -5.576050
  H     10.699560    7.251090   -6.271950
  H      9.516570    8.003490   -7.349860
  H      9.293570    6.334800   -6.820820
  H     11.187300    8.445070   -4.145890
  H     12.142160    6.781710   -1.747370
  H     13.127950    9.795190   -4.104000
  H     17.354630   10.491140   -1.752760
  H     16.887490    8.176410    0.220210
  H     21.218850   11.230100    0.282720

 Total Charge           Charge          ....    0
 Multiplicity           Mult            ....    1
 Number of Electrons    NEL             ....  390
 Basis Dimension        Dim             ....  907

ORBITAL ENERGIES
----------------

  NO   OCC          E(Eh)            E(eV)
   0   2.0000     -88.996236     -2421.7107
   1   2.0000     -19.345492      -526.4176
   2   2.0000     -19.343839      -526.3726
   3   2.0000     -19.210403      -522.7416
   4   2.0000     -19.206370      -522.6319
   5   2.0000     -14.471217      -393.7818
   6   2.0000     -14.470886      -393.7728
   7   2.0000     -14.428583      -392.6217
   8   2.0000     -14.426989      -392.5783
   9   2.0000     -14.426022      -392.5520
  10   2.0000     -14.424791      -392.5185
  11   2.0000     -14.423686      -392.4884
  12   2.0000     -14.420919      -392.4132
  13   2.0000     -14.410193      -392.1213
  14   2.0000     -10.392343      -282.7900
  15   2.0000     -10.389325      -282.7079
  16   2.0000     -10.387903      -282.6692
  17   2.0000     -10.387006      -282.6448
  18   2.0000     -10.382155      -282.5128
  19   2.0000     -10.381146      -282.4853
  20   2.0000     -10.362287      -281.9722
  21   2.0000     -10.355664      -281.7919
  22   2.0000     -10.351001      -281.6651
  23   2.0000     -10.346314      -281.5375
  24   2.0000     -10.346064      -281.5307
  25   2.0000     -10.345054      -281.5032
  26   2.0000     -10.344988      -281.5014
  27   2.0000     -10.341238      -281.3994
  28   2.0000     -10.340096      -281.3683
  29   2.0000     -10.335647      -281.2472
  30   2.0000     -10.334696      -281.2214
  31   2.0000     -10.329612      -281.0830
  32   2.0000     -10.329322      -281.0751
  33   2.0000     -10.327443      -281.0240
  34   2.0000     -10.326274      -280.9922
  35   2.0000     -10.325773      -280.9786
  36   2.0000     -10.325726      -280.9773
  37   2.0000     -10.325681      -280.9761
  38   2.0000     -10.325361      -280.9674
  39   2.0000     -10.324559      -280.9455
  40   2.0000     -10.324511      -280.9442
  41   2.0000     -10.323931      -280.9284
  42   2.0000     -10.322729      -280.8957
  43   2.0000     -10.321845      -280.8717
  44   2.0000     -10.321339      -280.8579
  45   2.0000     -10.321140      -280.8525
  46   2.0000     -10.320758      -280.8421
  47   2.0000     -10.320157      -280.8257
  48   2.0000     -10.318379      -280.7774
  49   2.0000     -10.313768      -280.6519
  50   2.0000     -10.311074      -280.5786
  51   2.0000     -10.302955      -280.3577
  52   2.0000     -10.294852      -280.1372
  53   2.0000     -10.283992      -279.8417
  54   2.0000     -10.278781      -279.6998
  55   2.0000     -10.276793      -279.6458
  56   2.0000     -10.276459      -279.6367
  57   2.0000      -8.091652      -220.1850
  58   2.0000      -6.060725      -164.9207
  59   2.0000      -6.056682      -164.8107
  60   2.0000      -6.054028      -164.7385
  61   2.0000      -1.265652       -34.4401
  62   2.0000      -1.264992       -34.4222
  63   2.0000      -1.152007       -31.3477
  64   2.0000      -1.144687       -31.1485
  65   2.0000      -1.082042       -29.4439
  66   2.0000      -1.073017       -29.1983
  67   2.0000      -1.033952       -28.1353
  68   2.0000      -1.028070       -27.9752
  69   2.0000      -1.017338       -27.6832
  70   2.0000      -1.016020       -27.6473
  71   2.0000      -1.010800       -27.5053
  72   2.0000      -1.007060       -27.4035
  73   2.0000      -1.006471       -27.3875
  74   2.0000      -1.004890       -27.3445
  75   2.0000      -0.995183       -27.0803
  76   2.0000      -0.988504       -26.8986
  77   2.0000      -0.960212       -26.1287
  78   2.0000      -0.957478       -26.0543
  79   2.0000      -0.954174       -25.9644
  80   2.0000      -0.945520       -25.7289
  81   2.0000      -0.933010       -25.3885
  82   2.0000      -0.923097       -25.1188
  83   2.0000      -0.899941       -24.4886
  84   2.0000      -0.893050       -24.3011
  85   2.0000      -0.888638       -24.1811
  86   2.0000      -0.883087       -24.0300
  87   2.0000      -0.868349       -23.6290
  88   2.0000      -0.853785       -23.2327
  89   2.0000      -0.848502       -23.0889
  90   2.0000      -0.835758       -22.7421
  91   2.0000      -0.823124       -22.3983
  92   2.0000      -0.808288       -21.9946
  93   2.0000      -0.794288       -21.6137
  94   2.0000      -0.791295       -21.5322
  95   2.0000      -0.784384       -21.3442
  96   2.0000      -0.775430       -21.1005
  97   2.0000      -0.766070       -20.8458
  98   2.0000      -0.755407       -20.5557
  99   2.0000      -0.750235       -20.4149
 100   2.0000      -0.741572       -20.1792
 101   2.0000      -0.734090       -19.9756
 102   2.0000      -0.728552       -19.8249
 103   2.0000      -0.723227       -19.6800
 104   2.0000      -0.708501       -19.2793
 105   2.0000      -0.699570       -19.0363
 106   2.0000      -0.694803       -18.9065
 107   2.0000      -0.680197       -18.5091
 108   2.0000      -0.666978       -18.1494
 109   2.0000      -0.662323       -18.0227
 110   2.0000      -0.654403       -17.8072
 111   2.0000      -0.653707       -17.7883
 112   2.0000      -0.644075       -17.5262
 113   2.0000      -0.642389       -17.4803
 114   2.0000      -0.625495       -17.0206
 115   2.0000      -0.624703       -16.9990
 116   2.0000      -0.609241       -16.5783
 117   2.0000      -0.607504       -16.5310
 118   2.0000      -0.606974       -16.5166
 119   2.0000      -0.605483       -16.4760
 120   2.0000      -0.591294       -16.0899
 121   2.0000      -0.585420       -15.9301
 122   2.0000      -0.583437       -15.8761
 123   2.0000      -0.580353       -15.7922
 124   2.0000      -0.576452       -15.6860
 125   2.0000      -0.573086       -15.5945
 126   2.0000      -0.570309       -15.5189
 127   2.0000      -0.563802       -15.3418
 128   2.0000      -0.552462       -15.0333
 129   2.0000      -0.549297       -14.9471
 130   2.0000      -0.544621       -14.8199
 131   2.0000      -0.544336       -14.8121
 132   2.0000      -0.540216       -14.7000
 133   2.0000      -0.536761       -14.6060
 134   2.0000      -0.535079       -14.5602
 135   2.0000      -0.533230       -14.5099
 136   2.0000      -0.530271       -14.4294
 137   2.0000      -0.526793       -14.3348
 138   2.0000      -0.525201       -14.2914
 139   2.0000      -0.520772       -14.1709
 140   2.0000      -0.517637       -14.0856
 141   2.0000      -0.515948       -14.0397
 142   2.0000      -0.510651       -13.8955
 143   2.0000      -0.505383       -13.7522
 144   2.0000      -0.498679       -13.5697
 145   2.0000      -0.495625       -13.4866
 146   2.0000      -0.491308       -13.3692
 147   2.0000      -0.488419       -13.2906
 148   2.0000      -0.488288       -13.2870
 149   2.0000      -0.487713       -13.2714
 150   2.0000      -0.485618       -13.2143
 151   2.0000      -0.481847       -13.1117
 152   2.0000      -0.479356       -13.0440
 153   2.0000      -0.473908       -12.8957
 154   2.0000      -0.470416       -12.8007
 155   2.0000      -0.466092       -12.6830
 156   2.0000      -0.464086       -12.6284
 157   2.0000      -0.463808       -12.6209
 158   2.0000      -0.462251       -12.5785
 159   2.0000      -0.458334       -12.4719
 160   2.0000      -0.455396       -12.3920
 161   2.0000      -0.453917       -12.3517
 162   2.0000      -0.453461       -12.3393
 163   2.0000      -0.451768       -12.2932
 164   2.0000      -0.450779       -12.2663
 165   2.0000      -0.450545       -12.2600
 166   2.0000      -0.450205       -12.2507
 167   2.0000      -0.449941       -12.2435
 168   2.0000      -0.442776       -12.0486
 169   2.0000      -0.439745       -11.9661
 170   2.0000      -0.438339       -11.9278
 171   2.0000      -0.437205       -11.8970
 172   2.0000      -0.437113       -11.8945
 173   2.0000      -0.435718       -11.8565
 174   2.0000      -0.432933       -11.7807
 175   2.0000      -0.429332       -11.6827
 176   2.0000      -0.424632       -11.5548
 177   2.0000      -0.422216       -11.4891
 178   2.0000      -0.421342       -11.4653
 179   2.0000      -0.420086       -11.4311
 180   2.0000      -0.404804       -11.0153
 181   2.0000      -0.391892       -10.6639
 182   2.0000      -0.379539       -10.3278
 183   2.0000      -0.374757       -10.1977
 184   2.0000      -0.370858       -10.0915
 185   2.0000      -0.364974        -9.9315
 186   2.0000      -0.356998        -9.7144
 187   2.0000      -0.349833        -9.5194
 188   2.0000      -0.344111        -9.3637
 189   2.0000      -0.337900        -9.1947
 190   2.0000      -0.333960        -9.0875
 191   2.0000      -0.325022        -8.8443
 192   2.0000      -0.302399        -8.2287
 193   2.0000      -0.293829        -7.9955
 194   2.0000      -0.250384        -6.8133
 195   0.0000      -0.142395        -3.8748
 196   0.0000      -0.103416        -2.8141
 197   0.0000      -0.067719        -1.8427
 198   0.0000      -0.032580        -0.8866
 199   0.0000      -0.020955        -0.5702

MULLIKEN ATOMIC CHARGES
-----------------------
   0 C :    0.113245
   1 O :   -0.153257
   2 C :    0.172029
   3 C :   -0.034497
   4 C :   -0.052486
   5 C :   -0.212640
   6 N :    0.216300
   7 C :   -0.301572
   8 N :    0.236458
   9 C :    0.017804
  10 C :   -0.107090
  11 C :    0.098708
  12 C :   -0.085008
  13 C :   -0.008392
  14 C :   -0.180172
  15 N :    0.157574
  16 C :    0.133405
  17 C :   -0.106368
  18 C :    0.034850
  19 C :   -0.028292
  20 C :   -0.094872
  21 C :   -0.181026
  22 N :    0.146378
  23 C :    0.149895
  24 N :   -0.256705
  25 C :    0.096159
  26 C :   -0.008006
  27 C :    0.168412
  28 O :   -0.214083
  29 C :   -0.085046
  30 C :   -0.043335
  31 C :    0.151574
  32 O :   -0.169421
  33 N :   -0.259031
  34 C :    0.095193
  35 C :    0.000823
  36 C :    0.153150
  37 C :   -0.028799
  38 C :    0.085388
  39 C :   -0.072486
  40 S :    0.182930
  41 C :   -0.046065
  42 C :   -0.052398
  43 C :    0.017237
  44 C :   -0.189893
  45 N :    0.143846
  46 C :    0.009103
  47 C :   -0.054427
  48 C :    0.129501
  49 O :   -0.165149
  50 C :    0.111469
  51 C :   -0.046945
  52 C :   -0.021659
  53 C :   -0.287970
  54 N :    0.228413
  55 C :   -0.215349
  56 N :    0.213681
  57 H :    0.036965
  58 H :    0.008642
  59 H :    0.017714
  60 H :    0.025789
  61 H :   -0.009138
  62 H :    0.050705
  63 H :    0.026678
  64 H :    0.029392
  65 H :    0.030583
  66 H :    0.030645
  67 H :    0.025345
  68 H :    0.055850
  69 H :    0.014130
  70 H :    0.030357
  71 H :    0.032607
  72 H :   -0.023261
  73 H :    0.014749
  74 H :    0.001960
  75 H :    0.030577
  76 H :    0.031915
  77 H :    0.036708
Sum of atomic charges:   -0.0000000

LOEWDIN ATOMIC CHARGES
----------------------
   0 C :    0.097198
   1 O :    0.054577
   2 C :    0.070936
   3 C :   -0.084798
   4 C :   -0.088893
   5 C :   -0.033652
   6 N :   -0.023361
   7 C :   -0.033402
   8 N :   -0.027418
   9 C :   -0.037480
  10 C :   -0.005597
  11 C :    0.036950
  12 C :   -0.073402
  13 C :    0.052762
  14 C :   -0.033310
  15 N :   -0.045056
  16 C :    0.040859
  17 C :    0.006830
  18 C :   -0.029892
  19 C :    0.049917
  20 C :   -0.077753
  21 C :   -0.032301
  22 N :   -0.058246
  23 C :    0.064605
  24 N :    0.000813
  25 C :    0.035227
  26 C :   -0.060474
  27 C :    0.079436
  28 O :   -0.202434
  29 C :   -0.125676
  30 C :   -0.095139
  31 C :    0.085676
  32 O :   -0.163664
  33 N :    0.001667
  34 C :    0.037097
  35 C :   -0.060590
  36 C :    0.089292
  37 C :   -0.043488
  38 C :    0.018176
  39 C :   -0.163065
  40 S :    0.492130
  41 C :   -0.142002
  42 C :   -0.095064
  43 C :   -0.013295
  44 C :   -0.034644
  45 N :   -0.043749
  46 C :   -0.011955
  47 C :   -0.031618
  48 C :    0.064924
  49 O :    0.046099
  50 C :    0.094420
  51 C :   -0.089175
  52 C :   -0.085851
  53 C :   -0.036820
  54 N :   -0.027352
  55 C :   -0.033462
  56 N :   -0.024169
  57 H :    0.042393
  58 H :    0.037915
  59 H :    0.043893
  60 H :    0.039487
  61 H :    0.036163
  62 H :    0.040245
  63 H :    0.019910
  64 H :    0.033375
  65 H :    0.034911
  66 H :    0.024179
  67 H :    0.023921
  68 H :    0.042926
  69 H :    0.020947
  70 H :    0.033482
  71 H :    0.033713
  72 H :    0.029841
  73 H :    0.038185
  74 H :    0.040457
  75 H :    0.048166
  76 H :    0.042966
  77 H :    0.041581

  Mayer bond orders larger than 0.100000
B(  0-C ,  1-O ) :   1.1688 B(  0-C ,  4-C ) :   1.4984 B(  0-C , 57-H ) :   1.0186
B(  1-O ,  2-C ) :   1.2004 B(  2-C ,  3-C ) :   1.4563 B(  2-C ,  9-C ) :   1.0387
B(  3-C ,  4-C ) :   1.3107 B(  3-C ,  7-C ) :   1.1749 B(  4-C ,  5-C ) :   1.1095
B(  5-C ,  6-N ) :   3.0475 B(  7-C ,  8-N ) :   2.9632 B(  9-C , 10-C ) :   1.5405
B(  9-C , 13-C ) :   1.0800 B( 10-C , 11-C ) :   1.0958 B( 10-C , 58-H ) :   1.0164
B( 11-C , 12-C ) :   1.1188 B( 11-C , 16-C ) :   1.3792 B( 12-C , 13-C ) :   1.6707
B( 12-C , 14-C ) :   1.0855 B( 13-C , 59-H ) :   1.0095 B( 14-C , 15-N ) :   2.9815
B( 16-C , 17-C ) :   1.1235 B( 16-C , 20-C ) :   1.0972 B( 17-C , 18-C ) :   1.5420
B( 17-C , 60-H ) :   0.9930 B( 18-C , 19-C ) :   1.0177 B( 18-C , 23-C ) :   1.0466
B( 19-C , 20-C ) :   1.6743 B( 19-C , 61-H ) :   1.0290 B( 20-C , 21-C ) :   1.0851
B( 21-C , 22-N ) :   2.9705 B( 23-C , 24-N ) :   1.1912 B( 23-C , 30-C ) :   1.3786
B( 24-N , 25-C ) :   0.9402 B( 24-N , 27-C ) :   1.0580 B( 25-C , 26-C ) :   1.1168
B( 25-C , 62-H ) :   0.9218 B( 25-C , 63-H ) :   0.9511 B( 26-C , 64-H ) :   0.9615
B( 26-C , 65-H ) :   0.9661 B( 26-C , 66-H ) :   0.9661 B( 27-C , 28-O ) :   2.0024
B( 27-C , 29-C ) :   1.0008 B( 28-O , 73-H ) :   0.1258 B( 29-C , 30-C ) :   1.2623
B( 29-C , 36-C ) :   1.2952 B( 30-C , 31-C ) :   0.9601 B( 31-C , 32-O ) :   2.1132
B( 31-C , 33-N ) :   1.0304 B( 33-N , 34-C ) :   0.9407 B( 33-N , 36-C ) :   1.1816
B( 34-C , 35-C ) :   1.1202 B( 34-C , 67-H ) :   0.9500 B( 34-C , 68-H ) :   0.9278
B( 35-C , 69-H ) :   0.9685 B( 35-C , 70-H ) :   0.9682 B( 35-C , 71-H ) :   0.9638
B( 36-C , 37-C ) :   1.1791 B( 37-C , 38-C ) :   1.6092 B( 37-C , 72-H ) :   0.9643
B( 38-C , 39-C ) :   1.1302 B( 38-C , 73-H ) :   0.9281 B( 39-C , 40-S ) :   1.1305
B( 39-C , 43-C ) :   1.4573 B( 40-S , 41-C ) :   1.1429 B( 41-C , 42-C ) :   1.4293
B( 41-C , 46-C ) :   1.1609 B( 42-C , 43-C ) :   1.3077 B( 42-C , 44-C ) :   1.1024
B( 43-C , 74-H ) :   0.9996 B( 44-C , 45-N ) :   3.0246 B( 46-C , 47-C ) :   1.6287
B( 46-C , 75-H ) :   0.9735 B( 47-C , 48-C ) :   1.1880 B( 47-C , 76-H ) :   0.9545
B( 48-C , 49-O ) :   1.1693 B( 48-C , 52-C ) :   1.4254 B( 49-O , 50-C ) :   1.1624
B( 50-C , 51-C ) :   1.5000 B( 50-C , 77-H ) :   1.0184 B( 51-C , 52-C ) :   1.3091
B( 51-C , 55-C ) :   1.1142 B( 52-C , 53-C ) :   1.1563 B( 53-C , 54-N ) :   3.0184
B( 55-C , 56-N ) :   3.0481

-----------------------------------------------------------------------------
         ABSORPTION SPECTRUM VIA TRANSITION ELECTRIC DIPOLE MOMENTS
-----------------------------------------------------------------------------
State   Energy  Wavelength   fosc         T2         TX        TY        TZ
        (cm-1)    (nm)                  (au**2)     (au)      (au)      (au)
-----------------------------------------------------------------------------
   0    8403.2   1190.0   0.489187401  19.16496   3.99275   1.79226   0.10352
   1   16403.2    609.6   0.086595436   1.73797  -1.27345  -0.07210  -0.33331
   2   17279.2    578.7   0.401345149   7.64663  -2.21289  -1.65821  -0.01001
   3   19955.1    501.1   0.017739491   0.29266   0.35670   0.38450  -0.13262
   4   21905.5    456.5   0.440173533   6.61526   2.29473   0.67678   0.94415
   5   23557.7    424.5   0.015963200   0.22308  -0.26924   0.12238  -0.36826
   6   25122.2    398.1   0.098566049   1.29165   0.71040  -0.36858   0.80692
   7   25344.0    394.6   0.128869838   1.67399   0.90082   0.61867  -0.69265
   8   25970.7    385.0   0.731467206   9.27227  -2.65371   0.22095  -1.47692
   9   27209.7    367.5   0.450157010   5.44649   1.89729   0.02097   1.35880
  10   29615.0    337.7   0.000752919   0.00837  -0.02014   0.06487  -0.06129
  11   31338.4    319.1   0.022171150   0.23291  -0.15760   0.27673  -0.36262
  12   31907.7    313.4   0.076399258   0.78826   0.67296   0.55264  -0.17310
  13   32595.6    306.8   0.029722158   0.30019   0.47586   0.18747   0.19648
  14   33357.9    299.8   0.005228797   0.05160  -0.19649   0.05250  -0.10118
  15   33578.9    297.8   0.089325101   0.87576   0.84710   0.07581   0.39043
  16   34039.1    293.8   0.363537231   3.51598  -1.80850  -0.29149  -0.40045
  17   34237.5    292.1   0.066891428   0.64320   0.14797   0.63709  -0.46413
  18   34464.7    290.2   0.064899307   0.61993  -0.63508   0.05902  -0.46164
  19   34654.7    288.6   0.043297542   0.41132   0.30738   0.55265   0.10685
  20   35110.7    284.8   0.008868555   0.08316  -0.25507   0.05663  -0.12201
  21   35315.7    283.2   0.023970353   0.22345  -0.10171   0.23161  -0.39933
  22   35769.9    279.6   0.101218232   0.93157   0.01683  -0.76990   0.58184
  23   36737.8    272.2   0.002655148   0.02379   0.08737  -0.11582   0.05238
  24   37282.6    268.2   0.005155843   0.04553   0.18615   0.07421   0.07326
  25   37729.5    265.0   0.002277791   0.01988  -0.07803  -0.11136   0.03722
  26   39462.6    253.4   0.032677141   0.27260  -0.06756   0.45511  -0.24681
  27   39957.6    250.3   0.089739068   0.73936  -0.15502  -0.64386   0.54843

FINAL SINGLE POINT ENERGY     -2839.706800209410

DIPOLE MOMENT
-------------
                                X             Y             Z
Electronic contribution:     -3.88796      -2.70031       6.86513
Nuclear contribution   :      5.62115       2.73031      -7.50197
                        -----------------------------------------
Total Dipole Moment    :      1.73319       0.03000      -0.63684
                        -----------------------------------------
Magnitude (a.u.)       :      1.84673
Magnitude (Debye)      :      4.69403

Rotational constants in cm-1:     0.004144     0.000364     0.000339
Rotational constants in MHz :   124.239050    10.914590    10.175709

                             ****ORCA TERMINATED NORMALLY****
TOTAL RUN TIME: 0 days 0 hours 6 minutes 2 seconds 683 msec
