                         Program Version 4.2.0 -  RELEASE  -
|  1> # ORCA input file
|  2> # SCF done       -175.203467819591          0.000789404617
|  3> ! CAM-B3LYP def2-SVP def2/J RIJCOSX Grid4 TightSCF
|  4> %maxcore 5000
|  5> %tddft
|  6>     Mode sTDDFT
|  7>     Ethresh 5.0
|  8>     maxcore 5000
|  9> end
| 10>
| 11> %pal
| 12>   nprocs 6
| 13>   end
| 14> * xyz 0 1
| 15>    C        0.44728         1.28088        -1.52245
| 16>    C       -0.81579         0.67377        -1.66195
| 17>    N       -2.02665         1.16454        -1.85448
| 18>    O       -2.84801         0.12519        -1.89546
| 19>    N       -2.23330        -1.04349        -1.73706
| 20>    C       -0.95262        -0.75865        -1.59036
| 21>    C        0.17453        -1.58541        -1.37001
| 22>    C        1.38037        -0.95430        -1.23407
| 23>    C        1.51005         0.45417        -1.31008
| 24>    C       -0.02429        -3.03666        -1.36282
| 25>    C        0.21261        -3.87593        -0.26996
| 26>    C        0.71984        -3.36555         1.02319
| 27>    O        0.91737        -2.23175         1.34033
| 28>    S        1.00101        -4.74941         2.12112
| 29>    C        0.38985        -5.95364         0.93020
| 30>    O        0.38447        -7.12307         1.17257
| 31>    C       -0.03688        -5.25364        -0.29852
| 32>    C       -0.56501        -5.89842        -1.43954
| 33>    C       -0.78213        -5.04120        -2.53151
| 34>    C       -0.52694        -3.67964        -2.49406
| 35>    C       -0.85002        -3.12628        -3.83451
| 36>    O       -0.71102        -2.02246        -4.25788
| 37>    O       -1.33778        -4.16378        -4.58493
| 38>    C       -1.35120        -5.34248        -3.86842
| 39>    O       -1.78312        -6.35844        -4.31059
| 40>    C       -0.84037        -7.30334        -1.58444
| 41>    C       -1.44038        -8.09211        -0.66854
| 42>    C       -1.66162        -9.47779        -0.90177
| 43>    N       -2.38526       -10.29034        -0.06300
| 44>    C       -3.07532        -9.88999         1.13906
| 45>    C       -4.39110        -9.18121         0.82745
| 46>    C       -2.43887       -11.61408        -0.52975
| 47>    O       -3.03284       -12.50559         0.04470
| 48>    C       -1.66002       -11.59556        -1.74830
| 49>    C       -1.20032       -10.26872        -1.94837
| 50>    C       -0.40018       -10.25154        -3.15386
| 51>    O        0.21146        -9.36562        -3.71443
| 52>    N       -0.44838       -11.57808        -3.61945
| 53>    C        0.26908       -11.97308        -4.80723
| 54>    C        1.60272       -12.63649        -4.47134
| 55>    C       -1.18361       -12.39062        -2.78878
| 56>    C       -1.38239       -13.77925        -3.01864
| 57>    C       -2.11934       -14.54771        -2.18318
| 58>    C       -2.38126       -15.95472        -2.33115
| 59>    C       -3.27871       -16.56211        -1.44870
| 60>    C       -3.60236       -17.90300        -1.55512
| 61>    N       -4.56805       -18.38725        -0.59560
| 62>    O       -4.54872       -17.88078         0.50412
| 63>    O       -5.35186       -19.24805        -0.94024
| 64>    C       -3.00005       -18.73415        -2.52439
| 65>    C       -2.08594       -18.11033        -3.38883
| 66>    C       -1.79391       -16.77067        -3.31075
| 67>    C       -3.27325       -20.14935        -2.61163
| 68>    C       -2.49369       -21.05080        -3.23868
| 69>    C       -2.76481       -22.46390        -3.32051
| 70>    C       -1.79077       -23.30655        -3.92490
| 71>    N       -0.61602       -23.03203        -4.45742
| 72>    O       -0.11779       -24.19388        -4.87487
| 73>    N       -0.92132       -25.22582        -4.63779
| 74>    C       -1.99098       -24.73045        -4.04157
| 75>    C       -3.16988       -25.33062        -3.56035
| 76>    C       -4.09218       -24.50009        -2.98929
| 77>    C       -3.89960       -23.10637        -2.86998
| 78>    H        0.54351         2.35163        -1.58576
| 79>    H        2.27204        -1.54250        -1.07772
| 80>    H        2.49850         0.87255        -1.19705
| 81>    H       -0.59255        -7.71778        -2.55492
| 82>    H       -1.79487        -7.68177         0.26504
| 83>    H       -2.41935        -9.25438         1.74009
| 84>    H       -3.27743       -10.81113         1.69269
| 85>    H       -4.22203        -8.28483         0.23443
| 86>    H       -4.88667        -8.90135         1.75285
| 87>    H       -5.04697        -9.84517         0.26972
| 88>    H        0.45028       -11.05341        -5.37056
| 89>    H       -0.35788       -12.63550        -5.41046
| 90>    H        2.23118       -11.94289        -3.91836
| 91>    H        2.11639       -12.91578        -5.38714
| 92>    H        1.45578       -13.52738        -3.86426
| 93>    H       -0.92590       -14.20180        -3.90142
| 94>    H       -2.57190       -14.08037        -1.31838
| 95>    H       -3.74742       -15.97377        -0.67273
| 96>    H       -1.61383       -18.70324        -4.15570
| 97>    H       -1.09174       -16.34935        -4.01299
| 98>    H       -4.16541       -20.49175        -2.11047
| 99>    H       -1.56565       -20.75884        -3.71056
|100>    H       -3.31556       -26.39372        -3.65031
|101>    H       -5.01356       -24.91447        -2.60813
|102>    H       -4.68708       -22.53195        -2.40781
|103> *
|104>
|105>                          ****END OF INPUT****

CARTESIAN COORDINATES (ANGSTROEM)
---------------------------------
  C      0.447280    1.280880   -1.522450
  C     -0.815790    0.673770   -1.661950
  N     -2.026650    1.164540   -1.854480
  O     -2.848010    0.125190   -1.895460
  N     -2.233300   -1.043490   -1.737060
  C     -0.952620   -0.758650   -1.590360
  C      0.174530   -1.585410   -1.370010
  C      1.380370   -0.954300   -1.234070
  C      1.510050    0.454170   -1.310080
  C     -0.024290   -3.036660   -1.362820
  C      0.212610   -3.875930   -0.269960
  C      0.719840   -3.365550    1.023190
  O      0.917370   -2.231750    1.340330
  S      1.001010   -4.749410    2.121120
  C      0.389850   -5.953640    0.930200
  O      0.384470   -7.123070    1.172570
  C     -0.036880   -5.253640   -0.298520
  C     -0.565010   -5.898420   -1.439540
  C     -0.782130   -5.041200   -2.531510
  C     -0.526940   -3.679640   -2.494060
  C     -0.850020   -3.126280   -3.834510
  O     -0.711020   -2.022460   -4.257880
  O     -1.337780   -4.163780   -4.584930
  C     -1.351200   -5.342480   -3.868420
  O     -1.783120   -6.358440   -4.310590
  C     -0.840370   -7.303340   -1.584440
  C     -1.440380   -8.092110   -0.668540
  C     -1.661620   -9.477790   -0.901770
  N     -2.385260  -10.290340   -0.063000
  C     -3.075320   -9.889990    1.139060
  C     -4.391100   -9.181210    0.827450
  C     -2.438870  -11.614080   -0.529750
  O     -3.032840  -12.505590    0.044700
  C     -1.660020  -11.595560   -1.748300
  C     -1.200320  -10.268720   -1.948370
  C     -0.400180  -10.251540   -3.153860
  O      0.211460   -9.365620   -3.714430
  N     -0.448380  -11.578080   -3.619450
  C      0.269080  -11.973080   -4.807230
  C      1.602720  -12.636490   -4.471340
  C     -1.183610  -12.390620   -2.788780
  C     -1.382390  -13.779250   -3.018640
  C     -2.119340  -14.547710   -2.183180
  C     -2.381260  -15.954720   -2.331150
  C     -3.278710  -16.562110   -1.448700
  C     -3.602360  -17.903000   -1.555120
  N     -4.568050  -18.387250   -0.595600
  O     -4.548720  -17.880780    0.504120
  O     -5.351860  -19.248050   -0.940240
  C     -3.000050  -18.734150   -2.524390
  C     -2.085940  -18.110330   -3.388830
  C     -1.793910  -16.770670   -3.310750
  C     -3.273250  -20.149350   -2.611630
  C     -2.493690  -21.050800   -3.238680
  C     -2.764810  -22.463900   -3.320510
  C     -1.790770  -23.306550   -3.924900
  N     -0.616020  -23.032030   -4.457420
  O     -0.117790  -24.193880   -4.874870
  N     -0.921320  -25.225820   -4.637790
  C     -1.990980  -24.730450   -4.041570
  C     -3.169880  -25.330620   -3.560350
  C     -4.092180  -24.500090   -2.989290
  C     -3.899600  -23.106370   -2.869980
  H      0.543510    2.351630   -1.585760
  H      2.272040   -1.542500   -1.077720
  H      2.498500    0.872550   -1.197050
  H     -0.592550   -7.717780   -2.554920
  H     -1.794870   -7.681770    0.265040
  H     -2.419350   -9.254380    1.740090
  H     -3.277430  -10.811130    1.692690
  H     -4.222030   -8.284830    0.234430
  H     -4.886670   -8.901350    1.752850
  H     -5.046970   -9.845170    0.269720
  H      0.450280  -11.053410   -5.370560
  H     -0.357880  -12.635500   -5.410460
  H      2.231180  -11.942890   -3.918360
  H      2.116390  -12.915780   -5.387140
  H      1.455780  -13.527380   -3.864260
  H     -0.925900  -14.201800   -3.901420
  H     -2.571900  -14.080370   -1.318380
  H     -3.747420  -15.973770   -0.672730
  H     -1.613830  -18.703240   -4.155700
  H     -1.091740  -16.349350   -4.012990
  H     -4.165410  -20.491750   -2.110470
  H     -1.565650  -20.758840   -3.710560
  H     -3.315560  -26.393720   -3.650310
  H     -5.013560  -24.914470   -2.608130
  H     -4.687080  -22.531950   -2.407810

 Total Charge           Charge          ....    0
 Multiplicity           Mult            ....    1
 Number of Electrons    NEL             ....  442
 Basis Dimension        Dim             .... 1011

ORBITAL ENERGIES
----------------

  NO   OCC          E(Eh)            E(eV)
   0   2.0000     -88.960848     -2420.7478
   1   2.0000     -19.355085      -526.6786
   2   2.0000     -19.354520      -526.6633
   3   2.0000     -19.295686      -525.0623
   4   2.0000     -19.252722      -523.8932
   5   2.0000     -19.252325      -523.8824
   6   2.0000     -19.249421      -523.8034
   7   2.0000     -19.249175      -523.7967
   8   2.0000     -19.243813      -523.6508
   9   2.0000     -19.242928      -523.6267
  10   2.0000     -19.198202      -522.4096
  11   2.0000     -19.192851      -522.2640
  12   2.0000     -14.654270      -398.7630
  13   2.0000     -14.478744      -393.9867
  14   2.0000     -14.478223      -393.9725
  15   2.0000     -14.478090      -393.9689
  16   2.0000     -14.477091      -393.9417
  17   2.0000     -14.459073      -393.4514
  18   2.0000     -14.456377      -393.3780
  19   2.0000     -10.437160      -284.0096
  20   2.0000     -10.436964      -284.0042
  21   2.0000     -10.417242      -283.4676
  22   2.0000     -10.415818      -283.4288
  23   2.0000     -10.379895      -282.4513
  24   2.0000     -10.376105      -282.3482
  25   2.0000     -10.346395      -281.5397
  26   2.0000     -10.345870      -281.5254
  27   2.0000     -10.344938      -281.5001
  28   2.0000     -10.340533      -281.3802
  29   2.0000     -10.340155      -281.3699
  30   2.0000     -10.339583      -281.3544
  31   2.0000     -10.337946      -281.3098
  32   2.0000     -10.335485      -281.2428
  33   2.0000     -10.333419      -281.1866
  34   2.0000     -10.325409      -280.9687
  35   2.0000     -10.323278      -280.9107
  36   2.0000     -10.322897      -280.9003
  37   2.0000     -10.322540      -280.8906
  38   2.0000     -10.319320      -280.8030
  39   2.0000     -10.317039      -280.7409
  40   2.0000     -10.314168      -280.6628
  41   2.0000     -10.310177      -280.5542
  42   2.0000     -10.308975      -280.5215
  43   2.0000     -10.306259      -280.4476
  44   2.0000     -10.304537      -280.4007
  45   2.0000     -10.304421      -280.3976
  46   2.0000     -10.302947      -280.3574
  47   2.0000     -10.302681      -280.3502
  48   2.0000     -10.301946      -280.3302
  49   2.0000     -10.300499      -280.2908
  50   2.0000     -10.299717      -280.2695
  51   2.0000     -10.299077      -280.2521
  52   2.0000     -10.298402      -280.2338
  53   2.0000     -10.298269      -280.2302
  54   2.0000     -10.297952      -280.2215
  55   2.0000     -10.297040      -280.1967
  56   2.0000     -10.296274      -280.1758
  57   2.0000     -10.295252      -280.1480
  58   2.0000     -10.289966      -280.0042
  59   2.0000     -10.269521      -279.4479
  60   2.0000     -10.266991      -279.3790
  61   2.0000     -10.266007      -279.3523
  62   2.0000     -10.264149      -279.3017
  63   2.0000      -8.060213      -219.3296
  64   2.0000      -6.029037      -164.0584
  65   2.0000      -6.025795      -163.9702
  66   2.0000      -6.021281      -163.8474
  67   2.0000      -1.330339       -36.2004
  68   2.0000      -1.309044       -35.6209
  69   2.0000      -1.307121       -35.5686
  70   2.0000      -1.244893       -33.8753
  71   2.0000      -1.178870       -32.0787
  72   2.0000      -1.174784       -31.9675
  73   2.0000      -1.171342       -31.8738
  74   2.0000      -1.148605       -31.2551
  75   2.0000      -1.138877       -30.9904
  76   2.0000      -1.133776       -30.8516
  77   2.0000      -1.131117       -30.7793
  78   2.0000      -1.068886       -29.0859
  79   2.0000      -1.060161       -28.8484
  80   2.0000      -1.029803       -28.0224
  81   2.0000      -1.010075       -27.4855
  82   2.0000      -1.009960       -27.4824
  83   2.0000      -0.999182       -27.1891
  84   2.0000      -0.998484       -27.1701
  85   2.0000      -0.995107       -27.0782
  86   2.0000      -0.961832       -26.1728
  87   2.0000      -0.942829       -25.6557
  88   2.0000      -0.936412       -25.4811
  89   2.0000      -0.930511       -25.3205
  90   2.0000      -0.921653       -25.0795
  91   2.0000      -0.918868       -25.0037
  92   2.0000      -0.907178       -24.6856
  93   2.0000      -0.902394       -24.5554
  94   2.0000      -0.895621       -24.3711
  95   2.0000      -0.885191       -24.0873
  96   2.0000      -0.877274       -23.8718
  97   2.0000      -0.871430       -23.7128
  98   2.0000      -0.859487       -23.3878
  99   2.0000      -0.835768       -22.7424
 100   2.0000      -0.824668       -22.4403
 101   2.0000      -0.810724       -22.0609
 102   2.0000      -0.806899       -21.9568
 103   2.0000      -0.796352       -21.6698
 104   2.0000      -0.791490       -21.5375
 105   2.0000      -0.779304       -21.2059
 106   2.0000      -0.771395       -20.9907
 107   2.0000      -0.767566       -20.8865
 108   2.0000      -0.764933       -20.8149
 109   2.0000      -0.763159       -20.7666
 110   2.0000      -0.748217       -20.3600
 111   2.0000      -0.745209       -20.2782
 112   2.0000      -0.737596       -20.0710
 113   2.0000      -0.725459       -19.7407
 114   2.0000      -0.715201       -19.4616
 115   2.0000      -0.713130       -19.4053
 116   2.0000      -0.704617       -19.1736
 117   2.0000      -0.699833       -19.0434
 118   2.0000      -0.693433       -18.8693
 119   2.0000      -0.677926       -18.4473
 120   2.0000      -0.661002       -17.9868
 121   2.0000      -0.655971       -17.8499
 122   2.0000      -0.649972       -17.6866
 123   2.0000      -0.647205       -17.6114
 124   2.0000      -0.646467       -17.5913
 125   2.0000      -0.639855       -17.4113
 126   2.0000      -0.638517       -17.3749
 127   2.0000      -0.632795       -17.2192
 128   2.0000      -0.629513       -17.1299
 129   2.0000      -0.623021       -16.9533
 130   2.0000      -0.619711       -16.8632
 131   2.0000      -0.615716       -16.7545
 132   2.0000      -0.612121       -16.6567
 133   2.0000      -0.610381       -16.6093
 134   2.0000      -0.606088       -16.4925
 135   2.0000      -0.604843       -16.4586
 136   2.0000      -0.602599       -16.3976
 137   2.0000      -0.601024       -16.3547
 138   2.0000      -0.595616       -16.2075
 139   2.0000      -0.591578       -16.0977
 140   2.0000      -0.580720       -15.8022
 141   2.0000      -0.580190       -15.7878
 142   2.0000      -0.578660       -15.7461
 143   2.0000      -0.576300       -15.6819
 144   2.0000      -0.570710       -15.5298
 145   2.0000      -0.567874       -15.4526
 146   2.0000      -0.565279       -15.3820
 147   2.0000      -0.562887       -15.3169
 148   2.0000      -0.558574       -15.1996
 149   2.0000      -0.557739       -15.1769
 150   2.0000      -0.553139       -15.0517
 151   2.0000      -0.547524       -14.8989
 152   2.0000      -0.542193       -14.7538
 153   2.0000      -0.540306       -14.7025
 154   2.0000      -0.536809       -14.6073
 155   2.0000      -0.535487       -14.5713
 156   2.0000      -0.534175       -14.5356
 157   2.0000      -0.532504       -14.4902
 158   2.0000      -0.527810       -14.3624
 159   2.0000      -0.523120       -14.2348
 160   2.0000      -0.519906       -14.1474
 161   2.0000      -0.517486       -14.0815
 162   2.0000      -0.515492       -14.0272
 163   2.0000      -0.513975       -13.9860
 164   2.0000      -0.511369       -13.9151
 165   2.0000      -0.508565       -13.8388
 166   2.0000      -0.503902       -13.7119
 167   2.0000      -0.499466       -13.5912
 168   2.0000      -0.496549       -13.5118
 169   2.0000      -0.494418       -13.4538
 170   2.0000      -0.489329       -13.3153
 171   2.0000      -0.488285       -13.2869
 172   2.0000      -0.483317       -13.1517
 173   2.0000      -0.480337       -13.0706
 174   2.0000      -0.477462       -12.9924
 175   2.0000      -0.475149       -12.9295
 176   2.0000      -0.473118       -12.8742
 177   2.0000      -0.472170       -12.8484
 178   2.0000      -0.471094       -12.8191
 179   2.0000      -0.467746       -12.7280
 180   2.0000      -0.466157       -12.6848
 181   2.0000      -0.464541       -12.6408
 182   2.0000      -0.459462       -12.5026
 183   2.0000      -0.457665       -12.4537
 184   2.0000      -0.454673       -12.3723
 185   2.0000      -0.451000       -12.2723
 186   2.0000      -0.445119       -12.1123
 187   2.0000      -0.442051       -12.0288
 188   2.0000      -0.439366       -11.9557
 189   2.0000      -0.432780       -11.7765
 190   2.0000      -0.427815       -11.6414
 191   2.0000      -0.425149       -11.5689
 192   2.0000      -0.422144       -11.4871
 193   2.0000      -0.415135       -11.2964
 194   2.0000      -0.407136       -11.0787
 195   2.0000      -0.406383       -11.0582
 196   2.0000      -0.402149       -10.9430
 197   2.0000      -0.397804       -10.8248
 198   2.0000      -0.396491       -10.7891
 199   2.0000      -0.393094       -10.6966
 200   2.0000      -0.391462       -10.6522
 201   2.0000      -0.390582       -10.6283
 202   2.0000      -0.386060       -10.5052
 203   2.0000      -0.383692       -10.4408
 204   2.0000      -0.380546       -10.3552
 205   2.0000      -0.377917       -10.2837
 206   2.0000      -0.375799       -10.2260
 207   2.0000      -0.368735       -10.0338
 208   2.0000      -0.365768        -9.9530
 209   2.0000      -0.360010        -9.7964
 210   2.0000      -0.358318        -9.7503
 211   2.0000      -0.355453        -9.6724
 212   2.0000      -0.352150        -9.5825
 213   2.0000      -0.348563        -9.4849
 214   2.0000      -0.336312        -9.1515
 215   2.0000      -0.331272        -9.0144
 216   2.0000      -0.326176        -8.8757
 217   2.0000      -0.319367        -8.6904
 218   2.0000      -0.309260        -8.4154
 219   2.0000      -0.283249        -7.7076
 220   2.0000      -0.243408        -6.6235
 221   0.0000      -0.103329        -2.8117
 222   0.0000      -0.098567        -2.6822
 223   0.0000      -0.078333        -2.1316
 224   0.0000      -0.062659        -1.7050
 225   0.0000      -0.049446        -1.3455

MULLIKEN ATOMIC CHARGES
-----------------------
   0 C :   -0.017909
   1 C :    0.011105
   2 N :    0.061649
   3 O :   -0.097774
   4 N :    0.049036
   5 C :   -0.039591
   6 C :   -0.000452
   7 C :    0.024209
   8 C :    0.036484
   9 C :    0.004109
  10 C :    0.044673
  11 C :    0.033684
  12 O :   -0.112931
  13 S :    0.023123
  14 C :    0.025160
  15 O :   -0.118050
  16 C :    0.030658
  17 C :    0.048574
  18 C :   -0.062584
  19 C :   -0.057847
  20 C :    0.246506
  21 O :   -0.096565
  22 O :   -0.230633
  23 C :    0.235893
  24 O :   -0.086394
  25 C :   -0.067000
  26 C :    0.061279
  27 C :    0.093498
  28 N :   -0.253512
  29 C :    0.093597
  30 C :    0.002847
  31 C :    0.167069
  32 O :   -0.213647
  33 C :   -0.075539
  34 C :   -0.055070
  35 C :    0.172847
  36 O :   -0.200362
  37 N :   -0.259427
  38 C :    0.098482
  39 C :    0.003435
  40 C :    0.137777
  41 C :    0.001701
  42 C :    0.008795
  43 C :    0.103053
  44 C :   -0.061410
  45 C :    0.137826
  46 N :    0.244660
  47 O :   -0.219922
  48 O :   -0.234830
  49 C :    0.092690
  50 C :   -0.041917
  51 C :    0.022761
  52 C :   -0.026848
  53 C :    0.002105
  54 C :    0.097830
  55 C :   -0.068344
  56 N :    0.035924
  57 O :   -0.100481
  58 N :    0.055864
  59 C :    0.016812
  60 C :   -0.028847
  61 C :    0.050283
  62 C :   -0.051581
  63 H :   -0.002838
  64 H :   -0.015608
  65 H :    0.004997
  66 H :    0.056186
  67 H :   -0.018867
  68 H :    0.031558
  69 H :    0.045942
  70 H :    0.015070
  71 H :    0.025107
  72 H :    0.031245
  73 H :    0.047208
  74 H :    0.024066
  75 H :    0.032276
  76 H :    0.024851
  77 H :    0.013908
  78 H :   -0.032691
  79 H :    0.012471
  80 H :    0.020571
  81 H :   -0.008943
  82 H :   -0.017567
  83 H :    0.012899
  84 H :    0.003254
  85 H :   -0.005696
  86 H :    0.003521
  87 H :    0.000555
Sum of atomic charges:   -0.0000000

LOEWDIN ATOMIC CHARGES
----------------------
   0 C :   -0.000406
   1 C :   -0.055677
   2 N :   -0.018722
   3 O :    0.083037
   4 N :   -0.038972
   5 C :   -0.047237
   6 C :   -0.030893
   7 C :    0.020876
   8 C :   -0.004984
   9 C :    0.031563
  10 C :   -0.045832
  11 C :   -0.048750
  12 O :   -0.105513
  13 S :    0.308406
  14 C :   -0.043085
  15 O :   -0.107557
  16 C :   -0.057230
  17 C :    0.035107
  18 C :   -0.038910
  19 C :   -0.029964
  20 C :    0.107640
  21 O :   -0.091288
  22 O :   -0.053842
  23 C :    0.109750
  24 O :   -0.081749
  25 C :    0.000661
  26 C :    0.002067
  27 C :    0.068036
  28 N :    0.004088
  29 C :    0.036720
  30 C :   -0.060930
  31 C :    0.078964
  32 O :   -0.203965
  33 C :   -0.125382
  34 C :   -0.108688
  35 C :    0.084981
  36 O :   -0.188232
  37 N :   -0.000114
  38 C :    0.036535
  39 C :   -0.061275
  40 C :    0.085085
  41 C :   -0.049529
  42 C :    0.040578
  43 C :   -0.030795
  44 C :    0.020657
  45 C :   -0.024145
  46 N :    0.285725
  47 O :   -0.187621
  48 O :   -0.201512
  49 C :    0.000561
  50 C :   -0.003173
  51 C :    0.012820
  52 C :   -0.015064
  53 C :    0.001638
  54 C :   -0.025864
  55 C :   -0.053258
  56 N :   -0.034026
  57 O :    0.076671
  58 N :   -0.024307
  59 C :   -0.060079
  60 C :   -0.013526
  61 C :   -0.005454
  62 C :    0.001961
  63 H :    0.042878
  64 H :    0.034950
  65 H :    0.037924
  66 H :    0.044732
  67 H :    0.028615
  68 H :    0.025689
  69 H :    0.038745
  70 H :    0.021719
  71 H :    0.031356
  72 H :    0.032931
  73 H :    0.039526
  74 H :    0.023081
  75 H :    0.033355
  76 H :    0.031100
  77 H :    0.021277
  78 H :    0.025551
  79 H :    0.039426
  80 H :    0.047653
  81 H :    0.035867
  82 H :    0.031799
  83 H :    0.027070
  84 H :    0.032055
  85 H :    0.041019
  86 H :    0.037586
  87 H :    0.037518

  Mayer bond orders larger than 0.100000
B(  0-C ,  1-C ) :   1.1584 B(  0-C ,  6-C ) :   0.1077 B(  0-C ,  8-C ) :   1.5425
B(  0-C , 63-H ) :   1.0247 B(  1-C ,  2-N ) :   1.5892 B(  1-C ,  5-C ) :   1.1570
B(  2-N ,  3-O ) :   1.0818 B(  2-N ,  4-N ) :   0.1881 B(  3-O ,  4-N ) :   1.0650
B(  4-N ,  5-C ) :   1.6011 B(  5-C ,  6-C ) :   1.2007 B(  6-C ,  7-C ) :   1.5894
B(  6-C ,  9-C ) :   0.9411 B(  7-C ,  8-C ) :   1.1701 B(  7-C , 64-H ) :   0.9960
B(  8-C , 65-H ) :   0.9857 B(  9-C , 10-C ) :   1.4517 B(  9-C , 19-C ) :   1.3954
B( 10-C , 11-C ) :   0.8288 B( 10-C , 16-C ) :   1.2993 B( 11-C , 12-O ) :   2.1965
B( 11-C , 13-S ) :   1.0303 B( 12-O , 13-S ) :   0.1096 B( 13-S , 14-C ) :   1.0266
B( 13-S , 15-O ) :   0.1054 B( 14-C , 15-O ) :   2.1885 B( 14-C , 16-C ) :   0.8412
B( 16-C , 17-C ) :   1.3574 B( 17-C , 18-C ) :   1.3237 B( 17-C , 25-C ) :   1.0845
B( 18-C , 19-C ) :   1.3643 B( 18-C , 23-C ) :   0.9043 B( 19-C , 20-C ) :   0.8893
B( 20-C , 21-O ) :   2.2566 B( 20-C , 22-O ) :   1.0639 B( 22-O , 23-C ) :   1.0460
B( 23-C , 24-O ) :   2.2549 B( 25-C , 26-C ) :   1.6777 B( 25-C , 66-H ) :   0.9151
B( 26-C , 27-C ) :   1.1724 B( 26-C , 67-H ) :   0.9470 B( 27-C , 28-N ) :   1.1582
B( 27-C , 34-C ) :   1.3623 B( 28-N , 29-C ) :   0.9439 B( 28-N , 31-C ) :   1.0656
B( 29-C , 30-C ) :   1.1208 B( 29-C , 68-H ) :   0.9502 B( 29-C , 69-H ) :   0.9282
B( 30-C , 70-H ) :   0.9684 B( 30-C , 71-H ) :   0.9677 B( 30-C , 72-H ) :   0.9637
B( 31-C , 32-O ) :   2.0161 B( 31-C , 33-C ) :   0.9909 B( 32-O , 79-H ) :   0.1189
B( 33-C , 34-C ) :   1.2517 B( 33-C , 40-C ) :   1.3413 B( 34-C , 35-C ) :   0.9764
B( 35-C , 36-O ) :   2.0467 B( 35-C , 37-N ) :   1.0514 B( 37-N , 38-C ) :   0.9450
B( 37-N , 40-C ) :   1.1653 B( 38-C , 39-C ) :   1.1217 B( 38-C , 73-H ) :   0.9276
B( 38-C , 74-H ) :   0.9497 B( 39-C , 75-H ) :   0.9636 B( 39-C , 76-H ) :   0.9677
B( 39-C , 77-H ) :   0.9681 B( 40-C , 41-C ) :   1.1513 B( 41-C , 42-C ) :   1.6060
B( 41-C , 78-H ) :   0.9579 B( 42-C , 43-C ) :   1.0799 B( 42-C , 79-H ) :   0.9642
B( 43-C , 44-C ) :   1.2969 B( 43-C , 51-C ) :   1.2951 B( 44-C , 45-C ) :   1.3629
B( 44-C , 80-H ) :   1.0061 B( 45-C , 46-N ) :   0.8695 B( 45-C , 49-C ) :   1.3537
B( 46-N , 47-O ) :   1.5671 B( 46-N , 48-O ) :   1.5131 B( 47-O , 48-O ) :   0.2662
B( 49-C , 50-C ) :   1.3159 B( 49-C , 52-C ) :   1.0803 B( 50-C , 51-C ) :   1.4383
B( 50-C , 81-H ) :   0.9875 B( 51-C , 82-H ) :   0.9910 B( 52-C , 53-C ) :   1.6773
B( 52-C , 83-H ) :   0.9635 B( 53-C , 54-C ) :   1.0986 B( 53-C , 84-H ) :   0.9780
B( 54-C , 55-C ) :   1.1232 B( 54-C , 60-C ) :   0.1078 B( 54-C , 62-C ) :   1.5149
B( 55-C , 56-N ) :   1.6087 B( 55-C , 59-C ) :   1.1479 B( 56-N , 57-O ) :   1.0624
B( 56-N , 58-N ) :   0.1880 B( 57-O , 58-N ) :   1.0726 B( 58-N , 59-C ) :   1.5909
B( 59-C , 60-C ) :   1.1629 B( 60-C , 61-C ) :   1.5290 B( 60-C , 85-H ) :   1.0237
B( 61-C , 62-C ) :   1.2051 B( 61-C , 86-H ) :   0.9815 B( 62-C , 87-H ) :   0.9908

-----------------------------------------------------------------------------
         ABSORPTION SPECTRUM VIA TRANSITION ELECTRIC DIPOLE MOMENTS
-----------------------------------------------------------------------------
State   Energy  Wavelength   fosc         T2         TX        TY        TZ
        (cm-1)    (nm)                  (au**2)     (au)      (au)      (au)
-----------------------------------------------------------------------------
   0   14845.1    673.6   0.286342108   6.35007  -0.27214  -2.32287  -0.93823
   1   15953.0    626.8   0.652600573  13.46731   0.05940   3.58509   0.78163
   2   22205.3    450.3   0.091186748   1.35192  -0.08912   1.08283   0.41406
   3   24141.5    414.2   0.008439629   0.11509  -0.09655   0.14746  -0.28986
   4   25902.3    386.1   0.687335536   8.73586   0.35856   2.93257   0.08553
   5   26675.4    374.9   0.118890799   1.46728   0.00146   1.15205   0.37425
   6   26971.9    370.8   0.074742865   0.91229  -0.11578  -0.94647  -0.05551
   7   27564.8    362.8   0.023751692   0.28367  -0.27260  -0.21786  -0.40236
   8   28691.9    348.5   0.093472473   1.07251  -0.32974  -0.96778   0.16487
   9   28734.7    348.0   0.006782844   0.07771   0.09055   0.26348  -0.00961
  10   29235.5    342.0   0.052354237   0.58954   0.25356   0.67925  -0.25273
  11   30187.7    331.3   0.151885928   1.65639   0.24325   1.26088  -0.08610
  12   31043.6    322.1   0.064511333   0.68413   0.54203  -0.00645  -0.62474
  13   31674.3    315.7   0.030980995   0.32201   0.39288   0.15806  -0.37771
  14   31934.5    313.1   0.075336710   0.77664   0.23696   0.82525  -0.19865
  15   32492.7    307.8   0.011599395   0.11752  -0.12340  -0.25737  -0.18989
  16   32718.7    305.6   0.172864045   1.73934   0.31110   1.22238  -0.38516
  17   32890.1    304.0   0.019793091   0.19812   0.11511   0.29825  -0.30970
  18   32942.8    303.6   0.018460202   0.18448   0.11485   0.27531  -0.30902
  19   33243.5    300.8   0.007463044   0.07391  -0.19844  -0.07747   0.16890
  20   33779.7    296.0   0.021342824   0.20800  -0.05106   0.43924  -0.11163
  21   33906.1    294.9   0.022550966   0.21896   0.23141   0.26658   0.30715
  22   34372.1    290.9   0.004328758   0.04146  -0.01165   0.16140  -0.12358
  23   34460.1    290.2   0.121383311   1.15963   0.46322   0.97148   0.03572
  24   35423.1    282.3   0.006180054   0.05744  -0.03694  -0.16617   0.16870
  25   35647.3    280.5   0.126939639   1.17232  -0.70096  -0.31280   0.76363
  26   36203.3    276.2   0.053700121   0.48832  -0.08901  -0.67959  -0.13618
  27   37254.3    268.4   0.132147736   1.16777  -0.32321  -1.00224   0.24252
  28   37410.5    267.3   0.012197570   0.10734   0.07549  -0.31840   0.01609
  29   38017.5    263.0   0.022715717   0.19671   0.04597   0.41692  -0.14412
  30   38200.5    261.8   0.056264528   0.48489  -0.38725  -0.44355   0.37174
  31   38451.1    260.1   0.005142169   0.04403  -0.02898  -0.17018   0.11927
  32   38777.2    257.9   0.106139268   0.90110   0.27822   0.90191   0.10129
  33   39430.5    253.6   0.023900562   0.19955   0.04023   0.41325  -0.16478
  34   39764.6    251.5   0.013041854   0.10797  -0.11498   0.19513  -0.23807
  35   39908.5    250.6   0.014249431   0.11755   0.17375   0.29437   0.02653
  36   39941.4    250.4   0.097842712   0.80646  -0.25315  -0.84652   0.16056
  37   40200.9    248.8   0.119227934   0.97638  -0.17099   0.85896  -0.45751

FINAL SINGLE POINT ENERGY     -3296.782593358114

DIPOLE MOMENT
-------------
                                X             Y             Z
Electronic contribution:      5.42216      45.25099       5.07076
Nuclear contribution   :     -4.32981     -45.64419      -4.93516
                        -----------------------------------------
Total Dipole Moment    :      1.09235      -0.39320       0.13560
                        -----------------------------------------
Magnitude (a.u.)       :      1.16885
Magnitude (Debye)      :      2.97099

Rotational constants in cm-1:     0.003836     0.000298     0.000291
Rotational constants in MHz :   115.008350     8.922494     8.717703

                             ****ORCA TERMINATED NORMALLY****
TOTAL RUN TIME: 0 days 0 hours 6 minutes 53 seconds 995 msec
