                         Program Version 4.2.0 -  RELEASE  -
|  1> # ORCA input file
|  2> # SCF done       -181.793963942519          0.000860357894
|  3> ! CAM-B3LYP def2-SVP def2/J RIJCOSX Grid4 TightSCF
|  4> %maxcore 5000
|  5> %tddft
|  6>     Mode sTDDFT
|  7>     Ethresh 5.0
|  8>     maxcore 5000
|  9> end
| 10>
| 11> %pal
| 12>   nprocs 6
| 13>   end
| 14> * xyz 0 1
| 15>    C        1.05826         0.52742        -0.46717
| 16>    O       -0.03217         0.24307        -0.89141
| 17>    C        1.73356         1.83936        -0.58785
| 18>    C        2.93229         1.83535         0.14619
| 19>    C        3.71722         2.97777         0.18173
| 20>    C        3.29275         4.09980        -0.51968
| 21>    C        2.09898         4.09312        -1.24692
| 22>    C        1.30601         2.95374        -1.27971
| 23>   Br        1.54792         5.63309        -2.19007
| 24>   Br        4.36230         5.65675        -0.47086
| 25>    C        3.11005         0.52387         0.76238
| 26>    C        4.19745         0.12842         1.49275
| 27>    C        5.29829         0.96311         1.78802
| 28>    N        6.21683         1.59306         2.06223
| 29>    C        4.38747        -1.15863         2.04256
| 30>    N        4.61621        -2.17930         2.51494
| 31>    C        1.96329        -0.29190         0.39517
| 32>    C        1.67645        -1.53417         0.86387
| 33>    C        0.65115        -2.38467         0.37146
| 34>    S       -0.03704        -3.65893         1.38508
| 35>    C       -0.98425        -4.08610        -0.03268
| 36>    N       -0.70652        -3.32537        -1.06215
| 37>    N        0.17146        -2.40921        -0.83912
| 38>    C       -1.93934        -5.13593        -0.01623
| 39>    C       -2.62329        -5.48394        -1.13571
| 40>    C       -3.60979        -6.48590        -1.31894
| 41>    N       -4.23668        -7.29749        -0.39879
| 42>    C       -4.13882        -7.28196         1.04126
| 43>    C       -4.81543        -6.05569         1.64848
| 44>    C       -5.16440        -8.16817        -1.01605
| 45>    O       -5.84195        -8.96888        -0.40839
| 46>    C       -5.06440        -7.85704        -2.42276
| 47>    C       -4.11656        -6.82678        -2.57448
| 48>    C       -4.00986        -6.53267        -3.98836
| 49>    O       -3.33106        -5.74950        -4.61054
| 50>    N       -4.92718        -7.42389        -4.60226
| 51>    C       -5.10149        -7.37620        -6.03383
| 52>    C       -6.32590        -6.55428        -6.43110
| 53>    C       -5.56592        -8.21311        -3.67689
| 54>    C       -6.54276        -9.22763        -3.83499
| 55>    C       -7.17718        -9.65879        -4.95548
| 56>    C       -8.14980       -10.69349        -4.96067
| 57>    S       -8.92712       -11.12431        -6.45797
| 58>    C       -9.89371       -12.34317        -5.69176
| 59>    C       -9.60203       -12.39562        -4.32145
| 60>    C       -8.62866       -11.47175        -3.92236
| 61>    C      -10.20988       -13.26633        -3.39862
| 62>    N      -10.69230       -13.94676        -2.61115
| 63>    C      -10.78646       -13.11118        -6.47362
| 64>    C      -11.55658       -14.12954        -6.00686
| 65>    C      -12.40268       -14.89773        -6.83646
| 66>    C      -13.01689       -16.06333        -6.48677
| 67>    C      -14.17471       -16.57076        -7.26852
| 68>    O      -14.53398       -16.20400        -8.36170
| 69>    C      -14.81583       -17.57257        -6.38762
| 70>    C      -14.04078       -17.74402        -5.22466
| 71>    C      -12.83635       -16.92112        -5.33353
| 72>    C      -11.68108       -17.10866        -4.62306
| 73>    C      -10.44322       -16.51313        -4.95012
| 74>    N       -9.40335       -16.10513        -5.21259
| 75>    C      -11.56244       -18.02643        -3.55638
| 76>    N      -11.42721       -18.76175        -2.68697
| 77>    C      -14.46892       -18.60972        -4.23296
| 78>    C      -15.66130       -19.29969        -4.42229
| 79>    C      -16.41601       -19.13673        -5.58644
| 80>    C      -15.99410       -18.26347        -6.58085
| 81>   Br      -18.02555       -20.09789        -5.82165
| 82>   Br      -16.25603       -20.47337        -3.06638
| 83>    H        4.64052         3.02389         0.73602
| 84>    H        0.38065         2.93388        -1.83432
| 85>    H        2.25769        -1.94690         1.67810
| 86>    H       -2.07071        -5.63025         0.93224
| 87>    H       -2.38448        -4.94505        -2.04465
| 88>    H       -3.09177        -7.35696         1.34492
| 89>    H       -4.65753        -8.18539         1.37727
| 90>    H       -4.37641        -5.13396         1.27382
| 91>    H       -4.71465        -6.07905         2.72997
| 92>    H       -5.87379        -6.05800         1.39967
| 93>    H       -5.14702        -8.39246        -6.43218
| 94>    H       -4.20284        -6.89017        -6.42624
| 95>    H       -7.23150        -6.94189        -5.96941
| 96>    H       -6.44572        -6.56940        -7.51084
| 97>    H       -6.19318        -5.52364        -6.11211
| 98>    H       -6.79634        -9.68992        -2.88983
| 99>    H       -6.97874        -9.21866        -5.91988
|100>    H       -8.29116       -11.38576        -2.90520
|101>    H      -10.80504       -12.88186        -7.53182
|102>    H      -11.53605       -14.36549        -4.95430
|103>    H      -12.64687       -14.50834        -7.81884
|104>    H      -13.91335       -18.75424        -3.32030
|105>    H      -16.57191       -18.12733        -7.48183
|106> *
|107>
|108>                          ****END OF INPUT****

CARTESIAN COORDINATES (ANGSTROEM)
---------------------------------
  C      1.058260    0.527420   -0.467170
  O     -0.032170    0.243070   -0.891410
  C      1.733560    1.839360   -0.587850
  C      2.932290    1.835350    0.146190
  C      3.717220    2.977770    0.181730
  C      3.292750    4.099800   -0.519680
  C      2.098980    4.093120   -1.246920
  C      1.306010    2.953740   -1.279710
  Br     1.547920    5.633090   -2.190070
  Br     4.362300    5.656750   -0.470860
  C      3.110050    0.523870    0.762380
  C      4.197450    0.128420    1.492750
  C      5.298290    0.963110    1.788020
  N      6.216830    1.593060    2.062230
  C      4.387470   -1.158630    2.042560
  N      4.616210   -2.179300    2.514940
  C      1.963290   -0.291900    0.395170
  C      1.676450   -1.534170    0.863870
  C      0.651150   -2.384670    0.371460
  S     -0.037040   -3.658930    1.385080
  C     -0.984250   -4.086100   -0.032680
  N     -0.706520   -3.325370   -1.062150
  N      0.171460   -2.409210   -0.839120
  C     -1.939340   -5.135930   -0.016230
  C     -2.623290   -5.483940   -1.135710
  C     -3.609790   -6.485900   -1.318940
  N     -4.236680   -7.297490   -0.398790
  C     -4.138820   -7.281960    1.041260
  C     -4.815430   -6.055690    1.648480
  C     -5.164400   -8.168170   -1.016050
  O     -5.841950   -8.968880   -0.408390
  C     -5.064400   -7.857040   -2.422760
  C     -4.116560   -6.826780   -2.574480
  C     -4.009860   -6.532670   -3.988360
  O     -3.331060   -5.749500   -4.610540
  N     -4.927180   -7.423890   -4.602260
  C     -5.101490   -7.376200   -6.033830
  C     -6.325900   -6.554280   -6.431100
  C     -5.565920   -8.213110   -3.676890
  C     -6.542760   -9.227630   -3.834990
  C     -7.177180   -9.658790   -4.955480
  C     -8.149800  -10.693490   -4.960670
  S     -8.927120  -11.124310   -6.457970
  C     -9.893710  -12.343170   -5.691760
  C     -9.602030  -12.395620   -4.321450
  C     -8.628660  -11.471750   -3.922360
  C    -10.209880  -13.266330   -3.398620
  N    -10.692300  -13.946760   -2.611150
  C    -10.786460  -13.111180   -6.473620
  C    -11.556580  -14.129540   -6.006860
  C    -12.402680  -14.897730   -6.836460
  C    -13.016890  -16.063330   -6.486770
  C    -14.174710  -16.570760   -7.268520
  O    -14.533980  -16.204000   -8.361700
  C    -14.815830  -17.572570   -6.387620
  C    -14.040780  -17.744020   -5.224660
  C    -12.836350  -16.921120   -5.333530
  C    -11.681080  -17.108660   -4.623060
  C    -10.443220  -16.513130   -4.950120
  N     -9.403350  -16.105130   -5.212590
  C    -11.562440  -18.026430   -3.556380
  N    -11.427210  -18.761750   -2.686970
  C    -14.468920  -18.609720   -4.232960
  C    -15.661300  -19.299690   -4.422290
  C    -16.416010  -19.136730   -5.586440
  C    -15.994100  -18.263470   -6.580850
  Br   -18.025550  -20.097890   -5.821650
  Br   -16.256030  -20.473370   -3.066380
  H      4.640520    3.023890    0.736020
  H      0.380650    2.933880   -1.834320
  H      2.257690   -1.946900    1.678100
  H     -2.070710   -5.630250    0.932240
  H     -2.384480   -4.945050   -2.044650
  H     -3.091770   -7.356960    1.344920
  H     -4.657530   -8.185390    1.377270
  H     -4.376410   -5.133960    1.273820
  H     -4.714650   -6.079050    2.729970
  H     -5.873790   -6.058000    1.399670
  H     -5.147020   -8.392460   -6.432180
  H     -4.202840   -6.890170   -6.426240
  H     -7.231500   -6.941890   -5.969410
  H     -6.445720   -6.569400   -7.510840
  H     -6.193180   -5.523640   -6.112110
  H     -6.796340   -9.689920   -2.889830
  H     -6.978740   -9.218660   -5.919880
  H     -8.291160  -11.385760   -2.905200
  H    -10.805040  -12.881860   -7.531820
  H    -11.536050  -14.365490   -4.954300
  H    -12.646870  -14.508340   -7.818840
  H    -13.913350  -18.754240   -3.320300
  H    -16.571910  -18.127330   -7.481830

 Total Charge           Charge          ....    0
 Multiplicity           Mult            ....    1
 Number of Electrons    NEL             ....  584
 Basis Dimension        Dim             .... 1147

ORBITAL ENERGIES
----------------

  NO   OCC          E(Eh)            E(eV)
   0   2.0000    -482.881202    -13139.8655
   1   2.0000    -482.879705    -13139.8248
   2   2.0000    -482.878887    -13139.8025
   3   2.0000    -482.877359    -13139.7610
   4   2.0000     -88.995084     -2421.6794
   5   2.0000     -88.988587     -2421.5026
   6   2.0000     -62.558833     -1702.3124
   7   2.0000     -62.557321     -1702.2712
   8   2.0000     -62.556490     -1702.2486
   9   2.0000     -62.554991     -1702.2078
  10   2.0000     -56.392783     -1534.5256
  11   2.0000     -56.391287     -1534.4849
  12   2.0000     -56.390441     -1534.4619
  13   2.0000     -56.390132     -1534.4535
  14   2.0000     -56.390026     -1534.4506
  15   2.0000     -56.388955     -1534.4215
  16   2.0000     -56.388610     -1534.4121
  17   2.0000     -56.388513     -1534.4095
  18   2.0000     -56.387786     -1534.3897
  19   2.0000     -56.387694     -1534.3871
  20   2.0000     -56.386280     -1534.3487
  21   2.0000     -56.386182     -1534.3460
  22   2.0000     -19.226960      -523.1922
  23   2.0000     -19.226213      -523.1718
  24   2.0000     -19.204760      -522.5881
  25   2.0000     -19.200185      -522.4636
  26   2.0000     -14.466552      -393.6549
  27   2.0000     -14.463735      -393.5782
  28   2.0000     -14.455919      -393.3656
  29   2.0000     -14.450648      -393.2221
  30   2.0000     -14.430980      -392.6869
  31   2.0000     -14.428077      -392.6079
  32   2.0000     -14.423613      -392.4865
  33   2.0000     -14.421795      -392.4370
  34   2.0000     -14.421716      -392.4349
  35   2.0000     -10.387688      -282.6634
  36   2.0000     -10.383990      -282.5627
  37   2.0000     -10.379057      -282.4285
  38   2.0000     -10.377858      -282.3959
  39   2.0000     -10.360586      -281.9259
  40   2.0000     -10.360393      -281.9206
  41   2.0000     -10.359318      -281.8914
  42   2.0000     -10.358853      -281.8787
  43   2.0000     -10.356931      -281.8264
  44   2.0000     -10.356674      -281.8194
  45   2.0000     -10.356619      -281.8179
  46   2.0000     -10.356021      -281.8016
  47   2.0000     -10.355862      -281.7973
  48   2.0000     -10.355641      -281.7913
  49   2.0000     -10.351192      -281.6703
  50   2.0000     -10.351121      -281.6683
  51   2.0000     -10.347777      -281.5773
  52   2.0000     -10.339807      -281.3605
  53   2.0000     -10.337545      -281.2989
  54   2.0000     -10.336428      -281.2685
  55   2.0000     -10.332673      -281.1663
  56   2.0000     -10.329736      -281.0864
  57   2.0000     -10.324927      -280.9556
  58   2.0000     -10.324792      -280.9519
  59   2.0000     -10.324625      -280.9473
  60   2.0000     -10.323856      -280.9264
  61   2.0000     -10.323754      -280.9236
  62   2.0000     -10.323076      -280.9052
  63   2.0000     -10.322918      -280.9009
  64   2.0000     -10.322084      -280.8782
  65   2.0000     -10.320246      -280.8282
  66   2.0000     -10.319563      -280.8096
  67   2.0000     -10.317298      -280.7479
  68   2.0000     -10.316609      -280.7292
  69   2.0000     -10.316182      -280.7176
  70   2.0000     -10.315491      -280.6988
  71   2.0000     -10.314949      -280.6840
  72   2.0000     -10.314136      -280.6619
  73   2.0000     -10.313787      -280.6524
  74   2.0000     -10.312100      -280.6065
  75   2.0000     -10.311168      -280.5811
  76   2.0000     -10.309265      -280.5293
  77   2.0000     -10.308811      -280.5170
  78   2.0000     -10.307556      -280.4829
  79   2.0000     -10.307391      -280.4784
  80   2.0000     -10.277812      -279.6735
  81   2.0000     -10.275030      -279.5978
  82   2.0000     -10.274373      -279.5799
  83   2.0000     -10.272133      -279.5189
  84   2.0000      -8.788175      -239.1384
  85   2.0000      -8.786642      -239.0967
  86   2.0000      -8.785811      -239.0741
  87   2.0000      -8.784326      -239.0337
  88   2.0000      -8.090866      -220.1637
  89   2.0000      -8.084912      -220.0016
  90   2.0000      -6.624319      -180.2569
  91   2.0000      -6.622828      -180.2163
  92   2.0000      -6.621950      -180.1924
  93   2.0000      -6.620523      -180.1536
  94   2.0000      -6.610312      -179.8757
  95   2.0000      -6.609482      -179.8532
  96   2.0000      -6.608733      -179.8328
  97   2.0000      -6.607953      -179.8115
  98   2.0000      -6.607930      -179.8109
  99   2.0000      -6.607144      -179.7895
 100   2.0000      -6.606425      -179.7700
 101   2.0000      -6.605621      -179.7481
 102   2.0000      -6.059901      -164.8983
 103   2.0000      -6.055950      -164.7908
 104   2.0000      -6.053462      -164.7231
 105   2.0000      -6.053233      -164.7169
 106   2.0000      -6.050234      -164.6352
 107   2.0000      -6.047362      -164.5571
 108   2.0000      -2.740217       -74.5651
 109   2.0000      -2.738743       -74.5250
 110   2.0000      -2.737829       -74.5001
 111   2.0000      -2.736486       -74.4636
 112   2.0000      -2.736371       -74.4604
 113   2.0000      -2.735820       -74.4454
 114   2.0000      -2.734930       -74.4212
 115   2.0000      -2.734319       -74.4046
 116   2.0000      -2.734070       -74.3978
 117   2.0000      -2.733514       -74.3827
 118   2.0000      -2.732630       -74.3586
 119   2.0000      -2.732047       -74.3428
 120   2.0000      -2.724692       -74.1426
 121   2.0000      -2.724668       -74.1420
 122   2.0000      -2.723126       -74.1000
 123   2.0000      -2.723101       -74.0993
 124   2.0000      -2.722326       -74.0783
 125   2.0000      -2.722311       -74.0779
 126   2.0000      -2.720809       -74.0370
 127   2.0000      -2.720783       -74.0363
 128   2.0000      -1.161483       -31.6056
 129   2.0000      -1.145939       -31.1826
 130   2.0000      -1.143240       -31.1091
 131   2.0000      -1.142264       -31.0826
 132   2.0000      -1.138079       -30.9687
 133   2.0000      -1.075090       -29.2547
 134   2.0000      -1.065147       -28.9841
 135   2.0000      -1.034424       -28.1481
 136   2.0000      -1.031454       -28.0673
 137   2.0000      -1.028906       -27.9980
 138   2.0000      -1.017531       -27.6884
 139   2.0000      -1.011995       -27.5378
 140   2.0000      -1.007545       -27.4167
 141   2.0000      -1.003260       -27.3001
 142   2.0000      -0.999964       -27.2104
 143   2.0000      -0.986741       -26.8506
 144   2.0000      -0.982002       -26.7216
 145   2.0000      -0.961847       -26.1732
 146   2.0000      -0.948090       -25.7988
 147   2.0000      -0.943830       -25.6829
 148   2.0000      -0.941327       -25.6148
 149   2.0000      -0.928734       -25.2721
 150   2.0000      -0.928198       -25.2576
 151   2.0000      -0.922635       -25.1062
 152   2.0000      -0.917571       -24.9684
 153   2.0000      -0.914327       -24.8801
 154   2.0000      -0.904133       -24.6027
 155   2.0000      -0.898166       -24.4404
 156   2.0000      -0.894074       -24.3290
 157   2.0000      -0.887073       -24.1385
 158   2.0000      -0.881457       -23.9857
 159   2.0000      -0.868948       -23.6453
 160   2.0000      -0.859614       -23.3913
 161   2.0000      -0.856053       -23.2944
 162   2.0000      -0.855828       -23.2883
 163   2.0000      -0.839414       -22.8416
 164   2.0000      -0.832028       -22.6406
 165   2.0000      -0.818169       -22.2635
 166   2.0000      -0.800147       -21.7731
 167   2.0000      -0.792509       -21.5653
 168   2.0000      -0.780310       -21.2333
 169   2.0000      -0.774721       -21.0812
 170   2.0000      -0.771694       -20.9989
 171   2.0000      -0.770553       -20.9678
 172   2.0000      -0.746124       -20.3031
 173   2.0000      -0.736496       -20.0411
 174   2.0000      -0.734985       -19.9999
 175   2.0000      -0.728704       -19.8290
 176   2.0000      -0.717551       -19.5255
 177   2.0000      -0.711952       -19.3732
 178   2.0000      -0.709094       -19.2954
 179   2.0000      -0.702368       -19.1124
 180   2.0000      -0.700072       -19.0499
 181   2.0000      -0.696104       -18.9420
 182   2.0000      -0.690351       -18.7854
 183   2.0000      -0.688526       -18.7357
 184   2.0000      -0.677938       -18.4476
 185   2.0000      -0.665746       -18.1159
 186   2.0000      -0.662501       -18.0276
 187   2.0000      -0.654822       -17.8186
 188   2.0000      -0.642339       -17.4789
 189   2.0000      -0.628595       -17.1049
 190   2.0000      -0.626449       -17.0465
 191   2.0000      -0.623859       -16.9761
 192   2.0000      -0.621693       -16.9171
 193   2.0000      -0.610808       -16.6209
 194   2.0000      -0.607008       -16.5175
 195   2.0000      -0.600192       -16.3321
 196   2.0000      -0.593854       -16.1596
 197   2.0000      -0.589431       -16.0392
 198   2.0000      -0.587484       -15.9862
 199   2.0000      -0.585026       -15.9194
 200   2.0000      -0.581702       -15.8289
 201   2.0000      -0.567272       -15.4363
 202   2.0000      -0.564556       -15.3623
 203   2.0000      -0.560884       -15.2624
 204   2.0000      -0.559853       -15.2344
 205   2.0000      -0.557219       -15.1627
 206   2.0000      -0.556142       -15.1334
 207   2.0000      -0.553780       -15.0691
 208   2.0000      -0.549980       -14.9657
 209   2.0000      -0.548724       -14.9315
 210   2.0000      -0.547751       -14.9051
 211   2.0000      -0.544052       -14.8044
 212   2.0000      -0.542189       -14.7537
 213   2.0000      -0.539568       -14.6824
 214   2.0000      -0.533023       -14.5043
 215   2.0000      -0.531067       -14.4511
 216   2.0000      -0.530472       -14.4349
 217   2.0000      -0.528896       -14.3920
 218   2.0000      -0.525167       -14.2905
 219   2.0000      -0.522127       -14.2078
 220   2.0000      -0.520068       -14.1518
 221   2.0000      -0.518226       -14.1016
 222   2.0000      -0.515438       -14.0258
 223   2.0000      -0.511843       -13.9280
 224   2.0000      -0.510114       -13.8809
 225   2.0000      -0.508220       -13.8294
 226   2.0000      -0.503150       -13.6914
 227   2.0000      -0.501489       -13.6462
 228   2.0000      -0.495142       -13.4735
 229   2.0000      -0.494509       -13.4563
 230   2.0000      -0.492943       -13.4137
 231   2.0000      -0.487713       -13.2714
 232   2.0000      -0.483853       -13.1663
 233   2.0000      -0.481120       -13.0919
 234   2.0000      -0.478071       -13.0090
 235   2.0000      -0.475596       -12.9416
 236   2.0000      -0.468886       -12.7590
 237   2.0000      -0.468824       -12.7574
 238   2.0000      -0.467632       -12.7249
 239   2.0000      -0.466788       -12.7019
 240   2.0000      -0.466312       -12.6890
 241   2.0000      -0.465167       -12.6578
 242   2.0000      -0.463504       -12.6126
 243   2.0000      -0.461773       -12.5655
 244   2.0000      -0.461438       -12.5564
 245   2.0000      -0.456388       -12.4190
 246   2.0000      -0.456047       -12.4097
 247   2.0000      -0.455577       -12.3969
 248   2.0000      -0.454358       -12.3637
 249   2.0000      -0.452168       -12.3041
 250   2.0000      -0.450103       -12.2479
 251   2.0000      -0.447740       -12.1836
 252   2.0000      -0.443967       -12.0810
 253   2.0000      -0.440805       -11.9949
 254   2.0000      -0.440334       -11.9821
 255   2.0000      -0.437839       -11.9142
 256   2.0000      -0.436128       -11.8676
 257   2.0000      -0.432568       -11.7708
 258   2.0000      -0.431675       -11.7465
 259   2.0000      -0.429840       -11.6965
 260   2.0000      -0.425497       -11.5784
 261   2.0000      -0.422860       -11.5066
 262   2.0000      -0.420820       -11.4511
 263   2.0000      -0.419566       -11.4170
 264   2.0000      -0.413344       -11.2477
 265   2.0000      -0.406898       -11.0723
 266   2.0000      -0.403731       -10.9861
 267   2.0000      -0.402688       -10.9577
 268   2.0000      -0.400347       -10.8940
 269   2.0000      -0.398301       -10.8383
 270   2.0000      -0.394064       -10.7230
 271   2.0000      -0.392073       -10.6689
 272   2.0000      -0.383488       -10.4352
 273   2.0000      -0.373731       -10.1697
 274   2.0000      -0.360015        -9.7965
 275   2.0000      -0.356386        -9.6977
 276   2.0000      -0.354266        -9.6401
 277   2.0000      -0.353326        -9.6145
 278   2.0000      -0.352413        -9.5896
 279   2.0000      -0.348176        -9.4744
 280   2.0000      -0.347822        -9.4647
 281   2.0000      -0.343881        -9.3575
 282   2.0000      -0.343208        -9.3392
 283   2.0000      -0.340380        -9.2622
 284   2.0000      -0.334247        -9.0953
 285   2.0000      -0.329243        -8.9591
 286   2.0000      -0.328668        -8.9435
 287   2.0000      -0.319565        -8.6958
 288   2.0000      -0.314654        -8.5622
 289   2.0000      -0.309288        -8.4161
 290   2.0000      -0.291340        -7.9278
 291   2.0000      -0.248184        -6.7534
 292   0.0000      -0.123755        -3.3675
 293   0.0000      -0.108279        -2.9464
 294   0.0000      -0.090584        -2.4649
 295   0.0000      -0.075345        -2.0502
 296   0.0000      -0.071152        -1.9361

MULLIKEN ATOMIC CHARGES
-----------------------
   0 C :    0.150236
   1 O :   -0.094683
   2 C :   -0.024429
   3 C :    0.037756
   4 C :   -0.007510
   5 C :   -0.024519
   6 C :   -0.014281
   7 C :   -0.016630
   8 Br:    0.020517
   9 Br:    0.025718
  10 C :    0.301664
  11 C :   -0.333746
  12 C :   -0.184033
  13 N :    0.162997
  14 C :   -0.191509
  15 N :    0.167288
  16 C :   -0.069950
  17 C :    0.040729
  18 C :   -0.123564
  19 S :    0.118602
  20 C :   -0.101000
  21 N :   -0.043927
  22 N :    0.013919
  23 C :    0.066892
  24 C :   -0.018394
  25 C :    0.119922
  26 N :   -0.274647
  27 C :    0.097828
  28 C :   -0.006460
  29 C :    0.149792
  30 O :   -0.192525
  31 C :   -0.049380
  32 C :   -0.021059
  33 C :    0.149601
  34 O :   -0.170272
  35 N :   -0.275994
  36 C :    0.099593
  37 C :   -0.003303
  38 C :    0.130408
  39 C :   -0.035470
  40 C :    0.087747
  41 C :   -0.085218
  42 S :    0.168243
  43 C :   -0.056569
  44 C :   -0.055647
  45 C :    0.022604
  46 C :   -0.154351
  47 N :    0.121101
  48 C :    0.059025
  49 C :   -0.000773
  50 C :    0.026146
  51 C :   -0.099826
  52 C :    0.142213
  53 O :   -0.130478
  54 C :   -0.005943
  55 C :    0.024946
  56 C :    0.260825
  57 C :   -0.299966
  58 C :   -0.202652
  59 N :    0.165674
  60 C :   -0.176401
  61 N :    0.164949
  62 C :   -0.006872
  63 C :   -0.023727
  64 C :   -0.016043
  65 C :   -0.021146
  66 Br:    0.016050
  67 Br:    0.024461
  68 H :    0.008043
  69 H :    0.010017
  70 H :    0.031484
  71 H :   -0.014327
  72 H :    0.043249
  73 H :    0.025619
  74 H :    0.048704
  75 H :    0.023120
  76 H :    0.026491
  77 H :    0.030076
  78 H :    0.024305
  79 H :    0.048500
  80 H :    0.018407
  81 H :    0.025942
  82 H :    0.034817
  83 H :    0.011243
  84 H :   -0.016618
  85 H :    0.020760
  86 H :    0.000327
  87 H :    0.036665
  88 H :    0.018073
  89 H :    0.012775
  90 H :    0.007774
Sum of atomic charges:   -0.0000000

LOEWDIN ATOMIC CHARGES
----------------------
   0 C :    0.078653
   1 O :   -0.098899
   2 C :   -0.039672
   3 C :   -0.014366
   4 C :   -0.006461
   5 C :   -0.118470
   6 C :   -0.120332
   7 C :    0.008504
   8 Br:    0.142981
   9 Br:    0.144383
  10 C :    0.071318
  11 C :   -0.124007
  12 C :   -0.019454
  13 N :   -0.036913
  14 C :   -0.021724
  15 N :   -0.038946
  16 C :   -0.061265
  17 C :    0.034451
  18 C :   -0.162921
  19 S :    0.402213
  20 C :   -0.133571
  21 N :   -0.066120
  22 N :   -0.020873
  23 C :   -0.050693
  24 C :    0.018134
  25 C :    0.065530
  26 N :   -0.006822
  27 C :    0.034797
  28 C :   -0.063355
  29 C :    0.079425
  30 O :   -0.194292
  31 C :   -0.115493
  32 C :   -0.100417
  33 C :    0.085097
  34 O :   -0.173011
  35 N :   -0.007638
  36 C :    0.034812
  37 C :   -0.063571
  38 C :    0.079511
  39 C :   -0.019360
  40 C :   -0.021274
  41 C :   -0.162066
  42 S :    0.478335
  43 C :   -0.143277
  44 C :   -0.084017
  45 C :   -0.007728
  46 C :   -0.020947
  47 N :   -0.045998
  48 C :   -0.001460
  49 C :   -0.011440
  50 C :    0.063994
  51 C :   -0.080877
  52 C :    0.082539
  53 O :   -0.132643
  54 C :   -0.045000
  55 C :   -0.008021
  56 C :    0.065441
  57 C :   -0.118476
  58 C :   -0.018013
  59 N :   -0.043500
  60 C :   -0.017672
  61 N :   -0.035339
  62 C :   -0.007368
  63 C :   -0.117381
  64 C :   -0.123525
  65 C :    0.007535
  66 Br:    0.138766
  67 Br:    0.144309
  68 H :    0.044788
  69 H :    0.047952
  70 H :    0.047334
  71 H :    0.030706
  72 H :    0.057525
  73 H :    0.020016
  74 H :    0.039533
  75 H :    0.022044
  76 H :    0.032159
  77 H :    0.033329
  78 H :    0.021271
  79 H :    0.039947
  80 H :    0.020441
  81 H :    0.031828
  82 H :    0.035402
  83 H :    0.047784
  84 H :    0.030137
  85 H :    0.047376
  86 H :    0.036994
  87 H :    0.038858
  88 H :    0.046061
  89 H :    0.045702
  90 H :    0.046750

  Mayer bond orders larger than 0.100000
B(  0-C ,  1-O ) :   2.2897 B(  0-C ,  2-C ) :   0.9339 B(  0-C , 16-C ) :   0.9108
B(  2-C ,  3-C ) :   1.3297 B(  2-C ,  7-C ) :   1.3737 B(  3-C ,  4-C ) :   1.3548
B(  3-C , 10-C ) :   1.0004 B(  4-C ,  5-C ) :   1.3798 B(  4-C , 68-H ) :   0.9782
B(  5-C ,  6-C ) :   1.4139 B(  5-C ,  9-Br) :   1.0600 B(  6-C ,  7-C ) :   1.3542
B(  6-C ,  8-Br) :   1.0385 B(  7-C , 69-H ) :   1.0075 B( 10-C , 11-C ) :   1.6573
B( 10-C , 16-C ) :   1.0607 B( 11-C , 12-C ) :   1.1357 B( 11-C , 14-C ) :   1.1410
B( 12-C , 13-N ) :   2.9720 B( 14-C , 15-N ) :   2.9783 B( 16-C , 17-C ) :   1.6945
B( 17-C , 18-C ) :   1.1143 B( 17-C , 70-H ) :   0.9233 B( 18-C , 19-S ) :   1.0752
B( 18-C , 22-N ) :   1.6276 B( 19-S , 20-C ) :   1.1229 B( 19-S , 22-N ) :   0.1078
B( 20-C , 21-N ) :   1.6225 B( 20-C , 23-C ) :   1.1189 B( 21-N , 22-N ) :   1.2814
B( 23-C , 24-C ) :   1.6171 B( 23-C , 71-H ) :   0.9495 B( 24-C , 25-C ) :   1.1587
B( 24-C , 72-H ) :   0.9518 B( 25-C , 26-N ) :   1.1626 B( 25-C , 32-C ) :   1.3527
B( 26-N , 27-C ) :   0.9425 B( 26-N , 29-C ) :   1.0392 B( 27-C , 28-C ) :   1.1146
B( 27-C , 73-H ) :   0.9508 B( 27-C , 74-H ) :   0.9230 B( 28-C , 75-H ) :   0.9685
B( 28-C , 76-H ) :   0.9680 B( 28-C , 77-H ) :   0.9624 B( 29-C , 30-O ) :   2.1195
B( 29-C , 31-C ) :   0.9853 B( 31-C , 32-C ) :   1.2465 B( 31-C , 38-C ) :   1.3243
B( 32-C , 33-C ) :   0.9674 B( 33-C , 34-O ) :   2.1507 B( 33-C , 35-N ) :   1.0220
B( 35-N , 36-C ) :   0.9415 B( 35-N , 38-C ) :   1.1752 B( 36-C , 37-C ) :   1.1146
B( 36-C , 78-H ) :   0.9513 B( 36-C , 79-H ) :   0.9247 B( 37-C , 80-H ) :   0.9684
B( 37-C , 81-H ) :   0.9688 B( 37-C , 82-H ) :   0.9617 B( 38-C , 39-C ) :   1.1969
B( 39-C , 40-C ) :   1.5979 B( 39-C , 83-H ) :   0.9453 B( 40-C , 41-C ) :   1.1176
B( 40-C , 84-H ) :   0.9613 B( 41-C , 42-S ) :   1.1303 B( 41-C , 45-C ) :   1.4539
B( 42-S , 43-C ) :   1.1358 B( 43-C , 44-C ) :   1.4247 B( 43-C , 48-C ) :   1.1470
B( 44-C , 45-C ) :   1.3313 B( 44-C , 46-C ) :   1.1165 B( 45-C , 85-H ) :   0.9966
B( 46-C , 47-N ) :   2.9463 B( 48-C , 49-C ) :   1.6626 B( 48-C , 86-H ) :   0.9566
B( 49-C , 50-C ) :   1.1341 B( 49-C , 87-H ) :   0.9412 B( 50-C , 51-C ) :   1.6196
B( 50-C , 88-H ) :   0.9635 B( 51-C , 52-C ) :   0.9395 B( 51-C , 56-C ) :   1.0360
B( 52-C , 53-O ) :   2.2814 B( 52-C , 54-C ) :   0.9233 B( 54-C , 55-C ) :   1.3247
B( 54-C , 65-C ) :   1.3713 B( 55-C , 56-C ) :   1.0054 B( 55-C , 62-C ) :   1.3721
B( 56-C , 57-C ) :   1.6669 B( 57-C , 58-C ) :   1.1589 B( 57-C , 60-C ) :   1.1292
B( 58-C , 59-N ) :   2.9894 B( 60-C , 61-N ) :   2.9895 B( 62-C , 63-C ) :   1.3675
B( 62-C , 89-H ) :   0.9825 B( 63-C , 64-C ) :   1.4195 B( 63-C , 67-Br) :   1.0551
B( 64-C , 65-C ) :   1.3589 B( 64-C , 66-Br) :   1.0346 B( 65-C , 90-H ) :   1.0081

-----------------------------------------------------------------------------
         ABSORPTION SPECTRUM VIA TRANSITION ELECTRIC DIPOLE MOMENTS
-----------------------------------------------------------------------------
State   Energy  Wavelength   fosc         T2         TX        TY        TZ
        (cm-1)    (nm)                  (au**2)     (au)      (au)      (au)
-----------------------------------------------------------------------------
   0   13364.6    748.2   1.646937771  40.56937   4.02245   4.10175   2.75044
   1   18436.7    542.4   0.019625815   0.35044   0.15448   0.55288  -0.14457
   2   21665.7    461.6   0.334552925   5.08356  -1.14508  -1.76128   0.81869
   3   22064.1    453.2   0.016245562   0.24240  -0.12441   0.37724  -0.29087
   4   22787.8    438.8   0.303909783   4.39055   1.22096   1.66677   0.34882
   5   25456.8    392.8   0.217123926   2.80788   1.20469   1.10897   0.35609
   6   25722.6    388.8   0.087217117   1.11625  -0.71820  -0.76751  -0.10664
   7   26103.2    383.1   0.044049932   0.55555  -0.56753  -0.39930  -0.27207
   8   26547.7    376.7   0.056942667   0.70613   0.69029   0.35265   0.32444
   9   27328.0    365.9   0.250890587   3.02241  -1.54530  -0.73711  -0.30188
  10   27664.6    361.5   0.014898071   0.17729   0.29703   0.29697   0.02942
  11   27843.0    359.2   0.156561599   1.85117   1.17463   0.42231   0.54135
  12   28353.0    352.7   0.434415358   5.04407  -0.54649  -2.13643   0.42554
  13   28450.9    351.5   0.041147090   0.47612   0.43886   0.53105   0.03884
  14   29327.1    341.0   0.012632511   0.14181  -0.33310  -0.12419   0.12422
  15   29533.2    338.6   0.050828660   0.56660  -0.69548  -0.19913  -0.20797
  16   30242.3    330.7   0.002134273   0.02323   0.02109   0.00283  -0.15093
  17   31071.6    321.8   0.050204364   0.53193   0.53229   0.49185   0.08169
  18   31261.1    319.9   0.001418777   0.01494   0.06329   0.08723  -0.05768
  19   31891.4    313.6   0.026037396   0.26878   0.05490   0.51197  -0.06045
  20   32258.9    310.0   0.017606492   0.17968   0.01162   0.38496  -0.17707
  21   32434.2    308.3   0.075072878   0.76200   0.55047   0.64609   0.20385
  22   32663.3    306.2   0.058150353   0.58609   0.59395  -0.10081   0.47239
  23   33028.6    302.8   0.005442459   0.05425   0.22662   0.00943   0.05295
  24   33826.3    295.6   0.023605830   0.22974   0.42756   0.21315   0.03883
  25   34295.1    291.6   0.169079659   1.62306   1.04498   0.70379  -0.18913
  26   34689.4    288.3   0.095643622   0.90769   0.31269   0.73247  -0.52287
  27   34984.3    285.8   0.245242394   2.30780  -0.13119   1.41682  -0.53217
  28   35229.6    283.9   0.603928686   5.64357   1.86591  -0.70053   1.29275
  29   35622.2    280.7   0.308695314   2.85289   1.39303   0.11530   0.94820
  30   35888.7    278.6   0.229803808   2.10802  -1.06319  -0.11544  -0.98200
  31   36149.8    276.6   0.000965161   0.00879   0.05407   0.07630   0.00669
  32   36362.3    275.0   0.000160462   0.00145   0.03467   0.01234   0.00991
  33   36431.5    274.5   0.021057970   0.19029  -0.06969  -0.25155   0.34951
  34   36899.9    271.0   0.020329044   0.18137   0.35105   0.06043   0.23341
  35   37048.2    269.9   0.002247352   0.01997   0.12508   0.04823  -0.04471
  36   37288.9    268.2   0.035356798   0.31215  -0.28157  -0.40875   0.25650
  37   37396.6    267.4   0.010533268   0.09273   0.27599  -0.12607  -0.02573
  38   37547.9    266.3   0.019216830   0.16849   0.37129   0.03015  -0.17241
  39   38153.0    262.1   0.064309307   0.55491  -0.25433  -0.39604   0.57738
  40   38589.9    259.1   0.001415568   0.01208   0.00873   0.06291  -0.08968
  41   38728.2    258.2   0.051313219   0.43619  -0.42785  -0.49009   0.11381
  42   38887.8    257.2   0.162596475   1.37649  -0.77371  -0.87958   0.06484
  43   39221.0    255.0   0.111173164   0.93316   0.82137   0.50198   0.08073
  44   39313.3    254.4   0.012540434   0.10501   0.00384   0.32397  -0.00653
  45   39645.8    252.2   0.307017886   2.54942  -0.64672  -1.20963   0.81730
  46   40061.2    249.6   0.037627429   0.30921   0.35940   0.41121   0.10462

FINAL SINGLE POINT ENERGY    -13763.205315578471

DIPOLE MOMENT
-------------
                                X             Y             Z
Electronic contribution:    -47.77901      23.25835      -2.86778
Nuclear contribution   :     45.81701     -21.88376       1.62687
                        -----------------------------------------
Total Dipole Moment    :     -1.96200       1.37459      -1.24090
                        -----------------------------------------
Magnitude (a.u.)       :      2.69792
Magnitude (Debye)      :      6.85756

Rotational constants in cm-1:     0.002536     0.000102     0.000100
Rotational constants in MHz :    76.013143     3.065416     2.991793

                             ****ORCA TERMINATED NORMALLY****
TOTAL RUN TIME: 0 days 0 hours 8 minutes 29 seconds 965 msec
