                         Program Version 4.2.0 -  RELEASE  -
|  1> # ORCA input file
|  2> # SCF done       -182.277333892817          0.000285368277
|  3> ! CAM-B3LYP def2-SVP def2/J RIJCOSX Grid4 TightSCF
|  4> %maxcore 5000
|  5> %tddft
|  6>     Mode sTDDFT
|  7>     Ethresh 5.0
|  8>     maxcore 5000
|  9> end
| 10>
| 11> %pal
| 12>   nprocs 6
| 13>   end
| 14> * xyz 0 1
| 15>    C        3.45075         3.36450        -1.00846
| 16>    C        2.69456         4.39022        -0.53184
| 17>    S        1.98878         3.98895         0.99120
| 18>    C        2.72973         2.40496         0.99095
| 19>   Cl        2.48690         1.31432         2.26248
| 20>    C        3.47039         2.22739        -0.13899
| 21>    C        4.29954         1.16360        -0.71647
| 22>    O        4.57928         0.09962        -0.21765
| 23>    C        4.79559         1.73373        -2.01107
| 24>    C        4.26017         3.07685        -2.17505
| 25>    C        4.41665         3.92570        -3.23969
| 26>    C        3.80894         5.19903        -3.25571
| 27>    N        3.32700         6.23977        -3.28364
| 28>    C        5.15498         3.66033        -4.40985
| 29>    N        5.73251         3.50825        -5.39064
| 30>    C        5.73458         1.16378        -2.81972
| 31>    C        6.21216        -0.17230        -2.79297
| 32>    C        5.58665        -1.32302        -2.36835
| 33>    C        6.45469        -2.43508        -2.58949
| 34>    C        7.68924        -1.88651        -3.17520
| 35>    C        7.52139        -0.54633        -3.31876
| 36>    C        8.87125        -2.57926        -3.47059
| 37>    N        9.87696        -3.08894        -3.68690
| 38>    C        6.19179        -3.75401        -2.29899
| 39>    C        7.04592        -4.87183        -2.49743
| 40>    C        6.45335        -6.00093        -1.96170
| 41>    C        5.14964        -5.60900        -1.43880
| 42>    C        4.97376        -4.27981        -1.65395
| 43>    C        3.80276        -3.58049        -1.33448
| 44>    N        2.80695        -3.06895        -1.07887
| 45>    C        7.06868        -7.27913        -1.96554
| 46>    N        6.78739        -8.34719        -1.14961
| 47>    C        5.79449        -8.44187        -0.10501
| 48>    C        4.48274        -9.02175        -0.62917
| 49>    C        7.64707        -9.43442        -1.39109
| 50>    O        7.59487       -10.47761        -0.77138
| 51>    C        8.50848        -8.98363        -2.46156
| 52>    C        8.13421        -7.66376        -2.78875
| 53>    C        8.96392        -7.22530        -3.89624
| 54>    O        8.98998        -6.20609        -4.54537
| 55>    N        9.82923        -8.31788        -4.12900
| 56>    C       10.80670        -8.27754        -5.19048
| 57>    C       10.34237        -9.05892        -6.41665
| 58>    C        9.57146        -9.36686        -3.28936
| 59>    C       10.31169       -10.57429        -3.27867
| 60>    C       10.01579       -11.60470        -2.44550
| 61>    C       10.79404       -12.78976        -2.41166
| 62>    S       10.40007       -14.14106        -1.36054
| 63>    C       11.83378       -14.90846        -2.02863
| 64>    N       12.43861       -14.15332        -2.90899
| 65>    N       11.87564       -13.00718        -3.11743
| 66>    C       12.26473       -16.20051        -1.62709
| 67>    C       13.34192       -16.80891        -2.17873
| 68>    C       13.80020       -18.08189        -1.75639
| 69>    C       14.75981       -18.84407        -2.34516
| 70>    C       15.41266       -19.94486        -1.56560
| 71>    O       15.01785       -20.42137        -0.52980
| 72>    C       16.63639       -20.24208        -2.31894
| 73>    C       17.73246       -21.03961        -2.17407
| 74>    S       18.81732       -20.84164        -3.53015
| 75>    C       17.77179       -19.69206        -4.28230
| 76>    C       16.66186       -19.47168        -3.52929
| 77>    C       15.43591       -18.70020        -3.62171
| 78>    C       14.94888       -18.13793        -4.77098
| 79>    C       15.72276       -18.10397        -5.95065
| 80>    N       16.35450       -18.05667        -6.90681
| 81>    C       13.62941       -17.66834        -4.94042
| 82>    N       12.54938       -17.34247        -5.14909
| 83>   Cl       18.08950       -22.10490        -0.90696
| 84>    H        2.50311         5.35314        -0.96202
| 85>    H        6.20439         1.79341        -3.56728
| 86>    H        4.59557        -1.40021        -1.97067
| 87>    H        8.23615         0.14909        -3.71924
| 88>    H        8.00540        -4.83126        -2.97354
| 89>    H        4.41602        -6.26199        -1.00772
| 90>    H        5.65268        -7.45819         0.34653
| 91>    H        6.20444        -9.11934         0.65028
| 92>    H        4.09701        -8.43957        -1.46357
| 93>    H        3.74104        -9.03537         0.16471
| 94>    H        4.64471       -10.04107        -0.97056
| 95>    H       11.76121        -8.66263        -4.82261
| 96>    H       10.92563        -7.22173        -5.44923
| 97>    H       10.18429       -10.10781        -6.17579
| 98>    H       11.09240        -8.98992        -7.19917
| 99>    H        9.41059        -8.64310        -6.79220
|100>    H       11.15424       -10.67614        -3.94676
|101>    H        9.17377       -11.54767        -1.76931
|102>    H       11.67593       -16.69915        -0.86995
|103>    H       13.88525       -16.27757        -2.94635
|104>    H       13.40705       -18.46705        -0.82109
|105>    H       18.05514       -19.25590        -5.21964
|106> *
|107>
|108>                          ****END OF INPUT****

CARTESIAN COORDINATES (ANGSTROEM)
---------------------------------
  C      3.450750    3.364500   -1.008460
  C      2.694560    4.390220   -0.531840
  S      1.988780    3.988950    0.991200
  C      2.729730    2.404960    0.990950
  Cl     2.486900    1.314320    2.262480
  C      3.470390    2.227390   -0.138990
  C      4.299540    1.163600   -0.716470
  O      4.579280    0.099620   -0.217650
  C      4.795590    1.733730   -2.011070
  C      4.260170    3.076850   -2.175050
  C      4.416650    3.925700   -3.239690
  C      3.808940    5.199030   -3.255710
  N      3.327000    6.239770   -3.283640
  C      5.154980    3.660330   -4.409850
  N      5.732510    3.508250   -5.390640
  C      5.734580    1.163780   -2.819720
  C      6.212160   -0.172300   -2.792970
  C      5.586650   -1.323020   -2.368350
  C      6.454690   -2.435080   -2.589490
  C      7.689240   -1.886510   -3.175200
  C      7.521390   -0.546330   -3.318760
  C      8.871250   -2.579260   -3.470590
  N      9.876960   -3.088940   -3.686900
  C      6.191790   -3.754010   -2.298990
  C      7.045920   -4.871830   -2.497430
  C      6.453350   -6.000930   -1.961700
  C      5.149640   -5.609000   -1.438800
  C      4.973760   -4.279810   -1.653950
  C      3.802760   -3.580490   -1.334480
  N      2.806950   -3.068950   -1.078870
  C      7.068680   -7.279130   -1.965540
  N      6.787390   -8.347190   -1.149610
  C      5.794490   -8.441870   -0.105010
  C      4.482740   -9.021750   -0.629170
  C      7.647070   -9.434420   -1.391090
  O      7.594870  -10.477610   -0.771380
  C      8.508480   -8.983630   -2.461560
  C      8.134210   -7.663760   -2.788750
  C      8.963920   -7.225300   -3.896240
  O      8.989980   -6.206090   -4.545370
  N      9.829230   -8.317880   -4.129000
  C     10.806700   -8.277540   -5.190480
  C     10.342370   -9.058920   -6.416650
  C      9.571460   -9.366860   -3.289360
  C     10.311690  -10.574290   -3.278670
  C     10.015790  -11.604700   -2.445500
  C     10.794040  -12.789760   -2.411660
  S     10.400070  -14.141060   -1.360540
  C     11.833780  -14.908460   -2.028630
  N     12.438610  -14.153320   -2.908990
  N     11.875640  -13.007180   -3.117430
  C     12.264730  -16.200510   -1.627090
  C     13.341920  -16.808910   -2.178730
  C     13.800200  -18.081890   -1.756390
  C     14.759810  -18.844070   -2.345160
  C     15.412660  -19.944860   -1.565600
  O     15.017850  -20.421370   -0.529800
  C     16.636390  -20.242080   -2.318940
  C     17.732460  -21.039610   -2.174070
  S     18.817320  -20.841640   -3.530150
  C     17.771790  -19.692060   -4.282300
  C     16.661860  -19.471680   -3.529290
  C     15.435910  -18.700200   -3.621710
  C     14.948880  -18.137930   -4.770980
  C     15.722760  -18.103970   -5.950650
  N     16.354500  -18.056670   -6.906810
  C     13.629410  -17.668340   -4.940420
  N     12.549380  -17.342470   -5.149090
  Cl    18.089500  -22.104900   -0.906960
  H      2.503110    5.353140   -0.962020
  H      6.204390    1.793410   -3.567280
  H      4.595570   -1.400210   -1.970670
  H      8.236150    0.149090   -3.719240
  H      8.005400   -4.831260   -2.973540
  H      4.416020   -6.261990   -1.007720
  H      5.652680   -7.458190    0.346530
  H      6.204440   -9.119340    0.650280
  H      4.097010   -8.439570   -1.463570
  H      3.741040   -9.035370    0.164710
  H      4.644710  -10.041070   -0.970560
  H     11.761210   -8.662630   -4.822610
  H     10.925630   -7.221730   -5.449230
  H     10.184290  -10.107810   -6.175790
  H     11.092400   -8.989920   -7.199170
  H      9.410590   -8.643100   -6.792200
  H     11.154240  -10.676140   -3.946760
  H      9.173770  -11.547670   -1.769310
  H     11.675930  -16.699150   -0.869950
  H     13.885250  -16.277570   -2.946350
  H     13.407050  -18.467050   -0.821090
  H     18.055140  -19.255900   -5.219640

 Total Charge           Charge          ....    0
 Multiplicity           Mult            ....    1
 Number of Electrons    NEL             ....  506
 Basis Dimension        Dim             .... 1096

ORBITAL ENERGIES
----------------

  NO   OCC          E(Eh)            E(eV)
   0   2.0000    -101.620431     -2765.2325
   1   2.0000    -101.617163     -2765.1436
   2   2.0000     -88.996495     -2421.7177
   3   2.0000     -88.994447     -2421.6620
   4   2.0000     -88.989544     -2421.5286
   5   2.0000     -19.224106      -523.1145
   6   2.0000     -19.223292      -523.0924
   7   2.0000     -19.207225      -522.6552
   8   2.0000     -19.206089      -522.6243
   9   2.0000     -14.469909      -393.7463
  10   2.0000     -14.467636      -393.6844
  11   2.0000     -14.455143      -393.3444
  12   2.0000     -14.454990      -393.3403
  13   2.0000     -14.424757      -392.5176
  14   2.0000     -14.423589      -392.4858
  15   2.0000     -14.421863      -392.4388
  16   2.0000     -14.420848      -392.4112
  17   2.0000     -14.415035      -392.2530
  18   2.0000     -14.404526      -391.9671
  19   2.0000     -10.388951      -282.6977
  20   2.0000     -10.388341      -282.6811
  21   2.0000     -10.380894      -282.4785
  22   2.0000     -10.380286      -282.4619
  23   2.0000     -10.379578      -282.4427
  24   2.0000     -10.376796      -282.3670
  25   2.0000     -10.358496      -281.8690
  26   2.0000     -10.357292      -281.8362
  27   2.0000     -10.356734      -281.8211
  28   2.0000     -10.355416      -281.7852
  29   2.0000     -10.355166      -281.7784
  30   2.0000     -10.353156      -281.7237
  31   2.0000     -10.351195      -281.6703
  32   2.0000     -10.350520      -281.6520
  33   2.0000     -10.333672      -281.1935
  34   2.0000     -10.332312      -281.1565
  35   2.0000     -10.330751      -281.1140
  36   2.0000     -10.329721      -281.0860
  37   2.0000     -10.327170      -281.0166
  38   2.0000     -10.326789      -281.0062
  39   2.0000     -10.326091      -280.9872
  40   2.0000     -10.325693      -280.9764
  41   2.0000     -10.324479      -280.9434
  42   2.0000     -10.323862      -280.9266
  43   2.0000     -10.322537      -280.8905
  44   2.0000     -10.322343      -280.8852
  45   2.0000     -10.322165      -280.8804
  46   2.0000     -10.320837      -280.8443
  47   2.0000     -10.319910      -280.8190
  48   2.0000     -10.316903      -280.7372
  49   2.0000     -10.316818      -280.7349
  50   2.0000     -10.316476      -280.7256
  51   2.0000     -10.314648      -280.6758
  52   2.0000     -10.313856      -280.6543
  53   2.0000     -10.313196      -280.6363
  54   2.0000     -10.313180      -280.6359
  55   2.0000     -10.312138      -280.6075
  56   2.0000     -10.311633      -280.5938
  57   2.0000     -10.309245      -280.5288
  58   2.0000     -10.308546      -280.5098
  59   2.0000     -10.307388      -280.4783
  60   2.0000     -10.305753      -280.4338
  61   2.0000     -10.303953      -280.3848
  62   2.0000     -10.300969      -280.3036
  63   2.0000     -10.300577      -280.2930
  64   2.0000     -10.292950      -280.0854
  65   2.0000     -10.281891      -279.7845
  66   2.0000     -10.277607      -279.6679
  67   2.0000     -10.275456      -279.6094
  68   2.0000     -10.268129      -279.4100
  69   2.0000      -9.575197      -260.5544
  70   2.0000      -9.571918      -260.4651
  71   2.0000      -8.092153      -220.1987
  72   2.0000      -8.090151      -220.1442
  73   2.0000      -8.085877      -220.0279
  74   2.0000      -7.345845      -199.8906
  75   2.0000      -7.342555      -199.8011
  76   2.0000      -7.335233      -199.6018
  77   2.0000      -7.334687      -199.5870
  78   2.0000      -7.331961      -199.5128
  79   2.0000      -7.331409      -199.4978
  80   2.0000      -6.061529      -164.9426
  81   2.0000      -6.059547      -164.8887
  82   2.0000      -6.056936      -164.8176
  83   2.0000      -6.054899      -164.7622
  84   2.0000      -6.054419      -164.7491
  85   2.0000      -6.054410      -164.7489
  86   2.0000      -6.052418      -164.6947
  87   2.0000      -6.051107      -164.6590
  88   2.0000      -6.048405      -164.5855
  89   2.0000      -1.159706       -31.5572
  90   2.0000      -1.149699       -31.2849
  91   2.0000      -1.143155       -31.1068
  92   2.0000      -1.141098       -31.0509
  93   2.0000      -1.141004       -31.0483
  94   2.0000      -1.079922       -29.3862
  95   2.0000      -1.071360       -29.1532
  96   2.0000      -1.041622       -28.3440
  97   2.0000      -1.039404       -28.2836
  98   2.0000      -1.023241       -27.8438
  99   2.0000      -1.020325       -27.7644
 100   2.0000      -1.019658       -27.7463
 101   2.0000      -1.004852       -27.3434
 102   2.0000      -1.001139       -27.2424
 103   2.0000      -1.001136       -27.2423
 104   2.0000      -0.991926       -26.9917
 105   2.0000      -0.990699       -26.9583
 106   2.0000      -0.989478       -26.9251
 107   2.0000      -0.981992       -26.7214
 108   2.0000      -0.967428       -26.3251
 109   2.0000      -0.958112       -26.0715
 110   2.0000      -0.955645       -26.0044
 111   2.0000      -0.946743       -25.7622
 112   2.0000      -0.941466       -25.6186
 113   2.0000      -0.918343       -24.9894
 114   2.0000      -0.914007       -24.8714
 115   2.0000      -0.907723       -24.7004
 116   2.0000      -0.902800       -24.5664
 117   2.0000      -0.899579       -24.4788
 118   2.0000      -0.887691       -24.1553
 119   2.0000      -0.878737       -23.9117
 120   2.0000      -0.863746       -23.5037
 121   2.0000      -0.856776       -23.3141
 122   2.0000      -0.844883       -22.9904
 123   2.0000      -0.835948       -22.7473
 124   2.0000      -0.833930       -22.6924
 125   2.0000      -0.832263       -22.6470
 126   2.0000      -0.823948       -22.4208
 127   2.0000      -0.812036       -22.0966
 128   2.0000      -0.795593       -21.6492
 129   2.0000      -0.790551       -21.5120
 130   2.0000      -0.771623       -20.9969
 131   2.0000      -0.769063       -20.9273
 132   2.0000      -0.761242       -20.7145
 133   2.0000      -0.756197       -20.5772
 134   2.0000      -0.735451       -20.0126
 135   2.0000      -0.733094       -19.9485
 136   2.0000      -0.726688       -19.7742
 137   2.0000      -0.721809       -19.6414
 138   2.0000      -0.710600       -19.3364
 139   2.0000      -0.708851       -19.2888
 140   2.0000      -0.700032       -19.0488
 141   2.0000      -0.694750       -18.9051
 142   2.0000      -0.688963       -18.7476
 143   2.0000      -0.680839       -18.5266
 144   2.0000      -0.679405       -18.4876
 145   2.0000      -0.678508       -18.4631
 146   2.0000      -0.674679       -18.3589
 147   2.0000      -0.663078       -18.0433
 148   2.0000      -0.651066       -17.7164
 149   2.0000      -0.649756       -17.6807
 150   2.0000      -0.636598       -17.3227
 151   2.0000      -0.634189       -17.2571
 152   2.0000      -0.622370       -16.9355
 153   2.0000      -0.619516       -16.8579
 154   2.0000      -0.617230       -16.7957
 155   2.0000      -0.611508       -16.6400
 156   2.0000      -0.606554       -16.5052
 157   2.0000      -0.601668       -16.3722
 158   2.0000      -0.593403       -16.1473
 159   2.0000      -0.588715       -16.0197
 160   2.0000      -0.580222       -15.7887
 161   2.0000      -0.575575       -15.6622
 162   2.0000      -0.574165       -15.6238
 163   2.0000      -0.565186       -15.3795
 164   2.0000      -0.562412       -15.3040
 165   2.0000      -0.559556       -15.2263
 166   2.0000      -0.556588       -15.1455
 167   2.0000      -0.552940       -15.0463
 168   2.0000      -0.552748       -15.0410
 169   2.0000      -0.549482       -14.9522
 170   2.0000      -0.545778       -14.8514
 171   2.0000      -0.543042       -14.7769
 172   2.0000      -0.538226       -14.6459
 173   2.0000      -0.537287       -14.6203
 174   2.0000      -0.535106       -14.5610
 175   2.0000      -0.533084       -14.5060
 176   2.0000      -0.530566       -14.4374
 177   2.0000      -0.529675       -14.4132
 178   2.0000      -0.526980       -14.3398
 179   2.0000      -0.524413       -14.2700
 180   2.0000      -0.523912       -14.2564
 181   2.0000      -0.519493       -14.1361
 182   2.0000      -0.517497       -14.0818
 183   2.0000      -0.512868       -13.9558
 184   2.0000      -0.512052       -13.9336
 185   2.0000      -0.508108       -13.8263
 186   2.0000      -0.507727       -13.8160
 187   2.0000      -0.506748       -13.7893
 188   2.0000      -0.501880       -13.6569
 189   2.0000      -0.497711       -13.5434
 190   2.0000      -0.496514       -13.5108
 191   2.0000      -0.495110       -13.4726
 192   2.0000      -0.493441       -13.4272
 193   2.0000      -0.491438       -13.3727
 194   2.0000      -0.488931       -13.3045
 195   2.0000      -0.486716       -13.2442
 196   2.0000      -0.486151       -13.2288
 197   2.0000      -0.484044       -13.1715
 198   2.0000      -0.476801       -12.9744
 199   2.0000      -0.473734       -12.8909
 200   2.0000      -0.472006       -12.8439
 201   2.0000      -0.470028       -12.7901
 202   2.0000      -0.467232       -12.7140
 203   2.0000      -0.463516       -12.6129
 204   2.0000      -0.458729       -12.4827
 205   2.0000      -0.456735       -12.4284
 206   2.0000      -0.456467       -12.4211
 207   2.0000      -0.455085       -12.3835
 208   2.0000      -0.454558       -12.3692
 209   2.0000      -0.449667       -12.2361
 210   2.0000      -0.449245       -12.2246
 211   2.0000      -0.448893       -12.2150
 212   2.0000      -0.447401       -12.1744
 213   2.0000      -0.445615       -12.1258
 214   2.0000      -0.444330       -12.0908
 215   2.0000      -0.443567       -12.0701
 216   2.0000      -0.440364       -11.9829
 217   2.0000      -0.436689       -11.8829
 218   2.0000      -0.435548       -11.8519
 219   2.0000      -0.434545       -11.8246
 220   2.0000      -0.433517       -11.7966
 221   2.0000      -0.432537       -11.7699
 222   2.0000      -0.432188       -11.7604
 223   2.0000      -0.431447       -11.7403
 224   2.0000      -0.421548       -11.4709
 225   2.0000      -0.419181       -11.4065
 226   2.0000      -0.418294       -11.3824
 227   2.0000      -0.417569       -11.3626
 228   2.0000      -0.412935       -11.2365
 229   2.0000      -0.408069       -11.1041
 230   2.0000      -0.407407       -11.0861
 231   2.0000      -0.406444       -11.0599
 232   2.0000      -0.403165       -10.9707
 233   2.0000      -0.398987       -10.8570
 234   2.0000      -0.396708       -10.7950
 235   2.0000      -0.381818       -10.3898
 236   2.0000      -0.372904       -10.1472
 237   2.0000      -0.363236        -9.8842
 238   2.0000      -0.349902        -9.5213
 239   2.0000      -0.348136        -9.4733
 240   2.0000      -0.347627        -9.4594
 241   2.0000      -0.346653        -9.4329
 242   2.0000      -0.340905        -9.2765
 243   2.0000      -0.337994        -9.1973
 244   2.0000      -0.336915        -9.1679
 245   2.0000      -0.333996        -9.0885
 246   2.0000      -0.330946        -9.0055
 247   2.0000      -0.321536        -8.7494
 248   2.0000      -0.318167        -8.6578
 249   2.0000      -0.315505        -8.5853
 250   2.0000      -0.299006        -8.1364
 251   2.0000      -0.293775        -7.9940
 252   2.0000      -0.250126        -6.8063
 253   0.0000      -0.143538        -3.9059
 254   0.0000      -0.111796        -3.0421
 255   0.0000      -0.087432        -2.3792
 256   0.0000      -0.079320        -2.1584
 257   0.0000      -0.056148        -1.5279

MULLIKEN ATOMIC CHARGES
-----------------------
   0 C :    0.033053
   1 C :   -0.128988
   2 S :    0.188544
   3 C :   -0.169440
   4 Cl:    0.004421
   5 C :    0.074202
   6 C :    0.147870
   7 O :   -0.122627
   8 C :   -0.091178
   9 C :    0.293753
  10 C :   -0.333758
  11 C :   -0.192835
  12 N :    0.158087
  13 C :   -0.185812
  14 N :    0.162660
  15 C :   -0.028335
  16 C :    0.083463
  17 C :   -0.025637
  18 C :    0.073740
  19 C :   -0.082204
  20 C :    0.001936
  21 C :   -0.184716
  22 N :    0.149708
  23 C :    0.127416
  24 C :   -0.105999
  25 C :    0.042339
  26 C :   -0.027500
  27 C :   -0.087401
  28 C :   -0.175564
  29 N :    0.145738
  30 C :    0.155841
  31 N :   -0.259545
  32 C :    0.098578
  33 C :   -0.000171
  34 C :    0.169583
  35 O :   -0.212891
  36 C :   -0.074166
  37 C :   -0.053110
  38 C :    0.155690
  39 O :   -0.166603
  40 N :   -0.258463
  41 C :    0.091742
  42 C :   -0.000166
  43 C :    0.160414
  44 C :   -0.027856
  45 C :    0.083999
  46 C :   -0.110405
  47 S :    0.140753
  48 C :   -0.095239
  49 N :   -0.034244
  50 N :   -0.037316
  51 C :    0.066950
  52 C :    0.029257
  53 C :    0.024415
  54 C :   -0.114587
  55 C :    0.141891
  56 O :   -0.125059
  57 C :    0.082318
  58 C :   -0.172331
  59 S :    0.187314
  60 C :   -0.125843
  61 C :    0.023650
  62 C :    0.264915
  63 C :   -0.306524
  64 C :   -0.183787
  65 N :    0.154330
  66 C :   -0.212241
  67 N :    0.184624
  68 Cl:    0.001301
  69 H :    0.053692
  70 H :    0.023742
  71 H :    0.017575
  72 H :    0.006229
  73 H :    0.027713
  74 H :   -0.009427
  75 H :    0.027941
  76 H :    0.042399
  77 H :    0.021772
  78 H :    0.029662
  79 H :    0.035553
  80 H :    0.031755
  81 H :    0.055430
  82 H :    0.020937
  83 H :    0.032115
  84 H :    0.029291
  85 H :    0.010621
  86 H :    0.016417
  87 H :    0.007803
  88 H :    0.050603
  89 H :    0.022600
  90 H :    0.053627
Sum of atomic charges:   -0.0000000

LOEWDIN ATOMIC CHARGES
----------------------
   0 C :   -0.059818
   1 C :   -0.148446
   2 S :    0.477324
   3 C :   -0.270722
   4 Cl:    0.195978
   5 C :   -0.116376
   6 C :    0.081564
   7 O :   -0.119744
   8 C :   -0.074313
   9 C :    0.073003
  10 C :   -0.133888
  11 C :   -0.015093
  12 N :   -0.049122
  13 C :   -0.024711
  14 N :   -0.043897
  15 C :    0.067988
  16 C :   -0.040052
  17 C :    0.043058
  18 C :    0.035692
  19 C :   -0.084869
  20 C :    0.059804
  21 C :   -0.036277
  22 N :   -0.049402
  23 C :    0.046583
  24 C :    0.008277
  25 C :   -0.026420
  26 C :    0.045652
  27 C :   -0.072351
  28 C :   -0.032829
  29 N :   -0.051482
  30 C :    0.066922
  31 N :    0.003128
  32 C :    0.036769
  33 C :   -0.062303
  34 C :    0.080276
  35 O :   -0.201268
  36 C :   -0.120575
  37 C :   -0.096454
  38 C :    0.085002
  39 O :   -0.159784
  40 N :    0.005341
  41 C :    0.037586
  42 C :   -0.059690
  43 C :    0.087444
  44 C :   -0.012226
  45 C :    0.001529
  46 C :   -0.150015
  47 S :    0.421368
  48 C :   -0.150050
  49 N :   -0.057646
  50 N :   -0.064370
  51 C :   -0.009756
  52 C :    0.009266
  53 C :    0.061822
  54 C :   -0.074632
  55 C :    0.079919
  56 O :   -0.130313
  57 C :   -0.118779
  58 C :   -0.271949
  59 S :    0.476258
  60 C :   -0.151086
  61 C :   -0.056646
  62 C :    0.066501
  63 C :   -0.126757
  64 C :   -0.015406
  65 N :   -0.045108
  66 C :   -0.027073
  67 N :   -0.035645
  68 Cl:    0.193326
  69 H :    0.037718
  70 H :    0.047959
  71 H :    0.037211
  72 H :    0.040283
  73 H :    0.040025
  74 H :    0.036937
  75 H :    0.025275
  76 H :    0.038554
  77 H :    0.021123
  78 H :    0.033257
  79 H :    0.035535
  80 H :    0.027122
  81 H :    0.042287
  82 H :    0.024040
  83 H :    0.034569
  84 H :    0.032037
  85 H :    0.040609
  86 H :    0.038892
  87 H :    0.038751
  88 H :    0.043109
  89 H :    0.046644
  90 H :    0.038025

  Mayer bond orders larger than 0.100000
B(  0-C ,  1-C ) :   1.5436 B(  0-C ,  5-C ) :   1.2201 B(  0-C ,  9-C ) :   0.9983
B(  1-C ,  2-S ) :   1.1641 B(  1-C , 69-H ) :   0.9541 B(  2-S ,  3-C ) :   1.1510
B(  3-C ,  4-Cl) :   1.1328 B(  3-C ,  5-C ) :   1.4785 B(  5-C ,  6-C ) :   0.9497
B(  6-C ,  7-O ) :   2.2406 B(  6-C ,  8-C ) :   0.9260 B(  8-C ,  9-C ) :   1.0644
B(  8-C , 15-C ) :   1.6274 B(  9-C , 10-C ) :   1.6527 B( 10-C , 11-C ) :   1.1488
B( 10-C , 13-C ) :   1.1367 B( 11-C , 12-N ) :   2.9901 B( 13-C , 14-N ) :   2.9780
B( 15-C , 16-C ) :   1.1088 B( 15-C , 70-H ) :   0.9429 B( 16-C , 17-C ) :   1.5392
B( 16-C , 20-C ) :   1.0329 B( 17-C , 18-C ) :   1.1252 B( 17-C , 71-H ) :   0.9875
B( 18-C , 19-C ) :   1.1104 B( 18-C , 23-C ) :   1.4008 B( 19-C , 20-C ) :   1.6656
B( 19-C , 21-C ) :   1.0850 B( 20-C , 72-H ) :   1.0232 B( 21-C , 22-N ) :   2.9854
B( 23-C , 24-C ) :   1.1256 B( 23-C , 27-C ) :   1.0879 B( 24-C , 25-C ) :   1.5439
B( 24-C , 73-H ) :   0.9930 B( 25-C , 26-C ) :   1.0156 B( 25-C , 30-C ) :   1.0516
B( 26-C , 27-C ) :   1.6847 B( 26-C , 74-H ) :   1.0237 B( 27-C , 28-C ) :   1.0809
B( 28-C , 29-N ) :   2.9702 B( 30-C , 31-N ) :   1.1926 B( 30-C , 37-C ) :   1.3627
B( 31-N , 32-C ) :   0.9409 B( 31-N , 34-C ) :   1.0556 B( 32-C , 33-C ) :   1.1184
B( 32-C , 75-H ) :   0.9499 B( 32-C , 76-H ) :   0.9276 B( 33-C , 77-H ) :   0.9646
B( 33-C , 78-H ) :   0.9685 B( 33-C , 79-H ) :   0.9601 B( 34-C , 35-O ) :   2.0171
B( 34-C , 36-C ) :   0.9923 B( 35-O , 86-H ) :   0.1127 B( 36-C , 37-C ) :   1.2700
B( 36-C , 43-C ) :   1.2978 B( 37-C , 38-C ) :   0.9600 B( 38-C , 39-O ) :   2.1145
B( 38-C , 40-N ) :   1.0297 B( 40-N , 41-C ) :   0.9380 B( 40-N , 43-C ) :   1.1888
B( 41-C , 42-C ) :   1.1207 B( 41-C , 80-H ) :   0.9498 B( 41-C , 81-H ) :   0.9287
B( 42-C , 82-H ) :   0.9687 B( 42-C , 83-H ) :   0.9681 B( 42-C , 84-H ) :   0.9640
B( 43-C , 44-C ) :   1.1384 B( 44-C , 45-C ) :   1.6446 B( 44-C , 85-H ) :   0.9730
B( 45-C , 46-C ) :   1.1156 B( 45-C , 86-H ) :   0.9233 B( 46-C , 47-S ) :   1.1124
B( 46-C , 50-N ) :   1.6375 B( 47-S , 48-C ) :   1.1014 B( 48-C , 49-N ) :   1.6419
B( 48-C , 51-C ) :   1.0994 B( 49-N , 50-N ) :   1.2639 B( 51-C , 52-C ) :   1.7124
B( 51-C , 87-H ) :   0.9597 B( 52-C , 53-C ) :   1.1011 B( 52-C , 88-H ) :   0.9534
B( 53-C , 54-C ) :   1.6536 B( 53-C , 89-H ) :   0.9559 B( 54-C , 55-C ) :   0.9321
B( 54-C , 62-C ) :   1.0321 B( 55-C , 56-O ) :   2.2813 B( 55-C , 57-C ) :   0.9281
B( 57-C , 58-C ) :   1.4821 B( 57-C , 61-C ) :   1.2222 B( 58-C , 59-S ) :   1.1542
B( 58-C , 68-Cl) :   1.1303 B( 59-S , 60-C ) :   1.1583 B( 60-C , 61-C ) :   1.5528
B( 60-C , 90-H ) :   0.9560 B( 61-C , 62-C ) :   1.0116 B( 62-C , 63-C ) :   1.6684
B( 63-C , 64-C ) :   1.1344 B( 63-C , 66-C ) :   1.1485 B( 64-C , 65-N ) :   2.9987
B( 66-C , 67-N ) :   3.0179

-----------------------------------------------------------------------------
         ABSORPTION SPECTRUM VIA TRANSITION ELECTRIC DIPOLE MOMENTS
-----------------------------------------------------------------------------
State   Energy  Wavelength   fosc         T2         TX        TY        TZ
        (cm-1)    (nm)                  (au**2)     (au)      (au)      (au)
-----------------------------------------------------------------------------
   0    8140.7   1228.4   0.543692905  21.98717   1.83379  -4.30178  -0.34510
   1   14850.9    673.4   0.026147869   0.57964  -0.11985  -0.73762   0.14560
   2   16997.6    588.3   0.554951145  10.74839  -2.14442   2.40090   0.62095
   3   19244.2    519.6   0.004885003   0.08357  -0.19840   0.18298   0.10356
   4   22394.5    446.5   0.205127300   3.01549   0.73602  -1.57230  -0.04029
   5   22605.7    442.4   0.337378371   4.91332   0.56441  -2.12359   0.29177
   6   22851.9    437.6   0.196335761   2.82848   1.02518  -1.29859  -0.30192
   7   23040.1    434.0   0.007700573   0.11003  -0.05211   0.29422  -0.14404
   8   23195.7    431.1   0.097841531   1.38864  -0.75569   0.87533   0.22665
   9   24430.1    409.3   0.137130883   1.84793   0.52270  -1.25427  -0.03882
  10   24634.0    405.9   0.001421567   0.01900   0.07641  -0.10041   0.05547
  11   25453.9    392.9   0.002598617   0.03361   0.00771  -0.16520   0.07912
  12   25551.7    391.4   0.174798730   2.25213   0.13609   1.45975  -0.32054
  13   26146.9    382.5   0.086326555   1.08692   0.40314  -0.29251  -0.91588
  14   27246.1    367.0   0.296749232   3.58559  -1.23934   1.39439   0.32451
  15   27748.8    360.4   0.266120233   3.15725   0.36982  -1.73400   0.11716
  16   28027.3    356.8   0.113015345   1.32749  -0.09798  -1.11960  -0.25375
  17   28154.1    355.2   0.008642901   0.10106  -0.21199  -0.22449   0.07569
  18   29385.0    340.3   0.000940148   0.01053   0.05212   0.05502   0.06920
  19   30657.5    326.2   0.028721568   0.30842   0.13684  -0.11564  -0.52566
  20   30777.9    324.9   0.019805072   0.21184   0.02015  -0.41392   0.20026
  21   30962.0    323.0   0.056931741   0.60534   0.37951  -0.65659   0.17381
  22   31136.6    321.2   0.162217647   1.71515   0.13801  -0.94660   0.89446
  23   31320.2    319.3   0.054784394   0.57585  -0.23525   0.65000  -0.31307
  24   31415.5    318.3   0.036923112   0.38693   0.12877  -0.57803   0.19034
  25   31870.0    313.8   0.005315991   0.05491   0.16627  -0.15693   0.05137
  26   32179.6    310.8   0.302257492   3.09224  -0.89928   1.26682  -0.82383
  27   32859.1    304.3   0.014942226   0.14970   0.07667   0.23089  -0.30086
  28   33046.2    302.6   0.027538645   0.27434   0.10840  -0.49341   0.13835
  29   33342.7    299.9   0.071995685   0.71086  -0.43307   0.00235   0.72340
  30   33372.0    299.7   0.076677879   0.75642  -0.55609   0.16932   0.64693
  31   33947.1    294.6   0.083588752   0.81063   0.51085   0.62015  -0.40629
  32   34059.1    293.6   0.046026958   0.44489  -0.04856   0.66518  -0.00837
  33   34292.9    291.6   0.017421844   0.16725  -0.01834   0.39024   0.12094
  34   34741.9    287.8   0.086260856   0.81740   0.05557  -0.58914   0.68354
  35   35436.8    282.2   0.103052408   0.95737  -0.78103   0.51985   0.27771
  36   35470.0    281.9   0.061859779   0.57415  -0.13368  -0.05981   0.74344
  37   35974.7    278.0   0.048334672   0.44232   0.27638   0.35587  -0.48918
  38   36345.3    275.1   0.073804039   0.66851  -0.47949   0.46823  -0.46836
  39   36454.4    274.3   0.035264651   0.31847  -0.19274   0.44508  -0.28848
  40   36556.7    273.5   0.019329805   0.17408  -0.36283   0.09978   0.18021
  41   36612.6    273.1   0.003150706   0.02833   0.15278   0.05925  -0.03845
  42   36754.3    272.1   0.053123103   0.47583   0.11009   0.30954  -0.60654
  43   37056.9    269.9   0.055578176   0.49375   0.32137  -0.47175  -0.40979
  44   37425.4    267.2   0.091825859   0.80774  -0.81320   0.27726   0.26376
  45   37711.4    265.2   0.085236200   0.74409  -0.82075   0.20445   0.16928
  46   37821.5    264.4   0.291705759   2.53911   1.06069  -1.13772   0.34589
  47   38002.8    263.1   0.185250700   1.60480   0.77980  -0.56213   0.82506
  48   38141.0    262.2   0.246675610   2.12917  -0.43334  -0.43938   1.32224
  49   38187.8    261.9   0.033621223   0.28984   0.01412   0.51398  -0.15959
  50   38686.6    258.5   0.043207136   0.36768  -0.45517   0.34323  -0.20662
  51   38770.8    257.9   0.002492561   0.02116  -0.01269  -0.14444  -0.01190
  52   38926.7    256.9   0.034468257   0.29151   0.03885  -0.08510  -0.53175
  53   39055.9    256.0   0.244735384   2.06294  -0.62391  -0.44389   1.21517
  54   39999.2    250.0   0.004305917   0.03544   0.13611  -0.12672   0.02923
  55   40033.6    249.8   0.075103406   0.61760  -0.17458   0.73700  -0.20967
  56   40271.2    248.3   0.011729369   0.09589  -0.15010   0.26665  -0.04745
  57   40314.3    248.1   0.002304147   0.01882   0.07703   0.10411  -0.04522

FINAL SINGLE POINT ENERGY     -4877.603405230504

DIPOLE MOMENT
-------------
                                X             Y             Z
Electronic contribution:     15.19547      -3.19137      20.94000
Nuclear contribution   :    -14.88331       1.15510     -18.36153
                        -----------------------------------------
Total Dipole Moment    :      0.31217      -2.03627       2.57847
                        -----------------------------------------
Magnitude (a.u.)       :      3.30035
Magnitude (Debye)      :      8.38883

Rotational constants in cm-1:     0.003016     0.000173     0.000167
Rotational constants in MHz :    90.419505     5.172573     5.014691

                             ****ORCA TERMINATED NORMALLY****
TOTAL RUN TIME: 0 days 0 hours 9 minutes 36 seconds 982 msec
