                         Program Version 4.2.0 -  RELEASE  -
|  1> # ORCA input file
|  2> # SCF done       -194.701053267801          0.000552322978
|  3> ! CAM-B3LYP def2-SVP def2/J RIJCOSX Grid4 TightSCF
|  4> %maxcore 5000
|  5> %tddft
|  6>     Mode sTDDFT
|  7>     Ethresh 5.0
|  8>     maxcore 5000
|  9> end
| 10>
| 11> %pal
| 12>   nprocs 6
| 13>   end
| 14> * xyz 0 1
| 15>    C       -0.07116         0.23960        -1.14894
| 16>    C       -0.01389         1.46319        -1.75361
| 17>    C       -0.07726         1.64945        -3.15014
| 18>    N       -0.13210         1.84914        -4.27880
| 19>    C        0.22956         2.66713        -1.05803
| 20>    N        0.51065         3.65823        -0.55258
| 21>    C       -0.02857        -1.05146        -1.82499
| 22>    C        0.38316        -2.04506        -0.88728
| 23>    C        0.54709        -3.35122        -1.25172
| 24>    C        0.29442        -3.73058        -2.58874
| 25>    C       -0.12992        -2.74494        -3.52718
| 26>    C       -0.28667        -1.39919        -3.12387
| 27>    C       -0.38338        -3.13884        -4.85696
| 28>    C       -0.22494        -4.44172        -5.24359
| 29>    C        0.19235        -5.41126        -4.31908
| 30>    C        0.44707        -5.06325        -3.02046
| 31>    C        0.55702        -1.42807         0.43773
| 32>    O        0.94937        -1.93695         1.46053
| 33>    C        0.06981        -0.02246         0.27271
| 34>    C       -0.29995         0.68636         1.36442
| 35>    C       -1.12608         1.84274         1.39499
| 36>    S       -1.29051         2.84045         2.83037
| 37>    C       -2.45003         3.76702         1.89624
| 38>    N       -2.62080         3.28363         0.69134
| 39>    N       -1.89829         2.24350         0.41952
| 40>    C       -3.13022         4.89493         2.42449
| 41>    C       -3.98997         5.62069         1.66686
| 42>    C       -4.72420         6.72047         2.17685
| 43>    N       -5.61737         7.45368         1.42904
| 44>    C       -5.95616         7.24219         0.04203
| 45>    C       -6.93797         6.08678        -0.13546
| 46>    C       -6.24133         8.45555         2.18690
| 47>    O       -7.07280         9.22094         1.73619
| 48>    C       -5.65968         8.32436         3.50472
| 49>    C       -4.72872         7.25478         3.46287
| 50>    C       -4.15052         7.11733         4.78115
| 51>    O       -3.32571         6.34904         5.23430
| 52>    N       -4.77861         8.11910         5.54205
| 53>    C       -4.42565         8.33682         6.92443
| 54>    C       -3.50175         9.54033         7.09345
| 55>    C       -5.68158         8.84153         4.79795
| 56>    C       -6.49168         9.87930         5.33485
| 57>    C       -7.39582        10.54669         4.58190
| 58>    C       -8.29847        11.56641         5.04839
| 59>    C       -8.24767        12.11763         6.32938
| 60>    C       -9.16833        13.06825         6.73439
| 61>    N       -9.07233        13.51865         8.09989
| 62>    O       -8.00254        13.38024         8.65549
| 63>    O      -10.06059        13.99100         8.62127
| 64>    C      -10.18900        13.52600         5.87845
| 65>    C      -10.22171        12.97025         4.59040
| 66>    C       -9.30838        12.02663         4.18602
| 67>    C      -11.13696        14.54741         6.25551
| 68>    C      -12.41118        14.57931         5.80607
| 69>    C      -13.31692        15.60057         6.20046
| 70>    C      -14.62908        15.64766         5.84043
| 71>    C      -15.60607        16.64715         6.24397
| 72>    C      -15.34391        17.85433         6.83459
| 73>    C      -16.33782        18.79081         7.19085
| 74>    N      -17.09801        19.59136         7.50507
| 75>    C      -14.05817        18.35659         7.12895
| 76>    N      -13.04825        18.84373         7.37566
| 77>    C      -16.92312        16.16400         5.84758
| 78>    C      -16.76334        14.95191         5.11653
| 79>    C      -15.33465        14.60571         5.04251
| 80>    O      -14.84652        13.66352         4.45459
| 81>    C      -17.83099        14.27140         4.60518
| 82>    C      -19.13361        14.77656         4.81242
| 83>    C      -19.30305        15.98353         5.55095
| 84>    C      -18.17839        16.66928         6.06354
| 85>    C      -20.60813        16.47553         5.75733
| 86>    C      -21.69423        15.80956         5.25841
| 87>    C      -21.52614        14.62185         4.53061
| 88>    C      -20.27328        14.11653         4.31211
| 89>    H        0.86479        -4.08695        -0.52786
| 90>    H       -0.61920        -0.67415        -3.85024
| 91>    H       -0.70173        -2.38853        -5.56559
| 92>    H       -0.42010        -4.73300        -6.26474
| 93>    H        0.31075        -6.43494        -4.64123
| 94>    H        0.76888        -5.80510        -2.30433
| 95>    H       -0.00622         0.28100         2.32595
| 96>    H       -2.94583         5.14966         3.45873
| 97>    H       -4.12741         5.33625         0.63411
| 98>    H       -5.04307         7.06866        -0.53318
| 99>    H       -6.41927         8.17189        -0.30061
|100>    H       -6.51423         5.15413         0.22973
|101>    H       -7.18059         5.97143        -1.18805
|102>    H       -7.85467         6.29055         0.41268
|103>    H       -3.90850         7.42940         7.24868
|104>    H       -5.33402         8.45457         7.52219
|105>    H       -2.58297         9.38441         6.53360
|106>    H       -3.25169         9.66638         8.14309
|107>    H       -3.97418        10.45199         6.73440
|108>    H       -6.37718        10.09758         6.38622
|109>    H       -7.48793        10.28837         3.53509
|110>    H       -7.49624        11.81303         7.04159
|111>    H      -10.97244        13.31842         3.89853
|112>    H       -9.36176        11.61953         3.18744
|113>    H      -10.81005        15.30910         6.95142
|114>    H      -12.79122        13.79735         5.16530
|115>    H      -12.92120        16.36627         6.85566
|116>    H      -17.68268        13.35576         4.05202
|117>    H      -18.34060        17.57746         6.62195
|118>    H      -20.73232        17.39078         6.31725
|119>    H      -22.68967        16.19435         5.42185
|120>    H      -22.39447        14.10932         4.14443
|121>    H      -20.13772        13.20238         3.75281
|122> *
|123>
|124>                          ****END OF INPUT****

CARTESIAN COORDINATES (ANGSTROEM)
---------------------------------
  C     -0.071160    0.239600   -1.148940
  C     -0.013890    1.463190   -1.753610
  C     -0.077260    1.649450   -3.150140
  N     -0.132100    1.849140   -4.278800
  C      0.229560    2.667130   -1.058030
  N      0.510650    3.658230   -0.552580
  C     -0.028570   -1.051460   -1.824990
  C      0.383160   -2.045060   -0.887280
  C      0.547090   -3.351220   -1.251720
  C      0.294420   -3.730580   -2.588740
  C     -0.129920   -2.744940   -3.527180
  C     -0.286670   -1.399190   -3.123870
  C     -0.383380   -3.138840   -4.856960
  C     -0.224940   -4.441720   -5.243590
  C      0.192350   -5.411260   -4.319080
  C      0.447070   -5.063250   -3.020460
  C      0.557020   -1.428070    0.437730
  O      0.949370   -1.936950    1.460530
  C      0.069810   -0.022460    0.272710
  C     -0.299950    0.686360    1.364420
  C     -1.126080    1.842740    1.394990
  S     -1.290510    2.840450    2.830370
  C     -2.450030    3.767020    1.896240
  N     -2.620800    3.283630    0.691340
  N     -1.898290    2.243500    0.419520
  C     -3.130220    4.894930    2.424490
  C     -3.989970    5.620690    1.666860
  C     -4.724200    6.720470    2.176850
  N     -5.617370    7.453680    1.429040
  C     -5.956160    7.242190    0.042030
  C     -6.937970    6.086780   -0.135460
  C     -6.241330    8.455550    2.186900
  O     -7.072800    9.220940    1.736190
  C     -5.659680    8.324360    3.504720
  C     -4.728720    7.254780    3.462870
  C     -4.150520    7.117330    4.781150
  O     -3.325710    6.349040    5.234300
  N     -4.778610    8.119100    5.542050
  C     -4.425650    8.336820    6.924430
  C     -3.501750    9.540330    7.093450
  C     -5.681580    8.841530    4.797950
  C     -6.491680    9.879300    5.334850
  C     -7.395820   10.546690    4.581900
  C     -8.298470   11.566410    5.048390
  C     -8.247670   12.117630    6.329380
  C     -9.168330   13.068250    6.734390
  N     -9.072330   13.518650    8.099890
  O     -8.002540   13.380240    8.655490
  O    -10.060590   13.991000    8.621270
  C    -10.189000   13.526000    5.878450
  C    -10.221710   12.970250    4.590400
  C     -9.308380   12.026630    4.186020
  C    -11.136960   14.547410    6.255510
  C    -12.411180   14.579310    5.806070
  C    -13.316920   15.600570    6.200460
  C    -14.629080   15.647660    5.840430
  C    -15.606070   16.647150    6.243970
  C    -15.343910   17.854330    6.834590
  C    -16.337820   18.790810    7.190850
  N    -17.098010   19.591360    7.505070
  C    -14.058170   18.356590    7.128950
  N    -13.048250   18.843730    7.375660
  C    -16.923120   16.164000    5.847580
  C    -16.763340   14.951910    5.116530
  C    -15.334650   14.605710    5.042510
  O    -14.846520   13.663520    4.454590
  C    -17.830990   14.271400    4.605180
  C    -19.133610   14.776560    4.812420
  C    -19.303050   15.983530    5.550950
  C    -18.178390   16.669280    6.063540
  C    -20.608130   16.475530    5.757330
  C    -21.694230   15.809560    5.258410
  C    -21.526140   14.621850    4.530610
  C    -20.273280   14.116530    4.312110
  H      0.864790   -4.086950   -0.527860
  H     -0.619200   -0.674150   -3.850240
  H     -0.701730   -2.388530   -5.565590
  H     -0.420100   -4.733000   -6.264740
  H      0.310750   -6.434940   -4.641230
  H      0.768880   -5.805100   -2.304330
  H     -0.006220    0.281000    2.325950
  H     -2.945830    5.149660    3.458730
  H     -4.127410    5.336250    0.634110
  H     -5.043070    7.068660   -0.533180
  H     -6.419270    8.171890   -0.300610
  H     -6.514230    5.154130    0.229730
  H     -7.180590    5.971430   -1.188050
  H     -7.854670    6.290550    0.412680
  H     -3.908500    7.429400    7.248680
  H     -5.334020    8.454570    7.522190
  H     -2.582970    9.384410    6.533600
  H     -3.251690    9.666380    8.143090
  H     -3.974180   10.451990    6.734400
  H     -6.377180   10.097580    6.386220
  H     -7.487930   10.288370    3.535090
  H     -7.496240   11.813030    7.041590
  H    -10.972440   13.318420    3.898530
  H     -9.361760   11.619530    3.187440
  H    -10.810050   15.309100    6.951420
  H    -12.791220   13.797350    5.165300
  H    -12.921200   16.366270    6.855660
  H    -17.682680   13.355760    4.052020
  H    -18.340600   17.577460    6.621950
  H    -20.732320   17.390780    6.317250
  H    -22.689670   16.194350    5.421850
  H    -22.394470   14.109320    4.144430
  H    -20.137720   13.202380    3.752810

 Total Charge           Charge          ....    0
 Multiplicity           Mult            ....    1
 Number of Electrons    NEL             ....  508
 Basis Dimension        Dim             .... 1205

ORBITAL ENERGIES
----------------

  NO   OCC          E(Eh)            E(eV)
   0   2.0000     -88.983872     -2421.3743
   1   2.0000     -19.254555      -523.9431
   2   2.0000     -19.252093      -523.8761
   3   2.0000     -19.220110      -523.0058
   4   2.0000     -19.219207      -522.9812
   5   2.0000     -19.201098      -522.4884
   6   2.0000     -19.196519      -522.3638
   7   2.0000     -14.658899      -398.8889
   8   2.0000     -14.461619      -393.5207
   9   2.0000     -14.458903      -393.4468
  10   2.0000     -14.453115      -393.2892
  11   2.0000     -14.446973      -393.1221
  12   2.0000     -14.416096      -392.2819
  13   2.0000     -14.416052      -392.2807
  14   2.0000     -14.415159      -392.2564
  15   2.0000     -14.411382      -392.1536
  16   2.0000     -10.382711      -282.5279
  17   2.0000     -10.379601      -282.4433
  18   2.0000     -10.370865      -282.2056
  19   2.0000     -10.369871      -282.1785
  20   2.0000     -10.351914      -281.6899
  21   2.0000     -10.351672      -281.6833
  22   2.0000     -10.348169      -281.5880
  23   2.0000     -10.344502      -281.4882
  24   2.0000     -10.344385      -281.4850
  25   2.0000     -10.343752      -281.4678
  26   2.0000     -10.343156      -281.4516
  27   2.0000     -10.341015      -281.3933
  28   2.0000     -10.339348      -281.3480
  29   2.0000     -10.325025      -280.9582
  30   2.0000     -10.322713      -280.8953
  31   2.0000     -10.318447      -280.7792
  32   2.0000     -10.317817      -280.7621
  33   2.0000     -10.317790      -280.7613
  34   2.0000     -10.316412      -280.7238
  35   2.0000     -10.315068      -280.6873
  36   2.0000     -10.314110      -280.6612
  37   2.0000     -10.310794      -280.5710
  38   2.0000     -10.310503      -280.5631
  39   2.0000     -10.309820      -280.5445
  40   2.0000     -10.309360      -280.5320
  41   2.0000     -10.308360      -280.5047
  42   2.0000     -10.304991      -280.4130
  43   2.0000     -10.303899      -280.3833
  44   2.0000     -10.303446      -280.3710
  45   2.0000     -10.302296      -280.3397
  46   2.0000     -10.301796      -280.3261
  47   2.0000     -10.301124      -280.3078
  48   2.0000     -10.300611      -280.2939
  49   2.0000     -10.300586      -280.2932
  50   2.0000     -10.300167      -280.2818
  51   2.0000     -10.299386      -280.2605
  52   2.0000     -10.299313      -280.2586
  53   2.0000     -10.299031      -280.2509
  54   2.0000     -10.298798      -280.2445
  55   2.0000     -10.298758      -280.2435
  56   2.0000     -10.298079      -280.2250
  57   2.0000     -10.297662      -280.2136
  58   2.0000     -10.297005      -280.1957
  59   2.0000     -10.291759      -280.0530
  60   2.0000     -10.289835      -280.0007
  61   2.0000     -10.289215      -279.9838
  62   2.0000     -10.287871      -279.9472
  63   2.0000     -10.287631      -279.9407
  64   2.0000     -10.287334      -279.9326
  65   2.0000     -10.287260      -279.9306
  66   2.0000     -10.287007      -279.9237
  67   2.0000     -10.286970      -279.9227
  68   2.0000     -10.286457      -279.9087
  69   2.0000     -10.286204      -279.9018
  70   2.0000     -10.269772      -279.4547
  71   2.0000     -10.269296      -279.4417
  72   2.0000     -10.267782      -279.4005
  73   2.0000     -10.265128      -279.3283
  74   2.0000      -8.080092      -219.8705
  75   2.0000      -6.048646      -164.5920
  76   2.0000      -6.045283      -164.5005
  77   2.0000      -6.042654      -164.4290
  78   2.0000      -1.334476       -36.3129
  79   2.0000      -1.154810       -31.4240
  80   2.0000      -1.152988       -31.3744
  81   2.0000      -1.141520       -31.0623
  82   2.0000      -1.135446       -30.8971
  83   2.0000      -1.133933       -30.8559
  84   2.0000      -1.133561       -30.8458
  85   2.0000      -1.071364       -29.1533
  86   2.0000      -1.062393       -28.9092
  87   2.0000      -1.018451       -27.7135
  88   2.0000      -1.018141       -27.7050
  89   2.0000      -1.002103       -27.2686
  90   2.0000      -0.999154       -27.1884
  91   2.0000      -0.998886       -27.1811
  92   2.0000      -0.993963       -27.0471
  93   2.0000      -0.992256       -27.0007
  94   2.0000      -0.974532       -26.5184
  95   2.0000      -0.972560       -26.4647
  96   2.0000      -0.955236       -25.9933
  97   2.0000      -0.941721       -25.6255
  98   2.0000      -0.937981       -25.5237
  99   2.0000      -0.933302       -25.3964
 100   2.0000      -0.928044       -25.2534
 101   2.0000      -0.921328       -25.0706
 102   2.0000      -0.918806       -25.0020
 103   2.0000      -0.904345       -24.6085
 104   2.0000      -0.898682       -24.4544
 105   2.0000      -0.894898       -24.3514
 106   2.0000      -0.890170       -24.2228
 107   2.0000      -0.882389       -24.0110
 108   2.0000      -0.882252       -24.0073
 109   2.0000      -0.877107       -23.8673
 110   2.0000      -0.871948       -23.7269
 111   2.0000      -0.858897       -23.3718
 112   2.0000      -0.841888       -22.9089
 113   2.0000      -0.829492       -22.5716
 114   2.0000      -0.829359       -22.5680
 115   2.0000      -0.825455       -22.4618
 116   2.0000      -0.812789       -22.1171
 117   2.0000      -0.805528       -21.9195
 118   2.0000      -0.801563       -21.8117
 119   2.0000      -0.795655       -21.6509
 120   2.0000      -0.775576       -21.1045
 121   2.0000      -0.765696       -20.8356
 122   2.0000      -0.762518       -20.7492
 123   2.0000      -0.762268       -20.7424
 124   2.0000      -0.746826       -20.3222
 125   2.0000      -0.733183       -19.9509
 126   2.0000      -0.727825       -19.8051
 127   2.0000      -0.714679       -19.4474
 128   2.0000      -0.713964       -19.4280
 129   2.0000      -0.711913       -19.3721
 130   2.0000      -0.705027       -19.1847
 131   2.0000      -0.703711       -19.1490
 132   2.0000      -0.701032       -19.0761
 133   2.0000      -0.697182       -18.9713
 134   2.0000      -0.688957       -18.7475
 135   2.0000      -0.683819       -18.6077
 136   2.0000      -0.680317       -18.5124
 137   2.0000      -0.675569       -18.3832
 138   2.0000      -0.665329       -18.1045
 139   2.0000      -0.661605       -18.0032
 140   2.0000      -0.656589       -17.8667
 141   2.0000      -0.651370       -17.7247
 142   2.0000      -0.643370       -17.5070
 143   2.0000      -0.641592       -17.4586
 144   2.0000      -0.633195       -17.2301
 145   2.0000      -0.632402       -17.2085
 146   2.0000      -0.625469       -17.0199
 147   2.0000      -0.616337       -16.7714
 148   2.0000      -0.608905       -16.5692
 149   2.0000      -0.608060       -16.5462
 150   2.0000      -0.607104       -16.5202
 151   2.0000      -0.603847       -16.4315
 152   2.0000      -0.598939       -16.2979
 153   2.0000      -0.596210       -16.2237
 154   2.0000      -0.591693       -16.1008
 155   2.0000      -0.589823       -16.0499
 156   2.0000      -0.587704       -15.9922
 157   2.0000      -0.579081       -15.7576
 158   2.0000      -0.572550       -15.5799
 159   2.0000      -0.569700       -15.5023
 160   2.0000      -0.566412       -15.4129
 161   2.0000      -0.559312       -15.2197
 162   2.0000      -0.557060       -15.1584
 163   2.0000      -0.553317       -15.0565
 164   2.0000      -0.550092       -14.9688
 165   2.0000      -0.547775       -14.9057
 166   2.0000      -0.547430       -14.8963
 167   2.0000      -0.543478       -14.7888
 168   2.0000      -0.540681       -14.7127
 169   2.0000      -0.538029       -14.6405
 170   2.0000      -0.537856       -14.6358
 171   2.0000      -0.537150       -14.6166
 172   2.0000      -0.535520       -14.5722
 173   2.0000      -0.534699       -14.5499
 174   2.0000      -0.532664       -14.4945
 175   2.0000      -0.527895       -14.3648
 176   2.0000      -0.525443       -14.2980
 177   2.0000      -0.521750       -14.1975
 178   2.0000      -0.521272       -14.1845
 179   2.0000      -0.519052       -14.1241
 180   2.0000      -0.517251       -14.0751
 181   2.0000      -0.515375       -14.0241
 182   2.0000      -0.513903       -13.9840
 183   2.0000      -0.512004       -13.9323
 184   2.0000      -0.508325       -13.8322
 185   2.0000      -0.507231       -13.8024
 186   2.0000      -0.499890       -13.6027
 187   2.0000      -0.497558       -13.5392
 188   2.0000      -0.496630       -13.5140
 189   2.0000      -0.493631       -13.4324
 190   2.0000      -0.493135       -13.4189
 191   2.0000      -0.490294       -13.3416
 192   2.0000      -0.488970       -13.3056
 193   2.0000      -0.487155       -13.2562
 194   2.0000      -0.485581       -13.2133
 195   2.0000      -0.483075       -13.1451
 196   2.0000      -0.475010       -12.9257
 197   2.0000      -0.472123       -12.8471
 198   2.0000      -0.470197       -12.7947
 199   2.0000      -0.467186       -12.7128
 200   2.0000      -0.466925       -12.7057
 201   2.0000      -0.461707       -12.5637
 202   2.0000      -0.460849       -12.5403
 203   2.0000      -0.458131       -12.4664
 204   2.0000      -0.454387       -12.3645
 205   2.0000      -0.452471       -12.3124
 206   2.0000      -0.449567       -12.2333
 207   2.0000      -0.448732       -12.2106
 208   2.0000      -0.447536       -12.1781
 209   2.0000      -0.445578       -12.1248
 210   2.0000      -0.444713       -12.1012
 211   2.0000      -0.443363       -12.0645
 212   2.0000      -0.440908       -11.9977
 213   2.0000      -0.440863       -11.9965
 214   2.0000      -0.436544       -11.8790
 215   2.0000      -0.434983       -11.8365
 216   2.0000      -0.434210       -11.8154
 217   2.0000      -0.433267       -11.7898
 218   2.0000      -0.432367       -11.7653
 219   2.0000      -0.430348       -11.7104
 220   2.0000      -0.429319       -11.6824
 221   2.0000      -0.427120       -11.6225
 222   2.0000      -0.425496       -11.5783
 223   2.0000      -0.422831       -11.5058
 224   2.0000      -0.420028       -11.4295
 225   2.0000      -0.417207       -11.3528
 226   2.0000      -0.407592       -11.0911
 227   2.0000      -0.406784       -11.0691
 228   2.0000      -0.404725       -11.0131
 229   2.0000      -0.399760       -10.8780
 230   2.0000      -0.395652       -10.7662
 231   2.0000      -0.390979       -10.6391
 232   2.0000      -0.389114       -10.5883
 233   2.0000      -0.385011       -10.4767
 234   2.0000      -0.383007       -10.4221
 235   2.0000      -0.379178       -10.3180
 236   2.0000      -0.374175       -10.1818
 237   2.0000      -0.370958       -10.0943
 238   2.0000      -0.356870        -9.7109
 239   2.0000      -0.356228        -9.6935
 240   2.0000      -0.351807        -9.5732
 241   2.0000      -0.340227        -9.2580
 242   2.0000      -0.339595        -9.2409
 243   2.0000      -0.337938        -9.1958
 244   2.0000      -0.334646        -9.1062
 245   2.0000      -0.333698        -9.0804
 246   2.0000      -0.322015        -8.7625
 247   2.0000      -0.318358        -8.6630
 248   2.0000      -0.317321        -8.6348
 249   2.0000      -0.308162        -8.3855
 250   2.0000      -0.300748        -8.1838
 251   2.0000      -0.293266        -7.9802
 252   2.0000      -0.289493        -7.8775
 253   2.0000      -0.244930        -6.6649
 254   0.0000      -0.110328        -3.0022
 255   0.0000      -0.098776        -2.6878
 256   0.0000      -0.081098        -2.2068
 257   0.0000      -0.061500        -1.6735
 258   0.0000      -0.056438        -1.5357

MULLIKEN ATOMIC CHARGES
-----------------------
   0 C :    0.276835
   1 C :   -0.284539
   2 C :   -0.185810
   3 N :    0.154175
   4 C :   -0.191429
   5 N :    0.167331
   6 C :    0.040393
   7 C :    0.006115
   8 C :   -0.073890
   9 C :    0.090419
  10 C :    0.092887
  11 C :   -0.076837
  12 C :   -0.016950
  13 C :    0.038048
  14 C :    0.035351
  15 C :   -0.013019
  16 C :    0.135746
  17 O :   -0.134908
  18 C :   -0.105613
  19 C :    0.096452
  20 C :   -0.112225
  21 S :    0.155331
  22 C :   -0.092353
  23 N :   -0.048438
  24 N :   -0.047611
  25 C :    0.070686
  26 C :   -0.017682
  27 C :    0.141955
  28 N :   -0.255473
  29 C :    0.096490
  30 C :    0.003623
  31 C :    0.169791
  32 O :   -0.218061
  33 C :   -0.071789
  34 C :   -0.063573
  35 C :    0.169462
  36 O :   -0.206079
  37 N :   -0.259278
  38 C :    0.096886
  39 C :    0.003417
  40 C :    0.135732
  41 C :    0.006807
  42 C :    0.003250
  43 C :    0.110475
  44 C :   -0.066645
  45 C :    0.161410
  46 N :    0.245205
  47 O :   -0.229676
  48 O :   -0.227178
  49 C :    0.040845
  50 C :   -0.019311
  51 C :    0.017273
  52 C :    0.032918
  53 C :   -0.009409
  54 C :   -0.039725
  55 C :   -0.064012
  56 C :    0.323407
  57 C :   -0.342970
  58 C :   -0.181951
  59 N :    0.149314
  60 C :   -0.199034
  61 N :    0.156383
  62 C :    0.044735
  63 C :   -0.000709
  64 C :    0.148625
  65 O :   -0.153181
  66 C :   -0.076847
  67 C :    0.095602
  68 C :    0.094329
  69 C :   -0.079608
  70 C :   -0.016376
  71 C :    0.035005
  72 C :    0.037720
  73 C :   -0.015700
  74 H :   -0.011367
  75 H :   -0.005004
  76 H :   -0.009638
  77 H :   -0.004495
  78 H :   -0.005022
  79 H :   -0.016990
  80 H :    0.024180
  81 H :    0.013231
  82 H :    0.008453
  83 H :    0.031702
  84 H :    0.042550
  85 H :    0.020891
  86 H :    0.027258
  87 H :    0.025779
  88 H :    0.045422
  89 H :    0.025921
  90 H :    0.030411
  91 H :    0.028544
  92 H :    0.016486
  93 H :   -0.026244
  94 H :    0.011483
  95 H :    0.000441
  96 H :    0.004812
  97 H :    0.011444
  98 H :    0.029452
  99 H :    0.033530
 100 H :    0.021543
 101 H :   -0.013980
 102 H :   -0.007973
 103 H :   -0.008198
 104 H :   -0.004367
 105 H :   -0.004831
 106 H :   -0.017960
Sum of atomic charges:   -0.0000000

LOEWDIN ATOMIC CHARGES
----------------------
   0 C :    0.066986
   1 C :   -0.109464
   2 C :   -0.015285
   3 N :   -0.047146
   4 C :   -0.017253
   5 N :   -0.049471
   6 C :   -0.019666
   7 C :   -0.059602
   8 C :    0.034836
   9 C :   -0.009614
  10 C :   -0.003588
  11 C :    0.016213
  12 C :   -0.006342
  13 C :   -0.011477
  14 C :   -0.013102
  15 C :   -0.008576
  16 C :    0.084317
  17 O :   -0.135830
  18 C :   -0.051594
  19 C :    0.026187
  20 C :   -0.160988
  21 S :    0.434670
  22 C :   -0.137473
  23 N :   -0.070515
  24 N :   -0.048059
  25 C :   -0.013839
  26 C :   -0.003001
  27 C :    0.069571
  28 N :    0.004112
  29 C :    0.037269
  30 C :   -0.060119
  31 C :    0.080115
  32 O :   -0.206274
  33 C :   -0.122659
  34 C :   -0.112703
  35 C :    0.083089
  36 O :   -0.195410
  37 N :    0.000852
  38 C :    0.036099
  39 C :   -0.060166
  40 C :    0.081565
  41 C :   -0.042097
  42 C :    0.035441
  43 C :   -0.024375
  44 C :    0.016457
  45 C :   -0.021531
  46 N :    0.285358
  47 O :   -0.198766
  48 O :   -0.187194
  49 C :   -0.007193
  50 C :    0.003331
  51 C :    0.020970
  52 C :    0.034610
  53 C :   -0.024978
  54 C :    0.072829
  55 C :   -0.086249
  56 C :    0.075136
  57 C :   -0.134804
  58 C :   -0.016881
  59 N :   -0.051709
  60 C :   -0.022219
  61 N :   -0.048183
  62 C :   -0.025385
  63 C :   -0.056063
  64 C :    0.086609
  65 O :   -0.145517
  66 C :    0.032693
  67 C :   -0.008232
  68 C :   -0.005746
  69 C :    0.020011
  70 C :   -0.004952
  71 C :   -0.012767
  72 C :   -0.011668
  73 C :   -0.009611
  74 H :    0.039682
  75 H :    0.039315
  76 H :    0.034787
  77 H :    0.033339
  78 H :    0.032850
  79 H :    0.032071
  80 H :    0.048846
  81 H :    0.037813
  82 H :    0.039308
  83 H :    0.027161
  84 H :    0.037546
  85 H :    0.024238
  86 H :    0.032561
  87 H :    0.030684
  88 H :    0.038597
  89 H :    0.023528
  90 H :    0.032849
  91 H :    0.032881
  92 H :    0.022301
  93 H :    0.028295
  94 H :    0.038773
  95 H :    0.037307
  96 H :    0.041435
  97 H :    0.043703
  98 H :    0.036917
  99 H :    0.033346
 100 H :    0.044818
 101 H :    0.038683
 102 H :    0.039153
 103 H :    0.035105
 104 H :    0.033401
 105 H :    0.032948
 106 H :    0.031770

  Mayer bond orders larger than 0.100000
B(  0-C ,  1-C ) :   1.6987 B(  0-C ,  6-C ) :   1.0016 B(  0-C , 18-C ) :   1.0134
B(  1-C ,  2-C ) :   1.1397 B(  1-C ,  4-C ) :   1.1509 B(  2-C ,  3-N ) :   2.9846
B(  4-C ,  5-N ) :   3.0120 B(  6-C ,  7-C ) :   1.2128 B(  6-C , 11-C ) :   1.4581
B(  7-C ,  8-C ) :   1.4717 B(  7-C , 16-C ) :   0.9218 B(  8-C ,  9-C ) :   1.1915
B(  8-C , 74-H ) :   1.0136 B(  9-C , 10-C ) :   1.2554 B(  9-C , 15-C ) :   1.2437
B( 10-C , 11-C ) :   1.2086 B( 10-C , 12-C ) :   1.2404 B( 11-C , 75-H ) :   0.9915
B( 12-C , 13-C ) :   1.4925 B( 12-C , 76-H ) :   0.9961 B( 13-C , 14-C ) :   1.2596
B( 13-C , 77-H ) :   0.9880 B( 14-C , 15-C ) :   1.4921 B( 14-C , 78-H ) :   0.9885
B( 15-C , 79-H ) :   0.9963 B( 16-C , 17-O ) :   2.2812 B( 16-C , 18-C ) :   0.9236
B( 18-C , 19-C ) :   1.7305 B( 19-C , 20-C ) :   1.0832 B( 19-C , 80-H ) :   0.9335
B( 20-C , 21-S ) :   1.0978 B( 20-C , 24-N ) :   1.5980 B( 21-S , 22-C ) :   1.1241
B( 21-S , 24-N ) :   0.1007 B( 22-C , 23-N ) :   1.6306 B( 22-C , 25-C ) :   1.1110
B( 23-N , 24-N ) :   1.2754 B( 25-C , 26-C ) :   1.6555 B( 25-C , 81-H ) :   0.9256
B( 26-C , 27-C ) :   1.1342 B( 26-C , 82-H ) :   0.9688 B( 27-C , 28-N ) :   1.1572
B( 27-C , 34-C ) :   1.3482 B( 28-N , 29-C ) :   0.9415 B( 28-N , 31-C ) :   1.0704
B( 29-C , 30-C ) :   1.1222 B( 29-C , 83-H ) :   0.9503 B( 29-C , 84-H ) :   0.9289
B( 30-C , 85-H ) :   0.9688 B( 30-C , 86-H ) :   0.9677 B( 30-C , 87-H ) :   0.9635
B( 31-C , 32-O ) :   2.0112 B( 31-C , 33-C ) :   0.9878 B( 32-O , 94-H ) :   0.1197
B( 33-C , 34-C ) :   1.2542 B( 33-C , 40-C ) :   1.3456 B( 34-C , 35-C ) :   0.9826
B( 35-C , 36-O ) :   2.0337 B( 35-C , 37-N ) :   1.0563 B( 36-O , 81-H ) :   0.1077
B( 37-N , 38-C ) :   0.9428 B( 37-N , 40-C ) :   1.1638 B( 38-C , 39-C ) :   1.1214
B( 38-C , 88-H ) :   0.9274 B( 38-C , 89-H ) :   0.9493 B( 39-C , 90-H ) :   0.9635
B( 39-C , 91-H ) :   0.9679 B( 39-C , 92-H ) :   0.9686 B( 40-C , 41-C ) :   1.1482
B( 41-C , 42-C ) :   1.6200 B( 41-C , 93-H ) :   0.9558 B( 42-C , 43-C ) :   1.0735
B( 42-C , 94-H ) :   0.9628 B( 43-C , 44-C ) :   1.2843 B( 43-C , 51-C ) :   1.3130
B( 44-C , 45-C ) :   1.3928 B( 44-C , 95-H ) :   0.9862 B( 45-C , 46-N ) :   0.8793
B( 45-C , 49-C ) :   1.3363 B( 46-N , 47-O ) :   1.5503 B( 46-N , 48-O ) :   1.5254
B( 47-O , 48-O ) :   0.2662 B( 49-C , 50-C ) :   1.3480 B( 49-C , 52-C ) :   1.0377
B( 50-C , 51-C ) :   1.3871 B( 50-C , 96-H ) :   0.9913 B( 51-C , 97-H ) :   1.0016
B( 52-C , 53-C ) :   1.6515 B( 52-C , 98-H ) :   0.9558 B( 53-C , 54-C ) :   1.1395
B( 53-C , 99-H ) :   0.9741 B( 54-C , 55-C ) :   1.5818 B( 54-C ,100-H ) :   0.9643
B( 55-C , 56-C ) :   1.0451 B( 55-C , 64-C ) :   0.9377 B( 56-C , 57-C ) :   1.6457
B( 56-C , 62-C ) :   0.9914 B( 57-C , 58-C ) :   1.1427 B( 57-C , 60-C ) :   1.1412
B( 58-C , 59-N ) :   2.9674 B( 60-C , 61-N ) :   2.9824 B( 62-C , 63-C ) :   1.2148
B( 62-C , 69-C ) :   1.4499 B( 63-C , 64-C ) :   0.9465 B( 63-C , 66-C ) :   1.4692
B( 64-C , 65-O ) :   2.1979 B( 66-C , 67-C ) :   1.1832 B( 66-C ,101-H ) :   1.0153
B( 67-C , 68-C ) :   1.2548 B( 67-C , 73-C ) :   1.2431 B( 68-C , 69-C ) :   1.2078
B( 68-C , 70-C ) :   1.2396 B( 69-C ,102-H ) :   0.9893 B( 70-C , 71-C ) :   1.4891
B( 70-C ,103-H ) :   0.9972 B( 71-C , 72-C ) :   1.2587 B( 71-C ,104-H ) :   0.9891
B( 72-C , 73-C ) :   1.4897 B( 72-C ,105-H ) :   0.9891 B( 73-C ,106-H ) :   0.9974

-----------------------------------------------------------------------------
         ABSORPTION SPECTRUM VIA TRANSITION ELECTRIC DIPOLE MOMENTS
-----------------------------------------------------------------------------
State   Energy  Wavelength   fosc         T2         TX        TY        TZ
        (cm-1)    (nm)                  (au**2)     (au)      (au)      (au)
-----------------------------------------------------------------------------
   0   14804.9    675.5   1.220806260  27.14669   2.84777  -3.65854  -2.37739
   1   19865.4    503.4   0.064077114   1.06190   0.93394  -0.43051   0.06564
   2   22704.3    440.4   0.161241032   2.33799  -1.34890   0.49299  -0.52480
   3   24028.1    416.2   0.017688442   0.24235  -0.31679  -0.18013   0.33098
   4   25311.7    395.1   0.442925893   5.76084   1.80378  -1.58218  -0.06275
   5   26172.1    382.1   0.016858936   0.21206   0.09044   0.37928   0.24502
   6   26260.1    380.8   0.035970041   0.45094   0.10812   0.40021   0.52829
   7   26935.1    371.3   0.846009267  10.34027   2.75158  -1.61372  -0.40621
   8   27093.1    369.1   0.067844827   0.82439   0.01163  -0.50358  -0.75542
   9   27300.7    366.3   0.087459850   1.05466  -0.44503   0.69341   0.61301
  10   27705.8    360.9   0.025179001   0.29919   0.46683  -0.28368   0.02795
  11   27937.7    357.9   0.092899988   1.09471  -0.52825   0.85107   0.30222
  12   28750.2    347.8   0.097269228   1.11381  -0.26848   0.95927   0.34862
  13   28893.1    346.1   0.033539983   0.38216   0.35737  -0.42693  -0.26865
  14   29167.1    342.9   0.013744070   0.15513   0.14222   0.35921   0.07663
  15   29310.6    341.2   0.056496986   0.63457  -0.28145  -0.61836  -0.41591
  16   30514.3    327.7   0.133045513   1.43540  -1.03564   0.54837  -0.24928
  17   30636.9    326.4   0.159434103   1.71322   0.64584  -1.13488   0.09034
  18   31315.8    319.3   0.109903844   1.15538   0.56435   0.90231   0.15075
  19   31592.7    316.5   0.088476049   0.92196  -0.90733  -0.04824  -0.31047
  20   32361.8    309.0   0.011064065   0.11255   0.03539  -0.33199   0.03291
  21   32853.8    304.4   0.252230804   2.52748  -1.19205  -0.83584  -0.63864
  22   33268.9    300.6   0.285042126   2.82063   0.30586  -1.64590  -0.13452
  23   33404.7    299.4   0.366358448   3.61055   0.00923   1.66638   0.91303
  24   33520.4    298.3   0.316386346   3.10730  -1.53578  -0.77387  -0.38706
  25   33758.7    296.2   0.283492031   2.76459   1.46770   0.63980   0.44843
  26   34312.8    291.4   0.006826573   0.06550  -0.22847  -0.03264   0.11060
  27   34680.1    288.4   0.029167118   0.27688  -0.30570  -0.16304  -0.39603
  28   35326.3    283.1   0.095639609   0.89128  -0.82136  -0.38151  -0.26664
  29   35826.8    279.1   0.058692591   0.53933   0.56963  -0.42362   0.18813
  30   35840.6    279.0   0.017904676   0.16446   0.33337   0.18857  -0.13329
  31   36132.7    276.8   0.132887511   1.21077   0.15646  -1.07364  -0.18327
  32   36435.3    274.5   0.109705857   0.99125  -0.26132   0.91205   0.30186
  33   36805.3    271.7   0.075537991   0.67566  -0.11154   0.80846   0.09805
  34   37112.8    269.4   0.166698490   1.47871   0.80441   0.05469   0.91030
  35   37413.2    267.3   0.116310303   1.02346   0.01247  -0.83962  -0.56422
  36   37741.4    265.0   0.098112978   0.85582   0.41747   0.64105   0.52019
  37   38247.2    261.5   0.042827232   0.36863  -0.40808   0.39002   0.22358
  38   38314.3    261.0   0.172847255   1.48517   0.51790  -1.10264   0.03368
  39   38597.6    259.1   0.049579136   0.42288   0.34639   0.46524   0.29401
  40   38797.1    257.8   0.054206622   0.45997  -0.25505   0.40781   0.47813
  41   39054.0    256.1   0.084135915   0.70924   0.07880   0.74896  -0.37694
  42   39221.4    255.0   0.066822815   0.56089   0.24622  -0.57287   0.41483
  43   39547.8    252.9   0.053655950   0.44665  -0.24757   0.32440  -0.52927
  44   39753.7    251.5   0.063874235   0.52896   0.39636   0.02096   0.60944
  45   39837.2    251.0   0.084634965   0.69942   0.28088  -0.66180   0.42726
  46   39975.3    250.2   0.009220407   0.07593  -0.03222  -0.22388  -0.15739
  47   40292.5    248.2   0.082027869   0.67021   0.57043  -0.41015  -0.42025

FINAL SINGLE POINT ENERGY     -3568.076461712959

DIPOLE MOMENT
-------------
                                X             Y             Z
Electronic contribution:     16.37736       1.25175       4.93076
Nuclear contribution   :    -18.15403      -4.83574      -6.12879
                        -----------------------------------------
Total Dipole Moment    :     -1.77667      -3.58398      -1.19803
                        -----------------------------------------
Magnitude (a.u.)       :      4.17573
Magnitude (Debye)      :     10.61387

Rotational constants in cm-1:     0.001953     0.000170     0.000160
Rotational constants in MHz :    58.562248     5.086659     4.799385

                             ****ORCA TERMINATED NORMALLY****
TOTAL RUN TIME: 0 days 0 hours 10 minutes 16 seconds 362 msec
