                         Program Version 4.2.0 -  RELEASE  -
|  1> # ORCA input file
|  2> # SCF done       -175.524185713980          0.000967267764
|  3> ! CAM-B3LYP def2-SVP def2/J RIJCOSX Grid4 TightSCF
|  4> %maxcore 5000
|  5> %tddft
|  6>     Mode sTDDFT
|  7>     Ethresh 5.0
|  8>     maxcore 5000
|  9> end
| 10>
| 11> %pal
| 12>   nprocs 6
| 13>   end
| 14> * xyz 0 1
| 15>    C        3.37509         3.00360         3.14804
| 16>    C        4.03565         2.17772         2.27637
| 17>    C        5.10260         1.33150         2.64674
| 18>    N        5.97439         0.62211         2.87996
| 19>    C        3.74654         2.02844         0.90395
| 20>    N        3.57167         1.84922        -0.21697
| 21>    C        3.65535         3.12120         4.57546
| 22>    C        2.70203         4.00754         5.15444
| 23>    C        2.71258         4.31765         6.48382
| 24>    C        3.70352         3.74817         7.31391
| 25>    C        4.66444         2.86374         6.74398
| 26>    C        4.62369         2.55793         5.36368
| 27>    C        5.65245         2.30596         7.58035
| 28>    C        5.69134         2.60672         8.91498
| 29>    C        4.74453         3.47728         9.47470
| 30>    C        3.77095         4.03551         8.69117
| 31>    C        1.79247         4.48754         4.10715
| 32>    O        0.84516         5.23965         4.25736
| 33>    C        2.26167         3.88852         2.84720
| 34>    C        1.77519         4.17672         1.60194
| 35>    C        0.72724         5.03603         1.21746
| 36>    S       -0.34386         5.93705         2.25950
| 37>    C       -1.17530         6.61850         0.90318
| 38>    C       -0.63338         6.16417        -0.31077
| 39>    C        0.42165         5.27349        -0.11882
| 40>    C       -1.06878         6.54643        -1.59059
| 41>    N       -1.39855         6.84610        -2.64847
| 42>    C       -2.22935         7.53040         1.15078
| 43>    C       -2.93489         8.21674         0.21777
| 44>    C       -3.95264         9.15057         0.53203
| 45>    S       -4.44146         9.43514         2.17909
| 46>    C       -5.57817        10.66002         1.68384
| 47>    C       -5.58074        10.80708         0.30394
| 48>    C       -4.66358         9.95884        -0.34146
| 49>    C       -4.45771        10.03622        -1.81674
| 50>    C       -4.72280        11.47269        -2.26195
| 51>    C       -6.16382        11.84898        -1.94679
| 52>    C       -6.51776        11.70359        -0.45983
| 53>    C       -7.88398        11.05589        -0.28846
| 54>    O       -8.51578        10.53407        -1.15798
| 55>    C       -6.28209        11.34973         2.71297
| 56>    S       -7.01387        12.92061         2.50706
| 57>    C       -7.48596        12.98702         4.18019
| 58>    C       -7.09192        11.82216         4.84056
| 59>    C       -6.40934        10.91702         4.01668
| 60>    C       -7.34361        11.59534         6.20527
| 61>    N       -7.54500        11.40432         7.31762
| 62>    C       -8.14393        14.10098         4.74410
| 63>    C       -8.38175        15.26145         4.07531
| 64>    C       -8.99943        16.37068         4.69226
| 65>    C       -9.16711        17.59118         4.10098
| 66>    C       -9.76355        18.77173         4.69896
| 67>    C      -10.41889        18.84407         5.90103
| 68>    C      -10.98380        20.02671         6.42350
| 69>    N      -11.45984        20.95194         6.90862
| 70>    C      -10.64711        17.76394         6.77922
| 71>    N      -10.88558        16.93794         7.54065
| 72>    C       -9.57136        19.88325         3.77381
| 73>    C       -8.93141        19.39374         2.59948
| 74>    C       -8.67942        17.95050         2.74238
| 75>    O       -8.16677        17.22058         1.91838
| 76>    C       -8.61922        20.21224         1.55240
| 77>    C       -8.93256        21.58714         1.63515
| 78>    C       -9.56907        22.08618         2.80815
| 79>    C       -9.88496        21.21304         3.87423
| 80>    C       -9.87195        23.46094         2.88356
| 81>    C       -9.56088        24.30382         1.85151
| 82>    C       -8.93416        23.81134         0.69700
| 83>    C       -8.62742        22.48184         0.59074
| 84>    H        1.97644         4.99194         6.89568
| 85>    H        5.36787         1.88722         4.96499
| 86>    H        6.37912         1.63562         7.14545
| 87>    H        6.45282         2.17499         9.54691
| 88>    H        4.79033         3.70389        10.52934
| 89>    H        3.03905         4.70673         9.11610
| 90>    H        2.26481         3.70572         0.75795
| 91>    H        0.96119         4.81196        -0.92815
| 92>    H       -2.45916         7.68871         2.19796
| 93>    H       -2.72149         8.07610        -0.83108
| 94>    H       -5.15569         9.36221        -2.32207
| 95>    H       -3.44611         9.72957        -2.08306
| 96>    H       -4.54907        11.56684        -3.33405
| 97>    H       -4.03411        12.14564        -1.74564
| 98>    H       -6.82923        11.19575        -2.51690
| 99>    H       -6.35939        12.87486        -2.26029
|100>    H       -6.54952        12.68194         0.03015
|101>    H       -8.24417        11.06373         0.75684
|102>    H       -6.02779         9.97196         4.36089
|103>    H       -8.43875        14.00254         5.78264
|104>    H       -8.06968        15.36045         3.04464
|105>    H       -9.32934        16.23087         5.71385
|106>    H       -8.13455        19.81518         0.67272
|107>    H      -10.36343        21.62362         4.74897
|108>    H      -10.35492        23.83516         3.77427
|109>    H       -9.79593        25.35542         1.91923
|110>    H       -8.69532        24.49076        -0.10749
|111>    H       -8.14475        22.09689        -0.29570
|112> *
|113>
|114>                          ****END OF INPUT****

CARTESIAN COORDINATES (ANGSTROEM)
---------------------------------
  C      3.375090    3.003600    3.148040
  C      4.035650    2.177720    2.276370
  C      5.102600    1.331500    2.646740
  N      5.974390    0.622110    2.879960
  C      3.746540    2.028440    0.903950
  N      3.571670    1.849220   -0.216970
  C      3.655350    3.121200    4.575460
  C      2.702030    4.007540    5.154440
  C      2.712580    4.317650    6.483820
  C      3.703520    3.748170    7.313910
  C      4.664440    2.863740    6.743980
  C      4.623690    2.557930    5.363680
  C      5.652450    2.305960    7.580350
  C      5.691340    2.606720    8.914980
  C      4.744530    3.477280    9.474700
  C      3.770950    4.035510    8.691170
  C      1.792470    4.487540    4.107150
  O      0.845160    5.239650    4.257360
  C      2.261670    3.888520    2.847200
  C      1.775190    4.176720    1.601940
  C      0.727240    5.036030    1.217460
  S     -0.343860    5.937050    2.259500
  C     -1.175300    6.618500    0.903180
  C     -0.633380    6.164170   -0.310770
  C      0.421650    5.273490   -0.118820
  C     -1.068780    6.546430   -1.590590
  N     -1.398550    6.846100   -2.648470
  C     -2.229350    7.530400    1.150780
  C     -2.934890    8.216740    0.217770
  C     -3.952640    9.150570    0.532030
  S     -4.441460    9.435140    2.179090
  C     -5.578170   10.660020    1.683840
  C     -5.580740   10.807080    0.303940
  C     -4.663580    9.958840   -0.341460
  C     -4.457710   10.036220   -1.816740
  C     -4.722800   11.472690   -2.261950
  C     -6.163820   11.848980   -1.946790
  C     -6.517760   11.703590   -0.459830
  C     -7.883980   11.055890   -0.288460
  O     -8.515780   10.534070   -1.157980
  C     -6.282090   11.349730    2.712970
  S     -7.013870   12.920610    2.507060
  C     -7.485960   12.987020    4.180190
  C     -7.091920   11.822160    4.840560
  C     -6.409340   10.917020    4.016680
  C     -7.343610   11.595340    6.205270
  N     -7.545000   11.404320    7.317620
  C     -8.143930   14.100980    4.744100
  C     -8.381750   15.261450    4.075310
  C     -8.999430   16.370680    4.692260
  C     -9.167110   17.591180    4.100980
  C     -9.763550   18.771730    4.698960
  C    -10.418890   18.844070    5.901030
  C    -10.983800   20.026710    6.423500
  N    -11.459840   20.951940    6.908620
  C    -10.647110   17.763940    6.779220
  N    -10.885580   16.937940    7.540650
  C     -9.571360   19.883250    3.773810
  C     -8.931410   19.393740    2.599480
  C     -8.679420   17.950500    2.742380
  O     -8.166770   17.220580    1.918380
  C     -8.619220   20.212240    1.552400
  C     -8.932560   21.587140    1.635150
  C     -9.569070   22.086180    2.808150
  C     -9.884960   21.213040    3.874230
  C     -9.871950   23.460940    2.883560
  C     -9.560880   24.303820    1.851510
  C     -8.934160   23.811340    0.697000
  C     -8.627420   22.481840    0.590740
  H      1.976440    4.991940    6.895680
  H      5.367870    1.887220    4.964990
  H      6.379120    1.635620    7.145450
  H      6.452820    2.174990    9.546910
  H      4.790330    3.703890   10.529340
  H      3.039050    4.706730    9.116100
  H      2.264810    3.705720    0.757950
  H      0.961190    4.811960   -0.928150
  H     -2.459160    7.688710    2.197960
  H     -2.721490    8.076100   -0.831080
  H     -5.155690    9.362210   -2.322070
  H     -3.446110    9.729570   -2.083060
  H     -4.549070   11.566840   -3.334050
  H     -4.034110   12.145640   -1.745640
  H     -6.829230   11.195750   -2.516900
  H     -6.359390   12.874860   -2.260290
  H     -6.549520   12.681940    0.030150
  H     -8.244170   11.063730    0.756840
  H     -6.027790    9.971960    4.360890
  H     -8.438750   14.002540    5.782640
  H     -8.069680   15.360450    3.044640
  H     -9.329340   16.230870    5.713850
  H     -8.134550   19.815180    0.672720
  H    -10.363430   21.623620    4.748970
  H    -10.354920   23.835160    3.774270
  H     -9.795930   25.355420    1.919230
  H     -8.695320   24.490760   -0.107490
  H     -8.144750   22.096890   -0.295700

 Total Charge           Charge          ....    0
 Multiplicity           Mult            ....    1
 Number of Electrons    NEL             ....  484
 Basis Dimension        Dim             .... 1118

ORBITAL ENERGIES
----------------

  NO   OCC          E(Eh)            E(eV)
   0   2.0000     -88.995617     -2421.6938
   1   2.0000     -88.981741     -2421.3163
   2   2.0000     -88.975995     -2421.1599
   3   2.0000     -19.228949      -523.2463
   4   2.0000     -19.228944      -523.2462
   5   2.0000     -19.222123      -523.0605
   6   2.0000     -14.421734      -392.4353
   7   2.0000     -14.421132      -392.4190
   8   2.0000     -14.418861      -392.3572
   9   2.0000     -14.417897      -392.3309
  10   2.0000     -14.417609      -392.3231
  11   2.0000     -14.416999      -392.3065
  12   2.0000     -10.376729      -282.3652
  13   2.0000     -10.372570      -282.2520
  14   2.0000     -10.368580      -282.1434
  15   2.0000     -10.347271      -281.5636
  16   2.0000     -10.346518      -281.5431
  17   2.0000     -10.345931      -281.5271
  18   2.0000     -10.345389      -281.5123
  19   2.0000     -10.343493      -281.4607
  20   2.0000     -10.343072      -281.4493
  21   2.0000     -10.337380      -281.2944
  22   2.0000     -10.336844      -281.2798
  23   2.0000     -10.334641      -281.2199
  24   2.0000     -10.332411      -281.1592
  25   2.0000     -10.328544      -281.0540
  26   2.0000     -10.324405      -280.9413
  27   2.0000     -10.323667      -280.9213
  28   2.0000     -10.321274      -280.8561
  29   2.0000     -10.321197      -280.8540
  30   2.0000     -10.321032      -280.8496
  31   2.0000     -10.320862      -280.8449
  32   2.0000     -10.320585      -280.8374
  33   2.0000     -10.320325      -280.8303
  34   2.0000     -10.319695      -280.8132
  35   2.0000     -10.318967      -280.7934
  36   2.0000     -10.315802      -280.7072
  37   2.0000     -10.312998      -280.6309
  38   2.0000     -10.310808      -280.5714
  39   2.0000     -10.309236      -280.5286
  40   2.0000     -10.307703      -280.4869
  41   2.0000     -10.305956      -280.4393
  42   2.0000     -10.305939      -280.4389
  43   2.0000     -10.305221      -280.4193
  44   2.0000     -10.304591      -280.4022
  45   2.0000     -10.302532      -280.3461
  46   2.0000     -10.302236      -280.3381
  47   2.0000     -10.301981      -280.3311
  48   2.0000     -10.301631      -280.3216
  49   2.0000     -10.301353      -280.3141
  50   2.0000     -10.301304      -280.3127
  51   2.0000     -10.300925      -280.3024
  52   2.0000     -10.300626      -280.2943
  53   2.0000     -10.300242      -280.2838
  54   2.0000     -10.299532      -280.2645
  55   2.0000     -10.299228      -280.2562
  56   2.0000     -10.294121      -280.1173
  57   2.0000     -10.291912      -280.0572
  58   2.0000     -10.290763      -280.0259
  59   2.0000     -10.290283      -280.0128
  60   2.0000     -10.289919      -280.0029
  61   2.0000     -10.289692      -279.9968
  62   2.0000     -10.289419      -279.9893
  63   2.0000     -10.289201      -279.9834
  64   2.0000     -10.288811      -279.9728
  65   2.0000     -10.288276      -279.9582
  66   2.0000     -10.282514      -279.8014
  67   2.0000     -10.275053      -279.5984
  68   2.0000     -10.273003      -279.5426
  69   2.0000      -8.090138      -220.1438
  70   2.0000      -8.075054      -219.7334
  71   2.0000      -8.071365      -219.6330
  72   2.0000      -6.059416      -164.8851
  73   2.0000      -6.055311      -164.7734
  74   2.0000      -6.052296      -164.6914
  75   2.0000      -6.044428      -164.4772
  76   2.0000      -6.040689      -164.3755
  77   2.0000      -6.039816      -164.3518
  78   2.0000      -6.037425      -164.2867
  79   2.0000      -6.036646      -164.2655
  80   2.0000      -6.033302      -164.1745
  81   2.0000      -1.145017       -31.1575
  82   2.0000      -1.144250       -31.1366
  83   2.0000      -1.136081       -30.9143
  84   2.0000      -1.033753       -28.1298
  85   2.0000      -1.023876       -27.8611
  86   2.0000      -1.020912       -27.7804
  87   2.0000      -1.020767       -27.7765
  88   2.0000      -1.012415       -27.5492
  89   2.0000      -1.004168       -27.3248
  90   2.0000      -1.001603       -27.2550
  91   2.0000      -0.998101       -27.1597
  92   2.0000      -0.998020       -27.1575
  93   2.0000      -0.996262       -27.1097
  94   2.0000      -0.996118       -27.1058
  95   2.0000      -0.976394       -26.5690
  96   2.0000      -0.974981       -26.5306
  97   2.0000      -0.943486       -25.6736
  98   2.0000      -0.941502       -25.6196
  99   2.0000      -0.932312       -25.3695
 100   2.0000      -0.927463       -25.2375
 101   2.0000      -0.922138       -25.0927
 102   2.0000      -0.913645       -24.8615
 103   2.0000      -0.900489       -24.5035
 104   2.0000      -0.895278       -24.3618
 105   2.0000      -0.887086       -24.1388
 106   2.0000      -0.884322       -24.0636
 107   2.0000      -0.884283       -24.0626
 108   2.0000      -0.878884       -23.9156
 109   2.0000      -0.874962       -23.8089
 110   2.0000      -0.868969       -23.6459
 111   2.0000      -0.849869       -23.1261
 112   2.0000      -0.844575       -22.9821
 113   2.0000      -0.833053       -22.6685
 114   2.0000      -0.832728       -22.6597
 115   2.0000      -0.831300       -22.6208
 116   2.0000      -0.812846       -22.1187
 117   2.0000      -0.795984       -21.6598
 118   2.0000      -0.783880       -21.3305
 119   2.0000      -0.768318       -20.9070
 120   2.0000      -0.765143       -20.8206
 121   2.0000      -0.760129       -20.6842
 122   2.0000      -0.755019       -20.5451
 123   2.0000      -0.742786       -20.2122
 124   2.0000      -0.727009       -19.7829
 125   2.0000      -0.717966       -19.5368
 126   2.0000      -0.708899       -19.2901
 127   2.0000      -0.708440       -19.2776
 128   2.0000      -0.706313       -19.2198
 129   2.0000      -0.702167       -19.1069
 130   2.0000      -0.696466       -18.9518
 131   2.0000      -0.695533       -18.9264
 132   2.0000      -0.685895       -18.6641
 133   2.0000      -0.683648       -18.6030
 134   2.0000      -0.679742       -18.4967
 135   2.0000      -0.667425       -18.1615
 136   2.0000      -0.664695       -18.0873
 137   2.0000      -0.660446       -17.9717
 138   2.0000      -0.650242       -17.6940
 139   2.0000      -0.645946       -17.5771
 140   2.0000      -0.638363       -17.3707
 141   2.0000      -0.636660       -17.3244
 142   2.0000      -0.627898       -17.0860
 143   2.0000      -0.621483       -16.9114
 144   2.0000      -0.614469       -16.7206
 145   2.0000      -0.611321       -16.6349
 146   2.0000      -0.609531       -16.5862
 147   2.0000      -0.602638       -16.3986
 148   2.0000      -0.594816       -16.1858
 149   2.0000      -0.592626       -16.1262
 150   2.0000      -0.585019       -15.9192
 151   2.0000      -0.579241       -15.7619
 152   2.0000      -0.568931       -15.4814
 153   2.0000      -0.564965       -15.3735
 154   2.0000      -0.559462       -15.2237
 155   2.0000      -0.557439       -15.1687
 156   2.0000      -0.552026       -15.0214
 157   2.0000      -0.549923       -14.9642
 158   2.0000      -0.549213       -14.9448
 159   2.0000      -0.546726       -14.8772
 160   2.0000      -0.544342       -14.8123
 161   2.0000      -0.543360       -14.7856
 162   2.0000      -0.541989       -14.7483
 163   2.0000      -0.540158       -14.6984
 164   2.0000      -0.534137       -14.5346
 165   2.0000      -0.532148       -14.4805
 166   2.0000      -0.530361       -14.4319
 167   2.0000      -0.526751       -14.3336
 168   2.0000      -0.525055       -14.2875
 169   2.0000      -0.524541       -14.2735
 170   2.0000      -0.522856       -14.2276
 171   2.0000      -0.521371       -14.1872
 172   2.0000      -0.520816       -14.1721
 173   2.0000      -0.516971       -14.0675
 174   2.0000      -0.515587       -14.0298
 175   2.0000      -0.512973       -13.9587
 176   2.0000      -0.509840       -13.8735
 177   2.0000      -0.503358       -13.6971
 178   2.0000      -0.502519       -13.6742
 179   2.0000      -0.500595       -13.6219
 180   2.0000      -0.500005       -13.6058
 181   2.0000      -0.499072       -13.5804
 182   2.0000      -0.496336       -13.5060
 183   2.0000      -0.492888       -13.4122
 184   2.0000      -0.492444       -13.4001
 185   2.0000      -0.490797       -13.3553
 186   2.0000      -0.489370       -13.3164
 187   2.0000      -0.485545       -13.2124
 188   2.0000      -0.475935       -12.9508
 189   2.0000      -0.470550       -12.8043
 190   2.0000      -0.469578       -12.7779
 191   2.0000      -0.467624       -12.7247
 192   2.0000      -0.462785       -12.5930
 193   2.0000      -0.453906       -12.3514
 194   2.0000      -0.453372       -12.3369
 195   2.0000      -0.451169       -12.2769
 196   2.0000      -0.450886       -12.2692
 197   2.0000      -0.450184       -12.2501
 198   2.0000      -0.449889       -12.2421
 199   2.0000      -0.447983       -12.1902
 200   2.0000      -0.446837       -12.1591
 201   2.0000      -0.446074       -12.1383
 202   2.0000      -0.445713       -12.1285
 203   2.0000      -0.445153       -12.1132
 204   2.0000      -0.442845       -12.0504
 205   2.0000      -0.439868       -11.9694
 206   2.0000      -0.439433       -11.9576
 207   2.0000      -0.436497       -11.8777
 208   2.0000      -0.435815       -11.8591
 209   2.0000      -0.433187       -11.7876
 210   2.0000      -0.431747       -11.7484
 211   2.0000      -0.429953       -11.6996
 212   2.0000      -0.429181       -11.6786
 213   2.0000      -0.426134       -11.5957
 214   2.0000      -0.425396       -11.5756
 215   2.0000      -0.422560       -11.4985
 216   2.0000      -0.422316       -11.4918
 217   2.0000      -0.419326       -11.4104
 218   2.0000      -0.412312       -11.2196
 219   2.0000      -0.410791       -11.1782
 220   2.0000      -0.409155       -11.1337
 221   2.0000      -0.409002       -11.1295
 222   2.0000      -0.407923       -11.1002
 223   2.0000      -0.404988       -11.0203
 224   2.0000      -0.397042       -10.8041
 225   2.0000      -0.384761       -10.4699
 226   2.0000      -0.380169       -10.3449
 227   2.0000      -0.370420       -10.0796
 228   2.0000      -0.356044        -9.6884
 229   2.0000      -0.354729        -9.6527
 230   2.0000      -0.346823        -9.4375
 231   2.0000      -0.345343        -9.3973
 232   2.0000      -0.341469        -9.2919
 233   2.0000      -0.340954        -9.2778
 234   2.0000      -0.326198        -8.8763
 235   2.0000      -0.323678        -8.8077
 236   2.0000      -0.321946        -8.7606
 237   2.0000      -0.317996        -8.6531
 238   2.0000      -0.301047        -8.1919
 239   2.0000      -0.297300        -8.0899
 240   2.0000      -0.287151        -7.8138
 241   2.0000      -0.258410        -7.0317
 242   0.0000      -0.115587        -3.1453
 243   0.0000      -0.101598        -2.7646
 244   0.0000      -0.071290        -1.9399
 245   0.0000      -0.064373        -1.7517
 246   0.0000      -0.060034        -1.6336

MULLIKEN ATOMIC CHARGES
-----------------------
   0 C :    0.327884
   1 C :   -0.348315
   2 C :   -0.183348
   3 N :    0.148462
   4 C :   -0.191620
   5 N :    0.151409
   6 C :    0.043972
   7 C :   -0.000703
   8 C :   -0.080497
   9 C :    0.098591
  10 C :    0.096186
  11 C :   -0.083704
  12 C :   -0.018831
  13 C :    0.037190
  14 C :    0.037939
  15 C :   -0.017702
  16 C :    0.171734
  17 O :   -0.183580
  18 C :   -0.095193
  19 C :   -0.008057
  20 C :   -0.055513
  21 S :    0.213457
  22 C :   -0.046108
  23 C :   -0.052313
  24 C :    0.010790
  25 C :   -0.169326
  26 N :    0.119854
  27 C :    0.025835
  28 C :   -0.007127
  29 C :   -0.085237
  30 S :    0.121582
  31 C :   -0.084630
  32 C :   -0.033689
  33 C :   -0.086372
  34 C :    0.130255
  35 C :    0.008326
  36 C :    0.072156
  37 C :   -0.041354
  38 C :    0.150340
  39 O :   -0.165765
  40 C :   -0.075785
  41 S :    0.136497
  42 C :   -0.043016
  43 C :   -0.016832
  44 C :   -0.005653
  45 C :   -0.195597
  46 N :    0.152288
  47 C :    0.023442
  48 C :   -0.008975
  49 C :   -0.040492
  50 C :   -0.066258
  51 C :    0.334103
  52 C :   -0.350350
  53 C :   -0.180917
  54 N :    0.151034
  55 C :   -0.195829
  56 N :    0.153736
  57 C :    0.045562
  58 C :    0.000193
  59 C :    0.150853
  60 O :   -0.156226
  61 C :   -0.083471
  62 C :    0.100663
  63 C :    0.098168
  64 C :   -0.086017
  65 C :   -0.019296
  66 C :    0.037070
  67 C :    0.036143
  68 C :   -0.016470
  69 H :   -0.012590
  70 H :   -0.007333
  71 H :   -0.007823
  72 H :   -0.002906
  73 H :   -0.002802
  74 H :   -0.016321
  75 H :    0.013450
  76 H :    0.017116
  77 H :   -0.005717
  78 H :    0.014865
  79 H :    0.029929
  80 H :    0.025698
  81 H :    0.014151
  82 H :    0.010489
  83 H :    0.022855
  84 H :    0.010279
  85 H :    0.042217
  86 H :    0.012924
  87 H :    0.012086
  88 H :    0.032473
  89 H :    0.030694
  90 H :    0.016111
  91 H :   -0.014811
  92 H :   -0.007215
  93 H :   -0.008195
  94 H :   -0.003260
  95 H :   -0.003871
  96 H :   -0.018040
Sum of atomic charges:   -0.0000000

LOEWDIN ATOMIC CHARGES
----------------------
   0 C :    0.077087
   1 C :   -0.139862
   2 C :   -0.017199
   3 N :   -0.052193
   4 C :   -0.021846
   5 N :   -0.051346
   6 C :   -0.025459
   7 C :   -0.056441
   8 C :    0.033861
   9 C :   -0.008555
  10 C :   -0.005607
  11 C :    0.021066
  12 C :   -0.004642
  13 C :   -0.011690
  14 C :   -0.010990
  15 C :   -0.009027
  16 C :    0.086810
  17 O :   -0.168720
  18 C :   -0.103525
  19 C :    0.059075
  20 C :   -0.189261
  21 S :    0.533159
  22 C :   -0.128420
  23 C :   -0.119758
  24 C :    0.017784
  25 C :   -0.027485
  26 N :   -0.060798
  27 C :   -0.060751
  28 C :   -0.000455
  29 C :   -0.169251
  30 S :    0.447537
  31 C :   -0.181387
  32 C :   -0.044540
  33 C :   -0.030678
  34 C :   -0.022949
  35 C :   -0.024199
  36 C :   -0.022879
  37 C :   -0.071523
  38 C :    0.120637
  39 O :   -0.110533
  40 C :   -0.168091
  41 S :    0.483134
  42 C :   -0.148613
  43 C :   -0.083134
  44 C :   -0.035497
  45 C :   -0.033848
  46 N :   -0.037045
  47 C :    0.009520
  48 C :   -0.027085
  49 C :    0.064870
  50 C :   -0.085171
  51 C :    0.073637
  52 C :   -0.135397
  53 C :   -0.016983
  54 N :   -0.051529
  55 C :   -0.021977
  56 N :   -0.047719
  57 C :   -0.025336
  58 C :   -0.056291
  59 C :    0.086126
  60 O :   -0.149667
  61 C :    0.032298
  62 C :   -0.008242
  63 C :   -0.005520
  64 C :    0.019744
  65 C :   -0.004919
  66 C :   -0.012330
  67 C :   -0.011694
  68 C :   -0.009619
  69 H :    0.039301
  70 H :    0.039586
  71 H :    0.035359
  72 H :    0.034017
  73 H :    0.033677
  74 H :    0.032287
  75 H :    0.052036
  76 H :    0.047171
  77 H :    0.023407
  78 H :    0.042940
  79 H :    0.041988
  80 H :    0.036070
  81 H :    0.029925
  82 H :    0.022523
  83 H :    0.028224
  84 H :    0.030470
  85 H :    0.029469
  86 H :   -0.007544
  87 H :    0.037387
  88 H :    0.049844
  89 H :    0.027202
  90 H :    0.044354
  91 H :    0.038364
  92 H :    0.039356
  93 H :    0.035166
  94 H :    0.033791
  95 H :    0.033262
  96 H :    0.031700

  Mayer bond orders larger than 0.100000
B(  0-C ,  1-C ) :   1.6309 B(  0-C ,  6-C ) :   0.9869 B(  0-C , 18-C ) :   1.0687
B(  1-C ,  2-C ) :   1.1458 B(  1-C ,  4-C ) :   1.1433 B(  2-C ,  3-N ) :   2.9636
B(  4-C ,  5-N ) :   2.9631 B(  6-C ,  7-C ) :   1.2149 B(  6-C , 11-C ) :   1.4516
B(  7-C ,  8-C ) :   1.4644 B(  7-C , 16-C ) :   0.9641 B(  8-C ,  9-C ) :   1.1773
B(  8-C , 69-H ) :   1.0178 B(  9-C , 10-C ) :   1.2579 B(  9-C , 15-C ) :   1.2433
B( 10-C , 11-C ) :   1.2020 B( 10-C , 12-C ) :   1.2413 B( 11-C , 70-H ) :   0.9909
B( 12-C , 13-C ) :   1.4870 B( 12-C , 71-H ) :   0.9978 B( 13-C , 14-C ) :   1.2612
B( 13-C , 72-H ) :   0.9885 B( 14-C , 15-C ) :   1.4875 B( 14-C , 73-H ) :   0.9885
B( 15-C , 74-H ) :   0.9985 B( 16-C , 17-O ) :   2.1239 B( 16-C , 18-C ) :   0.9710
B( 18-C , 19-C ) :   1.5276 B( 19-C , 20-C ) :   1.2331 B( 19-C , 75-H ) :   0.9400
B( 20-C , 21-S ) :   1.0876 B( 20-C , 24-C ) :   1.3705 B( 21-S , 22-C ) :   1.1421
B( 22-C , 23-C ) :   1.3777 B( 22-C , 27-C ) :   1.1776 B( 23-C , 24-C ) :   1.3386
B( 23-C , 25-C ) :   1.0998 B( 24-C , 76-H ) :   1.0127 B( 25-C , 26-N ) :   2.9763
B( 27-C , 28-C ) :   1.6322 B( 27-C , 77-H ) :   0.9431 B( 28-C , 29-C ) :   1.1815
B( 28-C , 78-H ) :   0.9589 B( 29-C , 30-S ) :   1.0905 B( 29-C , 31-C ) :   0.1047
B( 29-C , 33-C ) :   1.4944 B( 30-S , 31-C ) :   1.1383 B( 31-C , 32-C ) :   1.4803
B( 31-C , 40-C ) :   1.1220 B( 32-C , 33-C ) :   1.3170 B( 32-C , 37-C ) :   1.0118
B( 33-C , 34-C ) :   1.0637 B( 34-C , 35-C ) :   1.0791 B( 34-C , 79-H ) :   0.9042
B( 34-C , 80-H ) :   0.9133 B( 35-C , 36-C ) :   1.1150 B( 35-C , 81-H ) :   0.9371
B( 35-C , 82-H ) :   0.9443 B( 36-C , 37-C ) :   1.0384 B( 36-C , 83-H ) :   0.9140
B( 36-C , 84-H ) :   0.9289 B( 37-C , 38-C ) :   0.8852 B( 37-C , 85-H ) :   0.8802
B( 38-C , 39-O ) :   2.2056 B( 38-C , 86-H ) :   0.9470 B( 40-C , 41-S ) :   1.1270
B( 40-C , 44-C ) :   1.4688 B( 41-S , 42-C ) :   1.1048 B( 42-C , 43-C ) :   1.4302
B( 42-C , 47-C ) :   1.1776 B( 43-C , 44-C ) :   1.2899 B( 43-C , 45-C ) :   1.0995
B( 44-C , 87-H ) :   0.9993 B( 45-C , 46-N ) :   3.0236 B( 47-C , 48-C ) :   1.5485
B( 47-C , 88-H ) :   0.9727 B( 48-C , 49-C ) :   1.1663 B( 48-C , 89-H ) :   0.9740
B( 49-C , 50-C ) :   1.5483 B( 49-C , 90-H ) :   0.9653 B( 50-C , 51-C ) :   1.0575
B( 50-C , 59-C ) :   0.9428 B( 51-C , 52-C ) :   1.6343 B( 51-C , 57-C ) :   0.9881
B( 52-C , 53-C ) :   1.1440 B( 52-C , 55-C ) :   1.1466 B( 53-C , 54-N ) :   2.9642
B( 55-C , 56-N ) :   2.9672 B( 57-C , 58-C ) :   1.2159 B( 57-C , 64-C ) :   1.4494
B( 58-C , 59-C ) :   0.9477 B( 58-C , 61-C ) :   1.4692 B( 59-C , 60-O ) :   2.1907
B( 61-C , 62-C ) :   1.1792 B( 61-C , 91-H ) :   1.0158 B( 62-C , 63-C ) :   1.2557
B( 62-C , 68-C ) :   1.2452 B( 63-C , 64-C ) :   1.2071 B( 63-C , 65-C ) :   1.2395
B( 64-C , 92-H ) :   0.9886 B( 65-C , 66-C ) :   1.4892 B( 65-C , 93-H ) :   0.9970
B( 66-C , 67-C ) :   1.2605 B( 66-C , 94-H ) :   0.9884 B( 67-C , 68-C ) :   1.4882
B( 67-C , 95-H ) :   0.9885 B( 68-C , 96-H ) :   0.9971

-----------------------------------------------------------------------------
         ABSORPTION SPECTRUM VIA TRANSITION ELECTRIC DIPOLE MOMENTS
-----------------------------------------------------------------------------
State   Energy  Wavelength   fosc         T2         TX        TY        TZ
        (cm-1)    (nm)                  (au**2)     (au)      (au)      (au)
-----------------------------------------------------------------------------
   0   16833.3    594.1   2.286475567  44.71713   4.11422  -5.26392  -0.28536
   1   20833.6    480.0   0.301510389   4.76445  -1.56393  -0.06320  -1.52138
   2   24392.5    410.0   0.016198720   0.21862  -0.11919   0.27472   0.35909
   3   25616.7    390.4   0.084672536   1.08817  -0.01041   1.04302  -0.01256
   4   26335.6    379.7   0.067768924   0.84716  -0.22030  -0.75133  -0.48387
   5   26658.2    375.1   0.007527784   0.09296  -0.04797  -0.24644  -0.17300
   6   27050.5    369.7   0.033119273   0.40307  -0.10799  -0.26376   0.56731
   7   27991.9    357.2   0.028675877   0.33726  -0.18006   0.05153   0.54971
   8   28195.9    354.7   0.080074007   0.93493  -0.22833   0.09662  -0.93459
   9   28453.5    351.5   0.096859122   1.12068   0.09757   0.32739   1.00198
  10   29244.4    341.9   0.232510318   2.61743  -1.13490   1.09765   0.35296
  11   29615.0    337.7   0.078650775   0.87431  -0.83272   0.15259  -0.39700
  12   29886.5    334.6   0.440038694   4.84720   0.29002  -1.55154   1.53486
  13   30397.0    329.0   0.030110033   0.32610  -0.00332   0.45047  -0.35096
  14   32556.4    307.2   0.031504367   0.31857  -0.14535  -0.16014   0.52135
  15   32940.6    303.6   0.238218396   2.38078   0.46365   1.43025   0.34668
  16   33042.5    302.6   0.854478787   8.51342  -0.06600  -1.01273   2.73559
  17   33437.8    299.1   0.113304475   1.11554   0.06425   0.93932  -0.47864
  18   33984.7    294.2   0.032840518   0.31813   0.05453   0.10834  -0.55083
  19   34098.8    293.3   0.001857626   0.01793  -0.03325   0.09789   0.08513
  20   34328.0    291.3   0.030731476   0.29472   0.03683  -0.14875   0.52080
  21   34519.1    289.7   0.043575914   0.41559  -0.07771  -0.20375   0.60666
  22   34765.8    287.6   0.476453651   4.51174   0.01738   0.09176   2.12203
  23   35253.2    283.7   0.017846564   0.16666  -0.01213  -0.02011   0.40756
  24   35467.6    281.9   0.047973778   0.44530   0.26272   0.57555   0.21217
  25   35771.7    279.6   0.017646808   0.16241   0.06995  -0.15515   0.36530
  26   36058.7    277.3   0.040615362   0.37081  -0.17772   0.44797   0.37222
  27   36782.4    271.9   0.083094048   0.74371   0.15978   0.69491  -0.48506
  28   37092.1    269.6   0.047205460   0.41897   0.07643  -0.00228   0.64275
  29   37399.2    267.4   0.083271065   0.73301  -0.18003  -0.44300   0.71017
  30   37763.4    264.8   0.298101473   2.59878  -0.15802   0.21251  -1.59017
  31   38295.2    261.1   0.049778284   0.42793  -0.10809   0.64417  -0.03593
  32   38753.9    258.0   0.201511704   1.71183  -0.90722   0.66043   0.67277
  33   39102.2    255.7   0.124841911   1.05108  -0.35769   0.47350  -0.83602
  34   39483.7    253.3   0.059766826   0.49833   0.52643  -0.46771  -0.04954
  35   39566.3    252.7   0.090206713   0.75057  -0.65588   0.46882  -0.31718
  36   39996.4    250.0   0.251572357   2.07070  -1.05444   0.69766   0.68712
  37   40215.4    248.7   0.009862999   0.08074  -0.15089   0.03527  -0.23818

FINAL SINGLE POINT ENERGY     -3933.726434630797

DIPOLE MOMENT
-------------
                                X             Y             Z
Electronic contribution:      3.72246     -21.15610      15.18839
Nuclear contribution   :     -2.17441      23.28734     -15.34319
                        -----------------------------------------
Total Dipole Moment    :      1.54805       2.13124      -0.15480
                        -----------------------------------------
Magnitude (a.u.)       :      2.63867
Magnitude (Debye)      :      6.70696

Rotational constants in cm-1:     0.001660     0.000243     0.000225
Rotational constants in MHz :    49.776267     7.275365     6.737700

                             ****ORCA TERMINATED NORMALLY****
TOTAL RUN TIME: 0 days 0 hours 7 minutes 55 seconds 612 msec
