                         Program Version 4.2.0 -  RELEASE  -
|  1> # ORCA input file
|  2> # SCF done       -219.184229327068          0.000336869417
|  3> ! CAM-B3LYP def2-SVP def2/J RIJCOSX Grid4 TightSCF
|  4> %maxcore 5000
|  5> %tddft
|  6>     Mode sTDDFT
|  7>     Ethresh 5.0
|  8>     maxcore 5000
|  9> end
| 10>
| 11> %pal
| 12>   nprocs 6
| 13>   end
| 14> * xyz 0 1
| 15>    C        2.47405         2.15701        -2.67677
| 16>    C        2.66350         2.85267        -3.84137
| 17>    C        3.28890         2.31312        -4.98595
| 18>    N        3.78279         1.93089        -5.94883
| 19>    C        2.32271         4.20629        -4.05195
| 20>    N        2.10058         5.30787        -4.28784
| 21>    C        2.94800         0.80586        -2.41296
| 22>    C        2.75957         0.52556        -1.02999
| 23>    C        3.12641        -0.66868        -0.47866
| 24>    C        3.70353        -1.65895        -1.30420
| 25>    C        3.88624        -1.38998        -2.69194
| 26>    C        3.50037        -0.14246        -3.23304
| 27>    C        4.45824        -2.38759        -3.50746
| 28>    C        4.83392        -3.59273        -2.97936
| 29>    C        4.65440        -3.85619        -1.61304
| 30>    C        4.10161        -2.90995        -0.79317
| 31>    C        2.13754         1.68336        -0.36822
| 32>    O        1.89137         1.78247         0.81500
| 33>    C        1.86178         2.66261        -1.45444
| 34>    C        1.05343         3.76034        -1.41889
| 35>    C        0.41135         4.40912        -0.33717
| 36>    S       -0.74284         5.65919        -0.75883
| 37>    C       -1.05248         6.01385         0.90313
| 38>    C       -0.27197         5.19412         1.73319
| 39>    C        0.54210         4.29796         1.03510
| 40>    C       -0.32538         5.29531         3.13482
| 41>    N       -0.38935         5.40562         4.27451
| 42>    C       -1.96902         6.99887         1.34280
| 43>    C       -2.73212         7.72684         0.48615
| 44>    C       -3.69684         8.73083         0.74088
| 45>    N       -4.11175         9.30507         1.91820
| 46>    C       -3.61166         9.08817         3.25515
| 47>    C       -2.25759         9.75775         3.47473
| 48>    C       -5.12237        10.27435         1.69911
| 49>    O       -5.65063        10.89969         2.58962
| 50>    C       -5.31847        10.27051         0.26387
| 51>    C       -4.44205         9.31472        -0.28571
| 52>    C       -4.65084         9.28543        -1.71624
| 53>    O       -4.12143         8.65282        -2.60286
| 54>    N       -5.67905        10.23227        -1.93506
| 55>    C       -6.10301        10.51512        -3.28656
| 56>    C       -7.19050         9.55196        -3.75869
| 57>    C       -6.08076        10.82480        -0.76423
| 58>    C       -7.06280        11.83496        -0.56630
| 59>    C       -8.10141        12.12982        -1.37993
| 60>    C       -9.08929        13.14056        -1.13609
| 61>    C       -8.89928        14.38004        -0.49222
| 62>    C       -7.65206        14.99925         0.02988
| 63>    O       -6.52162        14.62893        -0.02769
| 64>    O       -8.00138        16.19618         0.60090
| 65>    C       -9.34347        16.44563         0.46303
| 66>    O       -9.86865        17.39380         0.95356
| 67>    C       -9.91858        15.31767        -0.32013
| 68>    C      -11.23836        15.12501        -0.76901
| 69>    C      -11.43102        13.87664        -1.38215
| 70>    C      -10.41269        12.95255        -1.57778
| 71>    C      -11.00244        11.79591        -2.29030
| 72>    O      -10.49103        10.78449        -2.66404
| 73>    O      -12.33182        12.07207        -2.48730
| 74>    C      -12.66429        13.30468        -1.97561
| 75>    O      -13.76482        13.75419        -2.04066
| 76>    C      -12.31148        16.08014        -0.68188
| 77>    C      -12.15223        17.41032        -0.84630
| 78>    C      -13.25486        18.31057        -0.80712
| 79>    C      -13.17978        19.61601        -1.17833
| 80>    C      -14.24146        20.61187        -1.11659
| 81>    C      -15.50938        20.42797        -0.63391
| 82>    C      -16.49759        21.43634        -0.60153
| 83>    N      -17.34734        22.20579        -0.54849
| 84>    C      -16.02296        19.22858        -0.09454
| 85>    N      -16.51824        18.29978         0.36354
| 86>    C      -13.71031        21.86149        -1.64657
| 87>    C      -12.35015        21.66134        -2.01990
| 88>    C      -11.96714        20.26559        -1.76375
| 89>    O      -10.90056        19.74852        -2.01547
| 90>    C      -11.59009        22.66511        -2.54932
| 91>    C      -12.16642        23.94048        -2.73645
| 92>    C      -13.52791        24.14930        -2.36936
| 93>    C      -14.28888        23.09213        -1.82129
| 94>    C      -14.09583        25.42489        -2.56585
| 95>    C      -13.35641        26.44533        -3.09891
| 96>    C      -12.01595        26.23868        -3.45897
| 97>    C      -11.43336        25.01318        -3.28125
| 98>    H        2.97666        -0.85505         0.57448
| 99>    H        3.64551         0.02835        -4.28786
|100>    H        4.59599        -2.17929        -4.55829
|101>    H        5.27203        -4.35003        -3.61195
|102>    H        4.95617        -4.81271        -1.21347
|103>    H        3.96094        -3.10721         0.25946
|104>    H        0.82999         4.22136        -2.37468
|105>    H        1.19843         3.59107         1.50938
|106>    H       -2.02419         7.12230         2.41420
|107>    H       -2.62485         7.52646        -0.57485
|108>    H       -3.56793         8.01658         3.46512
|109>    H       -4.35134         9.54009         3.92300
|110>    H       -1.51990         9.40338         2.75835
|111>    H       -1.90130         9.54230         4.47804
|112>    H       -2.35605        10.83472         3.36347
|113>    H       -5.21958        10.37969        -3.91902
|114>    H       -6.42597        11.55600        -3.34959
|115>    H       -6.80608         8.53536        -3.74105
|116>    H       -7.47543         9.79597        -4.77826
|117>    H       -8.07742         9.59588        -3.13102
|118>    H       -6.95864        12.34031         0.38382
|119>    H       -8.31347        11.50823        -2.23627
|120>    H      -13.30668        15.66303        -0.58992
|121>    H      -11.18016        17.83077        -1.05308
|122>    H      -14.19516        17.90556        -0.45595
|123>    H      -10.56087        22.48535        -2.82254
|124>    H      -15.31598        23.28447        -1.55535
|125>    H      -15.12776        25.57944        -2.28687
|126>    H      -13.80039        27.41832        -3.24628
|127>    H      -11.44770        27.05545        -3.87809
|128>    H      -10.40209        24.84789        -3.55665
|129> *
|130>
|131>                          ****END OF INPUT****

CARTESIAN COORDINATES (ANGSTROEM)
---------------------------------
  C      2.474050    2.157010   -2.676770
  C      2.663500    2.852670   -3.841370
  C      3.288900    2.313120   -4.985950
  N      3.782790    1.930890   -5.948830
  C      2.322710    4.206290   -4.051950
  N      2.100580    5.307870   -4.287840
  C      2.948000    0.805860   -2.412960
  C      2.759570    0.525560   -1.029990
  C      3.126410   -0.668680   -0.478660
  C      3.703530   -1.658950   -1.304200
  C      3.886240   -1.389980   -2.691940
  C      3.500370   -0.142460   -3.233040
  C      4.458240   -2.387590   -3.507460
  C      4.833920   -3.592730   -2.979360
  C      4.654400   -3.856190   -1.613040
  C      4.101610   -2.909950   -0.793170
  C      2.137540    1.683360   -0.368220
  O      1.891370    1.782470    0.815000
  C      1.861780    2.662610   -1.454440
  C      1.053430    3.760340   -1.418890
  C      0.411350    4.409120   -0.337170
  S     -0.742840    5.659190   -0.758830
  C     -1.052480    6.013850    0.903130
  C     -0.271970    5.194120    1.733190
  C      0.542100    4.297960    1.035100
  C     -0.325380    5.295310    3.134820
  N     -0.389350    5.405620    4.274510
  C     -1.969020    6.998870    1.342800
  C     -2.732120    7.726840    0.486150
  C     -3.696840    8.730830    0.740880
  N     -4.111750    9.305070    1.918200
  C     -3.611660    9.088170    3.255150
  C     -2.257590    9.757750    3.474730
  C     -5.122370   10.274350    1.699110
  O     -5.650630   10.899690    2.589620
  C     -5.318470   10.270510    0.263870
  C     -4.442050    9.314720   -0.285710
  C     -4.650840    9.285430   -1.716240
  O     -4.121430    8.652820   -2.602860
  N     -5.679050   10.232270   -1.935060
  C     -6.103010   10.515120   -3.286560
  C     -7.190500    9.551960   -3.758690
  C     -6.080760   10.824800   -0.764230
  C     -7.062800   11.834960   -0.566300
  C     -8.101410   12.129820   -1.379930
  C     -9.089290   13.140560   -1.136090
  C     -8.899280   14.380040   -0.492220
  C     -7.652060   14.999250    0.029880
  O     -6.521620   14.628930   -0.027690
  O     -8.001380   16.196180    0.600900
  C     -9.343470   16.445630    0.463030
  O     -9.868650   17.393800    0.953560
  C     -9.918580   15.317670   -0.320130
  C    -11.238360   15.125010   -0.769010
  C    -11.431020   13.876640   -1.382150
  C    -10.412690   12.952550   -1.577780
  C    -11.002440   11.795910   -2.290300
  O    -10.491030   10.784490   -2.664040
  O    -12.331820   12.072070   -2.487300
  C    -12.664290   13.304680   -1.975610
  O    -13.764820   13.754190   -2.040660
  C    -12.311480   16.080140   -0.681880
  C    -12.152230   17.410320   -0.846300
  C    -13.254860   18.310570   -0.807120
  C    -13.179780   19.616010   -1.178330
  C    -14.241460   20.611870   -1.116590
  C    -15.509380   20.427970   -0.633910
  C    -16.497590   21.436340   -0.601530
  N    -17.347340   22.205790   -0.548490
  C    -16.022960   19.228580   -0.094540
  N    -16.518240   18.299780    0.363540
  C    -13.710310   21.861490   -1.646570
  C    -12.350150   21.661340   -2.019900
  C    -11.967140   20.265590   -1.763750
  O    -10.900560   19.748520   -2.015470
  C    -11.590090   22.665110   -2.549320
  C    -12.166420   23.940480   -2.736450
  C    -13.527910   24.149300   -2.369360
  C    -14.288880   23.092130   -1.821290
  C    -14.095830   25.424890   -2.565850
  C    -13.356410   26.445330   -3.098910
  C    -12.015950   26.238680   -3.458970
  C    -11.433360   25.013180   -3.281250
  H      2.976660   -0.855050    0.574480
  H      3.645510    0.028350   -4.287860
  H      4.595990   -2.179290   -4.558290
  H      5.272030   -4.350030   -3.611950
  H      4.956170   -4.812710   -1.213470
  H      3.960940   -3.107210    0.259460
  H      0.829990    4.221360   -2.374680
  H      1.198430    3.591070    1.509380
  H     -2.024190    7.122300    2.414200
  H     -2.624850    7.526460   -0.574850
  H     -3.567930    8.016580    3.465120
  H     -4.351340    9.540090    3.923000
  H     -1.519900    9.403380    2.758350
  H     -1.901300    9.542300    4.478040
  H     -2.356050   10.834720    3.363470
  H     -5.219580   10.379690   -3.919020
  H     -6.425970   11.556000   -3.349590
  H     -6.806080    8.535360   -3.741050
  H     -7.475430    9.795970   -4.778260
  H     -8.077420    9.595880   -3.131020
  H     -6.958640   12.340310    0.383820
  H     -8.313470   11.508230   -2.236270
  H    -13.306680   15.663030   -0.589920
  H    -11.180160   17.830770   -1.053080
  H    -14.195160   17.905560   -0.455950
  H    -10.560870   22.485350   -2.822540
  H    -15.315980   23.284470   -1.555350
  H    -15.127760   25.579440   -2.286870
  H    -13.800390   27.418320   -3.246280
  H    -11.447700   27.055450   -3.878090
  H    -10.402090   24.847890   -3.556650

 Total Charge           Charge          ....    0
 Multiplicity           Mult            ....    1
 Number of Electrons    NEL             ....  566
 Basis Dimension        Dim             .... 1321

ORBITAL ENERGIES
----------------

  NO   OCC          E(Eh)            E(eV)
   0   2.0000     -88.989256     -2421.5208
   1   2.0000     -19.309193      -525.4299
   2   2.0000     -19.304901      -525.3131
   3   2.0000     -19.258065      -524.0386
   4   2.0000     -19.256919      -524.0074
   5   2.0000     -19.251710      -523.8657
   6   2.0000     -19.251135      -523.8500
   7   2.0000     -19.226708      -523.1853
   8   2.0000     -19.226284      -523.1738
   9   2.0000     -19.202318      -522.5216
  10   2.0000     -19.201809      -522.5078
  11   2.0000     -14.464731      -393.6054
  12   2.0000     -14.463938      -393.5838
  13   2.0000     -14.423480      -392.4829
  14   2.0000     -14.421836      -392.4381
  15   2.0000     -14.420693      -392.4070
  16   2.0000     -14.419150      -392.3650
  17   2.0000     -14.417720      -392.3261
  18   2.0000     -10.451255      -284.3931
  19   2.0000     -10.450023      -284.3596
  20   2.0000     -10.447112      -284.2804
  21   2.0000     -10.446328      -284.2590
  22   2.0000     -10.385723      -282.6099
  23   2.0000     -10.384785      -282.5844
  24   2.0000     -10.377822      -282.3949
  25   2.0000     -10.376734      -282.3653
  26   2.0000     -10.355419      -281.7853
  27   2.0000     -10.354568      -281.7621
  28   2.0000     -10.353774      -281.7405
  29   2.0000     -10.353393      -281.7302
  30   2.0000     -10.351744      -281.6853
  31   2.0000     -10.348314      -281.5919
  32   2.0000     -10.348226      -281.5896
  33   2.0000     -10.347845      -281.5792
  34   2.0000     -10.347730      -281.5761
  35   2.0000     -10.347035      -281.5571
  36   2.0000     -10.346327      -281.5379
  37   2.0000     -10.345444      -281.5138
  38   2.0000     -10.344271      -281.4819
  39   2.0000     -10.334350      -281.2120
  40   2.0000     -10.333733      -281.1952
  41   2.0000     -10.330087      -281.0960
  42   2.0000     -10.325383      -280.9679
  43   2.0000     -10.324009      -280.9306
  44   2.0000     -10.323190      -280.9083
  45   2.0000     -10.323029      -280.9039
  46   2.0000     -10.321730      -280.8685
  47   2.0000     -10.318537      -280.7817
  48   2.0000     -10.317764      -280.7606
  49   2.0000     -10.316219      -280.7186
  50   2.0000     -10.314829      -280.6808
  51   2.0000     -10.314789      -280.6797
  52   2.0000     -10.313423      -280.6425
  53   2.0000     -10.313147      -280.6350
  54   2.0000     -10.312360      -280.6136
  55   2.0000     -10.312344      -280.6131
  56   2.0000     -10.311361      -280.5864
  57   2.0000     -10.309628      -280.5392
  58   2.0000     -10.309191      -280.5273
  59   2.0000     -10.307809      -280.4897
  60   2.0000     -10.304436      -280.3980
  61   2.0000     -10.303633      -280.3761
  62   2.0000     -10.303429      -280.3705
  63   2.0000     -10.303043      -280.3601
  64   2.0000     -10.302820      -280.3540
  65   2.0000     -10.302285      -280.3394
  66   2.0000     -10.302085      -280.3340
  67   2.0000     -10.301781      -280.3257
  68   2.0000     -10.301477      -280.3174
  69   2.0000     -10.295039      -280.1422
  70   2.0000     -10.294130      -280.1175
  71   2.0000     -10.291764      -280.0531
  72   2.0000     -10.291245      -280.0390
  73   2.0000     -10.290993      -280.0322
  74   2.0000     -10.290617      -280.0219
  75   2.0000     -10.290489      -280.0184
  76   2.0000     -10.290090      -280.0076
  77   2.0000     -10.289768      -279.9988
  78   2.0000     -10.289268      -279.9852
  79   2.0000     -10.276290      -279.6321
  80   2.0000     -10.275948      -279.6228
  81   2.0000     -10.266572      -279.3676
  82   2.0000     -10.262172      -279.2479
  83   2.0000      -8.084583      -219.9927
  84   2.0000      -6.053637      -164.7278
  85   2.0000      -6.049634      -164.6189
  86   2.0000      -6.046970      -164.5464
  87   2.0000      -1.258921       -34.2570
  88   2.0000      -1.255773       -34.1713
  89   2.0000      -1.184873       -32.2420
  90   2.0000      -1.180432       -32.1212
  91   2.0000      -1.147234       -31.2178
  92   2.0000      -1.144592       -31.1459
  93   2.0000      -1.142379       -31.0857
  94   2.0000      -1.141644       -31.0657
  95   2.0000      -1.141130       -31.0517
  96   2.0000      -1.137924       -30.9645
  97   2.0000      -1.074593       -29.2412
  98   2.0000      -1.065192       -28.9853
  99   2.0000      -1.031407       -28.0660
 100   2.0000      -1.027480       -27.9592
 101   2.0000      -1.025327       -27.9006
 102   2.0000      -1.022999       -27.8372
 103   2.0000      -1.005219       -27.3534
 104   2.0000      -1.003792       -27.3146
 105   2.0000      -1.000696       -27.2303
 106   2.0000      -0.998484       -27.1701
 107   2.0000      -0.996733       -27.1225
 108   2.0000      -0.978177       -26.6176
 109   2.0000      -0.976743       -26.5785
 110   2.0000      -0.959265       -26.1029
 111   2.0000      -0.942112       -25.6362
 112   2.0000      -0.940755       -25.5993
 113   2.0000      -0.937892       -25.5213
 114   2.0000      -0.934923       -25.4405
 115   2.0000      -0.927428       -25.2366
 116   2.0000      -0.924486       -25.1566
 117   2.0000      -0.910691       -24.7812
 118   2.0000      -0.905961       -24.6525
 119   2.0000      -0.892201       -24.2780
 120   2.0000      -0.890027       -24.2189
 121   2.0000      -0.886597       -24.1255
 122   2.0000      -0.885415       -24.0934
 123   2.0000      -0.880363       -23.9559
 124   2.0000      -0.870738       -23.6940
 125   2.0000      -0.858317       -23.3560
 126   2.0000      -0.851496       -23.1704
 127   2.0000      -0.834210       -22.7000
 128   2.0000      -0.832944       -22.6656
 129   2.0000      -0.830348       -22.5949
 130   2.0000      -0.826743       -22.4968
 131   2.0000      -0.816814       -22.2267
 132   2.0000      -0.813972       -22.1493
 133   2.0000      -0.801677       -21.8147
 134   2.0000      -0.795966       -21.6593
 135   2.0000      -0.787775       -21.4365
 136   2.0000      -0.779179       -21.2025
 137   2.0000      -0.768971       -20.9248
 138   2.0000      -0.767716       -20.8906
 139   2.0000      -0.765983       -20.8435
 140   2.0000      -0.759398       -20.6643
 141   2.0000      -0.740337       -20.1456
 142   2.0000      -0.739248       -20.1160
 143   2.0000      -0.729287       -19.8449
 144   2.0000      -0.719449       -19.5772
 145   2.0000      -0.712068       -19.3764
 146   2.0000      -0.709642       -19.3103
 147   2.0000      -0.708893       -19.2900
 148   2.0000      -0.703828       -19.1521
 149   2.0000      -0.702617       -19.1192
 150   2.0000      -0.696420       -18.9506
 151   2.0000      -0.691241       -18.8096
 152   2.0000      -0.686746       -18.6873
 153   2.0000      -0.679591       -18.4926
 154   2.0000      -0.678380       -18.4597
 155   2.0000      -0.669340       -18.2137
 156   2.0000      -0.668025       -18.1779
 157   2.0000      -0.666744       -18.1430
 158   2.0000      -0.658454       -17.9175
 159   2.0000      -0.654146       -17.8002
 160   2.0000      -0.643769       -17.5178
 161   2.0000      -0.640464       -17.4279
 162   2.0000      -0.636073       -17.3084
 163   2.0000      -0.631330       -17.1794
 164   2.0000      -0.626304       -17.0426
 165   2.0000      -0.621390       -16.9089
 166   2.0000      -0.621065       -16.9000
 167   2.0000      -0.612775       -16.6745
 168   2.0000      -0.612145       -16.6573
 169   2.0000      -0.611196       -16.6315
 170   2.0000      -0.604637       -16.4530
 171   2.0000      -0.599114       -16.3027
 172   2.0000      -0.597155       -16.2494
 173   2.0000      -0.592215       -16.1150
 174   2.0000      -0.586620       -15.9627
 175   2.0000      -0.584937       -15.9170
 176   2.0000      -0.582308       -15.8454
 177   2.0000      -0.578161       -15.7326
 178   2.0000      -0.575386       -15.6570
 179   2.0000      -0.573206       -15.5977
 180   2.0000      -0.565664       -15.3925
 181   2.0000      -0.563568       -15.3355
 182   2.0000      -0.559089       -15.2136
 183   2.0000      -0.557094       -15.1593
 184   2.0000      -0.553740       -15.0680
 185   2.0000      -0.552920       -15.0457
 186   2.0000      -0.551154       -14.9977
 187   2.0000      -0.550764       -14.9871
 188   2.0000      -0.544954       -14.8290
 189   2.0000      -0.544592       -14.8191
 190   2.0000      -0.543940       -14.8014
 191   2.0000      -0.543077       -14.7779
 192   2.0000      -0.540099       -14.6968
 193   2.0000      -0.538887       -14.6639
 194   2.0000      -0.535548       -14.5730
 195   2.0000      -0.531115       -14.4524
 196   2.0000      -0.528902       -14.3922
 197   2.0000      -0.527877       -14.3643
 198   2.0000      -0.527176       -14.3452
 199   2.0000      -0.526621       -14.3301
 200   2.0000      -0.524559       -14.2740
 201   2.0000      -0.523748       -14.2519
 202   2.0000      -0.521928       -14.2024
 203   2.0000      -0.520810       -14.1720
 204   2.0000      -0.520156       -14.1542
 205   2.0000      -0.518233       -14.1018
 206   2.0000      -0.517111       -14.0713
 207   2.0000      -0.516712       -14.0604
 208   2.0000      -0.515985       -14.0407
 209   2.0000      -0.512431       -13.9440
 210   2.0000      -0.511126       -13.9085
 211   2.0000      -0.508187       -13.8285
 212   2.0000      -0.503962       -13.7135
 213   2.0000      -0.503427       -13.6990
 214   2.0000      -0.501275       -13.6404
 215   2.0000      -0.500332       -13.6147
 216   2.0000      -0.498421       -13.5627
 217   2.0000      -0.495007       -13.4698
 218   2.0000      -0.492484       -13.4012
 219   2.0000      -0.491589       -13.3768
 220   2.0000      -0.481490       -13.1020
 221   2.0000      -0.479335       -13.0434
 222   2.0000      -0.477295       -12.9879
 223   2.0000      -0.474102       -12.9010
 224   2.0000      -0.472772       -12.8648
 225   2.0000      -0.470271       -12.7967
 226   2.0000      -0.469950       -12.7880
 227   2.0000      -0.466551       -12.6955
 228   2.0000      -0.459456       -12.5024
 229   2.0000      -0.456613       -12.4251
 230   2.0000      -0.455113       -12.3842
 231   2.0000      -0.453655       -12.3446
 232   2.0000      -0.452368       -12.3096
 233   2.0000      -0.451690       -12.2911
 234   2.0000      -0.450567       -12.2605
 235   2.0000      -0.449629       -12.2350
 236   2.0000      -0.448085       -12.1930
 237   2.0000      -0.447850       -12.1866
 238   2.0000      -0.445261       -12.1162
 239   2.0000      -0.444562       -12.0971
 240   2.0000      -0.442346       -12.0368
 241   2.0000      -0.440440       -11.9850
 242   2.0000      -0.439826       -11.9683
 243   2.0000      -0.438125       -11.9220
 244   2.0000      -0.438041       -11.9197
 245   2.0000      -0.437988       -11.9183
 246   2.0000      -0.432522       -11.7695
 247   2.0000      -0.432229       -11.7616
 248   2.0000      -0.431078       -11.7302
 249   2.0000      -0.429133       -11.6773
 250   2.0000      -0.427963       -11.6455
 251   2.0000      -0.426483       -11.6052
 252   2.0000      -0.425020       -11.5654
 253   2.0000      -0.424773       -11.5587
 254   2.0000      -0.421011       -11.4563
 255   2.0000      -0.418091       -11.3768
 256   2.0000      -0.414834       -11.2882
 257   2.0000      -0.413086       -11.2406
 258   2.0000      -0.411092       -11.1864
 259   2.0000      -0.409242       -11.1361
 260   2.0000      -0.407432       -11.0868
 261   2.0000      -0.396138       -10.7795
 262   2.0000      -0.393830       -10.7167
 263   2.0000      -0.391783       -10.6610
 264   2.0000      -0.389300       -10.5934
 265   2.0000      -0.383735       -10.4420
 266   2.0000      -0.380427       -10.3519
 267   2.0000      -0.372291       -10.1306
 268   2.0000      -0.358937        -9.7672
 269   2.0000      -0.354895        -9.6572
 270   2.0000      -0.349070        -9.4987
 271   2.0000      -0.347887        -9.4665
 272   2.0000      -0.344892        -9.3850
 273   2.0000      -0.344011        -9.3610
 274   2.0000      -0.341952        -9.3050
 275   2.0000      -0.327278        -8.9057
 276   2.0000      -0.324306        -8.8248
 277   2.0000      -0.322379        -8.7724
 278   2.0000      -0.311257        -8.4697
 279   2.0000      -0.304772        -8.2933
 280   2.0000      -0.297376        -8.0920
 281   2.0000      -0.294148        -8.0042
 282   2.0000      -0.250264        -6.8100
 283   0.0000      -0.125384        -3.4119
 284   0.0000      -0.109593        -2.9822
 285   0.0000      -0.105879        -2.8811
 286   0.0000      -0.089176        -2.4266
 287   0.0000      -0.069824        -1.9000

MULLIKEN ATOMIC CHARGES
-----------------------
   0 C :    0.297859
   1 C :   -0.349540
   2 C :   -0.179887
   3 N :    0.152862
   4 C :   -0.204437
   5 N :    0.168409
   6 C :    0.049137
   7 C :    0.001497
   8 C :   -0.081560
   9 C :    0.099746
  10 C :    0.098914
  11 C :   -0.084249
  12 C :   -0.019692
  13 C :    0.037543
  14 C :    0.038315
  15 C :   -0.018058
  16 C :    0.160252
  17 O :   -0.152511
  18 C :   -0.081605
  19 C :    0.044978
  20 C :   -0.102479
  21 S :    0.176034
  22 C :   -0.042751
  23 C :   -0.068258
  24 C :    0.049775
  25 C :   -0.180865
  26 N :    0.135272
  27 C :    0.006665
  28 C :   -0.040360
  29 C :    0.130996
  30 N :   -0.271567
  31 C :    0.092948
  32 C :   -0.002985
  33 C :    0.150956
  34 O :   -0.178197
  35 C :   -0.028329
  36 C :   -0.040322
  37 C :    0.153857
  38 O :   -0.184378
  39 N :   -0.268389
  40 C :    0.102062
  41 C :   -0.000143
  42 C :    0.088307
  43 C :    0.041012
  44 C :   -0.056737
  45 C :    0.051552
  46 C :   -0.074989
  47 C :    0.233251
  48 O :   -0.094065
  49 O :   -0.217228
  50 C :    0.229938
  51 O :   -0.088911
  52 C :   -0.068262
  53 C :    0.032960
  54 C :   -0.062148
  55 C :   -0.073322
  56 C :    0.239595
  57 O :   -0.102110
  58 O :   -0.226312
  59 C :    0.240425
  60 O :   -0.093260
  61 C :   -0.027803
  62 C :    0.058165
  63 C :   -0.061144
  64 C :   -0.048717
  65 C :    0.331367
  66 C :   -0.347800
  67 C :   -0.180597
  68 N :    0.155641
  69 C :   -0.192958
  70 N :    0.159296
  71 C :    0.048492
  72 C :   -0.003525
  73 C :    0.154814
  74 O :   -0.146128
  75 C :   -0.075573
  76 C :    0.098392
  77 C :    0.097646
  78 C :   -0.082742
  79 C :   -0.017968
  80 C :    0.038023
  81 C :    0.037502
  82 C :   -0.015308
  83 H :   -0.010499
  84 H :   -0.005365
  85 H :   -0.007750
  86 H :   -0.002460
  87 H :   -0.004098
  88 H :   -0.015512
  89 H :    0.022899
  90 H :    0.028668
  91 H :    0.015171
  92 H :    0.021166
  93 H :    0.032821
  94 H :    0.048062
  95 H :    0.020989
  96 H :    0.032764
  97 H :    0.031011
  98 H :    0.038693
  99 H :    0.025395
 100 H :    0.031085
 101 H :    0.022123
 102 H :    0.035466
 103 H :    0.026159
 104 H :    0.015977
 105 H :    0.038000
 106 H :    0.037674
 107 H :    0.022876
 108 H :   -0.011352
 109 H :   -0.007674
 110 H :   -0.007122
 111 H :   -0.002914
 112 H :   -0.002569
 113 H :   -0.015975
Sum of atomic charges:   -0.0000000

LOEWDIN ATOMIC CHARGES
----------------------
   0 C :    0.074928
   1 C :   -0.136191
   2 C :   -0.017070
   3 N :   -0.049470
   4 C :   -0.027102
   5 N :   -0.045895
   6 C :   -0.026403
   7 C :   -0.056406
   8 C :    0.034284
   9 C :   -0.007915
  10 C :   -0.005232
  11 C :    0.020466
  12 C :   -0.004966
  13 C :   -0.011545
  14 C :   -0.010647
  15 C :   -0.008735
  16 C :    0.088551
  17 O :   -0.138719
  18 C :   -0.082018
  19 C :    0.043503
  20 C :   -0.171240
  21 S :    0.492357
  22 C :   -0.126711
  23 C :   -0.103440
  24 C :    0.018513
  25 C :   -0.031519
  26 N :   -0.048625
  27 C :   -0.024010
  28 C :   -0.013765
  29 C :    0.074569
  30 N :   -0.005993
  31 C :    0.034925
  32 C :   -0.061968
  33 C :    0.084520
  34 O :   -0.180422
  35 C :   -0.107520
  36 C :   -0.106000
  37 C :    0.081395
  38 O :   -0.185099
  39 N :    0.000399
  40 C :    0.035905
  41 C :   -0.062512
  42 C :    0.075742
  43 C :    0.021744
  44 C :   -0.026583
  45 C :    0.028136
  46 C :   -0.041377
  47 C :    0.106220
  48 O :   -0.089171
  49 O :   -0.047788
  50 C :    0.106339
  51 O :   -0.084428
  52 C :   -0.035250
  53 C :    0.022850
  54 C :   -0.038693
  55 C :   -0.044039
  56 C :    0.110803
  57 O :   -0.097336
  58 O :   -0.050844
  59 C :    0.109414
  60 O :   -0.087942
  61 C :    0.003180
  62 C :    0.018246
  63 C :    0.065762
  64 C :   -0.068411
  65 C :    0.072756
  66 C :   -0.127458
  67 C :   -0.016132
  68 N :   -0.046140
  69 C :   -0.021144
  70 N :   -0.042182
  71 C :   -0.025999
  72 C :   -0.057215
  73 C :    0.088189
  74 O :   -0.137040
  75 C :    0.035984
  76 C :   -0.007275
  77 C :   -0.004712
  78 C :    0.021285
  79 C :   -0.004369
  80 C :   -0.010822
  81 C :   -0.009887
  82 C :   -0.008325
  83 H :    0.039773
  84 H :    0.039547
  85 H :    0.035293
  86 H :    0.034085
  87 H :    0.033414
  88 H :    0.032562
  89 H :    0.045090
  90 H :    0.043786
  91 H :    0.042462
  92 H :    0.042143
  93 H :    0.023781
  94 H :    0.039683
  95 H :    0.021785
  96 H :    0.035493
  97 H :    0.033329
  98 H :    0.036832
  99 H :    0.024790
 100 H :    0.033479
 101 H :    0.031762
 102 H :    0.023696
 103 H :    0.047526
 104 H :    0.038248
 105 H :    0.043790
 106 H :    0.033365
 107 H :    0.045492
 108 H :    0.039905
 109 H :    0.039440
 110 H :    0.035523
 111 H :    0.034155
 112 H :    0.033868
 113 H :    0.032636

  Mayer bond orders larger than 0.100000
B(  0-C ,  1-C ) :   1.6404 B(  0-C ,  6-C ) :   0.9910 B(  0-C , 18-C ) :   1.0595
B(  1-C ,  2-C ) :   1.1467 B(  1-C ,  4-C ) :   1.1388 B(  2-C ,  3-N ) :   2.9701
B(  4-C ,  5-N ) :   2.9961 B(  6-C ,  7-C ) :   1.2152 B(  6-C , 11-C ) :   1.4483
B(  7-C ,  8-C ) :   1.4659 B(  7-C , 16-C ) :   0.9560 B(  8-C ,  9-C ) :   1.1806
B(  8-C , 83-H ) :   1.0168 B(  9-C , 10-C ) :   1.2567 B(  9-C , 15-C ) :   1.2426
B( 10-C , 11-C ) :   1.2057 B( 10-C , 12-C ) :   1.2394 B( 11-C , 84-H ) :   0.9910
B( 12-C , 13-C ) :   1.4891 B( 12-C , 85-H ) :   0.9976 B( 13-C , 14-C ) :   1.2608
B( 13-C , 86-H ) :   0.9880 B( 14-C , 15-C ) :   1.4903 B( 14-C , 87-H ) :   0.9879
B( 15-C , 88-H ) :   0.9982 B( 16-C , 17-O ) :   2.1777 B( 16-C , 18-C ) :   0.9314
B( 18-C , 19-C ) :   1.6333 B( 19-C , 20-C ) :   1.1753 B( 19-C , 89-H ) :   0.9200
B( 20-C , 21-S ) :   1.1064 B( 20-C , 24-C ) :   1.4462 B( 21-S , 22-C ) :   1.1624
B( 22-C , 23-C ) :   1.3938 B( 22-C , 27-C ) :   1.2022 B( 23-C , 24-C ) :   1.2930
B( 23-C , 25-C ) :   1.1042 B( 24-C , 90-H ) :   0.9813 B( 25-C , 26-N ) :   3.0126
B( 27-C , 28-C ) :   1.5469 B( 27-C , 91-H ) :   0.9639 B( 28-C , 29-C ) :   1.1941
B( 28-C , 92-H ) :   0.9472 B( 29-C , 30-N ) :   1.1778 B( 29-C , 36-C ) :   1.3386
B( 30-N , 31-C ) :   0.9353 B( 30-N , 33-C ) :   1.0268 B( 31-C , 32-C ) :   1.1164
B( 31-C , 93-H ) :   0.9514 B( 31-C , 94-H ) :   0.9235 B( 32-C , 95-H ) :   0.9685
B( 32-C , 96-H ) :   0.9683 B( 32-C , 97-H ) :   0.9622 B( 33-C , 34-O ) :   2.1470
B( 33-C , 35-C ) :   0.9699 B( 35-C , 36-C ) :   1.2470 B( 35-C , 42-C ) :   1.3401
B( 36-C , 37-C ) :   0.9763 B( 37-C , 38-O ) :   2.1248 B( 37-C , 39-N ) :   1.0350
B( 39-N , 40-C ) :   0.9336 B( 39-N , 42-C ) :   1.1890 B( 40-C , 41-C ) :   1.1171
B( 40-C , 98-H ) :   0.9289 B( 40-C , 99-H ) :   0.9491 B( 41-C ,100-H ) :   0.9584
B( 41-C ,101-H ) :   0.9678 B( 41-C ,102-H ) :   0.9607 B( 42-C , 43-C ) :   1.1852
B( 43-C , 44-C ) :   1.6222 B( 43-C ,103-H ) :   0.9397 B( 44-C , 45-C ) :   1.1192
B( 44-C ,104-H ) :   0.9513 B( 45-C , 46-C ) :   1.3112 B( 45-C , 55-C ) :   1.3257
B( 46-C , 47-C ) :   0.8974 B( 46-C , 52-C ) :   1.3819 B( 47-C , 48-O ) :   2.2555
B( 47-C , 49-O ) :   1.0584 B( 49-O , 50-C ) :   1.0533 B( 50-C , 51-O ) :   2.2671
B( 50-C , 52-C ) :   0.8947 B( 52-C , 53-C ) :   1.3305 B( 53-C , 54-C ) :   1.3442
B( 53-C , 61-C ) :   1.0688 B( 54-C , 55-C ) :   1.3549 B( 54-C , 59-C ) :   0.9047
B( 55-C , 56-C ) :   0.9140 B( 56-C , 57-O ) :   2.2177 B( 56-C , 58-O ) :   1.0642
B( 58-O , 59-C ) :   1.0516 B( 59-C , 60-O ) :   2.2484 B( 61-C , 62-C ) :   1.6472
B( 61-C ,105-H ) :   0.9585 B( 62-C , 63-C ) :   1.1290 B( 62-C ,106-H ) :   0.9639
B( 63-C , 64-C ) :   1.6118 B( 63-C ,107-H ) :   0.9610 B( 64-C , 65-C ) :   1.0429
B( 64-C , 73-C ) :   0.9270 B( 65-C , 66-C ) :   1.6457 B( 65-C , 71-C ) :   0.9938
B( 66-C , 67-C ) :   1.1450 B( 66-C , 69-C ) :   1.1455 B( 67-C , 68-N ) :   2.9645
B( 69-C , 70-N ) :   2.9642 B( 71-C , 72-C ) :   1.2142 B( 71-C , 78-C ) :   1.4434
B( 72-C , 73-C ) :   0.9507 B( 72-C , 75-C ) :   1.4682 B( 73-C , 74-O ) :   2.1982
B( 75-C , 76-C ) :   1.1834 B( 75-C ,108-H ) :   1.0150 B( 76-C , 77-C ) :   1.2543
B( 76-C , 82-C ) :   1.2426 B( 77-C , 78-C ) :   1.2125 B( 77-C , 79-C ) :   1.2375
B( 78-C ,109-H ) :   0.9880 B( 79-C , 80-C ) :   1.4924 B( 79-C ,110-H ) :   0.9968
B( 80-C , 81-C ) :   1.2587 B( 80-C ,111-H ) :   0.9879 B( 81-C , 82-C ) :   1.4911
B( 81-C ,112-H ) :   0.9881 B( 82-C ,113-H ) :   0.9973

-----------------------------------------------------------------------------
         ABSORPTION SPECTRUM VIA TRANSITION ELECTRIC DIPOLE MOMENTS
-----------------------------------------------------------------------------
State   Energy  Wavelength   fosc         T2         TX        TY        TZ
        (cm-1)    (nm)                  (au**2)     (au)      (au)      (au)
-----------------------------------------------------------------------------
   0   13015.6    768.3   1.350358782  34.15561  -4.08451   4.09013  -0.86214
   1   16908.3    591.4   0.014280398   0.27805   0.41655   0.21032   0.24556
   2   18910.5    528.8   0.033893436   0.59005  -0.05607  -0.09317   0.76041
   3   22926.7    436.2   0.475990385   6.83489   1.00094  -1.52487  -1.87291
   4   23452.7    426.4   0.214891875   3.01650  -1.17629   0.93783   0.86794
   5   24119.4    414.6   0.184132238   2.51327   1.26837  -0.94586  -0.09935
   6   24774.6    403.6   0.002037122   0.02707  -0.00646  -0.00764   0.16422
   7   25480.2    392.5   0.308588114   3.98705  -1.13497   1.57684   0.46093
   8   25599.7    390.6   0.112831154   1.45101   0.93632  -0.56057   0.50996
   9   25925.3    385.7   0.660332232   8.38521  -1.20826   2.62516  -0.18395
  10   26371.4    379.2   0.133845099   1.67088  -0.63557   1.11813  -0.12929
  11   26659.2    375.1   0.042058256   0.51937   0.27498  -0.65933  -0.09512
  12   27034.4    369.9   0.026797987   0.32633   0.03520   0.14489  -0.55145
  13   27937.3    357.9   0.060481618   0.71271  -0.40815   0.68654  -0.27346
  14   28304.8    353.3   0.147548314   1.71613   0.18920  -1.26977   0.26080
  15   28579.7    349.9   0.014221821   0.16382   0.11915  -0.30281  -0.24069
  16   29214.3    342.3   0.212871196   2.39882  -0.57535   1.43779  -0.02325
  17   30259.5    330.5   0.009149530   0.09954   0.06916   0.01641  -0.30739
  18   30371.7    329.3   0.046086156   0.49955   0.18613   0.29508  -0.61468
  19   30595.5    326.8   0.003543027   0.03812   0.13063   0.11203   0.09225
  20   31474.3    317.7   0.075864802   0.79352   0.10895   0.87375  -0.13496
  21   31509.8    317.4   0.019854824   0.20744   0.11670   0.38757   0.20883
  22   32344.5    309.2   0.012509982   0.12733   0.18534   0.20290   0.22762
  23   32519.4    307.5   0.224550346   2.27325   1.44952  -0.01100  -0.41476
  24   32557.5    307.1   0.858562601   8.68153   0.07267   2.87965  -0.61957
  25   32743.4    305.4   0.125827258   1.26511   0.07465   0.94399  -0.60697
  26   32789.2    305.0   0.126458299   1.26967   0.02601  -1.01987   0.47839
  27   33032.7    302.7   0.013443328   0.13398  -0.02781   0.35380  -0.08962
  28   33243.5    300.8   0.131610321   1.30334  -0.46431  -0.08506   1.03948
  29   33633.9    297.3   0.117912582   1.15414  -1.06670  -0.12314  -0.03370
  30   33908.3    294.9   0.092468146   0.89776   0.04376   0.91241  -0.25172
  31   33931.4    294.7   0.011668997   0.11322  -0.28331   0.17918  -0.02901
  32   34199.1    292.4   0.012864504   0.12384  -0.14810   0.08427   0.30790
  33   34303.8    291.5   0.027923018   0.26798   0.08685   0.01603  -0.51007
  34   34447.1    290.3   0.003295483   0.03150   0.03610  -0.16909  -0.04002
  35   34987.5    285.8   0.004610666   0.04338   0.05941  -0.14113  -0.14120
  36   35142.1    284.6   0.008696502   0.08147  -0.26089  -0.06523   0.09565
  37   35264.1    283.6   0.067051704   0.62597   0.11453  -0.68733  -0.37473
  38   35475.2    281.9   0.008904241   0.08263  -0.12706  -0.25391   0.04490
  39   35708.1    280.0   0.011096794   0.10231  -0.15316  -0.05233   0.27588
  40   36173.2    276.4   0.146569284   1.33393  -0.05570  -0.97029   0.62400
  41   36382.5    274.9   0.011186408   0.10122   0.27451  -0.13365   0.08948
  42   36455.0    274.3   0.005969020   0.05390   0.01546  -0.23113  -0.01558
  43   36695.2    272.5   0.071722626   0.64346   0.54087   0.38045  -0.45407
  44   36986.2    270.4   0.003641363   0.03241  -0.05391  -0.10657   0.13472
  45   37116.8    269.4   0.002799116   0.02483  -0.15180  -0.02955   0.03018
  46   37219.0    268.7   0.132523533   1.17221  -1.02928  -0.28977   0.16978
  47   37350.8    267.7   0.085982088   0.75785  -0.03457  -0.66065   0.56586
  48   37463.9    266.9   0.138384056   1.21604  -0.12578  -0.86735   0.66927
  49   37615.2    265.8   0.033363441   0.29200  -0.39078  -0.26794   0.25981
  50   37741.0    265.0   0.024132214   0.21050   0.15188  -0.19031   0.38887
  51   38348.6    260.8   0.010439789   0.08962  -0.25445   0.15517   0.02825
  52   38437.8    260.2   0.013119704   0.11237   0.25766   0.11686  -0.17979
  53   38682.4    258.5   0.007553897   0.06429   0.10100  -0.20954  -0.10090
  54   38757.7    258.0   0.068239536   0.57963  -0.23546  -0.41720   0.59173
  55   38994.2    256.4   0.006212580   0.05245  -0.18511   0.13485  -0.00030
  56   39296.9    254.5   0.153173767   1.28322  -0.42011   0.08853   1.04828
  57   39400.6    253.8   0.013606907   0.11369  -0.22311  -0.00117  -0.25281
  58   39652.7    252.2   0.006146786   0.05103  -0.09115   0.17438  -0.11097
  59   39675.6    252.0   0.071703227   0.59496  -0.36481   0.57720  -0.35877
  60   39990.8    250.1   0.091463009   0.75294   0.38749  -0.62745   0.45728
  61   40057.4    249.6   0.061410686   0.50470  -0.68043   0.12583  -0.16089

FINAL SINGLE POINT ENERGY     -4024.635869596974

DIPOLE MOMENT
-------------
                                X             Y             Z
Electronic contribution:    -22.32405      11.62056       0.35854
Nuclear contribution   :     23.65711     -11.93308      -1.24012
                        -----------------------------------------
Total Dipole Moment    :      1.33305      -0.31252      -0.88158
                        -----------------------------------------
Magnitude (a.u.)       :      1.62846
Magnitude (Debye)      :      4.13922

Rotational constants in cm-1:     0.002115     0.000144     0.000144
Rotational constants in MHz :    63.417179     4.327214     4.302216

                             ****ORCA TERMINATED NORMALLY****
TOTAL RUN TIME: 0 days 0 hours 11 minutes 36 seconds 518 msec
