                         Program Version 4.2.0 -  RELEASE  -
|  1> # ORCA input file
|  2> # SCF done       -198.490013942415          0.000495278994
|  3> ! CAM-B3LYP def2-SVP def2/J RIJCOSX Grid4 TightSCF
|  4> %maxcore 5000
|  5> %tddft
|  6>     Mode sTDDFT
|  7>     Ethresh 5.0
|  8>     maxcore 5000
|  9> end
| 10>
| 11> %pal
| 12>   nprocs 6
| 13>   end
| 14> * xyz 0 1
| 15>    C        0.18374        -1.23776        -0.24094
| 16>    N       -0.27585        -0.60623        -1.35575
| 17>    C       -0.49910        -1.21940        -2.64045
| 18>    C       -1.78954        -2.03501        -2.65684
| 19>    C       -0.58598         0.74503        -1.09178
| 20>    O       -1.01462         1.50920        -1.93951
| 21>    C       -0.26654         0.91138         0.30188
| 22>    C        0.21066        -0.34762         0.79396
| 23>    C        0.53344        -0.18397         2.19666
| 24>    O        0.95732        -0.94962         3.03356
| 25>    N        0.22650         1.16573         2.46198
| 26>    C        0.45142         1.73754         3.76673
| 27>    C        1.74030         2.55474         3.81731
| 28>    C       -0.24418         1.82398         1.34675
| 29>    C       -0.63659         3.18872         1.34881
| 30>    C       -1.10970         3.81217         0.24303
| 31>    C       -1.52816         5.16743         0.20904
| 32>    C       -2.06021         5.82476        -0.86906
| 33>    C       -2.40713         7.16875        -0.60575
| 34>    C       -2.11191         7.54172         0.73594
| 35>    S       -1.42183         6.21159         1.62256
| 36>    C       -2.36193         8.80168         1.22677
| 37>    C       -2.93643         9.73680         0.36224
| 38>    C       -3.23884         9.36075        -0.97500
| 39>    C       -2.98074         8.10366        -1.46994
| 40>    S       -3.95667        10.68143        -1.84859
| 41>    C       -3.85480        11.72909        -0.43503
| 42>    C       -3.28930        11.07602         0.63225
| 43>    C       -4.28437        13.08536        -0.39987
| 44>    N       -4.92228        13.78432        -1.39934
| 45>    C       -5.41597        13.30074        -2.66554
| 46>    C       -6.73194        12.54336        -2.50922
| 47>    C       -5.17986        15.11646        -1.02302
| 48>    O       -5.74308        15.91537        -1.75006
| 49>    C       -4.64085        15.22888         0.30543
| 50>    C       -4.10337        13.96362         0.66742
| 51>    C       -3.55684        14.08562         1.99940
| 52>    O       -3.00586        13.28994         2.73860
| 53>    N       -3.78580        15.42477         2.35117
| 54>    C       -3.41901        15.92935         3.65159
| 55>    C       -4.62273        16.02452         4.58610
| 56>    C       -4.43518        16.11928         1.35523
| 57>    C       -4.77840        17.49053         1.44486
| 58>    C       -5.45152        18.14063         0.46283
| 59>    C       -5.81117        19.51047         0.51280
| 60>    C       -6.51475        20.19829        -0.44181
| 61>    C       -6.72887        21.55815        -0.12635
| 62>    C       -6.15292        21.91101         1.12693
| 63>    S       -5.37608        20.54218         1.87179
| 64>    C       -6.22231        23.18403         1.64160
| 65>    C       -6.89114        24.15521         0.89236
| 66>    C       -7.47489        23.79993        -0.35408
| 67>    C       -7.40296        22.52760        -0.87194
| 68>    S       -8.25026        25.16889        -1.09406
| 69>    C       -7.78977        26.21121         0.25025
| 70>    C       -7.08250        25.51876         1.20107
| 71>    C       -8.07921        27.60353         0.33331
| 72>    N       -8.82563        28.35323        -0.54597
| 73>    C       -9.60615        27.90686        -1.67380
| 74>    C      -10.92705        27.27969        -1.23584
| 75>    C       -8.86737        29.71256        -0.17232
| 76>    O       -9.46875        30.55511        -0.80968
| 77>    C       -8.07450        29.78240         1.02793
| 78>    C       -7.60949        28.46628         1.31944
| 79>    C       -6.81478        28.54127         2.52020
| 80>    O       -6.22312        27.70021         3.17382
| 81>    N       -6.84820        29.90076         2.87772
| 82>    C       -6.11280        30.38208         4.02121
| 83>    C       -4.78246        31.01301         3.61550
| 84>    C       -7.58908        30.64886         1.99360
| 85>    C       -7.78402        32.06448         2.12631
| 86>    C       -8.49056        32.78559         1.25351
| 87>    H        0.46552        -2.27403        -0.26949
| 88>    H        0.35680        -1.85425        -2.88838
| 89>    H       -0.56494        -0.40433        -3.36637
| 90>    H       -1.74895        -2.83257        -1.91810
| 91>    H       -1.93704        -2.47497        -3.63916
| 92>    H       -2.63791        -1.39382        -2.43039
| 93>    H        0.52733         0.89168         4.45611
| 94>    H       -0.40859         2.34982         4.05298
| 95>    H        2.58951         1.92142         3.57273
| 96>    H        1.88227         2.95651         4.81680
| 97>    H        1.70786         3.37984         3.10923
| 98>    H       -0.56099         3.74157         2.27524
| 99>    H       -1.19281         3.26687        -0.68848
|100>    H       -2.20250         5.34952        -1.82320
|101>    H       -2.12919         9.07202         2.24404
|102>    H       -3.21408         7.83833        -2.48881
|103>    H       -3.12840        11.54822         1.58548
|104>    H       -4.66056        12.67847        -3.14996
|105>    H       -5.58181        14.19377        -3.27603
|106>    H       -6.60690        11.67121        -1.87205
|107>    H       -7.08336        12.21484        -3.48311
|108>    H       -7.48265        13.19453        -2.06738
|109>    H       -2.93361        16.90345         3.54308
|110>    H       -2.69483        15.21716         4.05719
|111>    H       -5.37415        16.70196         4.18676
|112>    H       -4.30506        16.38851         5.55930
|113>    H       -5.07292        15.04280         4.71134
|114>    H       -4.48720        18.03380         2.33368
|115>    H       -5.74870        17.60528        -0.42978
|116>    H       -6.86648        19.73439        -1.34593
|117>    H       -5.77667        23.43931         2.58939
|118>    H       -7.84812        22.27771        -1.82186
|119>    H       -6.70312        25.97957         2.09616
|120>    H       -9.02447        27.21045        -2.28159
|121>    H       -9.80893        28.80586        -2.26408
|122>    H      -10.75617        26.40794        -0.60872
|123>    H      -11.49455        26.97318        -2.10965
|124>    H      -11.51237        28.00456        -0.67483
|125>    H       -5.92523        29.50619         4.64927
|126>    H       -6.72696        31.09212         4.58192
|127>    H       -4.16752        30.27869         3.10093
|128>    H       -4.25061        31.35415         4.49962
|129>    H       -4.93935        31.85958         2.95030
|130>    H       -7.32750        32.54092         2.98335
|131>    H       -8.95281        32.33355         0.39202
|132>    H       -8.61935        33.84639         1.38305
|133> *
|134>
|135>                          ****END OF INPUT****

CARTESIAN COORDINATES (ANGSTROEM)
---------------------------------
  C      0.183740   -1.237760   -0.240940
  N     -0.275850   -0.606230   -1.355750
  C     -0.499100   -1.219400   -2.640450
  C     -1.789540   -2.035010   -2.656840
  C     -0.585980    0.745030   -1.091780
  O     -1.014620    1.509200   -1.939510
  C     -0.266540    0.911380    0.301880
  C      0.210660   -0.347620    0.793960
  C      0.533440   -0.183970    2.196660
  O      0.957320   -0.949620    3.033560
  N      0.226500    1.165730    2.461980
  C      0.451420    1.737540    3.766730
  C      1.740300    2.554740    3.817310
  C     -0.244180    1.823980    1.346750
  C     -0.636590    3.188720    1.348810
  C     -1.109700    3.812170    0.243030
  C     -1.528160    5.167430    0.209040
  C     -2.060210    5.824760   -0.869060
  C     -2.407130    7.168750   -0.605750
  C     -2.111910    7.541720    0.735940
  S     -1.421830    6.211590    1.622560
  C     -2.361930    8.801680    1.226770
  C     -2.936430    9.736800    0.362240
  C     -3.238840    9.360750   -0.975000
  C     -2.980740    8.103660   -1.469940
  S     -3.956670   10.681430   -1.848590
  C     -3.854800   11.729090   -0.435030
  C     -3.289300   11.076020    0.632250
  C     -4.284370   13.085360   -0.399870
  N     -4.922280   13.784320   -1.399340
  C     -5.415970   13.300740   -2.665540
  C     -6.731940   12.543360   -2.509220
  C     -5.179860   15.116460   -1.023020
  O     -5.743080   15.915370   -1.750060
  C     -4.640850   15.228880    0.305430
  C     -4.103370   13.963620    0.667420
  C     -3.556840   14.085620    1.999400
  O     -3.005860   13.289940    2.738600
  N     -3.785800   15.424770    2.351170
  C     -3.419010   15.929350    3.651590
  C     -4.622730   16.024520    4.586100
  C     -4.435180   16.119280    1.355230
  C     -4.778400   17.490530    1.444860
  C     -5.451520   18.140630    0.462830
  C     -5.811170   19.510470    0.512800
  C     -6.514750   20.198290   -0.441810
  C     -6.728870   21.558150   -0.126350
  C     -6.152920   21.911010    1.126930
  S     -5.376080   20.542180    1.871790
  C     -6.222310   23.184030    1.641600
  C     -6.891140   24.155210    0.892360
  C     -7.474890   23.799930   -0.354080
  C     -7.402960   22.527600   -0.871940
  S     -8.250260   25.168890   -1.094060
  C     -7.789770   26.211210    0.250250
  C     -7.082500   25.518760    1.201070
  C     -8.079210   27.603530    0.333310
  N     -8.825630   28.353230   -0.545970
  C     -9.606150   27.906860   -1.673800
  C    -10.927050   27.279690   -1.235840
  C     -8.867370   29.712560   -0.172320
  O     -9.468750   30.555110   -0.809680
  C     -8.074500   29.782400    1.027930
  C     -7.609490   28.466280    1.319440
  C     -6.814780   28.541270    2.520200
  O     -6.223120   27.700210    3.173820
  N     -6.848200   29.900760    2.877720
  C     -6.112800   30.382080    4.021210
  C     -4.782460   31.013010    3.615500
  C     -7.589080   30.648860    1.993600
  C     -7.784020   32.064480    2.126310
  C     -8.490560   32.785590    1.253510
  H      0.465520   -2.274030   -0.269490
  H      0.356800   -1.854250   -2.888380
  H     -0.564940   -0.404330   -3.366370
  H     -1.748950   -2.832570   -1.918100
  H     -1.937040   -2.474970   -3.639160
  H     -2.637910   -1.393820   -2.430390
  H      0.527330    0.891680    4.456110
  H     -0.408590    2.349820    4.052980
  H      2.589510    1.921420    3.572730
  H      1.882270    2.956510    4.816800
  H      1.707860    3.379840    3.109230
  H     -0.560990    3.741570    2.275240
  H     -1.192810    3.266870   -0.688480
  H     -2.202500    5.349520   -1.823200
  H     -2.129190    9.072020    2.244040
  H     -3.214080    7.838330   -2.488810
  H     -3.128400   11.548220    1.585480
  H     -4.660560   12.678470   -3.149960
  H     -5.581810   14.193770   -3.276030
  H     -6.606900   11.671210   -1.872050
  H     -7.083360   12.214840   -3.483110
  H     -7.482650   13.194530   -2.067380
  H     -2.933610   16.903450    3.543080
  H     -2.694830   15.217160    4.057190
  H     -5.374150   16.701960    4.186760
  H     -4.305060   16.388510    5.559300
  H     -5.072920   15.042800    4.711340
  H     -4.487200   18.033800    2.333680
  H     -5.748700   17.605280   -0.429780
  H     -6.866480   19.734390   -1.345930
  H     -5.776670   23.439310    2.589390
  H     -7.848120   22.277710   -1.821860
  H     -6.703120   25.979570    2.096160
  H     -9.024470   27.210450   -2.281590
  H     -9.808930   28.805860   -2.264080
  H    -10.756170   26.407940   -0.608720
  H    -11.494550   26.973180   -2.109650
  H    -11.512370   28.004560   -0.674830
  H     -5.925230   29.506190    4.649270
  H     -6.726960   31.092120    4.581920
  H     -4.167520   30.278690    3.100930
  H     -4.250610   31.354150    4.499620
  H     -4.939350   31.859580    2.950300
  H     -7.327500   32.540920    2.983350
  H     -8.952810   32.333550    0.392020
  H     -8.619350   33.846390    1.383050

 Total Charge           Charge          ....    0
 Multiplicity           Mult            ....    1
 Number of Electrons    NEL             ....  536
 Basis Dimension        Dim             .... 1254

ORBITAL ENERGIES
----------------

  NO   OCC          E(Eh)            E(eV)
   0   2.0000     -88.955415     -2420.5999
   1   2.0000     -88.955383     -2420.5990
   2   2.0000     -88.949251     -2420.4322
   3   2.0000     -88.949135     -2420.4290
   4   2.0000     -19.187365      -522.1147
   5   2.0000     -19.187063      -522.1065
   6   2.0000     -19.187062      -522.1065
   7   2.0000     -19.186176      -522.0824
   8   2.0000     -19.182234      -521.9751
   9   2.0000     -19.180126      -521.9177
  10   2.0000     -14.452589      -393.2749
  11   2.0000     -14.451525      -393.2460
  12   2.0000     -14.450166      -393.2090
  13   2.0000     -14.450063      -393.2062
  14   2.0000     -14.446859      -393.1190
  15   2.0000     -14.444923      -393.0663
  16   2.0000     -10.370796      -282.2037
  17   2.0000     -10.369788      -282.1763
  18   2.0000     -10.369094      -282.1574
  19   2.0000     -10.368800      -282.1494
  20   2.0000     -10.366297      -282.0813
  21   2.0000     -10.364481      -282.0319
  22   2.0000     -10.342767      -281.4410
  23   2.0000     -10.341747      -281.4132
  24   2.0000     -10.335646      -281.2472
  25   2.0000     -10.334871      -281.2261
  26   2.0000     -10.333122      -281.1785
  27   2.0000     -10.321401      -280.8596
  28   2.0000     -10.313753      -280.6515
  29   2.0000     -10.313616      -280.6478
  30   2.0000     -10.307851      -280.4909
  31   2.0000     -10.307648      -280.4854
  32   2.0000     -10.306094      -280.4431
  33   2.0000     -10.305573      -280.4289
  34   2.0000     -10.305058      -280.4149
  35   2.0000     -10.305000      -280.4133
  36   2.0000     -10.304729      -280.4059
  37   2.0000     -10.304649      -280.4038
  38   2.0000     -10.304450      -280.3983
  39   2.0000     -10.302678      -280.3501
  40   2.0000     -10.302237      -280.3381
  41   2.0000     -10.301905      -280.3291
  42   2.0000     -10.291494      -280.0458
  43   2.0000     -10.290657      -280.0230
  44   2.0000     -10.288006      -279.9509
  45   2.0000     -10.287723      -279.9432
  46   2.0000     -10.287016      -279.9239
  47   2.0000     -10.286240      -279.9028
  48   2.0000     -10.286089      -279.8987
  49   2.0000     -10.285816      -279.8913
  50   2.0000     -10.285323      -279.8779
  51   2.0000     -10.285227      -279.8752
  52   2.0000     -10.284549      -279.8568
  53   2.0000     -10.284497      -279.8554
  54   2.0000     -10.284159      -279.8462
  55   2.0000     -10.282383      -279.7979
  56   2.0000     -10.282171      -279.7921
  57   2.0000     -10.275850      -279.6201
  58   2.0000     -10.275421      -279.6084
  59   2.0000     -10.275400      -279.6078
  60   2.0000     -10.262216      -279.2491
  61   2.0000     -10.261520      -279.2302
  62   2.0000     -10.260996      -279.2159
  63   2.0000     -10.258650      -279.1521
  64   2.0000     -10.258030      -279.1352
  65   2.0000     -10.256845      -279.1029
  66   2.0000     -10.256782      -279.1012
  67   2.0000     -10.256369      -279.0900
  68   2.0000     -10.255196      -279.0581
  69   2.0000     -10.253885      -279.0224
  70   2.0000     -10.252418      -278.9825
  71   2.0000     -10.250322      -278.9255
  72   2.0000      -8.050444      -219.0637
  73   2.0000      -8.050345      -219.0610
  74   2.0000      -8.045101      -218.9183
  75   2.0000      -8.044920      -218.9134
  76   2.0000      -6.020192      -163.8178
  77   2.0000      -6.020105      -163.8154
  78   2.0000      -6.015987      -163.7033
  79   2.0000      -6.015891      -163.7007
  80   2.0000      -6.014664      -163.6673
  81   2.0000      -6.014488      -163.6625
  82   2.0000      -6.011705      -163.5868
  83   2.0000      -6.011612      -163.5843
  84   2.0000      -6.010793      -163.5620
  85   2.0000      -6.010606      -163.5569
  86   2.0000      -6.006325      -163.4404
  87   2.0000      -6.006162      -163.4360
  88   2.0000      -1.130183       -30.7538
  89   2.0000      -1.129676       -30.7400
  90   2.0000      -1.124146       -30.5896
  91   2.0000      -1.123395       -30.5691
  92   2.0000      -1.122955       -30.5572
  93   2.0000      -1.117395       -30.4059
  94   2.0000      -1.060217       -28.8500
  95   2.0000      -1.059746       -28.8371
  96   2.0000      -1.055015       -28.7084
  97   2.0000      -1.052485       -28.6396
  98   2.0000      -1.051896       -28.6235
  99   2.0000      -1.046701       -28.4822
 100   2.0000      -1.002009       -27.2660
 101   2.0000      -1.001852       -27.2618
 102   2.0000      -0.977888       -26.6097
 103   2.0000      -0.977780       -26.6068
 104   2.0000      -0.927147       -25.2289
 105   2.0000      -0.925012       -25.1709
 106   2.0000      -0.923732       -25.1360
 107   2.0000      -0.920350       -25.0440
 108   2.0000      -0.917776       -24.9740
 109   2.0000      -0.894350       -24.3365
 110   2.0000      -0.890867       -24.2417
 111   2.0000      -0.887800       -24.1583
 112   2.0000      -0.878249       -23.8984
 113   2.0000      -0.877817       -23.8866
 114   2.0000      -0.870444       -23.6860
 115   2.0000      -0.867881       -23.6162
 116   2.0000      -0.866528       -23.5794
 117   2.0000      -0.843405       -22.9502
 118   2.0000      -0.840361       -22.8674
 119   2.0000      -0.834895       -22.7186
 120   2.0000      -0.834245       -22.7010
 121   2.0000      -0.816757       -22.2251
 122   2.0000      -0.816398       -22.2153
 123   2.0000      -0.814594       -22.1662
 124   2.0000      -0.809367       -22.0240
 125   2.0000      -0.802119       -21.8268
 126   2.0000      -0.786698       -21.4071
 127   2.0000      -0.784451       -21.3460
 128   2.0000      -0.783544       -21.3213
 129   2.0000      -0.778974       -21.1969
 130   2.0000      -0.759795       -20.6751
 131   2.0000      -0.757284       -20.6067
 132   2.0000      -0.757029       -20.5998
 133   2.0000      -0.755425       -20.5561
 134   2.0000      -0.751455       -20.4481
 135   2.0000      -0.717880       -19.5345
 136   2.0000      -0.712377       -19.3848
 137   2.0000      -0.705639       -19.2014
 138   2.0000      -0.704291       -19.1647
 139   2.0000      -0.703438       -19.1415
 140   2.0000      -0.698514       -19.0075
 141   2.0000      -0.693209       -18.8632
 142   2.0000      -0.689589       -18.7647
 143   2.0000      -0.680275       -18.5112
 144   2.0000      -0.676097       -18.3975
 145   2.0000      -0.661945       -18.0124
 146   2.0000      -0.659755       -17.9529
 147   2.0000      -0.657002       -17.8779
 148   2.0000      -0.651841       -17.7375
 149   2.0000      -0.649291       -17.6681
 150   2.0000      -0.645160       -17.5557
 151   2.0000      -0.643823       -17.5193
 152   2.0000      -0.640348       -17.4247
 153   2.0000      -0.623115       -16.9558
 154   2.0000      -0.621025       -16.8989
 155   2.0000      -0.608200       -16.5500
 156   2.0000      -0.606649       -16.5078
 157   2.0000      -0.601926       -16.3792
 158   2.0000      -0.596012       -16.2183
 159   2.0000      -0.588063       -16.0020
 160   2.0000      -0.586144       -15.9498
 161   2.0000      -0.582486       -15.8502
 162   2.0000      -0.581455       -15.8222
 163   2.0000      -0.579025       -15.7561
 164   2.0000      -0.575303       -15.6548
 165   2.0000      -0.569865       -15.5068
 166   2.0000      -0.567691       -15.4477
 167   2.0000      -0.565728       -15.3942
 168   2.0000      -0.564358       -15.3570
 169   2.0000      -0.562061       -15.2945
 170   2.0000      -0.557185       -15.1618
 171   2.0000      -0.548806       -14.9338
 172   2.0000      -0.547571       -14.9002
 173   2.0000      -0.545168       -14.8348
 174   2.0000      -0.542266       -14.7558
 175   2.0000      -0.540186       -14.6992
 176   2.0000      -0.534981       -14.5576
 177   2.0000      -0.530045       -14.4233
 178   2.0000      -0.529528       -14.4092
 179   2.0000      -0.527830       -14.3630
 180   2.0000      -0.526671       -14.3315
 181   2.0000      -0.525645       -14.3035
 182   2.0000      -0.525067       -14.2878
 183   2.0000      -0.521780       -14.1984
 184   2.0000      -0.520882       -14.1739
 185   2.0000      -0.516419       -14.0525
 186   2.0000      -0.515533       -14.0284
 187   2.0000      -0.515354       -14.0235
 188   2.0000      -0.513693       -13.9783
 189   2.0000      -0.510275       -13.8853
 190   2.0000      -0.508572       -13.8389
 191   2.0000      -0.507584       -13.8121
 192   2.0000      -0.506200       -13.7744
 193   2.0000      -0.505721       -13.7614
 194   2.0000      -0.502233       -13.6664
 195   2.0000      -0.500244       -13.6123
 196   2.0000      -0.499710       -13.5978
 197   2.0000      -0.498064       -13.5530
 198   2.0000      -0.494752       -13.4629
 199   2.0000      -0.492123       -13.3913
 200   2.0000      -0.490287       -13.3414
 201   2.0000      -0.480276       -13.0690
 202   2.0000      -0.477585       -12.9958
 203   2.0000      -0.475033       -12.9263
 204   2.0000      -0.474132       -12.9018
 205   2.0000      -0.471681       -12.8351
 206   2.0000      -0.470793       -12.8109
 207   2.0000      -0.467979       -12.7344
 208   2.0000      -0.466347       -12.6899
 209   2.0000      -0.465560       -12.6685
 210   2.0000      -0.462167       -12.5762
 211   2.0000      -0.460638       -12.5346
 212   2.0000      -0.459209       -12.4957
 213   2.0000      -0.457647       -12.4532
 214   2.0000      -0.455571       -12.3967
 215   2.0000      -0.453491       -12.3401
 216   2.0000      -0.452069       -12.3014
 217   2.0000      -0.451273       -12.2798
 218   2.0000      -0.450756       -12.2657
 219   2.0000      -0.448031       -12.1915
 220   2.0000      -0.446276       -12.1438
 221   2.0000      -0.445040       -12.1101
 222   2.0000      -0.444325       -12.0907
 223   2.0000      -0.444122       -12.0852
 224   2.0000      -0.438824       -11.9410
 225   2.0000      -0.437229       -11.8976
 226   2.0000      -0.435908       -11.8617
 227   2.0000      -0.434817       -11.8320
 228   2.0000      -0.434328       -11.8187
 229   2.0000      -0.432141       -11.7592
 230   2.0000      -0.428490       -11.6598
 231   2.0000      -0.428007       -11.6467
 232   2.0000      -0.426633       -11.6093
 233   2.0000      -0.424724       -11.5573
 234   2.0000      -0.422966       -11.5095
 235   2.0000      -0.419298       -11.4097
 236   2.0000      -0.415728       -11.3125
 237   2.0000      -0.414798       -11.2872
 238   2.0000      -0.412502       -11.2248
 239   2.0000      -0.410943       -11.1823
 240   2.0000      -0.402837       -10.9618
 241   2.0000      -0.402263       -10.9461
 242   2.0000      -0.397900       -10.8274
 243   2.0000      -0.390748       -10.6328
 244   2.0000      -0.387249       -10.5376
 245   2.0000      -0.378092       -10.2884
 246   2.0000      -0.376659       -10.2494
 247   2.0000      -0.348516        -9.4836
 248   2.0000      -0.345437        -9.3998
 249   2.0000      -0.344898        -9.3852
 250   2.0000      -0.343580        -9.3493
 251   2.0000      -0.343301        -9.3417
 252   2.0000      -0.338819        -9.2197
 253   2.0000      -0.329276        -8.9600
 254   2.0000      -0.328021        -8.9259
 255   2.0000      -0.324790        -8.8380
 256   2.0000      -0.323702        -8.8084
 257   2.0000      -0.322524        -8.7763
 258   2.0000      -0.311729        -8.4826
 259   2.0000      -0.310649        -8.4532
 260   2.0000      -0.306479        -8.3397
 261   2.0000      -0.294644        -8.0177
 262   2.0000      -0.291038        -7.9195
 263   2.0000      -0.271201        -7.3798
 264   2.0000      -0.268688        -7.3114
 265   2.0000      -0.244399        -6.6504
 266   2.0000      -0.237406        -6.4601
 267   2.0000      -0.224715        -6.1148
 268   0.0000      -0.088210        -2.4003
 269   0.0000      -0.071113        -1.9351
 270   0.0000      -0.057647        -1.5687
 271   0.0000      -0.024943        -0.6787
 272   0.0000      -0.002075        -0.0565

MULLIKEN ATOMIC CHARGES
-----------------------
   0 C :    0.031711
   1 N :   -0.257274
   2 C :    0.111268
   3 C :    0.000458
   4 C :    0.171002
   5 O :   -0.225239
   6 C :   -0.103879
   7 C :    0.010382
   8 C :    0.161211
   9 O :   -0.187961
  10 N :   -0.269602
  11 C :    0.097941
  12 C :    0.004798
  13 C :    0.158669
  14 C :   -0.041701
  15 C :    0.035157
  16 C :   -0.032522
  17 C :   -0.025989
  18 C :    0.120520
  19 C :   -0.034065
  20 S :    0.093178
  21 C :   -0.050005
  22 C :    0.123790
  23 C :   -0.027171
  24 C :   -0.053974
  25 S :    0.094448
  26 C :   -0.092772
  27 C :   -0.050040
  28 C :    0.162203
  29 N :   -0.258788
  30 C :    0.080802
  31 C :    0.011150
  32 C :    0.155146
  33 O :   -0.220271
  34 C :   -0.058698
  35 C :   -0.076957
  36 C :    0.158577
  37 O :   -0.215887
  38 N :   -0.255084
  39 C :    0.100010
  40 C :    0.005644
  41 C :    0.137464
  42 C :   -0.038063
  43 C :    0.028102
  44 C :   -0.029491
  45 C :   -0.028723
  46 C :    0.123264
  47 C :   -0.036471
  48 S :    0.091647
  49 C :   -0.048432
  50 C :    0.124868
  51 C :   -0.029244
  52 C :   -0.053274
  53 S :    0.095487
  54 C :   -0.093258
  55 C :   -0.050990
  56 C :    0.168919
  57 N :   -0.263107
  58 C :    0.079649
  59 C :    0.008904
  60 C :    0.158171
  61 O :   -0.207601
  62 C :   -0.059697
  63 C :   -0.086467
  64 C :    0.161765
  65 O :   -0.217510
  66 N :   -0.257686
  67 C :    0.097274
  68 C :    0.003786
  69 C :    0.109337
  70 C :   -0.034836
  71 C :    0.010309
  72 H :    0.011970
  73 H :    0.017495
  74 H :    0.040524
  75 H :    0.015185
  76 H :    0.020919
  77 H :    0.029504
  78 H :    0.042660
  79 H :    0.022984
  80 H :    0.028234
  81 H :    0.021315
  82 H :    0.016219
  83 H :   -0.016457
  84 H :    0.018456
  85 H :   -0.005016
  86 H :   -0.019872
  87 H :   -0.028940
  88 H :   -0.003926
  89 H :    0.037469
  90 H :    0.043304
  91 H :    0.021737
  92 H :    0.019754
  93 H :    0.024485
  94 H :    0.023815
  95 H :    0.043006
  96 H :    0.017510
  97 H :    0.022237
  98 H :    0.027095
  99 H :   -0.017585
 100 H :    0.017915
 101 H :   -0.005624
 102 H :   -0.019983
 103 H :   -0.029004
 104 H :   -0.002837
 105 H :    0.036575
 106 H :    0.044842
 107 H :    0.021887
 108 H :    0.020717
 109 H :    0.026049
 110 H :    0.043314
 111 H :    0.023326
 112 H :    0.029874
 113 H :    0.021930
 114 H :    0.016985
 115 H :   -0.019904
 116 H :    0.056081
 117 H :    0.029494
Sum of atomic charges:   -0.0000000

LOEWDIN ATOMIC CHARGES
----------------------
   0 C :    0.083774
   1 N :    0.000633
   2 C :    0.037988
   3 C :   -0.060757
   4 C :    0.075636
   5 O :   -0.214944
   6 C :   -0.135766
   7 C :   -0.126809
   8 C :    0.082459
   9 O :   -0.191923
  10 N :   -0.009097
  11 C :    0.035303
  12 C :   -0.061364
  13 C :    0.087735
  14 C :   -0.061000
  15 C :    0.023186
  16 C :   -0.152529
  17 C :   -0.028588
  18 C :   -0.043423
  19 C :   -0.147778
  20 S :    0.385709
  21 C :   -0.025903
  22 C :   -0.044555
  23 C :   -0.151402
  24 C :   -0.032309
  25 S :    0.408404
  26 C :   -0.170772
  27 C :   -0.010115
  28 C :    0.061128
  29 N :    0.000410
  30 C :    0.025096
  31 C :   -0.063983
  32 C :    0.080481
  33 O :   -0.208100
  34 C :   -0.125915
  35 C :   -0.120195
  36 C :    0.082549
  37 O :   -0.204634
  38 N :    0.001296
  39 C :    0.036268
  40 C :   -0.060736
  41 C :    0.077867
  42 C :   -0.059293
  43 C :    0.018095
  44 C :   -0.151671
  45 C :   -0.029914
  46 C :   -0.042763
  47 C :   -0.148039
  48 S :    0.384417
  49 C :   -0.025636
  50 C :   -0.045161
  51 C :   -0.151225
  52 C :   -0.032604
  53 S :    0.408906
  54 C :   -0.172120
  55 C :   -0.008622
  56 C :    0.065649
  57 N :   -0.001772
  58 C :    0.024762
  59 C :   -0.064194
  60 C :    0.082994
  61 O :   -0.199112
  62 C :   -0.126391
  63 C :   -0.123377
  64 C :    0.081806
  65 O :   -0.206009
  66 N :    0.002215
  67 C :    0.035795
  68 C :   -0.061317
  69 C :    0.078953
  70 C :   -0.054741
  71 C :    0.022311
  72 H :    0.031348
  73 H :    0.024185
  74 H :    0.035534
  75 H :    0.022476
  76 H :    0.029155
  77 H :    0.031410
  78 H :    0.037327
  79 H :    0.022589
  80 H :    0.031886
  81 H :    0.029896
  82 H :    0.021968
  83 H :    0.022336
  84 H :    0.043605
  85 H :    0.038078
  86 H :    0.035951
  87 H :    0.032170
  88 H :    0.036099
  89 H :    0.011540
  90 H :    0.037591
  91 H :    0.016135
  92 H :    0.029921
  93 H :    0.029838
  94 H :    0.023378
  95 H :    0.037257
  96 H :    0.022717
  97 H :    0.030357
  98 H :    0.031536
  99 H :    0.022468
 100 H :    0.042813
 101 H :    0.037774
 102 H :    0.035951
 103 H :    0.032193
 104 H :    0.036173
 105 H :    0.011116
 106 H :    0.038029
 107 H :    0.016224
 108 H :    0.030185
 109 H :    0.030219
 110 H :    0.037098
 111 H :    0.022709
 112 H :    0.032251
 113 H :    0.029876
 114 H :    0.022601
 115 H :    0.029165
 116 H :    0.032487
 117 H :    0.029126

  Mayer bond orders larger than 0.100000
B(  0-C ,  1-N ) :   1.1842 B(  0-C ,  7-C ) :   1.4620 B(  0-C , 72-H ) :   0.9903
B(  1-N ,  2-C ) :   0.9454 B(  1-N ,  4-C ) :   1.0619 B(  2-C ,  3-C ) :   1.1196
B(  2-C , 73-H ) :   0.9537 B(  2-C , 74-H ) :   0.9344 B(  3-C , 75-H ) :   0.9688
B(  3-C , 76-H ) :   0.9688 B(  3-C , 77-H ) :   0.9674 B(  4-C ,  5-O ) :   2.0027
B(  4-C ,  6-C ) :   1.0124 B(  5-O , 84-H ) :   0.1167 B(  6-C ,  7-C ) :   1.1997
B(  6-C , 13-C ) :   1.3756 B(  7-C ,  8-C ) :   0.9485 B(  8-C ,  9-O ) :   2.1742
B(  8-C , 10-N ) :   1.0183 B( 10-N , 11-C ) :   0.9482 B( 10-N , 13-C ) :   1.1563
B( 11-C , 12-C ) :   1.1209 B( 11-C , 78-H ) :   0.9276 B( 11-C , 79-H ) :   0.9502
B( 12-C , 80-H ) :   0.9639 B( 12-C , 81-H ) :   0.9677 B( 12-C , 82-H ) :   0.9683
B( 13-C , 14-C ) :   1.1614 B( 14-C , 15-C ) :   1.5879 B( 14-C , 83-H ) :   0.9598
B( 15-C , 16-C ) :   1.1483 B( 15-C , 84-H ) :   0.9571 B( 16-C , 17-C ) :   1.5304
B( 16-C , 20-S ) :   1.0563 B( 17-C , 18-C ) :   1.1417 B( 17-C , 85-H ) :   1.0106
B( 18-C , 19-C ) :   1.2699 B( 18-C , 24-C ) :   1.3132 B( 19-C , 20-S ) :   1.0432
B( 19-C , 21-C ) :   1.3920 B( 21-C , 22-C ) :   1.3055 B( 21-C , 86-H ) :   1.0039
B( 22-C , 23-C ) :   1.2675 B( 22-C , 27-C ) :   1.1426 B( 23-C , 24-C ) :   1.3860
B( 23-C , 25-S ) :   1.0363 B( 24-C , 87-H ) :   1.0023 B( 25-S , 26-C ) :   1.0344
B( 26-C , 27-C ) :   1.5408 B( 26-C , 28-C ) :   1.1537 B( 27-C , 88-H ) :   0.9701
B( 28-C , 29-N ) :   1.1826 B( 28-C , 35-C ) :   1.3818 B( 29-N , 30-C ) :   0.9421
B( 29-N , 32-C ) :   1.0535 B( 30-C , 31-C ) :   1.1167 B( 30-C , 89-H ) :   0.9423
B( 30-C , 90-H ) :   0.9211 B( 31-C , 91-H ) :   0.9649 B( 31-C , 92-H ) :   0.9673
B( 31-C , 93-H ) :   0.9630 B( 32-C , 33-O ) :   2.0079 B( 32-C , 34-C ) :   1.0014
B( 33-O ,100-H ) :   0.1150 B( 34-C , 35-C ) :   1.2348 B( 34-C , 41-C ) :   1.3343
B( 35-C , 36-C ) :   0.9853 B( 36-C , 37-O ) :   2.0165 B( 36-C , 38-N ) :   1.0638
B( 37-O , 88-H ) :   0.1142 B( 38-N , 39-C ) :   0.9469 B( 38-N , 41-C ) :   1.1583
B( 39-C , 40-C ) :   1.1215 B( 39-C , 94-H ) :   0.9493 B( 39-C , 95-H ) :   0.9277
B( 40-C , 96-H ) :   0.9682 B( 40-C , 97-H ) :   0.9677 B( 40-C , 98-H ) :   0.9634
B( 41-C , 42-C ) :   1.1703 B( 42-C , 43-C ) :   1.5755 B( 42-C , 99-H ) :   0.9585
B( 43-C , 44-C ) :   1.1550 B( 43-C ,100-H ) :   0.9569 B( 44-C , 45-C ) :   1.5263
B( 44-C , 48-S ) :   1.0546 B( 45-C , 46-C ) :   1.1441 B( 45-C ,101-H ) :   1.0108
B( 46-C , 47-C ) :   1.2664 B( 46-C , 52-C ) :   1.3134 B( 47-C , 48-S ) :   1.0434
B( 47-C , 49-C ) :   1.3935 B( 49-C , 50-C ) :   1.3055 B( 49-C ,102-H ) :   1.0038
B( 50-C , 51-C ) :   1.2654 B( 50-C , 55-C ) :   1.1429 B( 51-C , 52-C ) :   1.3854
B( 51-C , 53-S ) :   1.0383 B( 52-C ,103-H ) :   1.0023 B( 53-S , 54-C ) :   1.0336
B( 54-C , 55-C ) :   1.5435 B( 54-C , 56-C ) :   1.1498 B( 55-C ,104-H ) :   0.9693
B( 56-C , 57-N ) :   1.1840 B( 56-C , 63-C ) :   1.3909 B( 57-N , 58-C ) :   0.9423
B( 57-N , 60-C ) :   1.0428 B( 58-C , 59-C ) :   1.1166 B( 58-C ,105-H ) :   0.9424
B( 58-C ,106-H ) :   0.9209 B( 59-C ,107-H ) :   0.9650 B( 59-C ,108-H ) :   0.9674
B( 59-C ,109-H ) :   0.9631 B( 60-C , 61-O ) :   2.0447 B( 60-C , 62-C ) :   0.9895
B( 62-C , 63-C ) :   1.2239 B( 62-C , 69-C ) :   1.3731 B( 63-C , 64-C ) :   0.9909
B( 64-C , 65-O ) :   2.0108 B( 64-C , 66-N ) :   1.0610 B( 65-O ,104-H ) :   0.1157
B( 66-N , 67-C ) :   0.9475 B( 66-N , 69-C ) :   1.1656 B( 67-C , 68-C ) :   1.1205
B( 67-C ,110-H ) :   0.9278 B( 67-C ,111-H ) :   0.9507 B( 68-C ,112-H ) :   0.9639
B( 68-C ,113-H ) :   0.9679 B( 68-C ,114-H ) :   0.9687 B( 69-C , 70-C ) :   1.1264
B( 70-C , 71-C ) :   1.8900 B( 70-C ,115-H ) :   0.9528 B( 71-C ,116-H ) :   0.9274
B( 71-C ,117-H ) :   0.9443

-----------------------------------------------------------------------------
         ABSORPTION SPECTRUM VIA TRANSITION ELECTRIC DIPOLE MOMENTS
-----------------------------------------------------------------------------
State   Energy  Wavelength   fosc         T2         TX        TY        TZ
        (cm-1)    (nm)                  (au**2)     (au)      (au)      (au)
-----------------------------------------------------------------------------
   0   15635.6    639.6   2.232579245  47.00755  -1.44617   6.63426   0.95009
   1   19699.1    507.6   0.039121902   0.65381  -0.40937  -0.60298  -0.35020
   2   20704.0    483.0   0.335767988   5.33901   0.31058  -2.20563  -0.61460
   3   22810.6    438.4   0.017778230   0.25658  -0.26036   0.19059  -0.39048
   4   24338.5    410.9   0.021796774   0.29483   0.25932   0.39015   0.27452
   5   24823.6    402.8   0.128242003   1.70075   0.49118  -0.20958   1.18978
   6   25100.5    398.4   0.221469341   2.90474  -0.84622   0.65091  -1.32853
   7   26665.7    375.0   0.025965899   0.32057  -0.34492   0.27860  -0.35212
   8   27432.6    364.5   0.223072023   2.67703   0.70702  -1.20594   0.85022
   9   28050.8    356.5   0.000366727   0.00430   0.02809   0.03326   0.04908
  10   28741.6    347.9   0.037455288   0.42902   0.09519  -0.63483  -0.13018
  11   28939.9    345.5   0.102603337   1.16719   0.27710  -1.03800  -0.11387
  12   29326.6    341.0   0.199808685   2.24299   0.43191  -1.43333   0.04486
  13   29718.3    336.5   0.656088301   7.26797   0.94370  -2.47735   0.49005
  14   30132.1    331.9   0.051793293   0.56587   0.29704  -0.52270   0.45214
  15   30374.1    329.2   0.018806643   0.20384  -0.24832   0.20301  -0.31774
  16   30565.5    327.2   0.001301033   0.01401   0.10693  -0.05072  -0.00253
  17   31316.2    319.3   0.032813188   0.34495  -0.32254   0.24581  -0.42484
  18   31596.7    316.5   0.010947090   0.11406   0.14828  -0.27205   0.13439
  19   32517.1    307.5   0.149728814   1.51590   0.50496  -0.70064   0.87750
  20   32711.5    305.7   0.004860844   0.04892   0.14818  -0.08948   0.13768
  21   34181.3    292.6   0.029385839   0.28303  -0.27746   0.42053  -0.17089
  22   34656.5    288.5   0.014995674   0.14245  -0.08047   0.36868   0.00674
  23   34988.5    285.8   0.006473239   0.06091   0.02415  -0.24321  -0.03428
  24   35394.0    282.5   0.028774103   0.26764  -0.06651  -0.27251  -0.43469
  25   35895.6    278.6   0.479091761   4.39393   0.80129  -1.38775   1.35130
  26   36540.4    273.7   0.014319764   0.12901  -0.13152   0.26780  -0.20001
  27   36794.2    271.8   0.000282423   0.00253   0.04198   0.01024   0.02569
  28   36961.7    270.6   0.039486512   0.35170   0.26785  -0.39392   0.35325
  29   37167.3    269.1   0.012074485   0.10695   0.11061  -0.01405   0.30744
  30   37820.2    264.4   0.079652388   0.69335   0.40299  -0.60149   0.41129
  31   38540.0    259.5   0.049990622   0.42702   0.03561   0.56241   0.33083
  32   38622.4    258.9   0.030481349   0.25982   0.28981  -0.27152   0.31954
  33   39011.7    256.3   0.156591279   1.32144   0.38585  -1.07382   0.13954
  34   40141.0    249.1   0.005763459   0.04727   0.01362   0.05705   0.20935
  35   40279.8    248.3   0.000277688   0.00227   0.04372  -0.00485  -0.01829

FINAL SINGLE POINT ENERGY     -4530.235015837991

DIPOLE MOMENT
-------------
                                X             Y             Z
Electronic contribution:      1.48108       0.78590      -8.51929
Nuclear contribution   :     -1.81623       0.01514       8.39302
                        -----------------------------------------
Total Dipole Moment    :     -0.33515       0.80104      -0.12627
                        -----------------------------------------
Magnitude (a.u.)       :      0.87746
Magnitude (Debye)      :      2.23033

Rotational constants in cm-1:     0.003627     0.000138     0.000133
Rotational constants in MHz :   108.722045     4.128297     3.996410

                             ****ORCA TERMINATED NORMALLY****
TOTAL RUN TIME: 0 days 0 hours 9 minutes 26 seconds 676 msec
