                         Program Version 4.2.0 -  RELEASE  -
|  1> # ORCA input file
|  2> # SCF done       -172.955663726627          0.000702447285
|  3> ! CAM-B3LYP def2-SVP def2/J RIJCOSX Grid4 TightSCF
|  4> %maxcore 5000
|  5> %tddft
|  6>     Mode sTDDFT
|  7>     Ethresh 5.0
|  8>     maxcore 5000
|  9> end
| 10>
| 11> %pal
| 12>   nprocs 6
| 13>   end
| 14> * xyz 0 1
| 15>    C       -8.68739         5.66525         5.25476
| 16>    C       -9.02319         6.56626         6.23367
| 17>    C      -10.25894         7.24125         6.29563
| 18>    N      -11.24433         7.82291         6.39202
| 19>    C       -8.20246         6.91024         7.32787
| 20>    N       -7.60942         7.21793         8.26184
| 21>    C       -9.56574         5.20685         4.18388
| 22>    C       -8.90067         4.18590         3.46263
| 23>    C       -9.47168         3.54480         2.39114
| 24>    C      -10.76463         3.92633         2.01514
| 25>    C      -11.41919         4.95027         2.73890
| 26>    C      -10.83965         5.60133         3.82160
| 27>    S      -13.00424         5.27061         2.10175
| 28>    C      -12.77033         4.03800         0.89115
| 29>    C      -11.56796         3.41867         0.95740
| 30>   Br      -14.13644         3.68256        -0.34442
| 31>    C       -7.55346         3.97445         4.03418
| 32>    O       -6.70021         3.22734         3.59721
| 33>    C       -7.44295         4.93352         5.15263
| 34>    C       -6.28143         5.24298         5.81480
| 35>    C       -5.10452         4.47491         5.86988
| 36>    O       -3.93675         5.13422         6.11037
| 37>    C       -2.95678         4.22775         6.10945
| 38>    C       -3.43730         2.97163         5.90572
| 39>    C       -4.84585         3.09691         5.76587
| 40>    C       -5.80787         2.04846         5.68618
| 41>    C       -5.52155         0.78905         5.28164
| 42>    C       -6.48509        -0.24995         5.20395
| 43>    C       -6.20357        -1.47225         4.70054
| 44>    N       -7.12623        -2.46973         4.59583
| 45>    C       -6.94106        -3.66764         3.99333
| 46>    S       -5.43813        -4.05589         3.21647
| 47>    C       -6.13145        -5.54359         2.64509
| 48>    N       -5.31569        -6.38215         1.88969
| 49>    O       -5.79449        -7.42421         1.47494
| 50>    O       -4.16830        -6.00530         1.69794
| 51>    C       -7.43480        -5.71472         3.02857
| 52>    C       -7.91954        -4.66280         3.82920
| 53>    C       -9.24879        -4.64890         4.36835
| 54>    C       -9.65404        -4.03966         5.51388
| 55>    C      -10.98576        -4.04925         5.97094
| 56>    C      -11.39541        -3.53080         7.17257
| 57>    C      -12.71825        -3.49438         7.67713
| 58>    C      -12.83251        -2.93786         8.91488
| 59>    C      -11.60786        -2.51056         9.47134
| 60>    S      -10.29746        -2.81473         8.34696
| 61>    C      -11.39405        -1.95967        10.71994
| 62>    C      -12.36495        -1.64847        11.69906
| 63>    C      -11.84352        -1.13961        12.84781
| 64>    C      -10.42982        -1.02632        12.85769
| 65>    S       -9.79404        -1.57587        11.31290
| 66>    C       -9.68238        -0.57975        13.91550
| 67>    C       -8.27949        -0.48935        14.03423
| 68>    C       -7.27458        -0.81463        13.12218
| 69>    C       -6.01552        -0.58084        13.73383
| 70>    C       -4.73014        -0.75738        13.27538
| 71>    C       -3.67491        -0.44510        14.14991
| 72>    C       -2.29967        -0.52394        13.99740
| 73>    C       -1.66835        -0.08739        15.20709
| 74>    C       -2.65881         0.26305        16.10403
| 75>    C       -3.93446         0.05434        15.48965
| 76>    C       -5.20906         0.23534        15.94928
| 77>    C       -6.27266        -0.08485        15.07506
| 78>    C       -7.63967        -0.03227        15.24123
| 79>    C       -0.25053        -0.02098        15.46738
| 80>    C        0.71037        -0.37067        14.61645
| 81>    H       -8.93818         2.77242         1.85953
| 82>    H      -11.37590         6.38079         4.33654
| 83>    H      -11.25772         2.63746         0.28769
| 84>    H       -6.20777         6.20359         6.31070
| 85>    H       -1.95814         4.58896         6.26450
| 86>    H       -2.86830         2.06563         5.88460
| 87>    H       -6.81834         2.29637         5.98183
| 88>    H       -4.52268         0.55375         4.94282
| 89>    H       -7.48873        -0.03181         5.54546
| 90>    H       -5.21323        -1.71934         4.34532
| 91>    H       -8.07040        -2.26810         4.90812
| 92>    H       -8.00668        -6.58386         2.75810
| 93>    H       -9.97178        -5.23623         3.81803
| 94>    H       -8.93402        -3.56091         6.16700
| 95>    H      -11.74113        -4.49516         5.33817
| 96>    H      -13.54258        -3.88483         7.10696
| 97>    H      -13.76166        -2.83561         9.44623
| 98>    H      -13.41471        -1.80611        11.52921
| 99>    H      -12.42943        -0.84747        13.70173
|100>    H      -10.24838        -0.27371        14.78762
|101>    H       -7.40905        -1.18538        12.12427
|102>    H       -4.53028        -1.12812        12.28000
|103>    H       -1.78577        -0.85925        13.11528
|104>    H       -2.50897         0.63062        17.10279
|105>    H       -5.41202         0.60477        16.94478
|106>    H       -8.16504         0.28971        16.12297
|107>    H        0.01426         0.34823        16.45056
|108>    H        0.49708        -0.74366        13.62944
|109>    H        1.75076        -0.29553        14.88101
|110> *
|111>
|112>                          ****END OF INPUT****

CARTESIAN COORDINATES (ANGSTROEM)
---------------------------------
  C     -8.687390    5.665250    5.254760
  C     -9.023190    6.566260    6.233670
  C    -10.258940    7.241250    6.295630
  N    -11.244330    7.822910    6.392020
  C     -8.202460    6.910240    7.327870
  N     -7.609420    7.217930    8.261840
  C     -9.565740    5.206850    4.183880
  C     -8.900670    4.185900    3.462630
  C     -9.471680    3.544800    2.391140
  C    -10.764630    3.926330    2.015140
  C    -11.419190    4.950270    2.738900
  C    -10.839650    5.601330    3.821600
  S    -13.004240    5.270610    2.101750
  C    -12.770330    4.038000    0.891150
  C    -11.567960    3.418670    0.957400
  Br   -14.136440    3.682560   -0.344420
  C     -7.553460    3.974450    4.034180
  O     -6.700210    3.227340    3.597210
  C     -7.442950    4.933520    5.152630
  C     -6.281430    5.242980    5.814800
  C     -5.104520    4.474910    5.869880
  O     -3.936750    5.134220    6.110370
  C     -2.956780    4.227750    6.109450
  C     -3.437300    2.971630    5.905720
  C     -4.845850    3.096910    5.765870
  C     -5.807870    2.048460    5.686180
  C     -5.521550    0.789050    5.281640
  C     -6.485090   -0.249950    5.203950
  C     -6.203570   -1.472250    4.700540
  N     -7.126230   -2.469730    4.595830
  C     -6.941060   -3.667640    3.993330
  S     -5.438130   -4.055890    3.216470
  C     -6.131450   -5.543590    2.645090
  N     -5.315690   -6.382150    1.889690
  O     -5.794490   -7.424210    1.474940
  O     -4.168300   -6.005300    1.697940
  C     -7.434800   -5.714720    3.028570
  C     -7.919540   -4.662800    3.829200
  C     -9.248790   -4.648900    4.368350
  C     -9.654040   -4.039660    5.513880
  C    -10.985760   -4.049250    5.970940
  C    -11.395410   -3.530800    7.172570
  C    -12.718250   -3.494380    7.677130
  C    -12.832510   -2.937860    8.914880
  C    -11.607860   -2.510560    9.471340
  S    -10.297460   -2.814730    8.346960
  C    -11.394050   -1.959670   10.719940
  C    -12.364950   -1.648470   11.699060
  C    -11.843520   -1.139610   12.847810
  C    -10.429820   -1.026320   12.857690
  S     -9.794040   -1.575870   11.312900
  C     -9.682380   -0.579750   13.915500
  C     -8.279490   -0.489350   14.034230
  C     -7.274580   -0.814630   13.122180
  C     -6.015520   -0.580840   13.733830
  C     -4.730140   -0.757380   13.275380
  C     -3.674910   -0.445100   14.149910
  C     -2.299670   -0.523940   13.997400
  C     -1.668350   -0.087390   15.207090
  C     -2.658810    0.263050   16.104030
  C     -3.934460    0.054340   15.489650
  C     -5.209060    0.235340   15.949280
  C     -6.272660   -0.084850   15.075060
  C     -7.639670   -0.032270   15.241230
  C     -0.250530   -0.020980   15.467380
  C      0.710370   -0.370670   14.616450
  H     -8.938180    2.772420    1.859530
  H    -11.375900    6.380790    4.336540
  H    -11.257720    2.637460    0.287690
  H     -6.207770    6.203590    6.310700
  H     -1.958140    4.588960    6.264500
  H     -2.868300    2.065630    5.884600
  H     -6.818340    2.296370    5.981830
  H     -4.522680    0.553750    4.942820
  H     -7.488730   -0.031810    5.545460
  H     -5.213230   -1.719340    4.345320
  H     -8.070400   -2.268100    4.908120
  H     -8.006680   -6.583860    2.758100
  H     -9.971780   -5.236230    3.818030
  H     -8.934020   -3.560910    6.167000
  H    -11.741130   -4.495160    5.338170
  H    -13.542580   -3.884830    7.106960
  H    -13.761660   -2.835610    9.446230
  H    -13.414710   -1.806110   11.529210
  H    -12.429430   -0.847470   13.701730
  H    -10.248380   -0.273710   14.787620
  H     -7.409050   -1.185380   12.124270
  H     -4.530280   -1.128120   12.280000
  H     -1.785770   -0.859250   13.115280
  H     -2.508970    0.630620   17.102790
  H     -5.412020    0.604770   16.944780
  H     -8.165040    0.289710   16.122970
  H      0.014260    0.348230   16.450560
  H      0.497080   -0.743660   13.629440
  H      1.750760   -0.295530   14.881010

 Total Charge           Charge          ....    0
 Multiplicity           Mult            ....    1
 Number of Electrons    NEL             ....  506
 Basis Dimension        Dim             .... 1103

ORBITAL ENERGIES
----------------

  NO   OCC          E(Eh)            E(eV)
   0   2.0000    -482.884876    -13139.9655
   1   2.0000     -88.980390     -2421.2795
   2   2.0000     -88.974003     -2421.1057
   3   2.0000     -88.946039     -2420.3448
   4   2.0000     -88.945343     -2420.3258
   5   2.0000     -62.562590     -1702.4146
   6   2.0000     -56.396537     -1534.6278
   7   2.0000     -56.393828     -1534.5541
   8   2.0000     -56.393792     -1534.5531
   9   2.0000     -19.299560      -525.1677
  10   2.0000     -19.227496      -523.2068
  11   2.0000     -19.226945      -523.1918
  12   2.0000     -19.210940      -522.7563
  13   2.0000     -14.639477      -398.3604
  14   2.0000     -14.483922      -394.1276
  15   2.0000     -14.411350      -392.1528
  16   2.0000     -14.410069      -392.1179
  17   2.0000     -10.366964      -282.0994
  18   2.0000     -10.361302      -281.9454
  19   2.0000     -10.357599      -281.8446
  20   2.0000     -10.345140      -281.5056
  21   2.0000     -10.337861      -281.3075
  22   2.0000     -10.337483      -281.2972
  23   2.0000     -10.336758      -281.2775
  24   2.0000     -10.336063      -281.2586
  25   2.0000     -10.333754      -281.1957
  26   2.0000     -10.323084      -280.9054
  27   2.0000     -10.317238      -280.7463
  28   2.0000     -10.314528      -280.6726
  29   2.0000     -10.313081      -280.6332
  30   2.0000     -10.311704      -280.5957
  31   2.0000     -10.309302      -280.5304
  32   2.0000     -10.308885      -280.5190
  33   2.0000     -10.305452      -280.4256
  34   2.0000     -10.304657      -280.4040
  35   2.0000     -10.303984      -280.3857
  36   2.0000     -10.303019      -280.3594
  37   2.0000     -10.302448      -280.3439
  38   2.0000     -10.300805      -280.2992
  39   2.0000     -10.298202      -280.2283
  40   2.0000     -10.298169      -280.2274
  41   2.0000     -10.298037      -280.2238
  42   2.0000     -10.295503      -280.1549
  43   2.0000     -10.294622      -280.1309
  44   2.0000     -10.294597      -280.1302
  45   2.0000     -10.289507      -279.9917
  46   2.0000     -10.289406      -279.9890
  47   2.0000     -10.289321      -279.9867
  48   2.0000     -10.287552      -279.9385
  49   2.0000     -10.286453      -279.9086
  50   2.0000     -10.284740      -279.8620
  51   2.0000     -10.284050      -279.8432
  52   2.0000     -10.283920      -279.8397
  53   2.0000     -10.283850      -279.8378
  54   2.0000     -10.283374      -279.8248
  55   2.0000     -10.283280      -279.8223
  56   2.0000     -10.281935      -279.7857
  57   2.0000     -10.281468      -279.7730
  58   2.0000     -10.280861      -279.7564
  59   2.0000     -10.278826      -279.7011
  60   2.0000     -10.272219      -279.5213
  61   2.0000     -10.270849      -279.4840
  62   2.0000     -10.270444      -279.4730
  63   2.0000     -10.268881      -279.4305
  64   2.0000     -10.267902      -279.4038
  65   2.0000     -10.265586      -279.3408
  66   2.0000     -10.264942      -279.3233
  67   2.0000     -10.264818      -279.3199
  68   2.0000     -10.264289      -279.3055
  69   2.0000     -10.257799      -279.1289
  70   2.0000      -8.792015      -239.2429
  71   2.0000      -8.075829      -219.7545
  72   2.0000      -8.069926      -219.5939
  73   2.0000      -8.041706      -218.8259
  74   2.0000      -8.041648      -218.8244
  75   2.0000      -6.628306      -180.3654
  76   2.0000      -6.613750      -179.9693
  77   2.0000      -6.613566      -179.9643
  78   2.0000      -6.045560      -164.5081
  79   2.0000      -6.041119      -164.3872
  80   2.0000      -6.039620      -164.3464
  81   2.0000      -6.037204      -164.2807
  82   2.0000      -6.035344      -164.2301
  83   2.0000      -6.031174      -164.1166
  84   2.0000      -6.011456      -163.5800
  85   2.0000      -6.011398      -163.5784
  86   2.0000      -6.007497      -163.4723
  87   2.0000      -6.007380      -163.4691
  88   2.0000      -6.002731      -163.3426
  89   2.0000      -6.002477      -163.3357
  90   2.0000      -2.744177       -74.6728
  91   2.0000      -2.740106       -74.5621
  92   2.0000      -2.739935       -74.5574
  93   2.0000      -2.728391       -74.2433
  94   2.0000      -2.728369       -74.2427
  95   2.0000      -1.307183       -35.5703
  96   2.0000      -1.220381       -33.2082
  97   2.0000      -1.126042       -30.6412
  98   2.0000      -1.125640       -30.6302
  99   2.0000      -1.091100       -29.6903
 100   2.0000      -1.020037       -27.7566
 101   2.0000      -1.009781       -27.4775
 102   2.0000      -0.998964       -27.1832
 103   2.0000      -0.994601       -27.0645
 104   2.0000      -0.989465       -26.9247
 105   2.0000      -0.986213       -26.8362
 106   2.0000      -0.985991       -26.8302
 107   2.0000      -0.972788       -26.4709
 108   2.0000      -0.959247       -26.1024
 109   2.0000      -0.942897       -25.6575
 110   2.0000      -0.934715       -25.4349
 111   2.0000      -0.922293       -25.0969
 112   2.0000      -0.908665       -24.7260
 113   2.0000      -0.905633       -24.6435
 114   2.0000      -0.903578       -24.5876
 115   2.0000      -0.899486       -24.4763
 116   2.0000      -0.887538       -24.1511
 117   2.0000      -0.883413       -24.0389
 118   2.0000      -0.875124       -23.8133
 119   2.0000      -0.872217       -23.7342
 120   2.0000      -0.863845       -23.5064
 121   2.0000      -0.862630       -23.4733
 122   2.0000      -0.850984       -23.1565
 123   2.0000      -0.841123       -22.8881
 124   2.0000      -0.840373       -22.8677
 125   2.0000      -0.830261       -22.5925
 126   2.0000      -0.827567       -22.5192
 127   2.0000      -0.821382       -22.3510
 128   2.0000      -0.820587       -22.3293
 129   2.0000      -0.797864       -21.7110
 130   2.0000      -0.794169       -21.6104
 131   2.0000      -0.776877       -21.1399
 132   2.0000      -0.767209       -20.8768
 133   2.0000      -0.760930       -20.7060
 134   2.0000      -0.754550       -20.5323
 135   2.0000      -0.748712       -20.3735
 136   2.0000      -0.737756       -20.0753
 137   2.0000      -0.725591       -19.7443
 138   2.0000      -0.717146       -19.5145
 139   2.0000      -0.709615       -19.3096
 140   2.0000      -0.707694       -19.2573
 141   2.0000      -0.691266       -18.8103
 142   2.0000      -0.686627       -18.6841
 143   2.0000      -0.681432       -18.5427
 144   2.0000      -0.676571       -18.4104
 145   2.0000      -0.670182       -18.2366
 146   2.0000      -0.667770       -18.1710
 147   2.0000      -0.656266       -17.8579
 148   2.0000      -0.651185       -17.7196
 149   2.0000      -0.646998       -17.6057
 150   2.0000      -0.646544       -17.5934
 151   2.0000      -0.637534       -17.3482
 152   2.0000      -0.634850       -17.2751
 153   2.0000      -0.627825       -17.0840
 154   2.0000      -0.625194       -17.0124
 155   2.0000      -0.623456       -16.9651
 156   2.0000      -0.621712       -16.9176
 157   2.0000      -0.620529       -16.8855
 158   2.0000      -0.619435       -16.8557
 159   2.0000      -0.610749       -16.6193
 160   2.0000      -0.600186       -16.3319
 161   2.0000      -0.600041       -16.3279
 162   2.0000      -0.597720       -16.2648
 163   2.0000      -0.596339       -16.2272
 164   2.0000      -0.586497       -15.9594
 165   2.0000      -0.582069       -15.8389
 166   2.0000      -0.577246       -15.7077
 167   2.0000      -0.575128       -15.6500
 168   2.0000      -0.568441       -15.4681
 169   2.0000      -0.563627       -15.3371
 170   2.0000      -0.561540       -15.2803
 171   2.0000      -0.555351       -15.1119
 172   2.0000      -0.551271       -15.0008
 173   2.0000      -0.549964       -14.9653
 174   2.0000      -0.543328       -14.7847
 175   2.0000      -0.538211       -14.6455
 176   2.0000      -0.534261       -14.5380
 177   2.0000      -0.533339       -14.5129
 178   2.0000      -0.532367       -14.4864
 179   2.0000      -0.530151       -14.4262
 180   2.0000      -0.526290       -14.3211
 181   2.0000      -0.520635       -14.1672
 182   2.0000      -0.519844       -14.1457
 183   2.0000      -0.514955       -14.0126
 184   2.0000      -0.510722       -13.8974
 185   2.0000      -0.508965       -13.8496
 186   2.0000      -0.507899       -13.8206
 187   2.0000      -0.505518       -13.7558
 188   2.0000      -0.500889       -13.6299
 189   2.0000      -0.498153       -13.5554
 190   2.0000      -0.495459       -13.4821
 191   2.0000      -0.495177       -13.4745
 192   2.0000      -0.492410       -13.3992
 193   2.0000      -0.490691       -13.3524
 194   2.0000      -0.488784       -13.3005
 195   2.0000      -0.487500       -13.2656
 196   2.0000      -0.485201       -13.2030
 197   2.0000      -0.482394       -13.1266
 198   2.0000      -0.477013       -12.9802
 199   2.0000      -0.472638       -12.8611
 200   2.0000      -0.470852       -12.8125
 201   2.0000      -0.468556       -12.7501
 202   2.0000      -0.467839       -12.7305
 203   2.0000      -0.462942       -12.5973
 204   2.0000      -0.459925       -12.5152
 205   2.0000      -0.458352       -12.4724
 206   2.0000      -0.456343       -12.4177
 207   2.0000      -0.456215       -12.4142
 208   2.0000      -0.450917       -12.2701
 209   2.0000      -0.449702       -12.2370
 210   2.0000      -0.449100       -12.2206
 211   2.0000      -0.444629       -12.0990
 212   2.0000      -0.443794       -12.0763
 213   2.0000      -0.439867       -11.9694
 214   2.0000      -0.438578       -11.9343
 215   2.0000      -0.436888       -11.8883
 216   2.0000      -0.436564       -11.8795
 217   2.0000      -0.428816       -11.6687
 218   2.0000      -0.425688       -11.5836
 219   2.0000      -0.422209       -11.4889
 220   2.0000      -0.421549       -11.4709
 221   2.0000      -0.418689       -11.3931
 222   2.0000      -0.417682       -11.3657
 223   2.0000      -0.415675       -11.3111
 224   2.0000      -0.408541       -11.1170
 225   2.0000      -0.405176       -11.0254
 226   2.0000      -0.404393       -11.0041
 227   2.0000      -0.395508       -10.7623
 228   2.0000      -0.394003       -10.7214
 229   2.0000      -0.387882       -10.5548
 230   2.0000      -0.379432       -10.3249
 231   2.0000      -0.376376       -10.2417
 232   2.0000      -0.374818       -10.1993
 233   2.0000      -0.374305       -10.1854
 234   2.0000      -0.372752       -10.1431
 235   2.0000      -0.367568       -10.0020
 236   2.0000      -0.365737        -9.9522
 237   2.0000      -0.356266        -9.6945
 238   2.0000      -0.349046        -9.4980
 239   2.0000      -0.348417        -9.4809
 240   2.0000      -0.338686        -9.2161
 241   2.0000      -0.336700        -9.1621
 242   2.0000      -0.327610        -8.9147
 243   2.0000      -0.323598        -8.8056
 244   2.0000      -0.316537        -8.6134
 245   2.0000      -0.311311        -8.4712
 246   2.0000      -0.295208        -8.0330
 247   2.0000      -0.290995        -7.9184
 248   2.0000      -0.281628        -7.6635
 249   2.0000      -0.268301        -7.3008
 250   2.0000      -0.256203        -6.9716
 251   2.0000      -0.243292        -6.6203
 252   2.0000      -0.204853        -5.5743
 253   0.0000      -0.097602        -2.6559
 254   0.0000      -0.090482        -2.4621
 255   0.0000      -0.071740        -1.9521
 256   0.0000      -0.061027        -1.6606
 257   0.0000      -0.046547        -1.2666

MULLIKEN ATOMIC CHARGES
-----------------------
   0 C :    0.299116
   1 C :   -0.344779
   2 C :   -0.184373
   3 N :    0.146115
   4 C :   -0.209683
   5 N :    0.163451
   6 C :    0.019321
   7 C :   -0.014906
   8 C :   -0.078745
   9 C :    0.117919
  10 C :   -0.090670
  11 C :   -0.024615
  12 S :    0.183793
  13 C :   -0.122859
  14 C :    0.037422
  15 Br:    0.020584
  16 C :    0.124041
  17 O :   -0.149267
  18 C :   -0.109409
  19 C :   -0.028409
  20 C :    0.120466
  21 O :   -0.182133
  22 C :    0.174891
  23 C :   -0.051771
  24 C :    0.070758
  25 C :    0.033997
  26 C :    0.008907
  27 C :    0.004699
  28 C :    0.055856
  29 N :   -0.021135
  30 C :   -0.110420
  31 S :    0.143402
  32 C :   -0.009028
  33 N :    0.278872
  34 O :   -0.259699
  35 O :   -0.275883
  36 C :    0.014380
  37 C :    0.114870
  38 C :   -0.040369
  39 C :   -0.024635
  40 C :   -0.032317
  41 C :   -0.013114
  42 C :    0.034519
  43 C :    0.026917
  44 C :   -0.050655
  45 S :    0.052528
  46 C :   -0.028679
  47 C :    0.016082
  48 C :    0.040023
  49 C :   -0.021648
  50 S :    0.059451
  51 C :   -0.012905
  52 C :    0.058329
  53 C :   -0.036664
  54 C :    0.048861
  55 C :    0.002068
  56 C :    0.049900
  57 C :   -0.022754
  58 C :    0.061817
  59 C :   -0.025396
  60 C :    0.057941
  61 C :   -0.001449
  62 C :    0.060461
  63 C :   -0.036859
  64 C :    0.012392
  65 C :   -0.025469
  66 H :   -0.013717
  67 H :   -0.006879
  68 H :   -0.005185
  69 H :    0.038239
  70 H :    0.022958
  71 H :   -0.007442
  72 H :   -0.007879
  73 H :   -0.011653
  74 H :   -0.007564
  75 H :    0.027189
  76 H :    0.136789
  77 H :    0.007131
  78 H :   -0.006251
  79 H :    0.001921
  80 H :   -0.017561
  81 H :   -0.015182
  82 H :   -0.012880
  83 H :   -0.015186
  84 H :   -0.012517
  85 H :   -0.024126
  86 H :   -0.018078
  87 H :   -0.026841
  88 H :   -0.025398
  89 H :   -0.029709
  90 H :   -0.027251
  91 H :   -0.023466
  92 H :   -0.019932
  93 H :    0.006336
  94 H :    0.020682
Sum of atomic charges:   -0.0000000

LOEWDIN ATOMIC CHARGES
----------------------
   0 C :    0.075131
   1 C :   -0.143597
   2 C :   -0.018081
   3 N :   -0.057180
   4 C :   -0.026566
   5 N :   -0.051880
   6 C :   -0.021864
   7 C :   -0.048350
   8 C :    0.016565
   9 C :   -0.033799
  10 C :   -0.145904
  11 C :   -0.010408
  12 S :    0.430667
  13 C :   -0.272714
  14 C :   -0.071290
  15 Br:    0.134412
  16 C :    0.072071
  17 O :   -0.138203
  18 C :   -0.107785
  19 C :    0.056277
  20 C :    0.009152
  21 O :    0.021491
  22 C :    0.076432
  23 C :   -0.067973
  24 C :   -0.002388
  25 C :   -0.021462
  26 C :    0.001916
  27 C :   -0.066395
  28 C :    0.025644
  29 N :    0.048375
  30 C :   -0.095941
  31 S :    0.448774
  32 C :   -0.218611
  33 N :    0.274069
  34 O :   -0.225511
  35 O :   -0.242100
  36 C :    0.005844
  37 C :   -0.108872
  38 C :   -0.027896
  39 C :   -0.051609
  40 C :   -0.071069
  41 C :   -0.140281
  42 C :   -0.041723
  43 C :   -0.026635
  44 C :   -0.186065
  45 S :    0.351341
  46 C :   -0.170957
  47 C :   -0.046378
  48 C :   -0.023461
  49 C :   -0.153905
  50 S :    0.380512
  51 C :   -0.041299
  52 C :   -0.066808
  53 C :   -0.003860
  54 C :   -0.053620
  55 C :    0.068001
  56 C :   -0.060333
  57 C :    0.043777
  58 C :   -0.057409
  59 C :    0.011570
  60 C :   -0.056370
  61 C :    0.067849
  62 C :   -0.063494
  63 C :    0.039649
  64 C :   -0.020468
  65 C :   -0.054911
  66 H :    0.039297
  67 H :    0.040783
  68 H :    0.038066
  69 H :    0.053020
  70 H :    0.029920
  71 H :    0.032408
  72 H :    0.029146
  73 H :    0.028143
  74 H :    0.030205
  75 H :    0.025833
  76 H :    0.095541
  77 H :    0.045564
  78 H :    0.032306
  79 H :    0.016499
  80 H :    0.031888
  81 H :    0.032640
  82 H :    0.032399
  83 H :    0.030702
  84 H :    0.033564
  85 H :    0.033856
  86 H :    0.011914
  87 H :    0.034254
  88 H :    0.024368
  89 H :    0.023547
  90 H :    0.034248
  91 H :    0.024846
  92 H :    0.029221
  93 H :    0.017315
  94 H :    0.024408

  Mayer bond orders larger than 0.100000
B(  0-C ,  1-C ) :   1.6324 B(  0-C ,  6-C ) :   1.0053 B(  0-C , 18-C ) :   1.0805
B(  1-C ,  2-C ) :   1.1420 B(  1-C ,  4-C ) :   1.1412 B(  2-C ,  3-N ) :   2.9692
B(  4-C ,  5-N ) :   3.0003 B(  6-C ,  7-C ) :   1.2753 B(  6-C , 11-C ) :   1.4086
B(  7-C ,  8-C ) :   1.4307 B(  7-C , 16-C ) :   0.9302 B(  8-C ,  9-C ) :   1.2378
B(  8-C , 66-H ) :   1.0180 B(  9-C , 10-C ) :   1.3128 B(  9-C , 14-C ) :   1.1620
B( 10-C , 11-C ) :   1.3251 B( 10-C , 12-S ) :   1.0830 B( 11-C , 67-H ) :   0.9817
B( 12-S , 13-C ) :   1.0874 B( 13-C , 14-C ) :   1.6178 B( 13-C , 15-Br) :   1.0166
B( 14-C , 68-H ) :   1.0012 B( 16-C , 17-O ) :   2.2026 B( 16-C , 18-C ) :   0.9662
B( 18-C , 19-C ) :   1.5201 B( 19-C , 20-C ) :   1.2474 B( 19-C , 69-H ) :   0.9346
B( 20-C , 21-O ) :   1.1054 B( 20-C , 24-C ) :   1.3616 B( 21-O , 22-C ) :   1.1775
B( 22-C , 23-C ) :   1.5139 B( 22-C , 70-H ) :   1.0016 B( 23-C , 24-C ) :   1.2410
B( 23-C , 71-H ) :   1.0025 B( 24-C , 25-C ) :   1.1106 B( 25-C , 26-C ) :   1.6806
B( 25-C , 72-H ) :   0.9568 B( 26-C , 27-C ) :   1.1543 B( 26-C , 73-H ) :   0.9817
B( 27-C , 28-C ) :   1.6491 B( 27-C , 74-H ) :   0.9783 B( 28-C , 29-N ) :   1.1206
B( 28-C , 75-H ) :   0.9636 B( 29-N , 30-C ) :   1.2348 B( 29-N , 76-H ) :   0.9021
B( 30-C , 31-S ) :   1.1341 B( 30-C , 37-C ) :   1.3454 B( 31-S , 32-C ) :   1.0606
B( 32-C , 33-N ) :   0.9882 B( 32-C , 36-C ) :   1.4749 B( 33-N , 34-O ) :   1.5254
B( 33-N , 35-O ) :   1.4997 B( 34-O , 35-O ) :   0.2507 B( 36-C , 37-C ) :   1.2323
B( 36-C , 77-H ) :   1.0081 B( 37-C , 38-C ) :   1.0662 B( 38-C , 39-C ) :   1.6524
B( 38-C , 78-H ) :   0.9737 B( 39-C , 40-C ) :   1.1567 B( 39-C , 79-H ) :   0.9603
B( 40-C , 41-C ) :   1.5680 B( 40-C , 80-H ) :   0.9855 B( 41-C , 42-C ) :   1.1432
B( 41-C , 45-S ) :   1.0297 B( 42-C , 43-C ) :   1.5856 B( 42-C , 81-H ) :   0.9994
B( 43-C , 44-C ) :   1.1944 B( 43-C , 82-H ) :   0.9935 B( 44-C , 45-S ) :   1.0310
B( 44-C , 46-C ) :   1.5095 B( 46-C , 47-C ) :   1.1834 B( 46-C , 50-S ) :   1.0464
B( 47-C , 48-C ) :   1.5893 B( 47-C , 83-H ) :   0.9941 B( 48-C , 49-C ) :   1.1425
B( 48-C , 84-H ) :   0.9990 B( 49-C , 50-S ) :   1.0259 B( 49-C , 51-C ) :   1.5767
B( 51-C , 52-C ) :   1.1355 B( 51-C , 85-H ) :   0.9680 B( 52-C , 53-C ) :   1.4510
B( 52-C , 63-C ) :   1.1177 B( 53-C , 54-C ) :   1.1352 B( 53-C , 86-H ) :   0.9952
B( 54-C , 55-C ) :   1.4364 B( 54-C , 62-C ) :   1.1266 B( 55-C , 56-C ) :   1.1379
B( 55-C , 87-H ) :   1.0028 B( 56-C , 57-C ) :   1.4354 B( 56-C , 60-C ) :   1.1222
B( 57-C , 58-C ) :   1.1452 B( 57-C , 88-H ) :   1.0070 B( 58-C , 59-C ) :   1.5113
B( 58-C , 64-C ) :   1.0841 B( 59-C , 60-C ) :   1.0828 B( 59-C , 89-H ) :   1.0163
B( 60-C , 61-C ) :   1.4773 B( 61-C , 62-C ) :   1.1155 B( 61-C , 90-H ) :   1.0045
B( 62-C , 63-C ) :   1.4479 B( 63-C , 91-H ) :   1.0149 B( 64-C , 65-C ) :   1.9338
B( 64-C , 92-H ) :   0.9662 B( 65-C , 93-H ) :   0.9523 B( 65-C , 94-H ) :   0.9498

-----------------------------------------------------------------------------
         ABSORPTION SPECTRUM VIA TRANSITION ELECTRIC DIPOLE MOMENTS
-----------------------------------------------------------------------------
State   Energy  Wavelength   fosc         T2         TX        TY        TZ
        (cm-1)    (nm)                  (au**2)     (au)      (au)      (au)
-----------------------------------------------------------------------------
   0    7237.0   1381.8   0.050410000   2.29317  -0.89944  -0.35286  -1.16605
   1   13233.0    755.7   0.299399112   7.44848  -0.75121   0.77010  -2.50821
   2   14979.0    667.6   0.482379708  10.60183  -1.05247  -1.31677  -2.78572
   3   15773.1    634.0   0.360849339   7.53156  -0.63387  -1.10916  -2.42890
   4   18768.9    532.8   0.680475333  11.93573   0.55840  -3.32067  -0.77271
   5   19844.1    503.9   0.064458093   1.06935  -0.45601  -0.62970  -0.68183
   6   21764.0    459.5   0.178665867   2.70258   1.63111   0.20209   0.03506
   7   22363.5    447.2   0.060133850   0.88523   0.63521   0.28950   0.63081
   8   22432.1    445.8   0.034041615   0.49959  -0.69323  -0.01682  -0.13688
   9   23983.2    417.0   0.318068995   4.36607   2.07763   0.21647  -0.05168
  10   24454.0    408.9   0.047560753   0.64029  -0.40209   0.65448  -0.22421
  11   24823.6    402.8   0.152613879   2.02397  -0.30257   1.31128   0.46150
  12   25401.2    393.7   0.043732892   0.56680   0.72556  -0.18279  -0.08336
  13   25513.3    392.0   0.827512156  10.67783   3.25482   0.12163   0.26306
  14   27467.0    364.1   0.051192838   0.61358   0.72292  -0.00474  -0.30159
  15   27794.8    359.8   0.168393954   1.99452  -1.10109   0.34577  -0.81398
  16   27939.1    357.9   0.662502554   7.80641   2.63206  -0.43553  -0.83004
  17   28447.0    351.5   0.365138850   4.22569   0.75796  -1.23231  -1.46034
  18   28499.2    350.9   0.292356076   3.37718  -0.61437  -1.28979  -1.15593
  19   28856.2    346.5   0.122131196   1.39336  -1.09552  -0.31094  -0.31065
  20   29401.4    340.1   0.002278419   0.02551   0.06387  -0.07926  -0.12309
  21   30058.8    332.7   0.018021994   0.19738  -0.33541   0.27335   0.10081
  22   30253.4    330.5   0.064448081   0.70131   0.73842  -0.03478   0.39349
  23   31004.0    322.5   0.201413468   2.13868   1.26427  -0.03072   0.73442
  24   31271.0    319.8   0.113479174   1.19467   0.63587  -0.64542  -0.61137
  25   31523.2    317.2   0.049615396   0.51816  -0.68968   0.01975   0.20522
  26   31690.0    315.6   0.050215107   0.52166   0.34201   0.38002   0.51017
  27   32661.8    306.2   0.042808581   0.43149  -0.63188   0.02180  -0.17816
  28   32965.0    303.4   0.260470788   2.60124  -1.47195   0.33459   0.56803
  29   33134.0    301.8   0.015932668   0.15830  -0.03903  -0.19581  -0.34415
  30   33253.6    300.7   0.601810852   5.95795  -0.98672  -1.17639  -1.89749
  31   33744.7    296.3   0.026278024   0.25637  -0.38595   0.27238   0.18225
  32   33979.6    294.3   0.010030277   0.09718  -0.04786  -0.30803   0.00189
  33   34356.6    291.1   0.044288323   0.42438  -0.60305   0.14551   0.19885
  34   34469.4    290.1   0.010540526   0.10067   0.11619   0.07138   0.28649
  35   34692.2    288.2   0.002741474   0.02602   0.08818   0.08290   0.10661
  36   34830.0    287.1   0.081265897   0.76812  -0.84641   0.21935  -0.06001
  37   35312.6    283.2   0.118308225   1.10296   0.29689  -0.74437  -0.67877
  38   36000.9    277.8   0.008429383   0.07708  -0.25610  -0.03647   0.10082
  39   36100.4    277.0   0.006518404   0.05944  -0.08664  -0.03133  -0.22573
  40   36297.8    275.5   0.021409000   0.19417   0.35607   0.05348  -0.25403
  41   36658.7    272.8   0.166241303   1.49292   1.20157  -0.04036  -0.21801
  42   36884.4    271.1   0.004619647   0.04123  -0.16496  -0.11840  -0.00209
  43   37314.9    268.0   0.184980257   1.63200  -0.87824  -0.68899  -0.62128
  44   37685.4    265.4   0.095379438   0.83321  -0.27005   0.78606   0.37735
  45   37857.2    264.2   0.177631844   1.54471   1.14553   0.13382   0.46320
  46   38071.0    262.7   0.073027014   0.63149  -0.17940   0.67300   0.38260
  47   38226.8    261.6   0.090693254   0.78106   0.88301   0.02961   0.02191
  48   38491.4    259.8   0.032026263   0.27392   0.28243   0.36704   0.24379
  49   38673.1    258.6   0.075826072   0.64548  -0.79283  -0.12794  -0.02316
  50   39012.3    256.3   0.043716304   0.36891   0.58640   0.02816  -0.15572
  51   39235.6    254.9   0.011364296   0.09535  -0.23968   0.18983  -0.04326
  52   39293.4    254.5   0.029642354   0.24835   0.47080   0.02080  -0.16208
  53   39697.4    251.9   0.005270577   0.04371   0.13909   0.13715   0.07451
  54   39787.4    251.3   0.002726685   0.02256  -0.10306  -0.08877   0.06371
  55   40084.4    249.5   0.023730139   0.19490   0.36083   0.22579   0.11712
  56   40263.8    248.4   0.000532960   0.00436   0.05006  -0.02898   0.03182

FINAL SINGLE POINT ENERGY     -6719.705353011617

DIPOLE MOMENT
-------------
                                X             Y             Z
Electronic contribution:    -88.63874      52.74301    -122.02437
Nuclear contribution   :     87.80972     -53.30354     123.10703
                        -----------------------------------------
Total Dipole Moment    :     -0.82902      -0.56053       1.08266
                        -----------------------------------------
Magnitude (a.u.)       :      1.47432
Magnitude (Debye)      :      3.74742

Rotational constants in cm-1:     0.000748     0.000445     0.000392
Rotational constants in MHz :    22.415054    13.337957    11.748451

                             ****ORCA TERMINATED NORMALLY****
TOTAL RUN TIME: 0 days 0 hours 9 minutes 52 seconds 416 msec
