                         Program Version 4.2.0 -  RELEASE  -
|  1> # ORCA input file
|  2> # SCF done       -193.472861595782          0.000492802415
|  3> ! CAM-B3LYP def2-SVP def2/J RIJCOSX Grid4 TightSCF
|  4> %maxcore 5000
|  5> %tddft
|  6>     Mode sTDDFT
|  7>     Ethresh 5.0
|  8>     maxcore 5000
|  9> end
| 10>
| 11> %pal
| 12>   nprocs 6
| 13>   end
| 14> * xyz 0 1
| 15>    C       -5.65119         7.61412         7.47477
| 16>    C       -6.13631         8.75212         8.06315
| 17>    C       -5.75581         9.19913         9.34607
| 18>    N       -5.48402         9.61578        10.38055
| 19>    C       -7.11441         9.60379         7.50607
| 20>    N       -7.92323        10.32963         7.13542
| 21>    C       -4.73202         6.66739         8.09173
| 22>    C       -4.62797         5.53132         7.25280
| 23>    C       -3.82903         4.45538         7.55750
| 24>    C       -3.09453         4.50581         8.74591
| 25>    C       -3.20631         5.64405         9.58006
| 26>    C       -4.01625         6.73058         9.27281
| 27>    S       -2.21330         5.49450        10.99742
| 28>    C       -1.66911         3.92769        10.45640
| 29>    C       -2.20178         3.53452         9.27511
| 30>   Br       -0.44874         2.96362        11.50333
| 31>    C       -5.48328         5.71506         6.06592
| 32>    O       -5.65777         4.88856         5.19177
| 33>    C       -6.02673         7.08750         6.17099
| 34>    C       -6.59499         7.84358         5.18250
| 35>    C       -7.01916         7.47008         3.88852
| 36>    S       -7.24414         8.76313         2.70866
| 37>    C       -7.66129         7.61923         1.47592
| 38>    C       -7.68401         6.30387         1.99353
| 39>    C       -7.32296         6.24089         3.34636
| 40>    C       -8.03213         5.25374         1.11502
| 41>    C       -8.22005         5.55394        -0.23950
| 42>    S       -8.69832         4.13585        -1.12629
| 43>    C       -8.60050         3.17553         0.30207
| 44>    C       -8.23540         3.87782         1.39875
| 45>    C       -8.08176         6.85722        -0.76474
| 46>    C       -7.87140         7.89844         0.13054
| 47>    C       -8.04790         7.08653        -2.19971
| 48>    C       -7.18132         6.41073        -2.99569
| 49>    C       -6.98872         6.49868        -4.40800
| 50>    C       -5.96838         5.74003        -4.88514
| 51>    C       -5.27483         5.01100        -3.88682
| 52>    S       -5.97585         5.31901        -2.31537
| 53>    C       -4.19798         4.15590        -3.96305
| 54>    C       -3.42262         3.70178        -5.05419
| 55>    C       -2.42010         2.85164        -4.69820
| 56>    C       -2.32944         2.58410        -3.30382
| 57>    S       -3.59864         3.45882        -2.47320
| 58>    C       -1.40490         1.78404        -2.68210
| 59>    C       -1.29281         1.54968        -1.29592
| 60>    S       -0.01772         0.48952        -0.70388
| 61>    C       -0.49866         0.75507         0.94743
| 62>    C       -1.61285         1.62320         1.01023
| 63>    C       -2.04258         2.05080        -0.24990
| 64>    C       -2.13815         1.94285         2.28005
| 65>    C       -1.52676         1.39481         3.41288
| 66>    S       -2.31239         1.93790         4.86099
| 67>    C       -3.45113         2.85892         3.94014
| 68>    C       -3.24235         2.77479         2.60832
| 69>    C       -0.39270         0.55605         3.34495
| 70>    C        0.10075         0.23232         2.07607
| 71>    C        0.16831         0.01913         4.54575
| 72>    C        1.43620        -0.40191         4.78966
| 73>    C        2.68360        -0.22806         4.07368
| 74>    C        3.02184         0.83172         3.27211
| 75>    C        4.28812         0.99039         2.67479
| 76>    N        5.29807         1.15069         2.15308
| 77>    C        2.17367         1.93074         3.02582
| 78>    N        1.55045         2.87621         2.83747
| 79>    C        3.61391        -1.23453         4.57434
| 80>    C        3.04871        -1.84540         5.72240
| 81>    C        1.69966        -1.29087         5.95428
| 82>    O        0.94298        -1.53393         6.86596
| 83>    C        3.71147        -2.80568         6.44730
| 84>    C        4.98469        -3.18915         6.01248
| 85>    C        5.53198        -2.58548         4.85507
| 86>    C        4.86641        -1.60771         4.12598
| 87>    S        7.10909        -3.21616         4.49011
| 88>    C        7.01678        -4.26283         5.88192
| 89>    C        5.86417        -4.14983         6.58327
| 90>   Br        8.45029        -5.40615         6.27556
| 91>    H       -3.76368         3.59795         6.90634
| 92>    H       -4.06255         7.57823         9.93578
| 93>    H       -1.97485         2.60156         8.79222
| 94>    H       -6.69167         8.90506         5.38106
| 95>    H       -7.27501         5.32788         3.90753
| 96>    H       -8.82627         2.12941         0.23325
| 97>    H       -8.12086         3.44897         2.37722
| 98>    H       -7.79240         8.91165        -0.23117
| 99>    H       -8.65539         7.87599        -2.61765
|100>    H       -7.62352         7.11965        -5.01514
|101>    H       -5.68609         5.68295        -5.92173
|102>    H       -3.62633         4.01238        -6.06359
|103>    H       -1.73007         2.40510        -5.39256
|104>    H       -0.67848         1.29249        -3.31546
|105>    H       -2.87298         2.71760        -0.37171
|106>    H       -4.21395         3.41773         4.44789
|107>    H       -3.84480         3.28401         1.87845
|108>    H        0.92791        -0.45382         1.97880
|109>    H       -0.52796        -0.12486         5.36775
|110>    H        3.26337        -3.24674         7.32377
|111>    H        5.31970        -1.17848         3.24768
|112>    H        5.64099        -4.71916         7.46700
|113> *
|114>
|115>                          ****END OF INPUT****

CARTESIAN COORDINATES (ANGSTROEM)
---------------------------------
  C     -5.651190    7.614120    7.474770
  C     -6.136310    8.752120    8.063150
  C     -5.755810    9.199130    9.346070
  N     -5.484020    9.615780   10.380550
  C     -7.114410    9.603790    7.506070
  N     -7.923230   10.329630    7.135420
  C     -4.732020    6.667390    8.091730
  C     -4.627970    5.531320    7.252800
  C     -3.829030    4.455380    7.557500
  C     -3.094530    4.505810    8.745910
  C     -3.206310    5.644050    9.580060
  C     -4.016250    6.730580    9.272810
  S     -2.213300    5.494500   10.997420
  C     -1.669110    3.927690   10.456400
  C     -2.201780    3.534520    9.275110
  Br    -0.448740    2.963620   11.503330
  C     -5.483280    5.715060    6.065920
  O     -5.657770    4.888560    5.191770
  C     -6.026730    7.087500    6.170990
  C     -6.594990    7.843580    5.182500
  C     -7.019160    7.470080    3.888520
  S     -7.244140    8.763130    2.708660
  C     -7.661290    7.619230    1.475920
  C     -7.684010    6.303870    1.993530
  C     -7.322960    6.240890    3.346360
  C     -8.032130    5.253740    1.115020
  C     -8.220050    5.553940   -0.239500
  S     -8.698320    4.135850   -1.126290
  C     -8.600500    3.175530    0.302070
  C     -8.235400    3.877820    1.398750
  C     -8.081760    6.857220   -0.764740
  C     -7.871400    7.898440    0.130540
  C     -8.047900    7.086530   -2.199710
  C     -7.181320    6.410730   -2.995690
  C     -6.988720    6.498680   -4.408000
  C     -5.968380    5.740030   -4.885140
  C     -5.274830    5.011000   -3.886820
  S     -5.975850    5.319010   -2.315370
  C     -4.197980    4.155900   -3.963050
  C     -3.422620    3.701780   -5.054190
  C     -2.420100    2.851640   -4.698200
  C     -2.329440    2.584100   -3.303820
  S     -3.598640    3.458820   -2.473200
  C     -1.404900    1.784040   -2.682100
  C     -1.292810    1.549680   -1.295920
  S     -0.017720    0.489520   -0.703880
  C     -0.498660    0.755070    0.947430
  C     -1.612850    1.623200    1.010230
  C     -2.042580    2.050800   -0.249900
  C     -2.138150    1.942850    2.280050
  C     -1.526760    1.394810    3.412880
  S     -2.312390    1.937900    4.860990
  C     -3.451130    2.858920    3.940140
  C     -3.242350    2.774790    2.608320
  C     -0.392700    0.556050    3.344950
  C      0.100750    0.232320    2.076070
  C      0.168310    0.019130    4.545750
  C      1.436200   -0.401910    4.789660
  C      2.683600   -0.228060    4.073680
  C      3.021840    0.831720    3.272110
  C      4.288120    0.990390    2.674790
  N      5.298070    1.150690    2.153080
  C      2.173670    1.930740    3.025820
  N      1.550450    2.876210    2.837470
  C      3.613910   -1.234530    4.574340
  C      3.048710   -1.845400    5.722400
  C      1.699660   -1.290870    5.954280
  O      0.942980   -1.533930    6.865960
  C      3.711470   -2.805680    6.447300
  C      4.984690   -3.189150    6.012480
  C      5.531980   -2.585480    4.855070
  C      4.866410   -1.607710    4.125980
  S      7.109090   -3.216160    4.490110
  C      7.016780   -4.262830    5.881920
  C      5.864170   -4.149830    6.583270
  Br     8.450290   -5.406150    6.275560
  H     -3.763680    3.597950    6.906340
  H     -4.062550    7.578230    9.935780
  H     -1.974850    2.601560    8.792220
  H     -6.691670    8.905060    5.381060
  H     -7.275010    5.327880    3.907530
  H     -8.826270    2.129410    0.233250
  H     -8.120860    3.448970    2.377220
  H     -7.792400    8.911650   -0.231170
  H     -8.655390    7.875990   -2.617650
  H     -7.623520    7.119650   -5.015140
  H     -5.686090    5.682950   -5.921730
  H     -3.626330    4.012380   -6.063590
  H     -1.730070    2.405100   -5.392560
  H     -0.678480    1.292490   -3.315460
  H     -2.872980    2.717600   -0.371710
  H     -4.213950    3.417730    4.447890
  H     -3.844800    3.284010    1.878450
  H      0.927910   -0.453820    1.978800
  H     -0.527960   -0.124860    5.367750
  H      3.263370   -3.246740    7.323770
  H      5.319700   -1.178480    3.247680
  H      5.640990   -4.719160    7.467000

 Total Charge           Charge          ....    0
 Multiplicity           Mult            ....    1
 Number of Electrons    NEL             ....  624
 Basis Dimension        Dim             .... 1242

ORBITAL ENERGIES
----------------

  NO   OCC          E(Eh)            E(eV)
   0   2.0000    -482.885079    -13139.9710
   1   2.0000    -482.883329    -13139.9234
   2   2.0000     -88.975033     -2421.1337
   3   2.0000     -88.974960     -2421.1318
   4   2.0000     -88.960108     -2420.7276
   5   2.0000     -88.956021     -2420.6164
   6   2.0000     -88.952538     -2420.5216
   7   2.0000     -88.951659     -2420.4977
   8   2.0000     -88.951607     -2420.4963
   9   2.0000     -88.947184     -2420.3759
  10   2.0000     -62.562802     -1702.4204
  11   2.0000     -62.561035     -1702.3723
  12   2.0000     -56.396752     -1534.6337
  13   2.0000     -56.394991     -1534.5857
  14   2.0000     -56.394037     -1534.5598
  15   2.0000     -56.394002     -1534.5588
  16   2.0000     -56.392266     -1534.5116
  17   2.0000     -56.392231     -1534.5106
  18   2.0000     -19.226373      -523.1762
  19   2.0000     -19.212588      -522.8011
  20   2.0000     -14.415255      -392.2590
  21   2.0000     -14.415134      -392.2558
  22   2.0000     -14.413465      -392.2103
  23   2.0000     -14.408485      -392.0748
  24   2.0000     -10.376538      -282.3600
  25   2.0000     -10.363619      -282.0084
  26   2.0000     -10.358190      -281.8607
  27   2.0000     -10.357775      -281.8494
  28   2.0000     -10.343204      -281.4529
  29   2.0000     -10.342162      -281.4245
  30   2.0000     -10.340089      -281.3681
  31   2.0000     -10.339356      -281.3482
  32   2.0000     -10.326189      -280.9899
  33   2.0000     -10.326080      -280.9869
  34   2.0000     -10.325296      -280.9656
  35   2.0000     -10.318561      -280.7823
  36   2.0000     -10.318492      -280.7804
  37   2.0000     -10.317908      -280.7645
  38   2.0000     -10.317855      -280.7631
  39   2.0000     -10.316939      -280.7382
  40   2.0000     -10.316647      -280.7302
  41   2.0000     -10.316343      -280.7220
  42   2.0000     -10.316172      -280.7173
  43   2.0000     -10.314474      -280.6711
  44   2.0000     -10.312571      -280.6193
  45   2.0000     -10.312165      -280.6083
  46   2.0000     -10.309941      -280.5478
  47   2.0000     -10.309247      -280.5289
  48   2.0000     -10.307826      -280.4902
  49   2.0000     -10.307789      -280.4892
  50   2.0000     -10.306715      -280.4600
  51   2.0000     -10.306652      -280.4583
  52   2.0000     -10.305030      -280.4141
  53   2.0000     -10.304797      -280.4078
  54   2.0000     -10.304679      -280.4046
  55   2.0000     -10.303543      -280.3737
  56   2.0000     -10.303416      -280.3702
  57   2.0000     -10.302765      -280.3525
  58   2.0000     -10.301692      -280.3233
  59   2.0000     -10.301057      -280.3060
  60   2.0000     -10.300498      -280.2908
  61   2.0000     -10.299702      -280.2691
  62   2.0000     -10.296187      -280.1735
  63   2.0000     -10.296136      -280.1721
  64   2.0000     -10.296111      -280.1714
  65   2.0000     -10.295012      -280.1415
  66   2.0000     -10.294896      -280.1384
  67   2.0000     -10.294131      -280.1175
  68   2.0000     -10.293349      -280.0963
  69   2.0000     -10.293224      -280.0929
  70   2.0000     -10.291779      -280.0536
  71   2.0000     -10.291541      -280.0471
  72   2.0000     -10.291004      -280.0325
  73   2.0000     -10.290922      -280.0302
  74   2.0000     -10.290752      -280.0256
  75   2.0000     -10.290497      -280.0187
  76   2.0000     -10.290234      -280.0115
  77   2.0000     -10.290063      -280.0069
  78   2.0000     -10.288875      -279.9745
  79   2.0000     -10.286637      -279.9136
  80   2.0000     -10.280107      -279.7359
  81   2.0000     -10.278584      -279.6945
  82   2.0000     -10.273749      -279.5629
  83   2.0000     -10.269571      -279.4492
  84   2.0000      -8.792235      -239.2489
  85   2.0000      -8.790467      -239.2008
  86   2.0000      -8.071000      -219.6231
  87   2.0000      -8.070942      -219.6215
  88   2.0000      -8.056014      -219.2153
  89   2.0000      -8.051575      -219.0945
  90   2.0000      -8.047942      -218.9956
  91   2.0000      -8.047577      -218.9857
  92   2.0000      -8.047418      -218.9814
  93   2.0000      -8.043395      -218.8719
  94   2.0000      -6.628548      -180.3720
  95   2.0000      -6.626782      -180.3239
  96   2.0000      -6.613953      -179.9748
  97   2.0000      -6.613774      -179.9699
  98   2.0000      -6.612206      -179.9273
  99   2.0000      -6.611976      -179.9210
 100   2.0000      -6.040690      -164.3755
 101   2.0000      -6.040629      -164.3739
 102   2.0000      -6.036416      -164.2592
 103   2.0000      -6.036348      -164.2574
 104   2.0000      -6.032240      -164.1456
 105   2.0000      -6.032181      -164.1440
 106   2.0000      -6.025454      -163.9609
 107   2.0000      -6.021550      -163.8547
 108   2.0000      -6.021144      -163.8437
 109   2.0000      -6.017481      -163.7440
 110   2.0000      -6.017381      -163.7413
 111   2.0000      -6.017335      -163.7400
 112   2.0000      -6.016926      -163.7289
 113   2.0000      -6.016688      -163.7224
 114   2.0000      -6.013392      -163.6327
 115   2.0000      -6.013252      -163.6289
 116   2.0000      -6.013208      -163.6277
 117   2.0000      -6.013188      -163.6272
 118   2.0000      -6.013080      -163.6242
 119   2.0000      -6.009902      -163.5378
 120   2.0000      -6.009094      -163.5158
 121   2.0000      -6.008760      -163.5067
 122   2.0000      -6.008541      -163.5007
 123   2.0000      -6.004066      -163.3789
 124   2.0000      -2.744397       -74.6788
 125   2.0000      -2.742679       -74.6321
 126   2.0000      -2.740354       -74.5688
 127   2.0000      -2.740160       -74.5635
 128   2.0000      -2.738572       -74.5203
 129   2.0000      -2.738366       -74.5147
 130   2.0000      -2.728597       -74.2489
 131   2.0000      -2.728571       -74.2482
 132   2.0000      -2.726793       -74.1998
 133   2.0000      -2.726780       -74.1995
 134   2.0000      -1.140649       -31.0387
 135   2.0000      -1.127852       -30.6904
 136   2.0000      -1.023863       -27.8607
 137   2.0000      -1.021741       -27.8030
 138   2.0000      -1.013558       -27.5803
 139   2.0000      -1.011939       -27.5363
 140   2.0000      -1.011032       -27.5116
 141   2.0000      -1.004639       -27.3376
 142   2.0000      -1.001449       -27.2508
 143   2.0000      -0.993821       -27.0432
 144   2.0000      -0.991519       -26.9806
 145   2.0000      -0.989650       -26.9297
 146   2.0000      -0.986541       -26.8451
 147   2.0000      -0.984250       -26.7828
 148   2.0000      -0.978650       -26.6304
 149   2.0000      -0.971021       -26.4228
 150   2.0000      -0.944201       -25.6930
 151   2.0000      -0.943208       -25.6660
 152   2.0000      -0.932276       -25.3685
 153   2.0000      -0.925347       -25.1800
 154   2.0000      -0.909008       -24.7354
 155   2.0000      -0.907928       -24.7060
 156   2.0000      -0.906757       -24.6741
 157   2.0000      -0.899589       -24.4791
 158   2.0000      -0.886713       -24.1287
 159   2.0000      -0.885978       -24.1087
 160   2.0000      -0.884907       -24.0796
 161   2.0000      -0.879608       -23.9354
 162   2.0000      -0.871039       -23.7022
 163   2.0000      -0.863613       -23.5001
 164   2.0000      -0.859700       -23.3936
 165   2.0000      -0.854606       -23.2550
 166   2.0000      -0.846351       -23.0304
 167   2.0000      -0.831413       -22.6239
 168   2.0000      -0.829394       -22.5690
 169   2.0000      -0.828451       -22.5433
 170   2.0000      -0.826684       -22.4952
 171   2.0000      -0.825057       -22.4509
 172   2.0000      -0.812802       -22.1175
 173   2.0000      -0.804575       -21.8936
 174   2.0000      -0.798726       -21.7345
 175   2.0000      -0.793192       -21.5839
 176   2.0000      -0.784912       -21.3586
 177   2.0000      -0.771662       -20.9980
 178   2.0000      -0.762777       -20.7562
 179   2.0000      -0.760608       -20.6972
 180   2.0000      -0.752047       -20.4642
 181   2.0000      -0.737021       -20.0554
 182   2.0000      -0.718869       -19.5614
 183   2.0000      -0.711594       -19.3635
 184   2.0000      -0.702471       -19.1152
 185   2.0000      -0.696073       -18.9411
 186   2.0000      -0.692635       -18.8476
 187   2.0000      -0.689740       -18.7688
 188   2.0000      -0.688258       -18.7284
 189   2.0000      -0.686586       -18.6829
 190   2.0000      -0.676217       -18.4008
 191   2.0000      -0.672735       -18.3060
 192   2.0000      -0.666500       -18.1364
 193   2.0000      -0.661605       -18.0032
 194   2.0000      -0.660625       -17.9765
 195   2.0000      -0.652925       -17.7670
 196   2.0000      -0.647776       -17.6269
 197   2.0000      -0.638879       -17.3848
 198   2.0000      -0.634456       -17.2644
 199   2.0000      -0.629593       -17.1321
 200   2.0000      -0.627723       -17.0812
 201   2.0000      -0.626237       -17.0408
 202   2.0000      -0.621899       -16.9227
 203   2.0000      -0.620586       -16.8870
 204   2.0000      -0.613410       -16.6917
 205   2.0000      -0.605664       -16.4810
 206   2.0000      -0.601340       -16.3633
 207   2.0000      -0.595907       -16.2155
 208   2.0000      -0.595018       -16.1913
 209   2.0000      -0.590529       -16.0691
 210   2.0000      -0.589862       -16.0510
 211   2.0000      -0.574865       -15.6429
 212   2.0000      -0.572531       -15.5794
 213   2.0000      -0.565356       -15.3841
 214   2.0000      -0.559640       -15.2286
 215   2.0000      -0.555321       -15.1110
 216   2.0000      -0.551427       -15.0051
 217   2.0000      -0.549580       -14.9548
 218   2.0000      -0.548686       -14.9305
 219   2.0000      -0.543810       -14.7978
 220   2.0000      -0.542306       -14.7569
 221   2.0000      -0.540010       -14.6944
 222   2.0000      -0.537971       -14.6389
 223   2.0000      -0.537140       -14.6163
 224   2.0000      -0.529850       -14.4180
 225   2.0000      -0.528126       -14.3710
 226   2.0000      -0.524924       -14.2839
 227   2.0000      -0.523710       -14.2509
 228   2.0000      -0.519144       -14.1266
 229   2.0000      -0.518184       -14.1005
 230   2.0000      -0.516178       -14.0459
 231   2.0000      -0.514274       -13.9941
 232   2.0000      -0.510568       -13.8933
 233   2.0000      -0.509788       -13.8720
 234   2.0000      -0.507456       -13.8086
 235   2.0000      -0.506548       -13.7839
 236   2.0000      -0.505698       -13.7607
 237   2.0000      -0.504501       -13.7282
 238   2.0000      -0.500055       -13.6072
 239   2.0000      -0.499686       -13.5972
 240   2.0000      -0.496702       -13.5159
 241   2.0000      -0.496212       -13.5026
 242   2.0000      -0.493003       -13.4153
 243   2.0000      -0.491387       -13.3713
 244   2.0000      -0.489794       -13.3280
 245   2.0000      -0.485467       -13.2102
 246   2.0000      -0.478183       -13.0120
 247   2.0000      -0.476291       -12.9605
 248   2.0000      -0.473174       -12.8757
 249   2.0000      -0.472394       -12.8545
 250   2.0000      -0.469360       -12.7719
 251   2.0000      -0.466432       -12.6923
 252   2.0000      -0.462451       -12.5839
 253   2.0000      -0.458893       -12.4871
 254   2.0000      -0.457482       -12.4487
 255   2.0000      -0.456734       -12.4284
 256   2.0000      -0.452337       -12.3087
 257   2.0000      -0.449915       -12.2428
 258   2.0000      -0.448129       -12.1942
 259   2.0000      -0.447355       -12.1731
 260   2.0000      -0.446810       -12.1583
 261   2.0000      -0.445078       -12.1112
 262   2.0000      -0.443485       -12.0678
 263   2.0000      -0.443375       -12.0648
 264   2.0000      -0.443211       -12.0604
 265   2.0000      -0.440151       -11.9771
 266   2.0000      -0.439025       -11.9465
 267   2.0000      -0.436936       -11.8896
 268   2.0000      -0.436234       -11.8705
 269   2.0000      -0.433699       -11.8015
 270   2.0000      -0.428141       -11.6503
 271   2.0000      -0.427410       -11.6304
 272   2.0000      -0.426298       -11.6002
 273   2.0000      -0.422819       -11.5055
 274   2.0000      -0.422596       -11.4994
 275   2.0000      -0.421506       -11.4698
 276   2.0000      -0.419017       -11.4020
 277   2.0000      -0.417605       -11.3636
 278   2.0000      -0.416825       -11.3424
 279   2.0000      -0.410854       -11.1799
 280   2.0000      -0.410287       -11.1645
 281   2.0000      -0.407735       -11.0950
 282   2.0000      -0.406557       -11.0630
 283   2.0000      -0.401562       -10.9271
 284   2.0000      -0.396901       -10.8002
 285   2.0000      -0.390443       -10.6245
 286   2.0000      -0.387890       -10.5550
 287   2.0000      -0.384946       -10.4749
 288   2.0000      -0.378288       -10.2937
 289   2.0000      -0.374540       -10.1917
 290   2.0000      -0.372460       -10.1352
 291   2.0000      -0.367144        -9.9905
 292   2.0000      -0.364962        -9.9311
 293   2.0000      -0.358393        -9.7524
 294   2.0000      -0.351446        -9.5633
 295   2.0000      -0.348556        -9.4847
 296   2.0000      -0.346878        -9.4390
 297   2.0000      -0.344946        -9.3865
 298   2.0000      -0.337327        -9.1791
 299   2.0000      -0.330118        -8.9830
 300   2.0000      -0.318917        -8.6782
 301   2.0000      -0.316780        -8.6200
 302   2.0000      -0.314444        -8.5564
 303   2.0000      -0.313704        -8.5363
 304   2.0000      -0.308009        -8.3814
 305   2.0000      -0.293484        -7.9861
 306   2.0000      -0.292711        -7.9651
 307   2.0000      -0.291288        -7.9263
 308   2.0000      -0.285121        -7.7585
 309   2.0000      -0.272785        -7.4229
 310   2.0000      -0.263921        -7.1817
 311   2.0000      -0.223622        -6.0851
 312   0.0000      -0.098478        -2.6797
 313   0.0000      -0.091189        -2.4814
 314   0.0000      -0.074816        -2.0359
 315   0.0000      -0.064510        -1.7554
 316   0.0000      -0.052240        -1.4215

MULLIKEN ATOMIC CHARGES
-----------------------
   0 C :    0.292275
   1 C :   -0.340567
   2 C :   -0.184433
   3 N :    0.155255
   4 C :   -0.206772
   5 N :    0.162092
   6 C :    0.011921
   7 C :    0.004664
   8 C :   -0.066591
   9 C :    0.114542
  10 C :   -0.090667
  11 C :   -0.019590
  12 S :    0.188758
  13 C :   -0.125616
  14 C :    0.045549
  15 Br:    0.029183
  16 C :    0.175608
  17 O :   -0.171164
  18 C :   -0.083137
  19 C :    0.045852
  20 C :   -0.102614
  21 S :    0.139296
  22 C :   -0.054213
  23 C :    0.081125
  24 C :    0.000642
  25 C :    0.101608
  26 C :   -0.166508
  27 S :    0.149903
  28 C :   -0.047885
  29 C :    0.004534
  30 C :    0.038846
  31 C :   -0.034584
  32 C :   -0.056321
  33 C :   -0.029638
  34 C :    0.046742
  35 C :    0.038867
  36 C :   -0.043405
  37 S :    0.080217
  38 C :   -0.026921
  39 C :    0.037528
  40 C :    0.034667
  41 C :   -0.021153
  42 S :    0.034666
  43 C :    0.042911
  44 C :   -0.068298
  45 S :    0.121982
  46 C :   -0.057019
  47 C :    0.116369
  48 C :   -0.070170
  49 C :    0.079576
  50 C :   -0.092245
  51 S :    0.078345
  52 C :   -0.050172
  53 C :    0.007558
  54 C :    0.056912
  55 C :   -0.053517
  56 C :   -0.012551
  57 C :   -0.111511
  58 C :    0.260126
  59 C :   -0.341431
  60 C :   -0.178484
  61 N :    0.154025
  62 C :   -0.198350
  63 N :    0.181561
  64 C :    0.000282
  65 C :    0.003486
  66 C :    0.132358
  67 O :   -0.145846
  68 C :   -0.070918
  69 C :    0.110745
  70 C :   -0.087855
  71 C :   -0.020280
  72 S :    0.184779
  73 C :   -0.125564
  74 C :    0.042589
  75 Br:    0.022672
  76 H :   -0.030736
  77 H :   -0.003116
  78 H :    0.001782
  79 H :    0.023944
  80 H :    0.004834
  81 H :    0.031690
  82 H :   -0.011663
  83 H :   -0.025533
  84 H :    0.007773
  85 H :   -0.006343
  86 H :   -0.008973
  87 H :   -0.011192
  88 H :   -0.008249
  89 H :   -0.015463
  90 H :    0.000423
  91 H :    0.020280
  92 H :   -0.012752
  93 H :   -0.017050
  94 H :    0.023280
  95 H :   -0.009827
  96 H :   -0.003996
  97 H :   -0.003740
Sum of atomic charges:    0.0000000

LOEWDIN ATOMIC CHARGES
----------------------
   0 C :    0.075986
   1 C :   -0.139102
   2 C :   -0.018395
   3 N :   -0.051223
   4 C :   -0.026998
   5 N :   -0.047521
   6 C :   -0.020925
   7 C :   -0.050663
   8 C :    0.021742
   9 C :   -0.030128
  10 C :   -0.142511
  11 C :   -0.008116
  12 S :    0.434420
  13 C :   -0.269788
  14 C :   -0.067337
  15 Br:    0.140866
  16 C :    0.096609
  17 O :   -0.144378
  18 C :   -0.092818
  19 C :    0.054572
  20 C :   -0.172603
  21 S :    0.420529
  22 C :   -0.143462
  23 C :   -0.051625
  24 C :    0.006339
  25 C :   -0.032699
  26 C :   -0.177611
  27 S :    0.432115
  28 C :   -0.155231
  29 C :   -0.063065
  30 C :   -0.034551
  31 C :   -0.037030
  32 C :   -0.061986
  33 C :   -0.136707
  34 C :   -0.027981
  35 C :   -0.024993
  36 C :   -0.173531
  37 S :    0.378649
  38 C :   -0.178184
  39 C :   -0.032026
  40 C :   -0.028730
  41 C :   -0.135353
  42 S :    0.395328
  43 C :   -0.077071
  44 C :   -0.143021
  45 S :    0.404370
  46 C :   -0.157188
  47 C :   -0.018892
  48 C :   -0.069230
  49 C :   -0.041629
  50 C :   -0.145493
  51 S :    0.404599
  52 C :   -0.157688
  53 C :   -0.056607
  54 C :   -0.061692
  55 C :   -0.011890
  56 C :    0.072015
  57 C :   -0.093506
  58 C :    0.064462
  59 C :   -0.137913
  60 C :   -0.019922
  61 N :   -0.053759
  62 C :   -0.020610
  63 N :   -0.037523
  64 C :   -0.017857
  65 C :   -0.052923
  66 C :    0.083414
  67 O :   -0.144781
  68 C :    0.022560
  69 C :   -0.034006
  70 C :   -0.143043
  71 C :   -0.012925
  72 S :    0.431445
  73 C :   -0.272304
  74 C :   -0.069887
  75 Br:    0.136139
  76 H :    0.033673
  77 H :    0.041703
  78 H :    0.040940
  79 H :    0.045784
  80 H :    0.033406
  81 H :    0.027482
  82 H :    0.033193
  83 H :    0.032630
  84 H :    0.036818
  85 H :    0.035185
  86 H :    0.034317
  87 H :    0.033520
  88 H :    0.034943
  89 H :    0.034307
  90 H :    0.013022
  91 H :    0.016872
  92 H :    0.032947
  93 H :    0.031515
  94 H :    0.039483
  95 H :    0.041217
  96 H :    0.040728
  97 H :    0.038791

  Mayer bond orders larger than 0.100000
B(  0-C ,  1-C ) :   1.6447 B(  0-C ,  6-C ) :   1.0048 B(  0-C , 18-C ) :   1.0621
B(  1-C ,  2-C ) :   1.1405 B(  1-C ,  4-C ) :   1.1357 B(  2-C ,  3-N ) :   2.9760
B(  4-C ,  5-N ) :   2.9993 B(  6-C ,  7-C ) :   1.2670 B(  6-C , 11-C ) :   1.4110
B(  7-C ,  8-C ) :   1.4135 B(  7-C , 16-C ) :   0.9553 B(  8-C ,  9-C ) :   1.2638
B(  8-C , 76-H ) :   1.0158 B(  9-C , 10-C ) :   1.2994 B(  9-C , 14-C ) :   1.1675
B( 10-C , 11-C ) :   1.3303 B( 10-C , 12-S ) :   1.0880 B( 11-C , 77-H ) :   0.9808
B( 12-S , 13-C ) :   1.0862 B( 13-C , 14-C ) :   1.6164 B( 13-C , 15-Br) :   1.0234
B( 14-C , 78-H ) :   0.9993 B( 16-C , 17-O ) :   2.0664 B( 16-C , 18-C ) :   0.9725
B( 18-C , 19-C ) :   1.5990 B( 19-C , 20-C ) :   1.1878 B( 19-C , 79-H ) :   0.9274
B( 20-C , 21-S ) :   1.0713 B( 20-C , 24-C ) :   1.4860 B( 21-S , 22-C ) :   1.0802
B( 22-C , 23-C ) :   1.3141 B( 22-C , 31-C ) :   1.2915 B( 23-C , 24-C ) :   1.2402
B( 23-C , 25-C ) :   1.1761 B( 24-C , 80-H ) :   0.9784 B( 25-C , 26-C ) :   1.3602
B( 25-C , 29-C ) :   1.2213 B( 26-C , 27-S ) :   1.0929 B( 26-C , 30-C ) :   1.2861
B( 27-S , 28-C ) :   1.1487 B( 28-C , 29-C ) :   1.6010 B( 28-C , 81-H ) :   0.9667
B( 29-C , 82-H ) :   0.9951 B( 30-C , 31-C ) :   1.4562 B( 30-C , 32-C ) :   0.9909
B( 31-C , 83-H ) :   0.9976 B( 32-C , 33-C ) :   1.7023 B( 32-C , 84-H ) :   0.9682
B( 33-C , 34-C ) :   1.1079 B( 33-C , 37-S ) :   1.0416 B( 34-C , 35-C ) :   1.6337
B( 34-C , 85-H ) :   0.9967 B( 35-C , 36-C ) :   1.1633 B( 35-C , 86-H ) :   0.9946
B( 36-C , 37-S ) :   1.0509 B( 36-C , 38-C ) :   1.5275 B( 38-C , 39-C ) :   1.1774
B( 38-C , 42-S ) :   1.0370 B( 39-C , 40-C ) :   1.6031 B( 39-C , 87-H ) :   0.9940
B( 40-C , 41-C ) :   1.1411 B( 40-C , 88-H ) :   0.9974 B( 41-C , 42-S ) :   1.0472
B( 41-C , 43-C ) :   1.5976 B( 43-C , 44-C ) :   1.1643 B( 43-C , 89-H ) :   0.9564
B( 44-C , 45-S ) :   1.0805 B( 44-C , 48-C ) :   1.4761 B( 45-S , 46-C ) :   1.0501
B( 46-C , 47-C ) :   1.3144 B( 46-C , 55-C ) :   1.3460 B( 47-C , 48-C ) :   1.2765
B( 47-C , 49-C ) :   1.1886 B( 48-C , 90-H ) :   0.9663 B( 49-C , 50-C ) :   1.3719
B( 49-C , 53-C ) :   1.1951 B( 50-C , 51-S ) :   1.0849 B( 50-C , 54-C ) :   1.3026
B( 51-S , 52-C ) :   1.1142 B( 52-C , 53-C ) :   1.6469 B( 52-C , 91-H ) :   0.9422
B( 53-C , 92-H ) :   0.9946 B( 54-C , 55-C ) :   1.3664 B( 54-C , 56-C ) :   1.0590
B( 55-C , 93-H ) :   0.9907 B( 56-C , 57-C ) :   1.6842 B( 56-C , 94-H ) :   0.9379
B( 57-C , 58-C ) :   1.0270 B( 57-C , 66-C ) :   0.9413 B( 58-C , 59-C ) :   1.6574
B( 58-C , 64-C ) :   1.0130 B( 59-C , 60-C ) :   1.1317 B( 59-C , 62-C ) :   1.1604
B( 60-C , 61-N ) :   2.9878 B( 62-C , 63-N ) :   3.0114 B( 64-C , 65-C ) :   1.2768
B( 64-C , 71-C ) :   1.4108 B( 65-C , 66-C ) :   0.9193 B( 65-C , 68-C ) :   1.4234
B( 66-C , 67-O ) :   2.2642 B( 68-C , 69-C ) :   1.2504 B( 68-C , 95-H ) :   1.0171
B( 69-C , 70-C ) :   1.3092 B( 69-C , 74-C ) :   1.1625 B( 70-C , 71-C ) :   1.3271
B( 70-C , 72-S ) :   1.0836 B( 71-C , 96-H ) :   0.9846 B( 72-S , 73-C ) :   1.0867
B( 73-C , 74-C ) :   1.6194 B( 73-C , 75-Br) :   1.0178 B( 74-C , 97-H ) :   1.0006

-----------------------------------------------------------------------------
         ABSORPTION SPECTRUM VIA TRANSITION ELECTRIC DIPOLE MOMENTS
-----------------------------------------------------------------------------
State   Energy  Wavelength   fosc         T2         TX        TY        TZ
        (cm-1)    (nm)                  (au**2)     (au)      (au)      (au)
-----------------------------------------------------------------------------
   0   13593.8    735.6   0.697486411  16.89163  -3.11698   2.59839  -0.65150
   1   16316.0    612.9   0.450914211   9.09822  -1.44599   0.36186  -2.62229
   2   19549.3    511.5   0.180181628   3.03428  -0.99046   1.43012   0.08949
   3   21458.5    466.0   1.079328926  16.55882  -1.49881  -0.25508  -3.77456
   4   22559.0    443.3   0.071086743   1.03740   0.66000  -0.11193   0.76764
   5   23281.2    429.5   0.093476649   1.32182  -0.40130   0.26382  -1.04459
   6   24227.7    412.8   0.029176555   0.39646   0.44570  -0.41262  -0.16598
   7   24668.7    405.4   0.010034115   0.13391  -0.03015   0.28110   0.23235
   8   24997.5    400.0   0.088599889   1.16684   0.33636  -0.04067  -1.02570
   9   25757.3    388.2   0.087091914   1.11315  -0.73241   0.36890  -0.66381
  10   25942.5    385.5   0.069987850   0.88815   0.55212   0.48531  -0.58974
  11   26835.4    372.6   0.039585785   0.48563   0.50373  -0.46746   0.11560
  12   27522.1    363.3   0.105081988   1.25696   0.68171  -0.57971  -0.67541
  13   28036.6    356.7   0.502239430   5.89741  -1.41794   1.62314  -1.11905
  14   28066.2    356.3   0.046908097   0.55022  -0.13686  -0.50217   0.52851
  15   28694.9    348.5   0.146972924   1.68620  -0.20201   0.42470  -1.21038
  16   29320.3    341.1   0.148514413   1.66754  -0.77945   0.48790  -0.90661
  17   29669.0    337.1   0.145925685   1.61921  -0.55299   0.58150   0.98756
  18   29700.4    336.7   0.005867920   0.06504   0.25256  -0.03402   0.00991
  19   29869.1    334.8   0.060105315   0.66247   0.71462  -0.38956   0.00470
  20   29950.8    333.9   0.022896853   0.25168   0.39353  -0.06232  -0.30484
  21   30455.7    328.3   0.072778045   0.78670   0.17796   0.04018   0.86799
  22   30818.2    324.5   0.024937663   0.26639  -0.19138  -0.03604   0.47798
  23   30878.1    323.9   0.037291661   0.39759  -0.13316   0.27724  -0.55045
  24   31442.0    318.0   0.065800798   0.68896  -0.70359   0.10507   0.42766
  25   31560.5    316.9   0.126697347   1.32160   0.31849  -0.24746  -1.07653
  26   32034.2    312.2   0.014252369   0.14647  -0.25033   0.28469   0.05252
  27   32112.0    311.4   0.005532965   0.05672  -0.15943   0.07554   0.16000
  28   32666.7    306.1   0.500097471   5.03993   1.45994  -1.64591   0.44666
  29   32756.2    305.3   0.098568104   0.99065  -0.84263   0.46142  -0.26021
  30   32924.0    303.7   0.190719492   1.90703  -0.94494   0.71548  -0.70866
  31   33084.5    302.3   0.113897595   1.13335  -0.22753   0.99420   0.30520
  32   33286.8    300.4   0.435464186   4.30681   0.81747  -1.32817   1.36913
  33   33705.4    296.7   0.025554901   0.24960  -0.20198   0.40592  -0.20985
  34   33894.8    295.0   0.261131230   2.53630   0.72616  -1.38273   0.31155
  35   34078.1    293.4   0.062989098   0.60851   0.60705  -0.14890   0.46672
  36   34322.2    291.4   0.040232679   0.38590  -0.29273  -0.02212   0.54747
  37   34719.4    288.0   0.052665766   0.49938   0.40586  -0.52111   0.25119
  38   34756.6    287.7   0.048723493   0.46151   0.60874  -0.30026  -0.02805
  39   34862.4    286.8   0.031467954   0.29716  -0.00549  -0.38159   0.38926
  40   35114.2    284.8   0.009158053   0.08586   0.16445  -0.21811   0.10605
  41   35289.0    283.4   0.100786635   0.94024   0.63957  -0.41098  -0.60191
  42   35836.5    279.0   0.062232005   0.57169  -0.43427   0.46992   0.40284
  43   35930.2    278.3   0.018271581   0.16741   0.29430  -0.23508   0.15982
  44   36162.2    276.5   0.023081010   0.21012   0.37082  -0.00723  -0.26938
  45   36469.7    274.2   0.031241530   0.28202  -0.34685  -0.21479   0.33997
  46   37006.7    270.2   0.015401588   0.13701  -0.21146  -0.21740   0.21222
  47   37092.1    269.6   0.038080296   0.33798   0.40404  -0.41308   0.06401
  48   37205.6    268.8   0.040403295   0.35751   0.28854  -0.32170  -0.41323
  49   37311.5    268.0   0.076770715   0.67737  -0.29419   0.00179   0.76865
  50   37577.3    266.1   0.022794897   0.19970   0.27936  -0.34872  -0.00746
  51   37754.9    264.9   0.035896710   0.31301  -0.38782  -0.33918  -0.21809
  52   37992.7    263.2   0.092077350   0.79786  -0.63626   0.21416  -0.58921
  53   38206.3    261.7   0.027078103   0.23332  -0.18351  -0.03007  -0.44581
  54   38380.3    260.6   0.011462187   0.09832   0.28751  -0.12509  -0.00344
  55   38730.2    258.2   0.161856485   1.37580   0.05194  -1.00308  -0.60574
  56   38797.4    257.7   0.050674682   0.43000   0.20657  -0.19469  -0.59112
  57   38973.5    256.6   0.105684585   0.89273   0.03925   0.09349   0.93938
  58   39040.3    256.1   0.106142276   0.89506  -0.12725   0.88852   0.29899
  59   39144.1    255.5   0.142495018   1.19842   1.06263  -0.13324  -0.22691
  60   39469.2    253.4   0.042186016   0.35187   0.43879   0.13898  -0.37419
  61   39792.3    251.3   0.167669277   1.38717  -0.08609   0.39581   1.10594
  62   39995.4    250.0   0.060494540   0.49794   0.01720  -0.42508  -0.56299
  63   40168.5    249.0   0.096340906   0.78959  -0.56676   0.57023   0.37843
  64   40305.1    248.1   0.026116689   0.21332  -0.21784  -0.36209  -0.18644

FINAL SINGLE POINT ENERGY    -10998.098732951374

DIPOLE MOMENT
-------------
                                X             Y             Z
Electronic contribution:    138.09828     -85.36243     131.61811
Nuclear contribution   :   -138.66063      83.01616    -134.58162
                        -----------------------------------------
Total Dipole Moment    :     -0.56235      -2.34627      -2.96351
                        -----------------------------------------
Magnitude (a.u.)       :      3.82146
Magnitude (Debye)      :      9.71339

Rotational constants in cm-1:     0.000668     0.000323     0.000227
Rotational constants in MHz :    20.039026     9.690390     6.811587

                             ****ORCA TERMINATED NORMALLY****
TOTAL RUN TIME: 0 days 0 hours 18 minutes 20 seconds 951 msec
