                         Program Version 4.2.0 -  RELEASE  -
|  1> # ORCA input file
|  2> # SCF done       -179.114255696776          0.000837420369
|  3> ! CAM-B3LYP def2-SVP def2/J RIJCOSX Grid4 TightSCF
|  4> %maxcore 5000
|  5> %tddft
|  6>     Mode sTDDFT
|  7>     Ethresh 5.0
|  8>     maxcore 5000
|  9> end
| 10>
| 11> %pal
| 12>   nprocs 6
| 13>   end
| 14> * xyz 0 1
| 15>    C       -8.60688        -0.29016         3.03638
| 16>    C       -7.57412        -1.06812         2.56594
| 17>    C       -7.48539        -2.46091         2.75264
| 18>    N       -7.36328        -3.59852         2.85745
| 19>    C       -6.46560        -0.58580         1.84351
| 20>    N       -5.52485        -0.26290         1.26734
| 21>    C       -9.71672        -0.76331         3.85874
| 22>    C      -10.54256         0.34056         4.18092
| 23>    C      -11.66390         0.22547         4.96352
| 24>    C      -11.98464        -1.04342         5.45890
| 25>    C      -11.15746        -2.14126         5.12819
| 26>    C      -10.02353        -2.02428         4.33231
| 27>    S      -11.73919        -3.61640         5.84005
| 28>    C      -13.06501        -2.74706         6.56588
| 29>    C      -13.07517        -1.42217         6.28941
| 30>   Br      -14.31438        -3.67272         7.61480
| 31>    C       -9.99417         1.56110         3.55727
| 32>    O      -10.52697         2.65320         3.52410
| 33>    C       -8.75046         1.13501         2.87851
| 34>    C       -7.98818         1.94701         2.06562
| 35>    C       -7.96671         3.34504         2.10391
| 36>    S       -7.56661         4.24387         0.66952
| 37>    C       -7.84741         5.77533         1.42896
| 38>    C       -8.17597         5.59774         2.78593
| 39>    C       -8.20930         4.22933         3.17559
| 40>    C       -8.37516         3.90749         4.52486
| 41>    C       -8.62501         4.88192         5.46684
| 42>    C       -8.80641         4.39818         6.87157
| 43>    O       -8.69136         3.23353         7.15421
| 44>    O       -9.10719         5.30080         7.80716
| 45>    C       -8.68796         6.24185         5.05216
| 46>    O       -8.96374         7.21253         5.98107
| 47>    C       -8.43766         6.58801         3.74762
| 48>    C       -7.75926         6.99760         0.72126
| 49>    C       -7.29972         7.12105        -0.54626
| 50>    C       -7.19930         8.34090        -1.29565
| 51>    C       -8.00984         9.41008        -1.24633
| 52>    C       -9.27328         9.49998        -0.45116
| 53>    C       -7.71688        10.64047        -2.07911
| 54>    N       -6.32624        10.81381        -2.38779
| 55>    C       -5.77999        10.71129        -3.61684
| 56>    C       -4.44065        10.72993        -3.85406
| 57>    C       -3.87461        10.69965        -5.13945
| 58>    C       -2.52649        10.72938        -5.39211
| 59>    C       -1.88502        10.74001        -6.65214
| 60>    C       -0.52400        10.79268        -6.59103
| 61>    C       -0.00864        10.81674        -5.27791
| 62>    S       -1.31382        10.77625        -4.11452
| 63>    C        1.31660        10.86326        -4.88274
| 64>    C        2.46612        10.94068        -5.69550
| 65>    C        3.63491        10.97543        -4.99571
| 66>    C        3.48612        10.91762        -3.58732
| 67>    S        1.77469        10.82971        -3.19442
| 68>    C        4.52151        10.93017        -2.68635
| 69>    C        4.48805        10.83925        -1.28020
| 70>    C        5.61823        10.88443        -0.45945
| 71>    C        5.21193        10.74325         0.89072
| 72>    C        5.92107        10.71793         2.06911
| 73>    C        5.20009        10.54790         3.26526
| 74>    C        5.61185        10.47709         4.58476
| 75>    C        4.46393        10.28762         5.42422
| 76>    C        3.34570        10.24353         4.61640
| 77>    C        3.75331        10.40243         3.25332
| 78>    C        3.04320        10.43060         2.08637
| 79>    C        3.76454        10.60329         0.88273
| 80>    C        3.34053        10.66601        -0.42681
| 81>    C        4.45549        10.16075         6.86111
| 82>    C        5.52504        10.20887         7.65063
| 83>    H      -12.26839         1.08789         5.19577
| 84>    H       -9.42574        -2.89206         4.10887
| 85>    H      -13.81813        -0.73738         6.65558
| 86>    H       -7.38430         1.48377         1.29498
| 87>    H       -8.28852         2.88987         4.87050
| 88>    H       -9.16345         6.19854         7.43857
| 89>    H       -8.96503         8.08032         5.55907
| 90>    H       -8.43675         7.63199         3.46434
| 91>    H       -8.04450         7.88057         1.27327
| 92>    H       -6.91564         6.23506        -1.03703
| 93>    H       -6.38287         8.36182        -2.00915
| 94>    H       -9.66194         8.51083        -0.22505
| 95>    H      -10.02397        10.05457        -1.01294
| 96>    H       -9.10733        10.03191         0.48650
| 97>    H       -8.07174        11.52096        -1.52644
| 98>    H       -8.27850        10.59549        -3.01830
| 99>    H       -5.69183        10.81798        -1.60233
|100>    H       -6.48384        10.64748        -4.43547
|101>    H       -3.75991        10.78430        -3.01436
|102>    H       -4.53966        10.66140        -5.99222
|103>    H       -2.45115        10.71264        -7.56680
|104>    H        0.11953        10.80978        -7.45235
|105>    H        2.40272        10.97348        -6.76846
|106>    H        4.60925        11.03623        -5.44842
|107>    H        5.51066        11.01541        -3.12190
|108>    H        6.63171        11.00548        -0.79528
|109>    H        6.99690        10.82141         2.08608
|110>    H        6.62672        10.55001         4.93027
|111>    H        2.33066        10.10999         4.94376
|112>    H        1.96758        10.32387         2.06607
|113>    H        2.32278        10.58988        -0.76094
|114>    H        3.47510        10.01580         7.29861
|115>    H        6.51901        10.35437         7.26414
|116>    H        5.44080        10.10794         8.71883
|117> *
|118>
|119>                          ****END OF INPUT****

CARTESIAN COORDINATES (ANGSTROEM)
---------------------------------
  C     -8.606880   -0.290160    3.036380
  C     -7.574120   -1.068120    2.565940
  C     -7.485390   -2.460910    2.752640
  N     -7.363280   -3.598520    2.857450
  C     -6.465600   -0.585800    1.843510
  N     -5.524850   -0.262900    1.267340
  C     -9.716720   -0.763310    3.858740
  C    -10.542560    0.340560    4.180920
  C    -11.663900    0.225470    4.963520
  C    -11.984640   -1.043420    5.458900
  C    -11.157460   -2.141260    5.128190
  C    -10.023530   -2.024280    4.332310
  S    -11.739190   -3.616400    5.840050
  C    -13.065010   -2.747060    6.565880
  C    -13.075170   -1.422170    6.289410
  Br   -14.314380   -3.672720    7.614800
  C     -9.994170    1.561100    3.557270
  O    -10.526970    2.653200    3.524100
  C     -8.750460    1.135010    2.878510
  C     -7.988180    1.947010    2.065620
  C     -7.966710    3.345040    2.103910
  S     -7.566610    4.243870    0.669520
  C     -7.847410    5.775330    1.428960
  C     -8.175970    5.597740    2.785930
  C     -8.209300    4.229330    3.175590
  C     -8.375160    3.907490    4.524860
  C     -8.625010    4.881920    5.466840
  C     -8.806410    4.398180    6.871570
  O     -8.691360    3.233530    7.154210
  O     -9.107190    5.300800    7.807160
  C     -8.687960    6.241850    5.052160
  O     -8.963740    7.212530    5.981070
  C     -8.437660    6.588010    3.747620
  C     -7.759260    6.997600    0.721260
  C     -7.299720    7.121050   -0.546260
  C     -7.199300    8.340900   -1.295650
  C     -8.009840    9.410080   -1.246330
  C     -9.273280    9.499980   -0.451160
  C     -7.716880   10.640470   -2.079110
  N     -6.326240   10.813810   -2.387790
  C     -5.779990   10.711290   -3.616840
  C     -4.440650   10.729930   -3.854060
  C     -3.874610   10.699650   -5.139450
  C     -2.526490   10.729380   -5.392110
  C     -1.885020   10.740010   -6.652140
  C     -0.524000   10.792680   -6.591030
  C     -0.008640   10.816740   -5.277910
  S     -1.313820   10.776250   -4.114520
  C      1.316600   10.863260   -4.882740
  C      2.466120   10.940680   -5.695500
  C      3.634910   10.975430   -4.995710
  C      3.486120   10.917620   -3.587320
  S      1.774690   10.829710   -3.194420
  C      4.521510   10.930170   -2.686350
  C      4.488050   10.839250   -1.280200
  C      5.618230   10.884430   -0.459450
  C      5.211930   10.743250    0.890720
  C      5.921070   10.717930    2.069110
  C      5.200090   10.547900    3.265260
  C      5.611850   10.477090    4.584760
  C      4.463930   10.287620    5.424220
  C      3.345700   10.243530    4.616400
  C      3.753310   10.402430    3.253320
  C      3.043200   10.430600    2.086370
  C      3.764540   10.603290    0.882730
  C      3.340530   10.666010   -0.426810
  C      4.455490   10.160750    6.861110
  C      5.525040   10.208870    7.650630
  H    -12.268390    1.087890    5.195770
  H     -9.425740   -2.892060    4.108870
  H    -13.818130   -0.737380    6.655580
  H     -7.384300    1.483770    1.294980
  H     -8.288520    2.889870    4.870500
  H     -9.163450    6.198540    7.438570
  H     -8.965030    8.080320    5.559070
  H     -8.436750    7.631990    3.464340
  H     -8.044500    7.880570    1.273270
  H     -6.915640    6.235060   -1.037030
  H     -6.382870    8.361820   -2.009150
  H     -9.661940    8.510830   -0.225050
  H    -10.023970   10.054570   -1.012940
  H     -9.107330   10.031910    0.486500
  H     -8.071740   11.520960   -1.526440
  H     -8.278500   10.595490   -3.018300
  H     -5.691830   10.817980   -1.602330
  H     -6.483840   10.647480   -4.435470
  H     -3.759910   10.784300   -3.014360
  H     -4.539660   10.661400   -5.992220
  H     -2.451150   10.712640   -7.566800
  H      0.119530   10.809780   -7.452350
  H      2.402720   10.973480   -6.768460
  H      4.609250   11.036230   -5.448420
  H      5.510660   11.015410   -3.121900
  H      6.631710   11.005480   -0.795280
  H      6.996900   10.821410    2.086080
  H      6.626720   10.550010    4.930270
  H      2.330660   10.109990    4.943760
  H      1.967580   10.323870    2.066070
  H      2.322780   10.589880   -0.760940
  H      3.475100   10.015800    7.298610
  H      6.519010   10.354370    7.264140
  H      5.440800   10.107940    8.718830

 Total Charge           Charge          ....    0
 Multiplicity           Mult            ....    1
 Number of Electrons    NEL             ....  522
 Basis Dimension        Dim             .... 1156

ORBITAL ENERGIES
----------------

  NO   OCC          E(Eh)            E(eV)
   0   2.0000    -482.880244    -13139.8395
   1   2.0000     -88.987608     -2421.4759
   2   2.0000     -88.969137     -2420.9733
   3   2.0000     -88.925623     -2419.7892
   4   2.0000     -88.925273     -2419.7797
   5   2.0000     -62.557945     -1702.2882
   6   2.0000     -56.391888     -1534.5013
   7   2.0000     -56.389185     -1534.4277
   8   2.0000     -56.389152     -1534.4268
   9   2.0000     -19.291772      -524.9558
  10   2.0000     -19.244014      -523.6562
  11   2.0000     -19.208776      -522.6974
  12   2.0000     -19.187894      -522.1292
  13   2.0000     -14.445296      -393.0765
  14   2.0000     -14.409475      -392.1017
  15   2.0000     -14.407900      -392.0589
  16   2.0000     -10.397443      -282.9288
  17   2.0000     -10.369415      -282.1661
  18   2.0000     -10.360551      -281.9249
  19   2.0000     -10.352624      -281.7092
  20   2.0000     -10.336017      -281.2573
  21   2.0000     -10.334866      -281.2260
  22   2.0000     -10.334061      -281.2041
  23   2.0000     -10.331946      -281.1465
  24   2.0000     -10.323157      -280.9074
  25   2.0000     -10.321352      -280.8583
  26   2.0000     -10.320252      -280.8283
  27   2.0000     -10.318614      -280.7838
  28   2.0000     -10.312664      -280.6219
  29   2.0000     -10.311141      -280.5804
  30   2.0000     -10.308988      -280.5218
  31   2.0000     -10.305839      -280.4361
  32   2.0000     -10.305183      -280.4183
  33   2.0000     -10.304405      -280.3971
  34   2.0000     -10.303210      -280.3646
  35   2.0000     -10.303061      -280.3605
  36   2.0000     -10.300781      -280.2985
  37   2.0000     -10.300491      -280.2906
  38   2.0000     -10.299533      -280.2645
  39   2.0000     -10.298781      -280.2441
  40   2.0000     -10.298448      -280.2350
  41   2.0000     -10.293866      -280.1103
  42   2.0000     -10.293543      -280.1016
  43   2.0000     -10.292432      -280.0713
  44   2.0000     -10.290412      -280.0163
  45   2.0000     -10.289533      -279.9924
  46   2.0000     -10.288025      -279.9514
  47   2.0000     -10.287724      -279.9432
  48   2.0000     -10.286638      -279.9137
  49   2.0000     -10.286388      -279.9068
  50   2.0000     -10.286066      -279.8981
  51   2.0000     -10.284973      -279.8684
  52   2.0000     -10.283344      -279.8240
  53   2.0000     -10.273116      -279.5457
  54   2.0000     -10.271975      -279.5146
  55   2.0000     -10.270901      -279.4854
  56   2.0000     -10.269439      -279.4456
  57   2.0000     -10.267679      -279.3978
  58   2.0000     -10.267370      -279.3893
  59   2.0000     -10.263524      -279.2847
  60   2.0000     -10.262031      -279.2441
  61   2.0000     -10.261284      -279.2237
  62   2.0000     -10.258949      -279.1602
  63   2.0000     -10.258670      -279.1526
  64   2.0000     -10.258117      -279.1376
  65   2.0000     -10.257379      -279.1175
  66   2.0000     -10.256421      -279.0914
  67   2.0000     -10.255451      -279.0650
  68   2.0000     -10.254555      -279.0406
  69   2.0000     -10.254076      -279.0276
  70   2.0000     -10.253713      -279.0177
  71   2.0000     -10.249899      -278.9139
  72   2.0000      -8.787364      -239.1163
  73   2.0000      -8.082686      -219.9411
  74   2.0000      -8.065102      -219.4626
  75   2.0000      -8.021864      -218.2860
  76   2.0000      -8.021322      -218.2713
  77   2.0000      -6.623623      -180.2380
  78   2.0000      -6.609119      -179.8433
  79   2.0000      -6.608923      -179.8379
  80   2.0000      -6.051574      -164.6717
  81   2.0000      -6.047591      -164.5633
  82   2.0000      -6.045509      -164.5067
  83   2.0000      -6.034788      -164.2149
  84   2.0000      -6.030533      -164.0992
  85   2.0000      -6.026322      -163.9846
  86   2.0000      -5.991601      -163.0398
  87   2.0000      -5.991108      -163.0263
  88   2.0000      -5.987700      -162.9336
  89   2.0000      -5.987117      -162.9177
  90   2.0000      -5.982726      -162.7982
  91   2.0000      -5.982156      -162.7827
  92   2.0000      -2.739527       -74.5463
  93   2.0000      -2.735419       -74.4345
  94   2.0000      -2.735279       -74.4307
  95   2.0000      -2.723747       -74.1169
  96   2.0000      -2.723730       -74.1164
  97   2.0000      -1.187308       -32.3083
  98   2.0000      -1.167619       -31.7725
  99   2.0000      -1.123745       -30.5786
 100   2.0000      -1.085408       -29.5355
 101   2.0000      -1.048861       -28.5410
 102   2.0000      -1.019737       -27.7485
 103   2.0000      -1.015873       -27.6433
 104   2.0000      -1.006624       -27.3916
 105   2.0000      -0.987155       -26.8619
 106   2.0000      -0.983234       -26.7552
 107   2.0000      -0.976390       -26.5689
 108   2.0000      -0.973826       -26.4991
 109   2.0000      -0.955486       -26.0001
 110   2.0000      -0.954750       -25.9801
 111   2.0000      -0.946891       -25.7662
 112   2.0000      -0.943540       -25.6750
 113   2.0000      -0.935812       -25.4647
 114   2.0000      -0.917913       -24.9777
 115   2.0000      -0.901930       -24.5428
 116   2.0000      -0.894192       -24.3322
 117   2.0000      -0.887780       -24.1577
 118   2.0000      -0.882036       -24.0014
 119   2.0000      -0.878920       -23.9166
 120   2.0000      -0.875707       -23.8292
 121   2.0000      -0.859151       -23.3787
 122   2.0000      -0.854803       -23.2604
 123   2.0000      -0.851916       -23.1818
 124   2.0000      -0.851553       -23.1719
 125   2.0000      -0.840596       -22.8738
 126   2.0000      -0.827792       -22.5254
 127   2.0000      -0.824619       -22.4390
 128   2.0000      -0.822856       -22.3911
 129   2.0000      -0.821110       -22.3435
 130   2.0000      -0.802934       -21.8490
 131   2.0000      -0.795313       -21.6416
 132   2.0000      -0.789770       -21.4907
 133   2.0000      -0.785654       -21.3787
 134   2.0000      -0.770193       -20.9580
 135   2.0000      -0.765043       -20.8179
 136   2.0000      -0.753739       -20.5103
 137   2.0000      -0.752122       -20.4663
 138   2.0000      -0.744232       -20.2516
 139   2.0000      -0.732146       -19.9227
 140   2.0000      -0.722993       -19.6736
 141   2.0000      -0.720457       -19.6046
 142   2.0000      -0.719248       -19.5717
 143   2.0000      -0.700108       -19.0509
 144   2.0000      -0.698015       -18.9940
 145   2.0000      -0.686348       -18.6765
 146   2.0000      -0.684837       -18.6354
 147   2.0000      -0.676256       -18.4019
 148   2.0000      -0.670417       -18.2430
 149   2.0000      -0.665069       -18.0974
 150   2.0000      -0.659245       -17.9390
 151   2.0000      -0.658120       -17.9084
 152   2.0000      -0.652338       -17.7510
 153   2.0000      -0.644675       -17.5425
 154   2.0000      -0.637540       -17.3483
 155   2.0000      -0.629965       -17.1422
 156   2.0000      -0.629576       -17.1316
 157   2.0000      -0.624748       -17.0003
 158   2.0000      -0.616822       -16.7846
 159   2.0000      -0.614874       -16.7316
 160   2.0000      -0.612509       -16.6672
 161   2.0000      -0.610781       -16.6202
 162   2.0000      -0.605790       -16.4844
 163   2.0000      -0.598571       -16.2879
 164   2.0000      -0.596010       -16.2183
 165   2.0000      -0.588433       -16.0121
 166   2.0000      -0.584853       -15.9147
 167   2.0000      -0.578511       -15.7421
 168   2.0000      -0.574041       -15.6204
 169   2.0000      -0.571884       -15.5617
 170   2.0000      -0.567417       -15.4402
 171   2.0000      -0.566797       -15.4233
 172   2.0000      -0.561307       -15.2739
 173   2.0000      -0.550610       -14.9829
 174   2.0000      -0.547881       -14.9086
 175   2.0000      -0.545089       -14.8326
 176   2.0000      -0.542475       -14.7615
 177   2.0000      -0.539821       -14.6893
 178   2.0000      -0.539134       -14.6706
 179   2.0000      -0.535759       -14.5787
 180   2.0000      -0.530569       -14.4375
 181   2.0000      -0.528460       -14.3801
 182   2.0000      -0.526461       -14.3257
 183   2.0000      -0.523178       -14.2364
 184   2.0000      -0.520305       -14.1582
 185   2.0000      -0.518349       -14.1050
 186   2.0000      -0.514565       -14.0020
 187   2.0000      -0.513100       -13.9622
 188   2.0000      -0.511056       -13.9065
 189   2.0000      -0.509263       -13.8578
 190   2.0000      -0.508371       -13.8335
 191   2.0000      -0.503748       -13.7077
 192   2.0000      -0.501793       -13.6545
 193   2.0000      -0.499710       -13.5978
 194   2.0000      -0.499070       -13.5804
 195   2.0000      -0.492730       -13.4079
 196   2.0000      -0.490087       -13.3359
 197   2.0000      -0.488193       -13.2844
 198   2.0000      -0.487048       -13.2532
 199   2.0000      -0.483906       -13.1677
 200   2.0000      -0.483616       -13.1599
 201   2.0000      -0.482021       -13.1165
 202   2.0000      -0.477639       -12.9972
 203   2.0000      -0.476812       -12.9747
 204   2.0000      -0.472773       -12.8648
 205   2.0000      -0.471214       -12.8224
 206   2.0000      -0.465667       -12.6714
 207   2.0000      -0.464009       -12.6263
 208   2.0000      -0.461431       -12.5562
 209   2.0000      -0.458568       -12.4783
 210   2.0000      -0.456564       -12.4237
 211   2.0000      -0.453504       -12.3405
 212   2.0000      -0.451389       -12.2829
 213   2.0000      -0.450129       -12.2486
 214   2.0000      -0.448412       -12.2019
 215   2.0000      -0.442737       -12.0475
 216   2.0000      -0.442446       -12.0396
 217   2.0000      -0.441143       -12.0041
 218   2.0000      -0.438111       -11.9216
 219   2.0000      -0.437913       -11.9162
 220   2.0000      -0.437282       -11.8990
 221   2.0000      -0.436415       -11.8754
 222   2.0000      -0.433447       -11.7947
 223   2.0000      -0.432535       -11.7699
 224   2.0000      -0.428361       -11.6563
 225   2.0000      -0.425616       -11.5816
 226   2.0000      -0.425429       -11.5765
 227   2.0000      -0.420543       -11.4436
 228   2.0000      -0.417154       -11.3513
 229   2.0000      -0.415907       -11.3174
 230   2.0000      -0.411889       -11.2081
 231   2.0000      -0.411321       -11.1926
 232   2.0000      -0.404870       -11.0171
 233   2.0000      -0.403430       -10.9779
 234   2.0000      -0.401296       -10.9198
 235   2.0000      -0.392657       -10.6847
 236   2.0000      -0.387809       -10.5528
 237   2.0000      -0.385323       -10.4852
 238   2.0000      -0.380656       -10.3582
 239   2.0000      -0.378100       -10.2886
 240   2.0000      -0.377416       -10.2700
 241   2.0000      -0.369659       -10.0589
 242   2.0000      -0.368810       -10.0358
 243   2.0000      -0.360529        -9.8105
 244   2.0000      -0.355458        -9.6725
 245   2.0000      -0.346367        -9.4251
 246   2.0000      -0.340397        -9.2627
 247   2.0000      -0.337345        -9.1796
 248   2.0000      -0.333231        -9.0677
 249   2.0000      -0.323175        -8.7940
 250   2.0000      -0.320785        -8.7290
 251   2.0000      -0.314868        -8.5680
 252   2.0000      -0.307788        -8.3753
 253   2.0000      -0.306924        -8.3518
 254   2.0000      -0.302303        -8.2261
 255   2.0000      -0.287415        -7.8210
 256   2.0000      -0.268310        -7.3011
 257   2.0000      -0.257897        -7.0177
 258   2.0000      -0.253912        -6.9093
 259   2.0000      -0.234527        -6.3818
 260   2.0000      -0.182459        -4.9650
 261   0.0000      -0.107606        -2.9281
 262   0.0000      -0.084301        -2.2939
 263   0.0000      -0.063738        -1.7344
 264   0.0000      -0.049780        -1.3546
 265   0.0000      -0.032377        -0.8810

MULLIKEN ATOMIC CHARGES
-----------------------
   0 C :    0.306130
   1 C :   -0.349202
   2 C :   -0.182507
   3 N :    0.144579
   4 C :   -0.202060
   5 N :    0.151391
   6 C :    0.024244
   7 C :   -0.006040
   8 C :   -0.063114
   9 C :    0.116423
  10 C :   -0.092130
  11 C :   -0.024077
  12 S :    0.183896
  13 C :   -0.121663
  14 C :    0.040004
  15 Br:    0.019510
  16 C :    0.119315
  17 O :   -0.156455
  18 C :   -0.120843
  19 C :    0.022885
  20 C :   -0.127869
  21 S :    0.187177
  22 C :   -0.091313
  23 C :    0.118265
  24 C :    0.179530
  25 C :   -0.050445
  26 C :   -0.094501
  27 C :    0.159813
  28 O :   -0.183781
  29 O :   -0.155988
  30 C :    0.183115
  31 O :   -0.224966
  32 C :   -0.112380
  33 C :   -0.012742
  34 C :    0.020901
  35 C :   -0.008062
  36 C :   -0.226053
  37 C :    0.079897
  38 C :    0.218537
  39 N :   -0.153776
  40 C :    0.055370
  41 C :   -0.029271
  42 C :   -0.010144
  43 C :   -0.037818
  44 C :    0.038640
  45 C :    0.011870
  46 C :   -0.042302
  47 S :    0.043464
  48 C :   -0.039671
  49 C :    0.023836
  50 C :    0.023629
  51 C :   -0.017043
  52 S :    0.030137
  53 C :   -0.027741
  54 C :    0.069529
  55 C :   -0.052017
  56 C :    0.076745
  57 C :   -0.011822
  58 C :    0.051657
  59 C :   -0.028055
  60 C :    0.065530
  61 C :   -0.035209
  62 C :    0.061862
  63 C :   -0.004766
  64 C :    0.038739
  65 C :   -0.027736
  66 C :    0.013665
  67 C :   -0.031331
  68 H :   -0.012885
  69 H :   -0.006996
  70 H :   -0.004248
  71 H :    0.026649
  72 H :    0.016365
  73 H :    0.177851
  74 H :    0.197532
  75 H :   -0.054313
  76 H :   -0.015396
  77 H :    0.010294
  78 H :    0.005961
  79 H :    0.036727
  80 H :    0.023135
  81 H :    0.031735
  82 H :    0.017615
  83 H :    0.036572
  84 H :    0.120067
  85 H :    0.000075
  86 H :   -0.017308
  87 H :   -0.027154
  88 H :   -0.023726
  89 H :   -0.022507
  90 H :   -0.020295
  91 H :   -0.022212
  92 H :   -0.031762
  93 H :   -0.035734
  94 H :   -0.029963
  95 H :   -0.028496
  96 H :   -0.033981
  97 H :   -0.029440
  98 H :   -0.011489
  99 H :   -0.022973
 100 H :    0.006263
 101 H :    0.018646
Sum of atomic charges:   -0.0000000

LOEWDIN ATOMIC CHARGES
----------------------
   0 C :    0.075240
   1 C :   -0.145958
   2 C :   -0.018383
   3 N :   -0.057617
   4 C :   -0.023239
   5 N :   -0.057706
   6 C :   -0.019675
   7 C :   -0.046589
   8 C :    0.024031
   9 C :   -0.032083
  10 C :   -0.143623
  11 C :   -0.010249
  12 S :    0.430633
  13 C :   -0.272158
  14 C :   -0.069490
  15 Br:    0.133849
  16 C :    0.077362
  17 O :   -0.148155
  18 C :   -0.105240
  19 C :    0.040071
  20 C :   -0.174884
  21 S :    0.504609
  22 C :   -0.147339
  23 C :   -0.032319
  24 C :   -0.025079
  25 C :    0.063944
  26 C :   -0.093275
  27 C :    0.082704
  28 O :   -0.168628
  29 O :   -0.028659
  30 C :    0.065926
  31 O :   -0.048561
  32 C :   -0.078307
  33 C :   -0.051460
  34 C :   -0.003354
  35 C :   -0.061369
  36 C :   -0.025034
  37 C :   -0.051371
  38 C :    0.043626
  39 N :    0.001829
  40 C :    0.038721
  41 C :   -0.124500
  42 C :   -0.043185
  43 C :   -0.174103
  44 C :   -0.033702
  45 C :   -0.049892
  46 C :   -0.175757
  47 S :    0.346692
  48 C :   -0.194776
  49 C :   -0.039018
  50 C :   -0.043174
  51 C :   -0.150421
  52 S :    0.359339
  53 C :   -0.063312
  54 C :   -0.056662
  55 C :   -0.005225
  56 C :   -0.053169
  57 C :    0.058666
  58 C :   -0.059019
  59 C :    0.037410
  60 C :   -0.059109
  61 C :    0.005338
  62 C :   -0.058046
  63 C :    0.064764
  64 C :   -0.061294
  65 C :    0.031071
  66 C :   -0.020207
  67 C :   -0.059447
  68 H :    0.040547
  69 H :    0.040758
  70 H :    0.038611
  71 H :    0.044705
  72 H :    0.042493
  73 H :    0.063908
  74 H :    0.105307
  75 H :    0.023311
  76 H :    0.031307
  77 H :    0.027828
  78 H :    0.034022
  79 H :    0.036617
  80 H :    0.034194
  81 H :    0.036207
  82 H :    0.026903
  83 H :    0.041280
  84 H :    0.079711
  85 H :    0.026617
  86 H :    0.016821
  87 H :    0.028121
  88 H :    0.029010
  89 H :    0.028013
  90 H :    0.028946
  91 H :    0.029245
  92 H :    0.031766
  93 H :    0.020604
  94 H :    0.032448
  95 H :    0.023097
  96 H :    0.021449
  97 H :    0.032971
  98 H :    0.013012
  99 H :    0.027980
 100 H :    0.017016
 101 H :    0.023168

  Mayer bond orders larger than 0.100000
B(  0-C ,  1-C ) :   1.6163 B(  0-C ,  6-C ) :   1.0024 B(  0-C , 18-C ) :   1.1000
B(  1-C ,  2-C ) :   1.1440 B(  1-C ,  4-C ) :   1.1475 B(  2-C ,  3-N ) :   2.9657
B(  4-C ,  5-N ) :   2.9805 B(  6-C ,  7-C ) :   1.2728 B(  6-C , 11-C ) :   1.4122
B(  7-C ,  8-C ) :   1.4326 B(  7-C , 16-C ) :   0.9324 B(  8-C ,  9-C ) :   1.2426
B(  8-C , 68-H ) :   1.0148 B(  9-C , 10-C ) :   1.3115 B(  9-C , 14-C ) :   1.1632
B( 10-C , 11-C ) :   1.3262 B( 10-C , 12-S ) :   1.0851 B( 11-C , 69-H ) :   0.9792
B( 12-S , 13-C ) :   1.0854 B( 13-C , 14-C ) :   1.6201 B( 13-C , 15-Br) :   1.0161
B( 14-C , 70-H ) :   0.9995 B( 16-C , 17-O ) :   2.2054 B( 16-C , 18-C ) :   0.9604
B( 18-C , 19-C ) :   1.5202 B( 19-C , 20-C ) :   1.2516 B( 19-C , 71-H ) :   0.9304
B( 20-C , 21-S ) :   1.1239 B( 20-C , 24-C ) :   1.2832 B( 21-S , 22-C ) :   1.1811
B( 22-C , 23-C ) :   1.2860 B( 22-C , 33-C ) :   1.1799 B( 23-C , 24-C ) :   1.2481
B( 23-C , 32-C ) :   1.2043 B( 24-C , 25-C ) :   1.1687 B( 25-C , 26-C ) :   1.5585
B( 25-C , 72-H ) :   0.9786 B( 26-C , 27-C ) :   0.8633 B( 26-C , 30-C ) :   1.1874
B( 27-C , 28-O ) :   2.1586 B( 27-C , 29-O ) :   1.2956 B( 29-O , 73-H ) :   0.9214
B( 30-C , 31-O ) :   1.1194 B( 30-C , 32-C ) :   1.4877 B( 31-O , 74-H ) :   0.9463
B( 32-C , 75-H ) :   0.9738 B( 33-C , 34-C ) :   1.6850 B( 33-C , 76-H ) :   0.9636
B( 34-C , 35-C ) :   1.1071 B( 34-C , 77-H ) :   0.9580 B( 35-C , 36-C ) :   1.8253
B( 35-C , 78-H ) :   0.9455 B( 36-C , 37-C ) :   1.0843 B( 36-C , 38-C ) :   0.9981
B( 37-C , 79-H ) :   0.9491 B( 37-C , 80-H ) :   0.9503 B( 37-C , 81-H ) :   0.9391
B( 38-C , 39-N ) :   1.0393 B( 38-C , 82-H ) :   0.9418 B( 38-C , 83-H ) :   0.9211
B( 39-N , 40-C ) :   1.2029 B( 39-N , 84-H ) :   0.9404 B( 40-C , 41-C ) :   1.6103
B( 40-C , 85-H ) :   0.9676 B( 41-C , 42-C ) :   1.1658 B( 41-C , 86-H ) :   0.9628
B( 42-C , 43-C ) :   1.5877 B( 42-C , 87-H ) :   0.9792 B( 43-C , 44-C ) :   1.1470
B( 43-C , 47-S ) :   1.0097 B( 44-C , 45-C ) :   1.5856 B( 44-C , 88-H ) :   0.9981
B( 45-C , 46-C ) :   1.1928 B( 45-C , 89-H ) :   0.9937 B( 46-C , 47-S ) :   1.0446
B( 46-C , 48-C ) :   1.5044 B( 48-C , 49-C ) :   1.1935 B( 48-C , 52-S ) :   1.0269
B( 49-C , 50-C ) :   1.5830 B( 49-C , 90-H ) :   0.9931 B( 50-C , 51-C ) :   1.1442
B( 50-C , 91-H ) :   0.9998 B( 51-C , 52-S ) :   1.0227 B( 51-C , 53-C ) :   1.5705
B( 53-C , 54-C ) :   1.1365 B( 53-C , 92-H ) :   0.9693 B( 54-C , 55-C ) :   1.4472
B( 54-C , 65-C ) :   1.1188 B( 55-C , 56-C ) :   1.1035 B( 55-C , 93-H ) :   1.0208
B( 56-C , 57-C ) :   1.4512 B( 56-C , 64-C ) :   1.1223 B( 57-C , 58-C ) :   1.1237
B( 57-C , 94-H ) :   1.0046 B( 58-C , 59-C ) :   1.4552 B( 58-C , 62-C ) :   1.1247
B( 59-C , 60-C ) :   1.1325 B( 59-C , 95-H ) :   1.0081 B( 60-C , 61-C ) :   1.5153
B( 60-C , 66-C ) :   1.0876 B( 61-C , 62-C ) :   1.0805 B( 61-C , 96-H ) :   1.0173
B( 62-C , 63-C ) :   1.4728 B( 63-C , 64-C ) :   1.1201 B( 63-C , 97-H ) :   1.0038
B( 64-C , 65-C ) :   1.4725 B( 65-C , 98-H ) :   0.9909 B( 66-C , 67-C ) :   1.9280
B( 66-C , 99-H ) :   0.9667 B( 67-C ,100-H ) :   0.9529 B( 67-C ,101-H ) :   0.9502

-----------------------------------------------------------------------------
         ABSORPTION SPECTRUM VIA TRANSITION ELECTRIC DIPOLE MOMENTS
-----------------------------------------------------------------------------
State   Energy  Wavelength   fosc         T2         TX        TY        TZ
        (cm-1)    (nm)                  (au**2)     (au)      (au)      (au)
-----------------------------------------------------------------------------
   0    5407.9   1849.1   0.020871782   1.27059   0.93381   0.07140   0.62730
   1    7335.7   1363.2   0.032599032   1.46298  -0.81788  -0.79250   0.40742
   2   14389.2    695.0   0.144869168   3.31447  -1.66222  -0.45725  -0.58517
   3   15365.9    650.8   1.082355503  23.18937  -3.82239  -2.80786  -0.83347
   4   16287.0    614.0   1.175855053  23.76769  -2.75764   2.95155  -2.72974
   5   18658.8    535.9   0.010479469   0.18490  -0.16357  -0.23560  -0.32036
   6   19366.9    516.3   0.003740671   0.06359  -0.05430  -0.14863  -0.19633
   7   22418.3    446.1   0.141595095   2.07932  -0.17367   0.13725  -1.42489
   8   23366.8    428.0   0.055391893   0.78041   0.39710   0.53403  -0.58097
   9   23620.3    423.4   0.003648304   0.05085   0.14132   0.08359   0.15457
  10   24249.2    412.4   0.005395354   0.07325  -0.15183  -0.05835  -0.21632
  11   24707.4    404.7   0.014018331   0.18679   0.26774   0.02844   0.33807
  12   25053.0    399.2   0.181823397   2.38927   1.11140   0.17643  -1.05969
  13   25346.4    394.5   0.000957405   0.01244  -0.09392  -0.01994   0.05672
  14   25655.9    389.8   0.083777817   1.07502  -0.86403  -0.07426   0.56830
  15   25987.0    384.8   0.005636504   0.07141   0.16381   0.03110   0.20882
  16   26895.5    371.8   0.003137629   0.03841  -0.10209  -0.11916   0.11741
  17   27348.8    365.6   0.009665439   0.11635   0.19936  -0.24211   0.13411
  18   28444.8    351.6   1.527543399  17.67937   1.17775   0.28424  -4.02635
  19   29429.3    339.8   0.080688755   0.90263  -0.07790  -0.28361  -0.90340
  20   29483.6    339.2   0.047036283   0.52520  -0.34049  -0.43955   0.46483
  21   30036.9    332.9   0.030536103   0.33468  -0.36024   0.07895  -0.44573
  22   30137.1    331.8   0.035558344   0.38843   0.15639   0.01657  -0.60307
  23   30505.4    327.8   0.001986355   0.02144  -0.10531  -0.09942   0.02149
  24   30896.2    323.7   0.179096003   1.90834   0.49764  -0.62025  -1.12959
  25   30979.6    322.8   0.022565907   0.23980   0.08986   0.01980   0.48097
  26   31462.5    317.8   0.400650573   4.19226  -1.69052  -0.64823   0.95613
  27   31855.6    313.9   0.004262339   0.04405   0.19201  -0.04997  -0.06843
  28   31989.3    312.6   0.000145749   0.00150  -0.02756   0.00937   0.02554
  29   32090.4    311.6   0.172245020   1.76705   1.13494   0.02474   0.69163
  30   32326.1    309.3   0.219341097   2.23379  -0.01165   0.09793  -1.49133
  31   32654.6    306.2   0.005344521   0.05388  -0.12067   0.16137  -0.11523
  32   33352.7    299.8   0.150288513   1.48344   0.51984   0.55143  -0.95349
  33   33439.6    299.0   0.089476734   0.88089  -0.37204  -0.52095   0.68636
  34   33785.5    296.0   0.280900165   2.73714  -0.33444  -0.80883   1.40395
  35   33896.3    295.0   0.077674719   0.75440  -0.30342  -0.35725   0.73124
  36   34974.7    285.9   0.075129288   0.70718   0.26537  -0.34417   0.71994
  37   35202.8    284.1   0.010571573   0.09886  -0.04322   0.02798   0.31018
  38   35411.2    282.4   0.208327443   1.93679  -0.70874   1.15110   0.33082
  39   35523.1    281.5   0.012508773   0.11593  -0.19696   0.25784  -0.10319
  40   35706.4    280.1   0.005830391   0.05376  -0.21420   0.08401   0.02857
  41   36017.1    277.6   0.000009533   0.00009   0.00573   0.00668   0.00310
  42   36343.2    275.2   0.012773209   0.11570  -0.32610   0.03745  -0.08922
  43   36624.1    273.0   0.002778864   0.02498   0.06371   0.00034   0.14464
  44   37478.4    266.8   0.005343873   0.04694  -0.16390   0.11453  -0.08344
  45   37814.0    264.5   0.197111072   1.71607  -0.13176   0.13078  -1.29677
  46   38004.4    263.1   0.002143645   0.01857   0.01452   0.09840  -0.09315
  47   38229.7    261.6   0.011690251   0.10067   0.07334   0.00807  -0.30859
  48   38327.3    260.9   0.022726961   0.19521   0.36188  -0.15812   0.19813
  49   38631.7    258.9   0.044793743   0.38172  -0.10421   0.01196  -0.60887
  50   38707.4    258.3   0.052856754   0.44955   0.08658  -0.13546   0.65093
  51   38737.8    258.1   0.041436351   0.35215  -0.09515   0.04203  -0.58423
  52   39043.2    256.1   0.082047765   0.69183  -0.16831   0.18529  -0.79320
  53   39072.4    255.9   0.035300800   0.29743  -0.46012  -0.28588  -0.06321
  54   39548.1    252.9   0.051944361   0.43240   0.54942   0.04295   0.35874
  55   39662.7    252.1   0.107625852   0.89333  -0.08204   0.91230  -0.23302
  56   39770.5    251.4   0.006029811   0.04991  -0.02626  -0.17491   0.13649
  57   40070.4    249.6   0.217215071   1.78460  -0.83973   0.54594   0.88397

FINAL SINGLE POINT ENERGY     -6782.325702336461

DIPOLE MOMENT
-------------
                                X             Y             Z
Electronic contribution:   -146.81621    -178.81286      89.85650
Nuclear contribution   :    143.66259     183.02194     -91.15214
                        -----------------------------------------
Total Dipole Moment    :     -3.15362       4.20908      -1.29563
                        -----------------------------------------
Magnitude (a.u.)       :      5.41667
Magnitude (Debye)      :     13.76809

Rotational constants in cm-1:     0.001001     0.000219     0.000200
Rotational constants in MHz :    30.015686     6.556994     5.981755

                             ****ORCA TERMINATED NORMALLY****
TOTAL RUN TIME: 0 days 0 hours 13 minutes 35 seconds 859 msec
