                         Program Version 4.2.0 -  RELEASE  -
|  1> # ORCA input file
|  2> # SCF done       -198.632007941033          0.000851036108
|  3> ! CAM-B3LYP def2-SVP def2/J RIJCOSX Grid4 TightSCF
|  4> %maxcore 5000
|  5> %tddft
|  6>     Mode sTDDFT
|  7>     Ethresh 5.0
|  8>     maxcore 5000
|  9> end
| 10>
| 11> %pal
| 12>   nprocs 6
| 13>   end
| 14> * xyz 0 1
| 15>    C       -5.39621        -3.67039        -6.04810
| 16>    C       -5.73563        -4.95772        -5.71289
| 17>    C       -5.30572        -6.09906        -6.41752
| 18>    N       -4.98688        -7.06145        -6.95673
| 19>    C       -6.55401        -5.29368        -4.61638
| 20>    N       -7.21289        -5.60845        -3.73037
| 21>    C       -4.53594        -3.27517        -7.16074
| 22>    C       -4.40988        -1.86161        -7.16444
| 23>    C       -3.66098        -1.18407        -8.09523
| 24>    C       -3.00486        -1.93582        -9.07538
| 25>    C       -3.13640        -3.34455        -9.06639
| 26>    C       -3.89234        -4.03032        -8.12162
| 27>    S       -2.24920        -4.07650       -10.36785
| 28>    C       -1.72096        -2.50194       -10.89952
| 29>    C       -2.18341        -1.47917       -10.14182
| 30>   Br       -0.61038        -2.35592       -12.40417
| 31>    C       -5.19722        -1.31539        -6.05545
| 32>    O       -5.32786        -0.13042        -5.74977
| 33>    C       -5.80790        -2.45986        -5.37919
| 34>    C       -6.64334        -2.28953        -4.29682
| 35>    N       -6.89906        -1.05305        -3.86139
| 36>    C       -7.69503        -0.65710        -2.84005
| 37>    S       -8.55160        -1.78113        -1.83301
| 38>    C       -9.22683        -0.44059        -0.96309
| 39>    N      -10.09091        -0.72227         0.10140
| 40>    O      -10.55946         0.22034         0.71360
| 41>    O      -10.30957        -1.89852         0.33550
| 42>    C       -8.81970         0.78322        -1.42543
| 43>    C       -7.92936         0.68586        -2.51037
| 44>    C       -7.31655         1.78326        -3.21267
| 45>    C       -7.71052         3.06640        -3.13798
| 46>    C       -7.10426         4.16067        -3.86352
| 47>    C       -5.80771         4.07884        -4.39567
| 48>    C       -5.29058         5.13840        -5.10090
| 49>    C       -6.04996         6.31036        -5.27008
| 50>    C       -7.32774         6.41071        -4.73691
| 51>    C       -7.83986         5.34028        -4.03522
| 52>    C       -5.26307         7.27056        -6.00491
| 53>    C       -3.99920         6.71275        -6.26969
| 54>    C       -3.91102         5.30379        -5.71157
| 55>    C       -2.88104         5.18037        -4.56890
| 56>    C       -1.42334         5.40054        -4.95241
| 57>    C       -3.65376         4.34591        -6.89316
| 58>    C       -3.53939         2.86363        -6.55998
| 59>    C       -3.07596         7.42626        -6.99389
| 60>    C       -3.38349         8.71936        -7.45641
| 61>    C       -4.64748         9.25888        -7.16746
| 62>    C       -5.58267         8.54649        -6.45100
| 63>    C       -2.38998         9.44995        -8.19247
| 64>    C       -2.61030        10.56602        -8.93657
| 65>    C       -1.60249        11.28627        -9.60185
| 66>    C       -1.84555        12.37316       -10.40456
| 67>    C       -0.89622        13.19231       -11.06126
| 68>    C       -1.43911        14.20068       -11.80079
| 69>    C       -2.84968        14.22636       -11.78705
| 70>    S       -3.46851        12.94081       -10.77342
| 71>    C       -3.69800        15.07820       -12.47087
| 72>    C       -3.36031        16.16588       -13.30504
| 73>    C       -4.43699        16.78333       -13.86598
| 74>    C       -5.69003        16.21611       -13.52206
| 75>    S       -5.43372        14.87698       -12.41352
| 76>    C       -6.90806        16.61617       -14.00882
| 77>    C       -8.17786        16.05365       -13.76023
| 78>    C       -8.54613        15.00642       -12.91252
| 79>    C       -9.93765        14.77663       -13.05432
| 80>    C      -10.77520        13.85699       -12.46462
| 81>    C      -12.12646        13.86401       -12.84770
| 82>    C      -13.19915        13.07376       -12.46581
| 83>    C      -14.36852        13.48739       -13.18028
| 84>    C      -14.01746        14.54272       -14.00099
| 85>    C      -12.62316        14.81447       -13.82824
| 86>    C      -11.79758        15.73869       -14.40763
| 87>    C      -10.43632        15.73113       -14.02924
| 88>    C       -9.36669        16.50001       -14.43855
| 89>    C      -15.65779        12.85630       -13.02359
| 90>    C      -16.75691        13.16256       -13.70746
| 91>    H       -3.58588        -0.10843        -8.06860
| 92>    H       -3.96167        -5.10450        -8.15902
| 93>    H       -1.95675        -0.44512       -10.32718
| 94>    H       -7.11421        -3.11544        -3.78032
| 95>    H       -6.41864        -0.31914        -4.41761
| 96>    H       -9.14808         1.70168        -0.97524
| 97>    H       -6.49385         1.53196        -3.86650
| 98>    H       -8.57377         3.32494        -2.53967
| 99>    H       -5.21601         3.19514        -4.21886
|100>    H       -7.90495         7.31485        -4.85906
|101>    H       -8.83264         5.40270        -3.61280
|102>    H       -2.98668         4.18874        -4.12545
|103>    H       -3.15552         5.90842        -3.80044
|104>    H       -1.11498         4.72798        -5.74848
|105>    H       -0.79177         5.21006        -4.08681
|106>    H       -1.25481         6.42570        -5.26915
|107>    H       -2.73454         4.66673        -7.38735
|108>    H       -4.46892         4.48424        -7.60900
|109>    H       -2.77587         2.67937        -5.80890
|110>    H       -3.25711         2.32270        -7.46168
|111>    H       -4.48346         2.45609        -6.21147
|112>    H       -2.11245         7.00691        -7.24335
|113>    H       -4.88669        10.25657        -7.50078
|114>    H       -6.55226         8.97299        -6.24092
|115>    H       -1.38249         9.05262        -8.15470
|116>    H       -3.61721        10.94504        -9.05231
|117>    H       -0.57247        10.98155        -9.47019
|118>    H        0.15986        13.01188       -10.96235
|119>    H       -0.86456        14.91555       -12.36249
|120>    H       -2.33955        16.46169       -13.46863
|121>    H       -4.37282        17.62700       -14.53096
|122>    H       -6.88600        17.45148       -14.69884
|123>    H       -7.90320        14.45497       -12.25449
|124>    H      -10.41079        13.14499       -11.73789
|125>    H      -13.17244        12.27040       -11.75088
|126>    H      -14.66512        15.08292       -14.66557
|127>    H      -12.15859        16.45015       -15.13738
|128>    H       -9.39231        17.29987       -15.15759
|129>    H      -15.69375        12.06710       -12.28250
|130>    H      -16.76675        13.93501       -14.45706
|131>    H      -17.68667        12.64692       -13.54110
|132> *
|133>
|134>                          ****END OF INPUT****

CARTESIAN COORDINATES (ANGSTROEM)
---------------------------------
  C     -5.396210   -3.670390   -6.048100
  C     -5.735630   -4.957720   -5.712890
  C     -5.305720   -6.099060   -6.417520
  N     -4.986880   -7.061450   -6.956730
  C     -6.554010   -5.293680   -4.616380
  N     -7.212890   -5.608450   -3.730370
  C     -4.535940   -3.275170   -7.160740
  C     -4.409880   -1.861610   -7.164440
  C     -3.660980   -1.184070   -8.095230
  C     -3.004860   -1.935820   -9.075380
  C     -3.136400   -3.344550   -9.066390
  C     -3.892340   -4.030320   -8.121620
  S     -2.249200   -4.076500  -10.367850
  C     -1.720960   -2.501940  -10.899520
  C     -2.183410   -1.479170  -10.141820
  Br    -0.610380   -2.355920  -12.404170
  C     -5.197220   -1.315390   -6.055450
  O     -5.327860   -0.130420   -5.749770
  C     -5.807900   -2.459860   -5.379190
  C     -6.643340   -2.289530   -4.296820
  N     -6.899060   -1.053050   -3.861390
  C     -7.695030   -0.657100   -2.840050
  S     -8.551600   -1.781130   -1.833010
  C     -9.226830   -0.440590   -0.963090
  N    -10.090910   -0.722270    0.101400
  O    -10.559460    0.220340    0.713600
  O    -10.309570   -1.898520    0.335500
  C     -8.819700    0.783220   -1.425430
  C     -7.929360    0.685860   -2.510370
  C     -7.316550    1.783260   -3.212670
  C     -7.710520    3.066400   -3.137980
  C     -7.104260    4.160670   -3.863520
  C     -5.807710    4.078840   -4.395670
  C     -5.290580    5.138400   -5.100900
  C     -6.049960    6.310360   -5.270080
  C     -7.327740    6.410710   -4.736910
  C     -7.839860    5.340280   -4.035220
  C     -5.263070    7.270560   -6.004910
  C     -3.999200    6.712750   -6.269690
  C     -3.911020    5.303790   -5.711570
  C     -2.881040    5.180370   -4.568900
  C     -1.423340    5.400540   -4.952410
  C     -3.653760    4.345910   -6.893160
  C     -3.539390    2.863630   -6.559980
  C     -3.075960    7.426260   -6.993890
  C     -3.383490    8.719360   -7.456410
  C     -4.647480    9.258880   -7.167460
  C     -5.582670    8.546490   -6.451000
  C     -2.389980    9.449950   -8.192470
  C     -2.610300   10.566020   -8.936570
  C     -1.602490   11.286270   -9.601850
  C     -1.845550   12.373160  -10.404560
  C     -0.896220   13.192310  -11.061260
  C     -1.439110   14.200680  -11.800790
  C     -2.849680   14.226360  -11.787050
  S     -3.468510   12.940810  -10.773420
  C     -3.698000   15.078200  -12.470870
  C     -3.360310   16.165880  -13.305040
  C     -4.436990   16.783330  -13.865980
  C     -5.690030   16.216110  -13.522060
  S     -5.433720   14.876980  -12.413520
  C     -6.908060   16.616170  -14.008820
  C     -8.177860   16.053650  -13.760230
  C     -8.546130   15.006420  -12.912520
  C     -9.937650   14.776630  -13.054320
  C    -10.775200   13.856990  -12.464620
  C    -12.126460   13.864010  -12.847700
  C    -13.199150   13.073760  -12.465810
  C    -14.368520   13.487390  -13.180280
  C    -14.017460   14.542720  -14.000990
  C    -12.623160   14.814470  -13.828240
  C    -11.797580   15.738690  -14.407630
  C    -10.436320   15.731130  -14.029240
  C     -9.366690   16.500010  -14.438550
  C    -15.657790   12.856300  -13.023590
  C    -16.756910   13.162560  -13.707460
  H     -3.585880   -0.108430   -8.068600
  H     -3.961670   -5.104500   -8.159020
  H     -1.956750   -0.445120  -10.327180
  H     -7.114210   -3.115440   -3.780320
  H     -6.418640   -0.319140   -4.417610
  H     -9.148080    1.701680   -0.975240
  H     -6.493850    1.531960   -3.866500
  H     -8.573770    3.324940   -2.539670
  H     -5.216010    3.195140   -4.218860
  H     -7.904950    7.314850   -4.859060
  H     -8.832640    5.402700   -3.612800
  H     -2.986680    4.188740   -4.125450
  H     -3.155520    5.908420   -3.800440
  H     -1.114980    4.727980   -5.748480
  H     -0.791770    5.210060   -4.086810
  H     -1.254810    6.425700   -5.269150
  H     -2.734540    4.666730   -7.387350
  H     -4.468920    4.484240   -7.609000
  H     -2.775870    2.679370   -5.808900
  H     -3.257110    2.322700   -7.461680
  H     -4.483460    2.456090   -6.211470
  H     -2.112450    7.006910   -7.243350
  H     -4.886690   10.256570   -7.500780
  H     -6.552260    8.972990   -6.240920
  H     -1.382490    9.052620   -8.154700
  H     -3.617210   10.945040   -9.052310
  H     -0.572470   10.981550   -9.470190
  H      0.159860   13.011880  -10.962350
  H     -0.864560   14.915550  -12.362490
  H     -2.339550   16.461690  -13.468630
  H     -4.372820   17.627000  -14.530960
  H     -6.886000   17.451480  -14.698840
  H     -7.903200   14.454970  -12.254490
  H    -10.410790   13.144990  -11.737890
  H    -13.172440   12.270400  -11.750880
  H    -14.665120   15.082920  -14.665570
  H    -12.158590   16.450150  -15.137380
  H     -9.392310   17.299870  -15.157590
  H    -15.693750   12.067100  -12.282500
  H    -16.766750   13.935010  -14.457060
  H    -17.686670   12.646920  -13.541100

 Total Charge           Charge          ....    0
 Multiplicity           Mult            ....    1
 Number of Electrons    NEL             ....  576
 Basis Dimension        Dim             .... 1303

ORBITAL ENERGIES
----------------

  NO   OCC          E(Eh)            E(eV)
   0   2.0000    -482.890490    -13140.1183
   1   2.0000     -88.990765     -2421.5618
   2   2.0000     -88.981985     -2421.3229
   3   2.0000     -88.938919     -2420.1510
   4   2.0000     -88.936851     -2420.0948
   5   2.0000     -62.568176     -1702.5666
   6   2.0000     -56.402136     -1534.7801
   7   2.0000     -56.399404     -1534.7058
   8   2.0000     -56.399375     -1534.7050
   9   2.0000     -19.239253      -523.5267
  10   2.0000     -19.239042      -523.5209
  11   2.0000     -19.238399      -523.5035
  12   2.0000     -14.650547      -398.6617
  13   2.0000     -14.497754      -394.5039
  14   2.0000     -14.422257      -392.4496
  15   2.0000     -14.418068      -392.3356
  16   2.0000     -10.384615      -282.5797
  17   2.0000     -10.373953      -282.2896
  18   2.0000     -10.370805      -282.2039
  19   2.0000     -10.364661      -282.0368
  20   2.0000     -10.349986      -281.6374
  21   2.0000     -10.348384      -281.5938
  22   2.0000     -10.345383      -281.5122
  23   2.0000     -10.332216      -281.1539
  24   2.0000     -10.324558      -280.9455
  25   2.0000     -10.321263      -280.8558
  26   2.0000     -10.315710      -280.7047
  27   2.0000     -10.314131      -280.6618
  28   2.0000     -10.312538      -280.6184
  29   2.0000     -10.311625      -280.5936
  30   2.0000     -10.310053      -280.5508
  31   2.0000     -10.307161      -280.4721
  32   2.0000     -10.303348      -280.3683
  33   2.0000     -10.302758      -280.3523
  34   2.0000     -10.302702      -280.3508
  35   2.0000     -10.302539      -280.3463
  36   2.0000     -10.302030      -280.3325
  37   2.0000     -10.300141      -280.2811
  38   2.0000     -10.297263      -280.2028
  39   2.0000     -10.296608      -280.1850
  40   2.0000     -10.294020      -280.1145
  41   2.0000     -10.287954      -279.9495
  42   2.0000     -10.286372      -279.9064
  43   2.0000     -10.282612      -279.8041
  44   2.0000     -10.281751      -279.7807
  45   2.0000     -10.280897      -279.7574
  46   2.0000     -10.279809      -279.7278
  47   2.0000     -10.279355      -279.7155
  48   2.0000     -10.278655      -279.6964
  49   2.0000     -10.278328      -279.6875
  50   2.0000     -10.278101      -279.6814
  51   2.0000     -10.274299      -279.5779
  52   2.0000     -10.274123      -279.5731
  53   2.0000     -10.271941      -279.5137
  54   2.0000     -10.271279      -279.4957
  55   2.0000     -10.271176      -279.4929
  56   2.0000     -10.271121      -279.4914
  57   2.0000     -10.270762      -279.4816
  58   2.0000     -10.269829      -279.4563
  59   2.0000     -10.269461      -279.4462
  60   2.0000     -10.269335      -279.4428
  61   2.0000     -10.268509      -279.4203
  62   2.0000     -10.268470      -279.4193
  63   2.0000     -10.267056      -279.3808
  64   2.0000     -10.266727      -279.3719
  65   2.0000     -10.266428      -279.3637
  66   2.0000     -10.266028      -279.3528
  67   2.0000     -10.265960      -279.3510
  68   2.0000     -10.265938      -279.3504
  69   2.0000     -10.265439      -279.3368
  70   2.0000     -10.264610      -279.3142
  71   2.0000     -10.264555      -279.3127
  72   2.0000     -10.263910      -279.2952
  73   2.0000     -10.261845      -279.2390
  74   2.0000     -10.260948      -279.2146
  75   2.0000     -10.260108      -279.1917
  76   2.0000     -10.259778      -279.1827
  77   2.0000     -10.254947      -279.0513
  78   2.0000     -10.254484      -279.0387
  79   2.0000     -10.254411      -279.0367
  80   2.0000      -8.797590      -239.3946
  81   2.0000      -8.085895      -220.0284
  82   2.0000      -8.077887      -219.8105
  83   2.0000      -8.034734      -218.6362
  84   2.0000      -8.033151      -218.5932
  85   2.0000      -6.633924      -180.5182
  86   2.0000      -6.619302      -180.1204
  87   2.0000      -6.619108      -180.1151
  88   2.0000      -6.055519      -164.7790
  89   2.0000      -6.051189      -164.6612
  90   2.0000      -6.047552      -164.5623
  91   2.0000      -6.047411      -164.5584
  92   2.0000      -6.043284      -164.4461
  93   2.0000      -6.039171      -164.3342
  94   2.0000      -6.004458      -163.3896
  95   2.0000      -6.002882      -163.3467
  96   2.0000      -6.000412      -163.2795
  97   2.0000      -5.998937      -163.2394
  98   2.0000      -5.995761      -163.1530
  99   2.0000      -5.994007      -163.1052
 100   2.0000      -2.749803       -74.8259
 101   2.0000      -2.745686       -74.7139
 102   2.0000      -2.745525       -74.7095
 103   2.0000      -2.733915       -74.3936
 104   2.0000      -2.733901       -74.3932
 105   2.0000      -1.319765       -35.9126
 106   2.0000      -1.153139       -31.3785
 107   2.0000      -1.138766       -30.9874
 108   2.0000      -1.105790       -30.0901
 109   2.0000      -1.029789       -28.0220
 110   2.0000      -1.018991       -27.7282
 111   2.0000      -1.011255       -27.5177
 112   2.0000      -0.999539       -27.1988
 113   2.0000      -0.995937       -27.1008
 114   2.0000      -0.988195       -26.8901
 115   2.0000      -0.985655       -26.8210
 116   2.0000      -0.982133       -26.7252
 117   2.0000      -0.966337       -26.2954
 118   2.0000      -0.955192       -25.9921
 119   2.0000      -0.948488       -25.8097
 120   2.0000      -0.946848       -25.7650
 121   2.0000      -0.926497       -25.2113
 122   2.0000      -0.917151       -24.9569
 123   2.0000      -0.915079       -24.9006
 124   2.0000      -0.901549       -24.5324
 125   2.0000      -0.899707       -24.4823
 126   2.0000      -0.893758       -24.3204
 127   2.0000      -0.892812       -24.2947
 128   2.0000      -0.886080       -24.1115
 129   2.0000      -0.877020       -23.8649
 130   2.0000      -0.866953       -23.5910
 131   2.0000      -0.859397       -23.3854
 132   2.0000      -0.854995       -23.2656
 133   2.0000      -0.852534       -23.1986
 134   2.0000      -0.845084       -22.9959
 135   2.0000      -0.837759       -22.7966
 136   2.0000      -0.836524       -22.7630
 137   2.0000      -0.835375       -22.7317
 138   2.0000      -0.835173       -22.7262
 139   2.0000      -0.830278       -22.5930
 140   2.0000      -0.824074       -22.4242
 141   2.0000      -0.814070       -22.1520
 142   2.0000      -0.804345       -21.8873
 143   2.0000      -0.796886       -21.6844
 144   2.0000      -0.792782       -21.5727
 145   2.0000      -0.780953       -21.2508
 146   2.0000      -0.769660       -20.9435
 147   2.0000      -0.767949       -20.8970
 148   2.0000      -0.760572       -20.6962
 149   2.0000      -0.751306       -20.4441
 150   2.0000      -0.743531       -20.2325
 151   2.0000      -0.738589       -20.0980
 152   2.0000      -0.732009       -19.9190
 153   2.0000      -0.720174       -19.5969
 154   2.0000      -0.712538       -19.3892
 155   2.0000      -0.707370       -19.2485
 156   2.0000      -0.702379       -19.1127
 157   2.0000      -0.697053       -18.9678
 158   2.0000      -0.693665       -18.8756
 159   2.0000      -0.683283       -18.5931
 160   2.0000      -0.676728       -18.4147
 161   2.0000      -0.673077       -18.3153
 162   2.0000      -0.667079       -18.1521
 163   2.0000      -0.664878       -18.0922
 164   2.0000      -0.663584       -18.0570
 165   2.0000      -0.652671       -17.7601
 166   2.0000      -0.649160       -17.6645
 167   2.0000      -0.643065       -17.4987
 168   2.0000      -0.638286       -17.3687
 169   2.0000      -0.637578       -17.3494
 170   2.0000      -0.635922       -17.3043
 171   2.0000      -0.631779       -17.1916
 172   2.0000      -0.628229       -17.0950
 173   2.0000      -0.625211       -17.0129
 174   2.0000      -0.621384       -16.9087
 175   2.0000      -0.620232       -16.8774
 176   2.0000      -0.615327       -16.7439
 177   2.0000      -0.608660       -16.5625
 178   2.0000      -0.606537       -16.5047
 179   2.0000      -0.602115       -16.3844
 180   2.0000      -0.598517       -16.2865
 181   2.0000      -0.590052       -16.0561
 182   2.0000      -0.587782       -15.9944
 183   2.0000      -0.585564       -15.9340
 184   2.0000      -0.577400       -15.7118
 185   2.0000      -0.575325       -15.6554
 186   2.0000      -0.571837       -15.5605
 187   2.0000      -0.569373       -15.4934
 188   2.0000      -0.566977       -15.4282
 189   2.0000      -0.562493       -15.3062
 190   2.0000      -0.560346       -15.2478
 191   2.0000      -0.553810       -15.0699
 192   2.0000      -0.552668       -15.0389
 193   2.0000      -0.548823       -14.9342
 194   2.0000      -0.544299       -14.8111
 195   2.0000      -0.541586       -14.7373
 196   2.0000      -0.540501       -14.7078
 197   2.0000      -0.538364       -14.6496
 198   2.0000      -0.534645       -14.5484
 199   2.0000      -0.530918       -14.4470
 200   2.0000      -0.528807       -14.3896
 201   2.0000      -0.525240       -14.2925
 202   2.0000      -0.522067       -14.2062
 203   2.0000      -0.521593       -14.1933
 204   2.0000      -0.519648       -14.1404
 205   2.0000      -0.516080       -14.0432
 206   2.0000      -0.514611       -14.0033
 207   2.0000      -0.511153       -13.9092
 208   2.0000      -0.505990       -13.7687
 209   2.0000      -0.503642       -13.7048
 210   2.0000      -0.503431       -13.6991
 211   2.0000      -0.499749       -13.5989
 212   2.0000      -0.497478       -13.5371
 213   2.0000      -0.494765       -13.4632
 214   2.0000      -0.492560       -13.4032
 215   2.0000      -0.491215       -13.3666
 216   2.0000      -0.488572       -13.2947
 217   2.0000      -0.487840       -13.2748
 218   2.0000      -0.485927       -13.2228
 219   2.0000      -0.484967       -13.1966
 220   2.0000      -0.483187       -13.1482
 221   2.0000      -0.480697       -13.0804
 222   2.0000      -0.475397       -12.9362
 223   2.0000      -0.472784       -12.8651
 224   2.0000      -0.469909       -12.7869
 225   2.0000      -0.467247       -12.7145
 226   2.0000      -0.465273       -12.6607
 227   2.0000      -0.465216       -12.6592
 228   2.0000      -0.462461       -12.5842
 229   2.0000      -0.459067       -12.4918
 230   2.0000      -0.457899       -12.4601
 231   2.0000      -0.455733       -12.4011
 232   2.0000      -0.454766       -12.3748
 233   2.0000      -0.453557       -12.3419
 234   2.0000      -0.451477       -12.2853
 235   2.0000      -0.449296       -12.2260
 236   2.0000      -0.448090       -12.1931
 237   2.0000      -0.446145       -12.1402
 238   2.0000      -0.445669       -12.1273
 239   2.0000      -0.444312       -12.0903
 240   2.0000      -0.442119       -12.0307
 241   2.0000      -0.440652       -11.9908
 242   2.0000      -0.435827       -11.8595
 243   2.0000      -0.434949       -11.8356
 244   2.0000      -0.434153       -11.8139
 245   2.0000      -0.432142       -11.7592
 246   2.0000      -0.431639       -11.7455
 247   2.0000      -0.426672       -11.6103
 248   2.0000      -0.423072       -11.5124
 249   2.0000      -0.421288       -11.4638
 250   2.0000      -0.418960       -11.4005
 251   2.0000      -0.418088       -11.3767
 252   2.0000      -0.416793       -11.3415
 253   2.0000      -0.415035       -11.2937
 254   2.0000      -0.411980       -11.2105
 255   2.0000      -0.411456       -11.1963
 256   2.0000      -0.401639       -10.9292
 257   2.0000      -0.400872       -10.9083
 258   2.0000      -0.394859       -10.7447
 259   2.0000      -0.394756       -10.7419
 260   2.0000      -0.387628       -10.5479
 261   2.0000      -0.386433       -10.5154
 262   2.0000      -0.386203       -10.5091
 263   2.0000      -0.383339       -10.4312
 264   2.0000      -0.379842       -10.3360
 265   2.0000      -0.378501       -10.2995
 266   2.0000      -0.376847       -10.2545
 267   2.0000      -0.376191       -10.2367
 268   2.0000      -0.369150       -10.0451
 269   2.0000      -0.367753       -10.0071
 270   2.0000      -0.362436        -9.8624
 271   2.0000      -0.360926        -9.8213
 272   2.0000      -0.353292        -9.6136
 273   2.0000      -0.344019        -9.3612
 274   2.0000      -0.334342        -9.0979
 275   2.0000      -0.330642        -8.9972
 276   2.0000      -0.324419        -8.8279
 277   2.0000      -0.321031        -8.7357
 278   2.0000      -0.317064        -8.6277
 279   2.0000      -0.314045        -8.5456
 280   2.0000      -0.312952        -8.5158
 281   2.0000      -0.300784        -8.1847
 282   2.0000      -0.294190        -8.0053
 283   2.0000      -0.277497        -7.5511
 284   2.0000      -0.264470        -7.1966
 285   2.0000      -0.256983        -6.9929
 286   2.0000      -0.240078        -6.5328
 287   2.0000      -0.196950        -5.3593
 288   0.0000      -0.094863        -2.5814
 289   0.0000      -0.091559        -2.4915
 290   0.0000      -0.074130        -2.0172
 291   0.0000      -0.069096        -1.8802
 292   0.0000      -0.044724        -1.2170

MULLIKEN ATOMIC CHARGES
-----------------------
   0 C :    0.326201
   1 C :   -0.341514
   2 C :   -0.184534
   3 N :    0.152684
   4 C :   -0.197850
   5 N :    0.144410
   6 C :    0.006050
   7 C :   -0.000512
   8 C :   -0.058815
   9 C :    0.118492
  10 C :   -0.095125
  11 C :   -0.018008
  12 S :    0.192437
  13 C :   -0.124205
  14 C :    0.040163
  15 Br:    0.027653
  16 C :    0.171016
  17 O :   -0.226403
  18 C :   -0.135436
  19 C :    0.035598
  20 N :   -0.004382
  21 C :   -0.127638
  22 S :    0.181383
  23 C :    0.000218
  24 N :    0.274388
  25 O :   -0.248072
  26 O :   -0.256457
  27 C :    0.003913
  28 C :    0.142138
  29 C :   -0.043777
  30 C :   -0.001284
  31 C :    0.115790
  32 C :   -0.105814
  33 C :    0.041803
  34 C :    0.093633
  35 C :   -0.053023
  36 C :   -0.014801
  37 C :    0.086872
  38 C :    0.052125
  39 C :   -0.126852
  40 C :    0.055179
  41 C :    0.031952
  42 C :    0.052032
  43 C :    0.025770
  44 C :   -0.126272
  45 C :    0.132069
  46 C :   -0.013111
  47 C :   -0.045832
  48 C :   -0.021114
  49 C :    0.018495
  50 C :   -0.016601
  51 C :   -0.018237
  52 C :    0.033097
  53 C :    0.025550
  54 C :   -0.047014
  55 S :    0.058066
  56 C :   -0.032566
  57 C :    0.021705
  58 C :    0.033727
  59 C :   -0.021104
  60 S :    0.050739
  61 C :   -0.014876
  62 C :    0.057366
  63 C :   -0.042423
  64 C :    0.050191
  65 C :   -0.003520
  66 C :    0.062763
  67 C :   -0.032028
  68 C :    0.065333
  69 C :   -0.027777
  70 C :    0.047851
  71 C :   -0.003681
  72 C :    0.062777
  73 C :   -0.037105
  74 C :    0.004365
  75 C :   -0.017304
  76 H :   -0.028698
  77 H :   -0.003566
  78 H :   -0.002525
  79 H :    0.044395
  80 H :    0.185073
  81 H :    0.014025
  82 H :   -0.004579
  83 H :   -0.019273
  84 H :   -0.031601
  85 H :   -0.034343
  86 H :   -0.029890
  87 H :    0.002002
  88 H :    0.007296
  89 H :    0.001973
  90 H :    0.013028
  91 H :    0.018557
  92 H :   -0.001731
  93 H :    0.005979
  94 H :    0.002034
  95 H :    0.009318
  96 H :    0.027374
  97 H :   -0.038542
  98 H :   -0.028645
  99 H :   -0.038503
 100 H :   -0.026947
 101 H :    0.000890
 102 H :   -0.021388
 103 H :   -0.015832
 104 H :   -0.015507
 105 H :   -0.018698
 106 H :   -0.015637
 107 H :   -0.027261
 108 H :   -0.012715
 109 H :   -0.026939
 110 H :   -0.024216
 111 H :   -0.030840
 112 H :   -0.026915
 113 H :   -0.024417
 114 H :   -0.020824
 115 H :    0.008736
 116 H :    0.018425
Sum of atomic charges:   -0.0000000

LOEWDIN ATOMIC CHARGES
----------------------
   0 C :    0.079029
   1 C :   -0.148763
   2 C :   -0.019983
   3 N :   -0.053661
   4 C :   -0.020563
   5 N :   -0.052948
   6 C :   -0.017826
   7 C :   -0.051013
   8 C :    0.023546
   9 C :   -0.033898
  10 C :   -0.143599
  11 C :   -0.007068
  12 S :    0.438229
  13 C :   -0.270981
  14 C :   -0.070080
  15 Br:    0.139573
  16 C :    0.099527
  17 O :   -0.177374
  18 C :   -0.149097
  19 C :    0.114582
  20 N :    0.083443
  21 C :   -0.120561
  22 S :    0.469954
  23 C :   -0.199652
  24 N :    0.273580
  25 O :   -0.214338
  26 O :   -0.223872
  27 C :    0.002877
  28 C :   -0.077801
  29 C :   -0.043674
  30 C :    0.002751
  31 C :   -0.032106
  32 C :   -0.016158
  33 C :    0.006513
  34 C :   -0.010837
  35 C :   -0.021723
  36 C :   -0.015958
  37 C :   -0.021675
  38 C :    0.004430
  39 C :   -0.031770
  40 C :   -0.014035
  41 C :   -0.059062
  42 C :   -0.015209
  43 C :   -0.060567
  44 C :   -0.024157
  45 C :   -0.023316
  46 C :   -0.014516
  47 C :   -0.017584
  48 C :   -0.022247
  49 C :   -0.029733
  50 C :   -0.060488
  51 C :   -0.143365
  52 C :   -0.039290
  53 C :   -0.031435
  54 C :   -0.183055
  55 S :    0.361378
  56 C :   -0.177474
  57 C :   -0.045423
  58 C :   -0.029529
  59 C :   -0.153480
  60 S :    0.381152
  61 C :   -0.048828
  62 C :   -0.068846
  63 C :   -0.004466
  64 C :   -0.057766
  65 C :    0.068005
  66 C :   -0.067000
  67 C :    0.038452
  68 C :   -0.061900
  69 C :    0.017798
  70 C :   -0.057012
  71 C :    0.071986
  72 C :   -0.066899
  73 C :    0.043839
  74 C :   -0.025295
  75 C :   -0.047496
  76 H :    0.040809
  77 H :    0.042381
  78 H :    0.039026
  79 H :    0.037492
  80 H :    0.083008
  81 H :    0.045738
  82 H :    0.027187
  83 H :    0.027719
  84 H :    0.023255
  85 H :    0.027045
  86 H :    0.025902
  87 H :    0.018522
  88 H :    0.028703
  89 H :    0.019230
  90 H :    0.028120
  91 H :    0.024126
  92 H :    0.018050
  93 H :    0.028314
  94 H :    0.020025
  95 H :    0.021721
  96 H :    0.023925
  97 H :    0.021677
  98 H :    0.026113
  99 H :    0.026098
 100 H :    0.024980
 101 H :    0.019568
 102 H :    0.030382
 103 H :    0.031960
 104 H :    0.031023
 105 H :    0.029689
 106 H :    0.031832
 107 H :    0.031938
 108 H :    0.011733
 109 H :    0.034196
 110 H :    0.024404
 111 H :    0.022376
 112 H :    0.033974
 113 H :    0.024390
 114 H :    0.026858
 115 H :    0.018776
 116 H :    0.023548

  Mayer bond orders larger than 0.100000
B(  0-C ,  1-C ) :   1.6260 B(  0-C ,  6-C ) :   1.0034 B(  0-C , 18-C ) :   1.0997
B(  1-C ,  2-C ) :   1.1433 B(  1-C ,  4-C ) :   1.1494 B(  2-C ,  3-N ) :   2.9683
B(  4-C ,  5-N ) :   2.9547 B(  6-C ,  7-C ) :   1.2710 B(  6-C , 11-C ) :   1.4274
B(  7-C ,  8-C ) :   1.4276 B(  7-C , 16-C ) :   0.9842 B(  8-C ,  9-C ) :   1.2417
B(  8-C , 76-H ) :   1.0198 B(  9-C , 10-C ) :   1.3099 B(  9-C , 14-C ) :   1.1643
B( 10-C , 11-C ) :   1.3176 B( 10-C , 12-S ) :   1.0902 B( 11-C , 77-H ) :   0.9800
B( 12-S , 13-C ) :   1.0889 B( 13-C , 14-C ) :   1.6163 B( 13-C , 15-Br) :   1.0212
B( 14-C , 78-H ) :   0.9999 B( 16-C , 17-O ) :   1.9890 B( 16-C , 18-C ) :   1.0201
B( 17-O , 80-H ) :   0.1493 B( 18-C , 19-C ) :   1.4323 B( 19-C , 20-N ) :   1.3575
B( 19-C , 79-H ) :   0.9339 B( 20-N , 21-C ) :   1.1896 B( 20-N , 80-H ) :   0.8170
B( 21-C , 22-S ) :   1.1297 B( 21-C , 28-C ) :   1.3771 B( 22-S , 23-C ) :   1.0867
B( 23-C , 24-N ) :   0.9659 B( 23-C , 27-C ) :   1.4936 B( 24-N , 25-O ) :   1.5344
B( 24-N , 26-O ) :   1.5157 B( 25-O , 26-O ) :   0.2623 B( 27-C , 28-C ) :   1.2257
B( 27-C , 81-H ) :   1.0015 B( 28-C , 29-C ) :   1.0603 B( 29-C , 30-C ) :   1.7473
B( 29-C , 82-H ) :   0.9588 B( 30-C , 31-C ) :   1.0516 B( 30-C , 83-H ) :   0.9824
B( 31-C , 32-C ) :   1.3029 B( 31-C , 36-C ) :   1.3371 B( 32-C , 33-C ) :   1.4122
B( 32-C , 84-H ) :   0.9887 B( 33-C , 34-C ) :   1.3751 B( 33-C , 39-C ) :   0.9299
B( 34-C , 35-C ) :   1.3399 B( 34-C , 37-C ) :   1.0039 B( 35-C , 36-C ) :   1.3758
B( 35-C , 85-H ) :   0.9921 B( 36-C , 86-H ) :   0.9936 B( 37-C , 38-C ) :   1.3882
B( 37-C , 47-C ) :   1.3217 B( 38-C , 39-C ) :   0.9307 B( 38-C , 44-C ) :   1.3827
B( 39-C , 40-C ) :   1.0105 B( 39-C , 42-C ) :   1.0078 B( 40-C , 41-C ) :   1.1114
B( 40-C , 87-H ) :   0.9396 B( 40-C , 88-H ) :   0.9375 B( 41-C , 89-H ) :   0.9620
B( 41-C , 90-H ) :   0.9604 B( 41-C , 91-H ) :   0.9608 B( 42-C , 43-C ) :   1.1073
B( 42-C , 92-H ) :   0.9379 B( 42-C , 93-H ) :   0.9378 B( 43-C , 94-H ) :   0.9573
B( 43-C , 95-H ) :   0.9575 B( 43-C , 96-H ) :   0.9609 B( 44-C , 45-C ) :   1.2841
B( 44-C , 97-H ) :   1.0021 B( 45-C , 46-C ) :   1.3378 B( 45-C , 48-C ) :   1.0646
B( 46-C , 47-C ) :   1.4033 B( 46-C , 98-H ) :   0.9848 B( 47-C , 99-H ) :   0.9907
B( 48-C , 49-C ) :   1.6515 B( 48-C ,100-H ) :   0.9874 B( 49-C , 50-C ) :   1.1502
B( 49-C ,101-H ) :   0.9635 B( 50-C , 51-C ) :   1.5610 B( 50-C ,102-H ) :   0.9855
B( 51-C , 52-C ) :   1.1433 B( 51-C , 55-S ) :   1.0315 B( 52-C , 53-C ) :   1.5834
B( 52-C ,103-H ) :   0.9991 B( 53-C , 54-C ) :   1.1960 B( 53-C ,104-H ) :   0.9937
B( 54-C , 55-S ) :   1.0402 B( 54-C , 56-C ) :   1.5006 B( 56-C , 57-C ) :   1.1907
B( 56-C , 60-S ) :   1.0422 B( 57-C , 58-C ) :   1.5840 B( 57-C ,105-H ) :   0.9936
B( 58-C , 59-C ) :   1.1458 B( 58-C ,106-H ) :   0.9990 B( 59-C , 60-S ) :   1.0287
B( 59-C , 61-C ) :   1.5718 B( 61-C , 62-C ) :   1.1367 B( 61-C ,107-H ) :   0.9691
B( 62-C , 63-C ) :   1.4359 B( 62-C , 73-C ) :   1.1280 B( 63-C , 64-C ) :   1.1401
B( 63-C ,108-H ) :   0.9950 B( 64-C , 65-C ) :   1.4259 B( 64-C , 72-C ) :   1.1320
B( 65-C , 66-C ) :   1.1430 B( 65-C ,109-H ) :   1.0053 B( 66-C , 67-C ) :   1.4042
B( 66-C , 70-C ) :   1.1274 B( 67-C , 68-C ) :   1.1550 B( 67-C ,110-H ) :   1.0136
B( 68-C , 69-C ) :   1.5047 B( 68-C , 74-C ) :   1.0729 B( 69-C , 70-C ) :   1.1048
B( 69-C ,111-H ) :   1.0112 B( 70-C , 71-C ) :   1.4568 B( 71-C , 72-C ) :   1.1207
B( 71-C ,112-H ) :   1.0054 B( 72-C , 73-C ) :   1.4277 B( 73-C ,113-H ) :   1.0163
B( 74-C , 75-C ) :   1.9482 B( 74-C ,114-H ) :   0.9659 B( 75-C ,115-H ) :   0.9530
B( 75-C ,116-H ) :   0.9485

-----------------------------------------------------------------------------
         ABSORPTION SPECTRUM VIA TRANSITION ELECTRIC DIPOLE MOMENTS
-----------------------------------------------------------------------------
State   Energy  Wavelength   fosc         T2         TX        TY        TZ
        (cm-1)    (nm)                  (au**2)     (au)      (au)      (au)
-----------------------------------------------------------------------------
   0    6193.0   1614.7   0.034595254   1.83905  -1.18597   0.44422  -0.48497
   1   13923.8    718.2   1.084545145  25.64275  -3.09032   3.09791  -2.54866
   2   14703.1    680.1   0.298833709   6.69106   1.24617  -1.80103   1.37638
   3   16366.1    611.0   0.061034972   1.22775  -0.74440  -0.38009  -0.72743
   4   19594.9    510.3   0.034535405   0.58022  -0.06865  -0.66464  -0.36573
   5   21048.7    475.1   0.594153100   9.29284  -0.89604   2.47645   1.53530
   6   22207.0    450.3   0.081707922   1.21129   1.01814   0.23009   0.34892
   7   22807.9    438.4   0.031016826   0.44770   0.15153  -0.29184   0.58273
   8   24045.2    415.9   0.024875058   0.34057   0.08026  -0.31807  -0.48266
   9   24567.4    407.0   2.019355589  27.06011  -3.93232  -2.77718   1.97085
  10   24937.3    401.0   0.099316465   1.31113  -0.92002  -0.53465   0.42290
  11   26154.0    382.4   0.222145421   2.79624  -0.83850   0.79409   1.20937
  12   26779.0    373.4   0.528108819   6.49240   2.11546   1.21534  -0.73495
  13   27900.0    358.4   0.028130964   0.33194  -0.55332  -0.14669   0.06525
  14   28092.3    356.0   0.017727313   0.20775   0.30936   0.28757  -0.17130
  15   28696.2    348.5   0.043205486   0.49567  -0.38749   0.43469   0.39569
  16   29117.3    343.4   0.025405720   0.28725   0.26724  -0.05335  -0.46150
  17   29313.1    341.1   0.048416335   0.54376  -0.46213   0.57222   0.05247
  18   29659.8    337.2   1.027826232  11.40845  -2.02388  -1.19275   2.42687
  19   29839.6    335.1   0.143486038   1.58304   0.67109   1.05792  -0.11614
  20   30469.2    328.2   0.050399127   0.54455   0.72165  -0.14395  -0.05520
  21   30652.3    326.2   0.053180396   0.57117  -0.44066  -0.05403   0.61161
  22   31294.4    319.5   0.018577825   0.19544  -0.08895  -0.02809   0.43213
  23   32293.5    309.7   0.002532173   0.02581  -0.08053  -0.02867   0.13604
  24   32351.1    309.1   0.154307902   1.57027  -0.74488  -0.32619   0.95343
  25   32458.3    308.1   0.051386186   0.52119  -0.48991  -0.52372   0.08306
  26   33148.2    301.7   0.006746931   0.06701   0.25276   0.05372  -0.01529
  27   33312.5    300.2   0.043017976   0.42513   0.42980   0.47536  -0.12013
  28   33809.0    295.8   0.065547830   0.63827  -0.59189  -0.33064   0.42262
  29   33921.1    294.8   0.089857788   0.87209   0.22862   0.58396  -0.69197
  30   33933.6    294.7   0.003794675   0.03681  -0.01385  -0.13934   0.13118
  31   34084.3    293.4   0.150222471   1.45096  -0.57830  -0.91034   0.53648
  32   34284.3    291.7   0.177635488   1.70573  -0.14263  -1.09516   0.69715
  33   34448.5    290.3   0.009326536   0.08913  -0.05682  -0.29101  -0.03483
  34   34807.9    287.3   0.006985716   0.06607  -0.17268  -0.18360   0.05044
  35   34924.6    286.3   0.189833990   1.78944  -0.73781  -1.01482   0.46391
  36   35459.5    282.0   0.002490527   0.02312   0.03901  -0.11150   0.09575
  37   35894.9    278.6   0.021851787   0.20041   0.07146   0.44078  -0.03197
  38   35945.4    278.2   0.010404800   0.09529   0.15353  -0.26780   0.00141
  39   36127.8    276.8   0.169796682   1.54726   0.53745   1.03434  -0.43422
  40   36241.0    275.9   0.212224774   1.92784  -0.71084  -1.07310   0.52058
  41   36496.2    274.0   0.004009684   0.03617  -0.09535  -0.12860   0.10266
  42   36870.0    271.2   0.155907487   1.39210   0.94810   0.70218   0.01175
  43   37063.0    269.8   0.250153220   2.22199   0.89305   0.80661  -0.87967
  44   37266.0    268.3   0.019699362   0.17403   0.21256  -0.26032   0.24714
  45   37395.9    267.4   0.008812523   0.07758  -0.20718   0.14082   0.12177
  46   37441.0    267.1   0.048583286   0.42718  -0.18872  -0.58770   0.21489
  47   37667.3    265.5   0.046398332   0.40552   0.16891   0.56103  -0.24947
  48   38168.0    262.0   0.091742947   0.79131   0.20498  -0.79621  -0.33964
  49   38527.2    259.6   0.119680314   1.02266   0.44775  -0.56054  -0.71272
  50   38684.3    258.5   0.004873906   0.04148   0.08165  -0.17603  -0.06186
  51   38894.5    257.1   0.037940518   0.32114  -0.14330   0.53038  -0.13891
  52   39121.3    255.6   0.038598741   0.32481   0.52994   0.06366  -0.19981
  53   39317.7    254.3   0.040073697   0.33554   0.57144  -0.08764  -0.03624
  54   39404.4    253.8   0.031839285   0.26601  -0.46117  -0.22820   0.03541
  55   39766.1    251.5   0.044568970   0.36897  -0.24937  -0.42761   0.35205
  56   40110.7    249.3   0.006925115   0.05684   0.12050  -0.20485  -0.01881
  57   40287.2    248.2   0.028157700   0.23009   0.47775  -0.02307  -0.03628
  58   40310.9    248.1   0.061225657   0.50002  -0.64966   0.27429  -0.05215

FINAL SINGLE POINT ENERGY     -7070.486337455060

DIPOLE MOMENT
-------------
                                X             Y             Z
Electronic contribution:     57.58972    -168.16035     -34.89879
Nuclear contribution   :    -55.48671     171.45960      32.15252
                        -----------------------------------------
Total Dipole Moment    :      2.10301       3.29925      -2.74627
                        -----------------------------------------
Magnitude (a.u.)       :      4.78014
Magnitude (Debye)      :     12.15014

Rotational constants in cm-1:     0.000649     0.000206     0.000186
Rotational constants in MHz :    19.466184     6.186019     5.562923

                             ****ORCA TERMINATED NORMALLY****
TOTAL RUN TIME: 0 days 0 hours 14 minutes 33 seconds 568 msec
