                         Program Version 4.2.0 -  RELEASE  -
|  1> # ORCA input file
|  2> # SCF done       -212.518827054269          0.000766426898
|  3> ! CAM-B3LYP def2-SVP def2/J RIJCOSX Grid4 TightSCF
|  4> %maxcore 5000
|  5> %tddft
|  6>     Mode sTDDFT
|  7>     Ethresh 5.0
|  8>     maxcore 5000
|  9> end
| 10>
| 11> %pal
| 12>   nprocs 6
| 13>   end
| 14> * xyz 0 1
| 15>    C      -14.86654        -8.30477        -8.64215
| 16>    C      -14.29479        -9.28947        -9.39920
| 17>    F      -15.05605       -10.04556       -10.20068
| 18>    C      -12.90511        -9.52256        -9.34877
| 19>    F      -12.38205       -10.49409       -10.10555
| 20>    C      -12.10324        -8.76639        -8.53972
| 21>    C      -12.66366        -7.74474        -7.74864
| 22>    C      -14.06815        -7.50789        -7.79860
| 23>    C      -14.64688        -6.48261        -7.01430
| 24>    C      -13.84752        -5.72285        -6.20310
| 25>    C      -12.44277        -5.97163        -6.15515
| 26>    C      -11.85480        -6.94953        -6.90685
| 27>    C      -11.82731        -5.02898        -5.22180
| 28>    O      -10.64288        -4.94471        -4.89913
| 29>    C      -12.91362        -4.17609        -4.72152
| 30>    C      -14.16151        -4.61051        -5.30973
| 31>    C      -15.40677        -4.08910        -5.07854
| 32>    C      -16.58990        -4.56169        -5.68346
| 33>    N      -17.58478        -4.90384        -6.14183
| 34>    C      -15.65923        -3.01635        -4.19918
| 35>    N      -15.90062        -2.14636        -3.49029
| 36>    C      -12.66686        -3.14177        -3.85531
| 37>    N      -11.41369        -2.90968        -3.44136
| 38>    C      -10.98717        -1.91377        -2.62829
| 39>    S      -12.08229        -0.73921        -1.97078
| 40>    C      -10.74216         0.03895        -1.19676
| 41>    N      -11.00505         1.17285        -0.41139
| 42>    O      -10.06051         1.70923         0.13334
| 43>    O      -12.16657         1.52753        -0.33761
| 44>    C       -9.53782        -0.56532        -1.43440
| 45>    C       -9.65267        -1.70191        -2.25907
| 46>    C       -8.56316        -2.55701        -2.65811
| 47>    C       -7.27085        -2.21519        -2.52345
| 48>    N       -6.22777        -3.04166        -2.85148
| 49>    C       -4.91823        -2.70832        -2.74319
| 50>    S       -4.46959        -1.10586        -2.24567
| 51>    C       -2.79712        -1.56481        -2.28526
| 52>    N       -1.85021        -0.59206        -1.95146
| 53>    O       -0.67693        -0.91295        -1.97352
| 54>    O       -2.28331         0.50996        -1.66027
| 55>    C       -2.60846        -2.86761        -2.65083
| 56>    C       -3.81072        -3.54504        -2.93917
| 57>    C       -3.78017        -4.92766        -3.34318
| 58>    C       -4.68626        -5.63483        -4.03797
| 59>    N       -4.46976        -6.96104        -4.33669
| 60>    C       -5.26436        -7.76504        -5.06845
| 61>    S       -6.75396        -7.19050        -5.73962
| 62>    C       -7.03938        -8.76842        -6.41834
| 63>    N       -8.20415        -8.94240        -7.15466
| 64>    O       -8.46197       -10.04817        -7.59110
| 65>    O       -8.90717        -7.94930        -7.30759
| 66>    C       -6.04843        -9.66833        -6.14270
| 67>    C       -5.01069        -9.12167        -5.36352
| 68>    C       -3.83821        -9.82214        -4.94291
| 69>    C       -3.58226       -11.13049        -5.18364
| 70>    C       -2.37498       -11.74670        -4.77432
| 71>    C       -1.91039       -12.97871        -5.11811
| 72>    C       -0.82595       -13.60292        -4.31002
| 73>    O       -0.12326       -13.04736        -3.49780
| 74>    C       -0.84729       -15.03301        -4.67255
| 75>    C       -0.12954       -16.06350        -4.13701
| 76>    C       -0.34176       -17.37331        -4.62174
| 77>    C       -1.30382       -17.59053        -5.65091
| 78>    C       -1.51899       -18.90121        -6.12236
| 79>    C       -0.80974       -19.94608        -5.59973
| 80>    C        0.14384       -19.72955        -4.58400
| 81>    C        0.37398       -18.47056        -4.10437
| 82>    F        0.82343       -20.77202        -4.09041
| 83>    F       -1.01480       -21.19003        -6.04851
| 84>    C       -2.02645       -16.50273        -6.19213
| 85>    C       -1.79544       -15.23967        -5.71595
| 86>    C       -2.35198       -13.94457        -6.10241
| 87>    C       -2.97570       -13.67703        -7.29258
| 88>    C       -3.25681       -12.37916        -7.76900
| 89>    N       -3.47287       -11.34480        -8.21749
| 90>    C       -3.31378       -14.67051        -8.23670
| 91>    N       -3.62061       -15.44284        -9.02759
| 92>    H      -15.93164        -8.14121        -8.69481
| 93>    H      -11.04131        -8.95189        -8.50786
| 94>    H      -15.71114        -6.32318        -7.07887
| 95>    H      -10.78840        -7.11062        -6.87468
| 96>    H      -13.44457        -2.48501        -3.48780
| 97>    H      -10.72517        -3.57449        -3.84495
| 98>    H       -8.62495        -0.19694        -1.00481
| 99>    H       -8.81344        -3.52081        -3.08008
|100>    H       -6.97769        -1.24619        -2.15014
|101>    H       -6.45079        -3.99425        -3.10756
|102>    H       -1.63082        -3.30902        -2.72246
|103>    H       -2.86032        -5.43139        -3.07147
|104>    H       -5.60173        -5.23055        -4.44154
|105>    H       -3.60376        -7.36003        -3.99419
|106>    H       -6.07574       -10.67383        -6.51870
|107>    H       -3.07511        -9.25171        -4.42767
|108>    H       -4.31551       -11.73712        -5.69047
|109>    H       -1.76318       -11.21267        -4.05386
|110>    H        0.58997       -15.88183        -3.35325
|111>    H       -2.24203       -19.08415        -6.90185
|112>    H        1.10670       -18.32155        -3.32679
|113>    H       -2.75301       -16.69793        -6.96458
|114> *
|115>
|116>                          ****END OF INPUT****

CARTESIAN COORDINATES (ANGSTROEM)
---------------------------------
  C    -14.866540   -8.304770   -8.642150
  C    -14.294790   -9.289470   -9.399200
  F    -15.056050  -10.045560  -10.200680
  C    -12.905110   -9.522560   -9.348770
  F    -12.382050  -10.494090  -10.105550
  C    -12.103240   -8.766390   -8.539720
  C    -12.663660   -7.744740   -7.748640
  C    -14.068150   -7.507890   -7.798600
  C    -14.646880   -6.482610   -7.014300
  C    -13.847520   -5.722850   -6.203100
  C    -12.442770   -5.971630   -6.155150
  C    -11.854800   -6.949530   -6.906850
  C    -11.827310   -5.028980   -5.221800
  O    -10.642880   -4.944710   -4.899130
  C    -12.913620   -4.176090   -4.721520
  C    -14.161510   -4.610510   -5.309730
  C    -15.406770   -4.089100   -5.078540
  C    -16.589900   -4.561690   -5.683460
  N    -17.584780   -4.903840   -6.141830
  C    -15.659230   -3.016350   -4.199180
  N    -15.900620   -2.146360   -3.490290
  C    -12.666860   -3.141770   -3.855310
  N    -11.413690   -2.909680   -3.441360
  C    -10.987170   -1.913770   -2.628290
  S    -12.082290   -0.739210   -1.970780
  C    -10.742160    0.038950   -1.196760
  N    -11.005050    1.172850   -0.411390
  O    -10.060510    1.709230    0.133340
  O    -12.166570    1.527530   -0.337610
  C     -9.537820   -0.565320   -1.434400
  C     -9.652670   -1.701910   -2.259070
  C     -8.563160   -2.557010   -2.658110
  C     -7.270850   -2.215190   -2.523450
  N     -6.227770   -3.041660   -2.851480
  C     -4.918230   -2.708320   -2.743190
  S     -4.469590   -1.105860   -2.245670
  C     -2.797120   -1.564810   -2.285260
  N     -1.850210   -0.592060   -1.951460
  O     -0.676930   -0.912950   -1.973520
  O     -2.283310    0.509960   -1.660270
  C     -2.608460   -2.867610   -2.650830
  C     -3.810720   -3.545040   -2.939170
  C     -3.780170   -4.927660   -3.343180
  C     -4.686260   -5.634830   -4.037970
  N     -4.469760   -6.961040   -4.336690
  C     -5.264360   -7.765040   -5.068450
  S     -6.753960   -7.190500   -5.739620
  C     -7.039380   -8.768420   -6.418340
  N     -8.204150   -8.942400   -7.154660
  O     -8.461970  -10.048170   -7.591100
  O     -8.907170   -7.949300   -7.307590
  C     -6.048430   -9.668330   -6.142700
  C     -5.010690   -9.121670   -5.363520
  C     -3.838210   -9.822140   -4.942910
  C     -3.582260  -11.130490   -5.183640
  C     -2.374980  -11.746700   -4.774320
  C     -1.910390  -12.978710   -5.118110
  C     -0.825950  -13.602920   -4.310020
  O     -0.123260  -13.047360   -3.497800
  C     -0.847290  -15.033010   -4.672550
  C     -0.129540  -16.063500   -4.137010
  C     -0.341760  -17.373310   -4.621740
  C     -1.303820  -17.590530   -5.650910
  C     -1.518990  -18.901210   -6.122360
  C     -0.809740  -19.946080   -5.599730
  C      0.143840  -19.729550   -4.584000
  C      0.373980  -18.470560   -4.104370
  F      0.823430  -20.772020   -4.090410
  F     -1.014800  -21.190030   -6.048510
  C     -2.026450  -16.502730   -6.192130
  C     -1.795440  -15.239670   -5.715950
  C     -2.351980  -13.944570   -6.102410
  C     -2.975700  -13.677030   -7.292580
  C     -3.256810  -12.379160   -7.769000
  N     -3.472870  -11.344800   -8.217490
  C     -3.313780  -14.670510   -8.236700
  N     -3.620610  -15.442840   -9.027590
  H    -15.931640   -8.141210   -8.694810
  H    -11.041310   -8.951890   -8.507860
  H    -15.711140   -6.323180   -7.078870
  H    -10.788400   -7.110620   -6.874680
  H    -13.444570   -2.485010   -3.487800
  H    -10.725170   -3.574490   -3.844950
  H     -8.624950   -0.196940   -1.004810
  H     -8.813440   -3.520810   -3.080080
  H     -6.977690   -1.246190   -2.150140
  H     -6.450790   -3.994250   -3.107560
  H     -1.630820   -3.309020   -2.722460
  H     -2.860320   -5.431390   -3.071470
  H     -5.601730   -5.230550   -4.441540
  H     -3.603760   -7.360030   -3.994190
  H     -6.075740  -10.673830   -6.518700
  H     -3.075110   -9.251710   -4.427670
  H     -4.315510  -11.737120   -5.690470
  H     -1.763180  -11.212670   -4.053860
  H      0.589970  -15.881830   -3.353250
  H     -2.242030  -19.084150   -6.901850
  H      1.106700  -18.321550   -3.326790
  H     -2.753010  -16.697930   -6.964580

 Total Charge           Charge          ....    0
 Multiplicity           Mult            ....    1
 Number of Electrons    NEL             ....  552
 Basis Dimension        Dim             .... 1200

ORBITAL ENERGIES
----------------

  NO   OCC          E(Eh)            E(eV)
   0   2.0000     -89.011563     -2422.1278
   1   2.0000     -89.000053     -2421.8146
   2   2.0000     -88.998379     -2421.7690
   3   2.0000     -24.805691      -674.9972
   4   2.0000     -24.804893      -674.9755
   5   2.0000     -24.795713      -674.7257
   6   2.0000     -24.793338      -674.6610
   7   2.0000     -19.264970      -524.2265
   8   2.0000     -19.264486      -524.2133
   9   2.0000     -19.246717      -523.7298
  10   2.0000     -19.246108      -523.7132
  11   2.0000     -19.245133      -523.6867
  12   2.0000     -19.244407      -523.6669
  13   2.0000     -19.239577      -523.5355
  14   2.0000     -19.227255      -523.2002
  15   2.0000     -14.674930      -399.3252
  16   2.0000     -14.658405      -398.8755
  17   2.0000     -14.657174      -398.8420
  18   2.0000     -14.516484      -395.0136
  19   2.0000     -14.505631      -394.7183
  20   2.0000     -14.502039      -394.6205
  21   2.0000     -14.429543      -392.6478
  22   2.0000     -14.427997      -392.6058
  23   2.0000     -14.423704      -392.4889
  24   2.0000     -14.417991      -392.3335
  25   2.0000     -10.404276      -283.1147
  26   2.0000     -10.389938      -282.7246
  27   2.0000     -10.389459      -282.7115
  28   2.0000     -10.388892      -282.6961
  29   2.0000     -10.385608      -282.6068
  30   2.0000     -10.380201      -282.4596
  31   2.0000     -10.379180      -282.4318
  32   2.0000     -10.378211      -282.4055
  33   2.0000     -10.377000      -282.3725
  34   2.0000     -10.376154      -282.3495
  35   2.0000     -10.365761      -282.0667
  36   2.0000     -10.365347      -282.0554
  37   2.0000     -10.358235      -281.8619
  38   2.0000     -10.356421      -281.8126
  39   2.0000     -10.355998      -281.8010
  40   2.0000     -10.355707      -281.7931
  41   2.0000     -10.352283      -281.7000
  42   2.0000     -10.349772      -281.6316
  43   2.0000     -10.345833      -281.5244
  44   2.0000     -10.335830      -281.2522
  45   2.0000     -10.335245      -281.2363
  46   2.0000     -10.332220      -281.1540
  47   2.0000     -10.330722      -281.1132
  48   2.0000     -10.330137      -281.0973
  49   2.0000     -10.326104      -280.9876
  50   2.0000     -10.325595      -280.9737
  51   2.0000     -10.325412      -280.9688
  52   2.0000     -10.323836      -280.9259
  53   2.0000     -10.321826      -280.8712
  54   2.0000     -10.321152      -280.8528
  55   2.0000     -10.320728      -280.8413
  56   2.0000     -10.320099      -280.8242
  57   2.0000     -10.319571      -280.8098
  58   2.0000     -10.319250      -280.8011
  59   2.0000     -10.318399      -280.7779
  60   2.0000     -10.312469      -280.6166
  61   2.0000     -10.312457      -280.6162
  62   2.0000     -10.312276      -280.6113
  63   2.0000     -10.312131      -280.6074
  64   2.0000     -10.310075      -280.5514
  65   2.0000     -10.309853      -280.5454
  66   2.0000     -10.309648      -280.5398
  67   2.0000     -10.309172      -280.5268
  68   2.0000     -10.308347      -280.5044
  69   2.0000     -10.307323      -280.4765
  70   2.0000     -10.305621      -280.4302
  71   2.0000     -10.303844      -280.3818
  72   2.0000     -10.303707      -280.3781
  73   2.0000     -10.299927      -280.2753
  74   2.0000     -10.298321      -280.2316
  75   2.0000     -10.296403      -280.1794
  76   2.0000     -10.294238      -280.1205
  77   2.0000      -8.107032      -220.6036
  78   2.0000      -8.095404      -220.2871
  79   2.0000      -8.093599      -220.2380
  80   2.0000      -6.076824      -165.3588
  81   2.0000      -6.072411      -165.2387
  82   2.0000      -6.068219      -165.1246
  83   2.0000      -6.065173      -165.0417
  84   2.0000      -6.063231      -164.9889
  85   2.0000      -6.060653      -164.9188
  86   2.0000      -6.058887      -164.8707
  87   2.0000      -6.056772      -164.8131
  88   2.0000      -6.055059      -164.7665
  89   2.0000      -1.343798       -36.5666
  90   2.0000      -1.328835       -36.1594
  91   2.0000      -1.328641       -36.1542
  92   2.0000      -1.326385       -36.0928
  93   2.0000      -1.317972       -35.8638
  94   2.0000      -1.313755       -35.7491
  95   2.0000      -1.302813       -35.4513
  96   2.0000      -1.161853       -31.6156
  97   2.0000      -1.154093       -31.4045
  98   2.0000      -1.148299       -31.2468
  99   2.0000      -1.145873       -31.1808
 100   2.0000      -1.142574       -31.0910
 101   2.0000      -1.123630       -30.5755
 102   2.0000      -1.111860       -30.2553
 103   2.0000      -1.110123       -30.2080
 104   2.0000      -1.032544       -28.0969
 105   2.0000      -1.031274       -28.0624
 106   2.0000      -1.025776       -27.9128
 107   2.0000      -1.020680       -27.7741
 108   2.0000      -1.017886       -27.6981
 109   2.0000      -1.014927       -27.6176
 110   2.0000      -1.007427       -27.4135
 111   2.0000      -1.007297       -27.4099
 112   2.0000      -0.999322       -27.1929
 113   2.0000      -0.991980       -26.9931
 114   2.0000      -0.982619       -26.7384
 115   2.0000      -0.958275       -26.0760
 116   2.0000      -0.945442       -25.7268
 117   2.0000      -0.939644       -25.5690
 118   2.0000      -0.935904       -25.4673
 119   2.0000      -0.931185       -25.3388
 120   2.0000      -0.920346       -25.0439
 121   2.0000      -0.912684       -24.8354
 122   2.0000      -0.908162       -24.7124
 123   2.0000      -0.901813       -24.5396
 124   2.0000      -0.898186       -24.4409
 125   2.0000      -0.892431       -24.2843
 126   2.0000      -0.891085       -24.2476
 127   2.0000      -0.888950       -24.1896
 128   2.0000      -0.870114       -23.6770
 129   2.0000      -0.866190       -23.5702
 130   2.0000      -0.858282       -23.3550
 131   2.0000      -0.856050       -23.2943
 132   2.0000      -0.849866       -23.1260
 133   2.0000      -0.840485       -22.8708
 134   2.0000      -0.818932       -22.2843
 135   2.0000      -0.817448       -22.2439
 136   2.0000      -0.802984       -21.8503
 137   2.0000      -0.791055       -21.5257
 138   2.0000      -0.778004       -21.1706
 139   2.0000      -0.773050       -21.0357
 140   2.0000      -0.770159       -20.9571
 141   2.0000      -0.761417       -20.7192
 142   2.0000      -0.755102       -20.5474
 143   2.0000      -0.746731       -20.3196
 144   2.0000      -0.743258       -20.2251
 145   2.0000      -0.739846       -20.1322
 146   2.0000      -0.730730       -19.8842
 147   2.0000      -0.727830       -19.8053
 148   2.0000      -0.719740       -19.5851
 149   2.0000      -0.715090       -19.4586
 150   2.0000      -0.707254       -19.2454
 151   2.0000      -0.698000       -18.9935
 152   2.0000      -0.694967       -18.9110
 153   2.0000      -0.690102       -18.7786
 154   2.0000      -0.686387       -18.6775
 155   2.0000      -0.679783       -18.4978
 156   2.0000      -0.666243       -18.1294
 157   2.0000      -0.664333       -18.0774
 158   2.0000      -0.663713       -18.0605
 159   2.0000      -0.661108       -17.9897
 160   2.0000      -0.656570       -17.8662
 161   2.0000      -0.654836       -17.8190
 162   2.0000      -0.652170       -17.7465
 163   2.0000      -0.650262       -17.6945
 164   2.0000      -0.643904       -17.5215
 165   2.0000      -0.641687       -17.4612
 166   2.0000      -0.640645       -17.4328
 167   2.0000      -0.639966       -17.4144
 168   2.0000      -0.638657       -17.3787
 169   2.0000      -0.637991       -17.3606
 170   2.0000      -0.632559       -17.2128
 171   2.0000      -0.628583       -17.1046
 172   2.0000      -0.625563       -17.0224
 173   2.0000      -0.618368       -16.8266
 174   2.0000      -0.615268       -16.7423
 175   2.0000      -0.609111       -16.5748
 176   2.0000      -0.606361       -16.4999
 177   2.0000      -0.603327       -16.4174
 178   2.0000      -0.601277       -16.3616
 179   2.0000      -0.600064       -16.3286
 180   2.0000      -0.593352       -16.1459
 181   2.0000      -0.592980       -16.1358
 182   2.0000      -0.589057       -16.0291
 183   2.0000      -0.585239       -15.9252
 184   2.0000      -0.582348       -15.8465
 185   2.0000      -0.581526       -15.8241
 186   2.0000      -0.577408       -15.7121
 187   2.0000      -0.573531       -15.6066
 188   2.0000      -0.569354       -15.4929
 189   2.0000      -0.568519       -15.4702
 190   2.0000      -0.565556       -15.3896
 191   2.0000      -0.562783       -15.3141
 192   2.0000      -0.562734       -15.3128
 193   2.0000      -0.557383       -15.1672
 194   2.0000      -0.554431       -15.0868
 195   2.0000      -0.553965       -15.0742
 196   2.0000      -0.549508       -14.9529
 197   2.0000      -0.548915       -14.9367
 198   2.0000      -0.548379       -14.9222
 199   2.0000      -0.547128       -14.8881
 200   2.0000      -0.543693       -14.7946
 201   2.0000      -0.541663       -14.7394
 202   2.0000      -0.540270       -14.7015
 203   2.0000      -0.538782       -14.6610
 204   2.0000      -0.536126       -14.5887
 205   2.0000      -0.531604       -14.4657
 206   2.0000      -0.528230       -14.3739
 207   2.0000      -0.527321       -14.3491
 208   2.0000      -0.525936       -14.3114
 209   2.0000      -0.520512       -14.1639
 210   2.0000      -0.516623       -14.0580
 211   2.0000      -0.511512       -13.9189
 212   2.0000      -0.510651       -13.8955
 213   2.0000      -0.509356       -13.8603
 214   2.0000      -0.508180       -13.8283
 215   2.0000      -0.506144       -13.7729
 216   2.0000      -0.504826       -13.7370
 217   2.0000      -0.503578       -13.7031
 218   2.0000      -0.499786       -13.5999
 219   2.0000      -0.497363       -13.5339
 220   2.0000      -0.493707       -13.4344
 221   2.0000      -0.491426       -13.3724
 222   2.0000      -0.486589       -13.2408
 223   2.0000      -0.480845       -13.0845
 224   2.0000      -0.476909       -12.9774
 225   2.0000      -0.473178       -12.8758
 226   2.0000      -0.470487       -12.8026
 227   2.0000      -0.470399       -12.8002
 228   2.0000      -0.469472       -12.7750
 229   2.0000      -0.464815       -12.6483
 230   2.0000      -0.463273       -12.6063
 231   2.0000      -0.462146       -12.5756
 232   2.0000      -0.461028       -12.5452
 233   2.0000      -0.458729       -12.4826
 234   2.0000      -0.455112       -12.3842
 235   2.0000      -0.454735       -12.3740
 236   2.0000      -0.452511       -12.3135
 237   2.0000      -0.448911       -12.2155
 238   2.0000      -0.446526       -12.1506
 239   2.0000      -0.440848       -11.9961
 240   2.0000      -0.437111       -11.8944
 241   2.0000      -0.436447       -11.8763
 242   2.0000      -0.432233       -11.7617
 243   2.0000      -0.432127       -11.7588
 244   2.0000      -0.432026       -11.7560
 245   2.0000      -0.420665       -11.4469
 246   2.0000      -0.416164       -11.3244
 247   2.0000      -0.411886       -11.2080
 248   2.0000      -0.410944       -11.1824
 249   2.0000      -0.406590       -11.0639
 250   2.0000      -0.405591       -11.0367
 251   2.0000      -0.402093       -10.9415
 252   2.0000      -0.396556       -10.7908
 253   2.0000      -0.393494       -10.7075
 254   2.0000      -0.393132       -10.6977
 255   2.0000      -0.392722       -10.6865
 256   2.0000      -0.392400       -10.6777
 257   2.0000      -0.385716       -10.4959
 258   2.0000      -0.385026       -10.4771
 259   2.0000      -0.383814       -10.4441
 260   2.0000      -0.375520       -10.2184
 261   2.0000      -0.374108       -10.1800
 262   2.0000      -0.371563       -10.1107
 263   2.0000      -0.361923        -9.8484
 264   2.0000      -0.358299        -9.7498
 265   2.0000      -0.352758        -9.5990
 266   2.0000      -0.349513        -9.5107
 267   2.0000      -0.345599        -9.4042
 268   2.0000      -0.328970        -8.9517
 269   2.0000      -0.325891        -8.8679
 270   2.0000      -0.320145        -8.7116
 271   2.0000      -0.311674        -8.4811
 272   2.0000      -0.307303        -8.3621
 273   2.0000      -0.298557        -8.1241
 274   2.0000      -0.283747        -7.7211
 275   2.0000      -0.264071        -7.1857
 276   0.0000      -0.109663        -2.9841
 277   0.0000      -0.095585        -2.6010
 278   0.0000      -0.082744        -2.2516
 279   0.0000      -0.072307        -1.9676
 280   0.0000      -0.070318        -1.9134

MULLIKEN ATOMIC CHARGES
-----------------------
   0 C :   -0.110883
   1 C :    0.239847
   2 F :   -0.170555
   3 C :    0.240914
   4 F :   -0.168500
   5 C :   -0.096799
   6 C :    0.103204
   7 C :    0.114557
   8 C :   -0.085863
   9 C :    0.040839
  10 C :    0.008628
  11 C :   -0.065076
  12 C :    0.179428
  13 O :   -0.239275
  14 C :   -0.137517
  15 C :    0.333755
  16 C :   -0.343469
  17 C :   -0.185354
  18 N :    0.156695
  19 C :   -0.198360
  20 N :    0.142145
  21 C :    0.027058
  22 N :   -0.015208
  23 C :   -0.117904
  24 S :    0.183995
  25 C :    0.004420
  26 N :    0.272871
  27 O :   -0.244244
  28 O :   -0.251409
  29 C :   -0.003054
  30 C :    0.114143
  31 C :   -0.046111
  32 C :    0.060010
  33 N :   -0.032145
  34 C :   -0.112191
  35 S :    0.147610
  36 C :    0.004867
  37 N :    0.277243
  38 O :   -0.251282
  39 O :   -0.264000
  40 C :    0.001880
  41 C :    0.100466
  42 C :   -0.028682
  43 C :    0.036171
  44 N :   -0.028603
  45 C :   -0.097060
  46 S :    0.153810
  47 C :   -0.010094
  48 N :    0.298463
  49 O :   -0.230662
  50 O :   -0.271986
  51 C :    0.042740
  52 C :    0.122494
  53 C :   -0.019893
  54 C :    0.019226
  55 C :    0.018360
  56 C :   -0.114222
  57 C :    0.144598
  58 O :   -0.141327
  59 C :    0.005569
  60 C :   -0.081084
  61 C :    0.113874
  62 C :    0.111605
  63 C :   -0.108521
  64 C :    0.243160
  65 C :    0.241777
  66 C :   -0.105390
  67 F :   -0.169501
  68 F :   -0.168108
  69 C :   -0.080706
  70 C :    0.040492
  71 C :    0.280851
  72 C :   -0.332689
  73 C :   -0.211484
  74 N :    0.165711
  75 C :   -0.176916
  76 N :    0.156896
  77 H :    0.006234
  78 H :   -0.009769
  79 H :   -0.005883
  80 H :   -0.028645
  81 H :    0.046443
  82 H :    0.177439
  83 H :    0.010790
  84 H :   -0.003615
  85 H :    0.035929
  86 H :    0.128339
  87 H :    0.009697
  88 H :   -0.003618
  89 H :    0.029538
  90 H :    0.141039
  91 H :    0.021205
  92 H :   -0.022751
  93 H :    0.017616
  94 H :    0.012950
  95 H :   -0.006960
  96 H :    0.009483
  97 H :    0.001610
  98 H :   -0.001321
Sum of atomic charges:   -0.0000000

LOEWDIN ATOMIC CHARGES
----------------------
   0 C :   -0.033650
   1 C :    0.069214
   2 F :   -0.048506
   3 C :    0.065688
   4 F :   -0.046641
   5 C :   -0.023641
   6 C :   -0.009931
   7 C :   -0.005970
   8 C :    0.017700
   9 C :   -0.023146
  10 C :   -0.062095
  11 C :    0.041659
  12 C :    0.100367
  13 O :   -0.187768
  14 C :   -0.142430
  15 C :    0.079004
  16 C :   -0.147973
  17 C :   -0.019674
  18 N :   -0.052354
  19 C :   -0.019996
  20 N :   -0.054790
  21 C :    0.110625
  22 N :    0.074258
  23 C :   -0.117186
  24 S :    0.477807
  25 C :   -0.198673
  26 N :    0.272432
  27 O :   -0.210627
  28 O :   -0.218619
  29 C :   -0.005336
  30 C :   -0.084471
  31 C :   -0.072688
  32 C :    0.026785
  33 N :    0.038439
  34 C :   -0.092551
  35 S :    0.462034
  36 C :   -0.215201
  37 N :    0.273593
  38 O :   -0.216929
  39 O :   -0.230068
  40 C :    0.002959
  41 C :   -0.114544
  42 C :   -0.049503
  43 C :   -0.005776
  44 N :    0.046447
  45 C :   -0.079150
  46 S :    0.455874
  47 C :   -0.212305
  48 N :    0.282421
  49 O :   -0.202501
  50 O :   -0.238588
  51 C :    0.032115
  52 C :   -0.116487
  53 C :    0.022839
  54 C :   -0.029193
  55 C :    0.064101
  56 C :   -0.092599
  57 C :    0.082547
  58 O :   -0.142789
  59 C :   -0.054989
  60 C :    0.031893
  61 C :   -0.008697
  62 C :   -0.005506
  63 C :   -0.029469
  64 C :    0.068100
  65 C :    0.068596
  66 C :   -0.032528
  67 F :   -0.047133
  68 F :   -0.046203
  69 C :    0.016217
  70 C :   -0.021531
  71 C :    0.070914
  72 C :   -0.137463
  73 C :   -0.022319
  74 N :   -0.051715
  75 C :   -0.019895
  76 N :   -0.044706
  77 H :    0.046859
  78 H :    0.040521
  79 H :    0.040225
  80 H :    0.033767
  81 H :    0.036052
  82 H :    0.080471
  83 H :    0.043577
  84 H :    0.030051
  85 H :    0.023989
  86 H :    0.090968
  87 H :    0.045723
  88 H :    0.035553
  89 H :    0.018060
  90 H :    0.097610
  91 H :    0.050486
  92 H :    0.026465
  93 H :    0.032712
  94 H :    0.043329
  95 H :    0.041381
  96 H :    0.048264
  97 H :    0.045471
  98 H :    0.040340

  Mayer bond orders larger than 0.100000
B(  0-C ,  1-C ) :   1.4365 B(  0-C ,  5-C ) :   0.1088 B(  0-C ,  7-C ) :   1.1950
B(  0-C , 77-H ) :   1.0062 B(  1-C ,  2-F ) :   1.1355 B(  1-C ,  3-C ) :   1.1902
B(  3-C ,  4-F ) :   1.1392 B(  3-C ,  5-C ) :   1.4278 B(  5-C ,  6-C ) :   1.2023
B(  5-C , 78-H ) :   0.9979 B(  6-C ,  7-C ) :   1.2466 B(  6-C , 11-C ) :   1.1982
B(  7-C ,  8-C ) :   1.2067 B(  8-C ,  9-C ) :   1.4679 B(  8-C , 79-H ) :   0.9893
B(  9-C , 10-C ) :   1.2058 B(  9-C , 15-C ) :   0.9916 B( 10-C , 11-C ) :   1.4504
B( 10-C , 12-C ) :   0.9946 B( 11-C , 80-H ) :   1.0058 B( 12-C , 13-O ) :   1.9946
B( 12-C , 14-C ) :   1.0084 B( 13-O , 82-H ) :   0.1564 B( 14-C , 15-C ) :   1.0901
B( 14-C , 21-C ) :   1.4636 B( 15-C , 16-C ) :   1.6304 B( 16-C , 17-C ) :   1.1462
B( 16-C , 19-C ) :   1.1469 B( 17-C , 18-N ) :   2.9661 B( 19-C , 20-N ) :   2.9529
B( 21-C , 22-N ) :   1.3313 B( 21-C , 81-H ) :   0.9297 B( 22-N , 23-C ) :   1.1923
B( 22-N , 82-H ) :   0.8186 B( 23-C , 24-S ) :   1.1342 B( 23-C , 30-C ) :   1.3923
B( 24-S , 25-C ) :   1.0896 B( 25-C , 26-N ) :   0.9604 B( 25-C , 29-C ) :   1.5100
B( 26-N , 27-O ) :   1.5368 B( 26-N , 28-O ) :   1.5197 B( 27-O , 28-O ) :   0.2638
B( 29-C , 30-C ) :   1.2199 B( 29-C , 83-H ) :   0.9952 B( 30-C , 31-C ) :   1.0909
B( 31-C , 32-C ) :   1.7348 B( 31-C , 84-H ) :   0.9576 B( 32-C , 33-N ) :   1.0988
B( 32-C , 85-H ) :   0.9571 B( 33-N , 34-C ) :   1.2344 B( 33-N , 86-H ) :   0.9116
B( 34-C , 35-S ) :   1.1411 B( 34-C , 41-C ) :   1.3579 B( 35-S , 36-C ) :   1.0647
B( 36-C , 37-N ) :   0.9753 B( 36-C , 40-C ) :   1.4947 B( 37-N , 38-O ) :   1.5331
B( 37-N , 39-O ) :   1.5091 B( 38-O , 39-O ) :   0.2570 B( 40-C , 41-C ) :   1.2226
B( 40-C , 87-H ) :   1.0064 B( 41-C , 42-C ) :   1.1148 B( 42-C , 43-C ) :   1.7077
B( 42-C , 88-H ) :   0.9541 B( 43-C , 44-N ) :   1.0810 B( 43-C , 89-H ) :   0.9558
B( 44-N , 45-C ) :   1.2868 B( 44-N , 90-H ) :   0.9131 B( 45-C , 46-S ) :   1.1423
B( 45-C , 52-C ) :   1.2968 B( 46-S , 47-C ) :   1.0486 B( 47-C , 48-N ) :   0.9964
B( 47-C , 51-C ) :   1.4904 B( 48-N , 49-O ) :   1.5361 B( 48-N , 50-O ) :   1.4281
B( 49-O , 50-O ) :   0.2356 B( 51-C , 52-C ) :   1.2422 B( 51-C , 91-H ) :   0.9938
B( 52-C , 53-C ) :   1.0761 B( 53-C , 54-C ) :   1.6858 B( 53-C , 92-H ) :   0.9773
B( 54-C , 55-C ) :   1.1288 B( 54-C , 93-H ) :   0.9577 B( 55-C , 56-C ) :   1.6190
B( 55-C , 94-H ) :   0.9526 B( 56-C , 57-C ) :   0.9386 B( 56-C , 71-C ) :   1.0343
B( 57-C , 58-O ) :   2.2679 B( 57-C , 59-C ) :   0.9225 B( 59-C , 60-C ) :   1.4731
B( 59-C , 70-C ) :   1.2198 B( 60-C , 61-C ) :   1.1954 B( 60-C , 95-H ) :   1.0170
B( 61-C , 62-C ) :   1.2561 B( 61-C , 66-C ) :   1.1919 B( 62-C , 63-C ) :   1.1902
B( 62-C , 69-C ) :   1.2148 B( 63-C , 64-C ) :   1.4413 B( 63-C , 66-C ) :   0.1080
B( 63-C , 96-H ) :   1.0074 B( 64-C , 65-C ) :   1.1882 B( 64-C , 68-F ) :   1.1380
B( 65-C , 66-C ) :   1.4434 B( 65-C , 67-F ) :   1.1361 B( 66-C , 97-H ) :   1.0079
B( 69-C , 70-C ) :   1.4542 B( 69-C , 98-H ) :   0.9938 B( 70-C , 71-C ) :   0.9996
B( 71-C , 72-C ) :   1.6479 B( 72-C , 73-C ) :   1.1588 B( 72-C , 75-C ) :   1.1302
B( 73-C , 74-N ) :   3.0054 B( 75-C , 76-N ) :   2.9845

-----------------------------------------------------------------------------
         ABSORPTION SPECTRUM VIA TRANSITION ELECTRIC DIPOLE MOMENTS
-----------------------------------------------------------------------------
State   Energy  Wavelength   fosc         T2         TX        TY        TZ
        (cm-1)    (nm)                  (au**2)     (au)      (au)      (au)
-----------------------------------------------------------------------------
   0   19779.0    505.6   0.874842075  14.56135  -2.14928   3.12454   0.42334
   1   21162.2    472.5   0.621696781   9.67151  -1.98934  -1.94073  -1.39556
   2   24017.8    416.4   0.666395231   9.13428   1.33971   2.09995   1.71163
   3   25715.8    388.9   0.171654958   2.19752  -0.14224   1.34264   0.61205
   4   26121.3    382.8   0.114589071   1.44419  -0.76831   0.78502   0.48747
   5   26417.9    378.5   0.615300867   7.66769   2.71779   0.50648   0.15752
   6   27100.4    369.0   0.077125026   0.93690   0.23327  -0.89983   0.26981
   7   27335.2    365.8   0.186571765   2.24698   0.93506   0.85302   0.80312
   8   28320.6    353.1   0.002514074   0.02922  -0.06040   0.09008   0.13214
   9   28712.7    348.3   0.223807916   2.56612  -1.08316  -0.60790  -1.01160
  10   29006.7    344.7   0.408165903   4.63248  -0.08228   1.83877   1.11563
  11   29336.4    340.9   0.027616999   0.30992   0.09714  -0.47907   0.26642
  12   29535.3    338.6   0.031650537   0.35279  -0.12426  -0.48186  -0.32428
  13   29760.9    336.0   0.175601980   1.94249   0.55503  -1.11738   0.62121
  14   30770.6    325.0   0.193301897   2.06812  -0.70388   1.25404   0.00767
  15   31052.0    322.0   0.024341145   0.25806   0.40215  -0.29864  -0.08457
  16   31661.0    315.8   0.073774379   0.76711  -0.40690   0.77125  -0.08195
  17   32117.0    311.4   0.018025220   0.18477   0.24774  -0.27747  -0.21541
  18   32461.3    308.1   0.317174906   3.21668  -0.60463   1.32442   1.04739
  19   33032.7    302.7   0.012344113   0.12302   0.04403  -0.09804  -0.33388
  20   33378.0    299.6   0.085119080   0.83954  -0.16423   0.87800   0.20417
  21   33495.6    298.5   0.315747187   3.10332   0.89593  -1.40088   0.58153
  22   33667.8    297.0   0.157131841   1.53647  -0.65248   0.88042   0.57932
  23   33693.2    296.8   0.511736926   5.00011   1.17014  -1.55922  -1.09532
  24   33770.8    296.1   0.030493056   0.29726  -0.36293   0.35010   0.20729
  25   34135.9    292.9   0.111007767   1.07058  -0.06951   0.77019   0.68742
  26   34443.1    290.3   0.103718727   0.99136  -0.17523   0.25931  -0.94520
  27   34469.8    290.1   0.590359474   5.63837  -1.10966   2.00865  -0.61019
  28   34953.8    286.1   0.066334183   0.62477   0.28141  -0.37292   0.63758
  29   35844.8    279.0   0.221878870   2.03782  -0.72846   1.17562   0.35368
  30   36018.5    277.6   0.019200265   0.17549  -0.28682   0.30073  -0.05276
  31   36405.3    274.7   0.089290440   0.80745  -0.48104  -0.55235  -0.52054
  32   36814.4    271.6   0.311101845   2.78202  -1.39039  -0.70142  -0.59736
  33   36837.0    271.5   0.005959067   0.05326  -0.17431  -0.13358  -0.07093
  34   37181.3    269.0   0.122882545   1.08803   0.97061   0.10743   0.36660
  35   37346.8    267.8   0.021163840   0.18656  -0.41775   0.08391   0.07075
  36   37577.0    266.1   0.000070951   0.00062  -0.00064   0.01473  -0.02011
  37   37665.4    265.5   0.032401151   0.28320   0.52321   0.07997  -0.05532
  38   37931.6    263.6   0.021509865   0.18669  -0.26974  -0.23475  -0.24252
  39   37961.3    263.4   0.000297019   0.00258  -0.00730  -0.03196   0.03875
  40   38232.0    261.6   0.064303972   0.55372  -0.44101  -0.51944  -0.29902
  41   38715.1    258.3   0.141324168   1.20174  -0.76711  -0.15265  -0.76810
  42   38803.4    257.7   0.017960411   0.15238   0.23770  -0.01994   0.30900
  43   39301.9    254.4   0.003835738   0.03213   0.08910  -0.15489   0.01413
  44   39724.3    251.7   0.051099561   0.42348  -0.58658   0.19763   0.20086
  45   39952.9    250.3   0.089558189   0.73796  -0.62281   0.56986  -0.15916

FINAL SINGLE POINT ENERGY     -4732.992353584368

DIPOLE MOMENT
-------------
                                X             Y             Z
Electronic contribution:    -13.16968     -24.32004     -13.62053
Nuclear contribution   :     16.12909      21.47021      14.62197
                        -----------------------------------------
Total Dipole Moment    :      2.95942      -2.84983       1.00144
                        -----------------------------------------
Magnitude (a.u.)       :      4.22878
Magnitude (Debye)      :     10.74870

Rotational constants in cm-1:     0.000782     0.000298     0.000227
Rotational constants in MHz :    23.431196     8.942379     6.799416

                             ****ORCA TERMINATED NORMALLY****
TOTAL RUN TIME: 0 days 0 hours 9 minutes 58 seconds 714 msec
