                         Program Version 4.2.0 -  RELEASE  -
|  1> # ORCA input file
|  2> # SCF done       -200.356536028614          0.000430832356
|  3> ! CAM-B3LYP def2-SVP def2/J RIJCOSX Grid4 TightSCF
|  4> %maxcore 5000
|  5> %tddft
|  6>     Mode sTDDFT
|  7>     Ethresh 5.0
|  8>     maxcore 5000
|  9> end
| 10>
| 11> %pal
| 12>   nprocs 6
| 13>   end
| 14> * xyz 0 1
| 15>    C        1.97625        -2.01877         3.25638
| 16>    O        1.80035        -3.02290         3.90808
| 17>    C        2.73802        -0.82750         3.69643
| 18>    C        2.69151         0.16647         2.70510
| 19>    C        3.34085         1.37523         2.91895
| 20>    C        4.02332         1.56535         4.11021
| 21>    C        4.05711         0.56634         5.07517
| 22>    C        3.41181        -0.64787         4.88685
| 23>   Br        5.00788         0.87359         6.69091
| 24>    C        1.90896        -0.33141         1.57875
| 25>    C        1.72186         0.32949         0.39375
| 26>    C        2.22556         1.61945         0.12012
| 27>    N        2.59924         2.66724        -0.16246
| 28>    C        1.02531        -0.16782        -0.72897
| 29>    N        0.48967        -0.49296        -1.69154
| 30>    C        1.43278        -1.66496         1.91962
| 31>    C        0.49894        -2.35470         1.20665
| 32>    C        0.00687        -3.69006         1.38155
| 33>    C       -1.29586        -3.96016         0.91503
| 34>    C       -1.83565        -5.20976         1.07791
| 35>    C       -1.05053        -6.24479         1.62424
| 36>    C        0.25732        -6.00705         2.02966
| 37>    C        0.77322        -4.73413         1.92130
| 38>    C       -1.82727        -7.45920         1.62765
| 39>    C       -3.09770        -7.18481         1.08681
| 40>    C       -3.20248        -5.72885         0.67612
| 41>    C       -4.34779        -5.08692         1.48679
| 42>    C       -4.57442        -3.59656         1.26859
| 43>    C       -3.33984        -5.55492        -0.85177
| 44>    C       -4.62661        -6.08196        -1.47306
| 45>    C       -4.05195        -8.17068         1.05202
| 46>    C       -3.75216        -9.46566         1.51623
| 47>    C       -2.46360        -9.72556         2.01338
| 48>    C       -1.50968        -8.73528         2.07943
| 49>    C       -4.78927       -10.45586         1.48053
| 50>    C       -4.72027       -11.73105         1.94587
| 51>    C       -5.80971       -12.62117         1.91284
| 52>    C       -5.78735       -13.89293         2.42157
| 53>    C       -6.86245       -14.81604         2.46669
| 54>    C       -6.56513       -15.99713         3.07167
| 55>    C       -5.23025       -16.08396         3.53353
| 56>    S       -4.36377       -14.60951         3.16626
| 57>    C       -4.63510       -17.13668         4.19617
| 58>    C       -5.22174       -18.35338         4.61210
| 59>    C       -4.37739       -19.18739         5.27641
| 60>    C       -3.05844       -18.68371         5.41671
| 61>    S       -2.94682       -17.08969         4.66808
| 62>    C       -2.00222       -19.29368         6.02543
| 63>    N       -0.76068       -18.73905         6.07054
| 64>    C        0.32777       -19.24696         6.67532
| 65>    S        0.23730       -20.71840         7.59084
| 66>    C        1.93774       -20.58405         7.93966
| 67>    N        2.49745       -21.58186         8.74079
| 68>    O        3.67880       -21.49543         9.02042
| 69>    O        1.74143       -22.46807         9.10881
| 70>    C        2.52843       -19.48813         7.37977
| 71>    C        1.62680       -18.69009         6.64444
| 72>    C        1.95980       -17.50059         5.93745
| 73>    C        3.21860       -17.01729         5.76506
| 74>    C        3.47787       -15.84658         5.02276
| 75>    C        4.69279       -15.37773         4.60970
| 76>    C        4.83611       -13.96256         4.19089
| 77>    O        3.94662       -13.17733         3.95289
| 78>    C        6.29572       -13.71095         4.17811
| 79>    C        6.98033       -14.90806         4.45866
| 80>    C        6.00246       -15.98826         4.59049
| 81>    C        6.28540       -17.32536         4.47365
| 82>    C        7.59446       -17.84478         4.39784
| 83>    N        8.63952       -18.31693         4.34971
| 84>    C        5.31020       -18.32803         4.29059
| 85>    N        4.55968       -19.17159         4.08273
| 86>    C        8.36487       -14.90673         4.53411
| 87>    C        9.04367       -13.71657         4.31838
| 88>    C        8.34954       -12.55013         4.02614
| 89>    C        6.96295       -12.52488         3.95372
| 90>   Br        9.32307       -10.94629         3.72413
| 91>    H        3.32374         2.16607         2.18746
| 92>    H        4.53332         2.49884         4.29215
| 93>    H        3.43148        -1.42762         5.63244
| 94>    H        0.01274        -1.81480         0.40161
| 95>    H       -1.85450        -3.16278         0.44852
| 96>    H        0.86407        -6.80897         2.42101
| 97>    H        1.79071        -4.54778         2.21925
| 98>    H       -4.13666        -5.25950         2.54581
| 99>    H       -5.26811        -5.62325         1.25002
|100>    H       -3.73277        -3.01536         1.63408
|101>    H       -5.45882        -3.28449         1.82049
|102>    H       -4.73529        -3.36700         0.21875
|103>    H       -2.49092        -6.06367        -1.31668
|104>    H       -3.24356        -4.49267        -1.08117
|105>    H       -4.69520        -7.16138        -1.37217
|106>    H       -4.63400        -5.84439        -2.53478
|107>    H       -5.50325        -5.62589        -1.02079
|108>    H       -5.04909        -7.97066         0.68910
|109>    H       -2.21697       -10.71613         2.36132
|110>    H       -0.53121        -8.94472         2.48428
|111>    H       -5.73046       -10.12973         1.05304
|112>    H       -3.80703       -12.10652         2.38693
|113>    H       -6.73926       -12.27849         1.47675
|114>    H       -7.82505       -14.56900         2.05479
|115>    H       -7.26201       -16.80607         3.19708
|116>    H       -6.25507       -18.57439         4.41523
|117>    H       -4.65107       -20.14952         5.66966
|118>    H       -2.12022       -20.25862         6.49388
|119>    H       -0.65241       -17.85550         5.58256
|120>    H        3.57487       -19.28238         7.50564
|121>    H        1.15127       -16.96227         5.45788
|122>    H        4.05472       -17.53693         6.20560
|123>    H        2.63631       -15.19803         4.80146
|124>    H        8.92025       -15.80128         4.76444
|125>    H       10.12109       -13.69594         4.37623
|126>    H        6.42090       -11.61907         3.73077
|127> *
|128>
|129>                          ****END OF INPUT****

CARTESIAN COORDINATES (ANGSTROEM)
---------------------------------
  C      1.976250   -2.018770    3.256380
  O      1.800350   -3.022900    3.908080
  C      2.738020   -0.827500    3.696430
  C      2.691510    0.166470    2.705100
  C      3.340850    1.375230    2.918950
  C      4.023320    1.565350    4.110210
  C      4.057110    0.566340    5.075170
  C      3.411810   -0.647870    4.886850
  Br     5.007880    0.873590    6.690910
  C      1.908960   -0.331410    1.578750
  C      1.721860    0.329490    0.393750
  C      2.225560    1.619450    0.120120
  N      2.599240    2.667240   -0.162460
  C      1.025310   -0.167820   -0.728970
  N      0.489670   -0.492960   -1.691540
  C      1.432780   -1.664960    1.919620
  C      0.498940   -2.354700    1.206650
  C      0.006870   -3.690060    1.381550
  C     -1.295860   -3.960160    0.915030
  C     -1.835650   -5.209760    1.077910
  C     -1.050530   -6.244790    1.624240
  C      0.257320   -6.007050    2.029660
  C      0.773220   -4.734130    1.921300
  C     -1.827270   -7.459200    1.627650
  C     -3.097700   -7.184810    1.086810
  C     -3.202480   -5.728850    0.676120
  C     -4.347790   -5.086920    1.486790
  C     -4.574420   -3.596560    1.268590
  C     -3.339840   -5.554920   -0.851770
  C     -4.626610   -6.081960   -1.473060
  C     -4.051950   -8.170680    1.052020
  C     -3.752160   -9.465660    1.516230
  C     -2.463600   -9.725560    2.013380
  C     -1.509680   -8.735280    2.079430
  C     -4.789270  -10.455860    1.480530
  C     -4.720270  -11.731050    1.945870
  C     -5.809710  -12.621170    1.912840
  C     -5.787350  -13.892930    2.421570
  C     -6.862450  -14.816040    2.466690
  C     -6.565130  -15.997130    3.071670
  C     -5.230250  -16.083960    3.533530
  S     -4.363770  -14.609510    3.166260
  C     -4.635100  -17.136680    4.196170
  C     -5.221740  -18.353380    4.612100
  C     -4.377390  -19.187390    5.276410
  C     -3.058440  -18.683710    5.416710
  S     -2.946820  -17.089690    4.668080
  C     -2.002220  -19.293680    6.025430
  N     -0.760680  -18.739050    6.070540
  C      0.327770  -19.246960    6.675320
  S      0.237300  -20.718400    7.590840
  C      1.937740  -20.584050    7.939660
  N      2.497450  -21.581860    8.740790
  O      3.678800  -21.495430    9.020420
  O      1.741430  -22.468070    9.108810
  C      2.528430  -19.488130    7.379770
  C      1.626800  -18.690090    6.644440
  C      1.959800  -17.500590    5.937450
  C      3.218600  -17.017290    5.765060
  C      3.477870  -15.846580    5.022760
  C      4.692790  -15.377730    4.609700
  C      4.836110  -13.962560    4.190890
  O      3.946620  -13.177330    3.952890
  C      6.295720  -13.710950    4.178110
  C      6.980330  -14.908060    4.458660
  C      6.002460  -15.988260    4.590490
  C      6.285400  -17.325360    4.473650
  C      7.594460  -17.844780    4.397840
  N      8.639520  -18.316930    4.349710
  C      5.310200  -18.328030    4.290590
  N      4.559680  -19.171590    4.082730
  C      8.364870  -14.906730    4.534110
  C      9.043670  -13.716570    4.318380
  C      8.349540  -12.550130    4.026140
  C      6.962950  -12.524880    3.953720
  Br     9.323070  -10.946290    3.724130
  H      3.323740    2.166070    2.187460
  H      4.533320    2.498840    4.292150
  H      3.431480   -1.427620    5.632440
  H      0.012740   -1.814800    0.401610
  H     -1.854500   -3.162780    0.448520
  H      0.864070   -6.808970    2.421010
  H      1.790710   -4.547780    2.219250
  H     -4.136660   -5.259500    2.545810
  H     -5.268110   -5.623250    1.250020
  H     -3.732770   -3.015360    1.634080
  H     -5.458820   -3.284490    1.820490
  H     -4.735290   -3.367000    0.218750
  H     -2.490920   -6.063670   -1.316680
  H     -3.243560   -4.492670   -1.081170
  H     -4.695200   -7.161380   -1.372170
  H     -4.634000   -5.844390   -2.534780
  H     -5.503250   -5.625890   -1.020790
  H     -5.049090   -7.970660    0.689100
  H     -2.216970  -10.716130    2.361320
  H     -0.531210   -8.944720    2.484280
  H     -5.730460  -10.129730    1.053040
  H     -3.807030  -12.106520    2.386930
  H     -6.739260  -12.278490    1.476750
  H     -7.825050  -14.569000    2.054790
  H     -7.262010  -16.806070    3.197080
  H     -6.255070  -18.574390    4.415230
  H     -4.651070  -20.149520    5.669660
  H     -2.120220  -20.258620    6.493880
  H     -0.652410  -17.855500    5.582560
  H      3.574870  -19.282380    7.505640
  H      1.151270  -16.962270    5.457880
  H      4.054720  -17.536930    6.205600
  H      2.636310  -15.198030    4.801460
  H      8.920250  -15.801280    4.764440
  H     10.121090  -13.695940    4.376230
  H      6.420900  -11.619070    3.730770

 Total Charge           Charge          ....    0
 Multiplicity           Mult            ....    1
 Number of Electrons    NEL             ....  594
 Basis Dimension        Dim             .... 1292

ORBITAL ENERGIES
----------------

  NO   OCC          E(Eh)            E(eV)
   0   2.0000    -482.873336    -13139.6515
   1   2.0000    -482.872566    -13139.6305
   2   2.0000     -88.991690     -2421.5870
   3   2.0000     -88.961589     -2420.7679
   4   2.0000     -88.952718     -2420.5265
   5   2.0000     -62.551071     -1702.1012
   6   2.0000     -62.550277     -1702.0796
   7   2.0000     -56.384909     -1534.3114
   8   2.0000     -56.384115     -1534.2898
   9   2.0000     -56.382383     -1534.2427
  10   2.0000     -56.382373     -1534.2424
  11   2.0000     -56.381590     -1534.2211
  12   2.0000     -56.381585     -1534.2209
  13   2.0000     -19.237428      -523.4770
  14   2.0000     -19.237055      -523.4669
  15   2.0000     -19.220983      -523.0295
  16   2.0000     -19.219241      -522.9821
  17   2.0000     -14.649104      -398.6224
  18   2.0000     -14.503334      -394.6558
  19   2.0000     -14.418414      -392.3450
  20   2.0000     -14.417321      -392.3152
  21   2.0000     -14.416854      -392.3026
  22   2.0000     -14.416814      -392.3014
  23   2.0000     -10.384288      -282.5708
  24   2.0000     -10.373059      -282.2653
  25   2.0000     -10.369884      -282.1789
  26   2.0000     -10.347028      -281.5569
  27   2.0000     -10.346389      -281.5396
  28   2.0000     -10.345937      -281.5272
  29   2.0000     -10.345583      -281.5176
  30   2.0000     -10.345416      -281.5131
  31   2.0000     -10.344720      -281.4941
  32   2.0000     -10.344006      -281.4747
  33   2.0000     -10.343277      -281.4549
  34   2.0000     -10.324271      -280.9377
  35   2.0000     -10.322524      -280.8902
  36   2.0000     -10.321722      -280.8683
  37   2.0000     -10.321231      -280.8550
  38   2.0000     -10.320730      -280.8413
  39   2.0000     -10.319707      -280.8135
  40   2.0000     -10.319694      -280.8132
  41   2.0000     -10.319379      -280.8046
  42   2.0000     -10.318879      -280.7910
  43   2.0000     -10.318557      -280.7822
  44   2.0000     -10.316454      -280.7250
  45   2.0000     -10.313769      -280.6519
  46   2.0000     -10.311928      -280.6018
  47   2.0000     -10.311595      -280.5928
  48   2.0000     -10.308609      -280.5115
  49   2.0000     -10.305558      -280.4285
  50   2.0000     -10.305385      -280.4238
  51   2.0000     -10.305012      -280.4136
  52   2.0000     -10.304662      -280.4041
  53   2.0000     -10.303952      -280.3848
  54   2.0000     -10.303424      -280.3704
  55   2.0000     -10.300408      -280.2884
  56   2.0000     -10.300170      -280.2819
  57   2.0000     -10.299884      -280.2741
  58   2.0000     -10.299652      -280.2678
  59   2.0000     -10.299089      -280.2525
  60   2.0000     -10.296736      -280.1884
  61   2.0000     -10.296676      -280.1868
  62   2.0000     -10.296155      -280.1726
  63   2.0000     -10.293783      -280.1081
  64   2.0000     -10.290094      -280.0077
  65   2.0000     -10.287985      -279.9503
  66   2.0000     -10.287504      -279.9372
  67   2.0000     -10.286247      -279.9030
  68   2.0000     -10.286233      -279.9026
  69   2.0000     -10.285206      -279.8747
  70   2.0000     -10.283470      -279.8274
  71   2.0000     -10.282596      -279.8036
  72   2.0000     -10.281474      -279.7731
  73   2.0000     -10.279325      -279.7147
  74   2.0000     -10.278100      -279.6813
  75   2.0000     -10.277700      -279.6704
  76   2.0000     -10.277408      -279.6625
  77   2.0000     -10.277339      -279.6606
  78   2.0000     -10.276785      -279.6455
  79   2.0000     -10.276368      -279.6342
  80   2.0000     -10.270203      -279.4664
  81   2.0000     -10.269516      -279.4477
  82   2.0000     -10.259012      -279.1619
  83   2.0000     -10.258231      -279.1407
  84   2.0000      -8.780370      -238.9260
  85   2.0000      -8.779555      -238.9038
  86   2.0000      -8.087158      -220.0628
  87   2.0000      -8.058035      -219.2703
  88   2.0000      -8.048968      -219.0235
  89   2.0000      -6.616230      -180.0368
  90   2.0000      -6.615413      -180.0146
  91   2.0000      -6.602459      -179.6621
  92   2.0000      -6.602049      -179.6509
  93   2.0000      -6.601656      -179.6402
  94   2.0000      -6.601224      -179.6284
  95   2.0000      -6.056963      -164.8184
  96   2.0000      -6.052502      -164.6969
  97   2.0000      -6.048344      -164.5838
  98   2.0000      -6.027886      -164.0271
  99   2.0000      -6.023987      -163.9210
 100   2.0000      -6.018690      -163.7769
 101   2.0000      -6.018633      -163.7753
 102   2.0000      -6.014814      -163.6714
 103   2.0000      -6.009783      -163.5345
 104   2.0000      -2.732134       -74.3452
 105   2.0000      -2.731314       -74.3228
 106   2.0000      -2.728436       -74.2445
 107   2.0000      -2.728043       -74.2338
 108   2.0000      -2.727564       -74.2208
 109   2.0000      -2.727287       -74.2133
 110   2.0000      -2.717140       -73.9371
 111   2.0000      -2.717130       -73.9369
 112   2.0000      -2.716328       -73.9150
 113   2.0000      -2.716315       -73.9147
 114   2.0000      -1.317816       -35.8596
 115   2.0000      -1.137229       -30.9456
 116   2.0000      -1.137026       -30.9401
 117   2.0000      -1.133780       -30.8517
 118   2.0000      -1.109553       -30.1925
 119   2.0000      -1.021937       -27.8083
 120   2.0000      -1.021638       -27.8002
 121   2.0000      -1.014057       -27.5939
 122   2.0000      -1.003573       -27.3086
 123   2.0000      -1.003483       -27.3062
 124   2.0000      -1.002655       -27.2836
 125   2.0000      -0.996264       -27.1097
 126   2.0000      -0.995682       -27.0939
 127   2.0000      -0.995538       -27.0900
 128   2.0000      -0.982329       -26.7305
 129   2.0000      -0.967291       -26.3213
 130   2.0000      -0.966422       -26.2977
 131   2.0000      -0.954974       -25.9862
 132   2.0000      -0.939114       -25.5546
 133   2.0000      -0.931125       -25.3372
 134   2.0000      -0.914698       -24.8902
 135   2.0000      -0.912268       -24.8241
 136   2.0000      -0.911536       -24.8042
 137   2.0000      -0.907299       -24.6889
 138   2.0000      -0.902905       -24.5693
 139   2.0000      -0.895583       -24.3701
 140   2.0000      -0.888741       -24.1839
 141   2.0000      -0.881020       -23.9738
 142   2.0000      -0.875653       -23.8277
 143   2.0000      -0.867805       -23.6142
 144   2.0000      -0.858765       -23.3682
 145   2.0000      -0.857826       -23.3426
 146   2.0000      -0.855955       -23.2917
 147   2.0000      -0.846612       -23.0375
 148   2.0000      -0.842771       -22.9330
 149   2.0000      -0.839294       -22.8383
 150   2.0000      -0.838308       -22.8115
 151   2.0000      -0.834503       -22.7080
 152   2.0000      -0.833602       -22.6835
 153   2.0000      -0.818473       -22.2718
 154   2.0000      -0.800909       -21.7939
 155   2.0000      -0.787362       -21.4252
 156   2.0000      -0.776873       -21.1398
 157   2.0000      -0.774322       -21.0704
 158   2.0000      -0.770171       -20.9574
 159   2.0000      -0.768919       -20.9233
 160   2.0000      -0.760959       -20.7067
 161   2.0000      -0.742352       -20.2004
 162   2.0000      -0.736459       -20.0401
 163   2.0000      -0.724098       -19.7037
 164   2.0000      -0.714270       -19.4363
 165   2.0000      -0.713779       -19.4229
 166   2.0000      -0.706914       -19.2361
 167   2.0000      -0.703833       -19.1523
 168   2.0000      -0.699721       -19.0404
 169   2.0000      -0.697941       -18.9919
 170   2.0000      -0.689791       -18.7702
 171   2.0000      -0.685637       -18.6571
 172   2.0000      -0.684306       -18.6209
 173   2.0000      -0.672908       -18.3108
 174   2.0000      -0.668331       -18.1862
 175   2.0000      -0.666029       -18.1236
 176   2.0000      -0.663912       -18.0660
 177   2.0000      -0.653242       -17.7756
 178   2.0000      -0.650518       -17.7015
 179   2.0000      -0.638667       -17.3790
 180   2.0000      -0.634904       -17.2766
 181   2.0000      -0.630774       -17.1642
 182   2.0000      -0.630284       -17.1509
 183   2.0000      -0.625287       -17.0149
 184   2.0000      -0.622615       -16.9422
 185   2.0000      -0.618356       -16.8263
 186   2.0000      -0.617686       -16.8081
 187   2.0000      -0.615826       -16.7575
 188   2.0000      -0.611365       -16.6361
 189   2.0000      -0.601442       -16.3661
 190   2.0000      -0.598133       -16.2760
 191   2.0000      -0.591833       -16.1046
 192   2.0000      -0.589389       -16.0381
 193   2.0000      -0.587991       -16.0000
 194   2.0000      -0.583708       -15.8835
 195   2.0000      -0.579935       -15.7808
 196   2.0000      -0.572322       -15.5737
 197   2.0000      -0.569236       -15.4897
 198   2.0000      -0.563489       -15.3333
 199   2.0000      -0.556499       -15.1431
 200   2.0000      -0.553602       -15.0643
 201   2.0000      -0.552209       -15.0264
 202   2.0000      -0.551038       -14.9945
 203   2.0000      -0.548370       -14.9219
 204   2.0000      -0.546572       -14.8730
 205   2.0000      -0.545257       -14.8372
 206   2.0000      -0.542228       -14.7548
 207   2.0000      -0.539158       -14.6712
 208   2.0000      -0.538387       -14.6502
 209   2.0000      -0.537192       -14.6177
 210   2.0000      -0.534162       -14.5353
 211   2.0000      -0.531125       -14.4526
 212   2.0000      -0.529846       -14.4179
 213   2.0000      -0.525786       -14.3074
 214   2.0000      -0.523001       -14.2316
 215   2.0000      -0.519131       -14.1263
 216   2.0000      -0.518177       -14.1003
 217   2.0000      -0.514782       -14.0079
 218   2.0000      -0.511166       -13.9095
 219   2.0000      -0.507916       -13.8211
 220   2.0000      -0.504439       -13.7265
 221   2.0000      -0.502825       -13.6826
 222   2.0000      -0.501079       -13.6351
 223   2.0000      -0.500010       -13.6060
 224   2.0000      -0.498727       -13.5710
 225   2.0000      -0.495461       -13.4822
 226   2.0000      -0.494741       -13.4626
 227   2.0000      -0.493322       -13.4240
 228   2.0000      -0.490335       -13.3427
 229   2.0000      -0.486152       -13.2289
 230   2.0000      -0.485102       -13.2003
 231   2.0000      -0.480706       -13.0807
 232   2.0000      -0.478963       -13.0333
 233   2.0000      -0.477482       -12.9929
 234   2.0000      -0.475958       -12.9515
 235   2.0000      -0.470397       -12.8001
 236   2.0000      -0.468355       -12.7446
 237   2.0000      -0.467130       -12.7112
 238   2.0000      -0.464643       -12.6436
 239   2.0000      -0.462538       -12.5863
 240   2.0000      -0.458811       -12.4849
 241   2.0000      -0.458285       -12.4706
 242   2.0000      -0.456865       -12.4319
 243   2.0000      -0.455749       -12.4016
 244   2.0000      -0.454595       -12.3702
 245   2.0000      -0.450728       -12.2649
 246   2.0000      -0.450246       -12.2518
 247   2.0000      -0.449424       -12.2295
 248   2.0000      -0.446778       -12.1575
 249   2.0000      -0.445527       -12.1234
 250   2.0000      -0.444525       -12.0962
 251   2.0000      -0.444134       -12.0855
 252   2.0000      -0.441327       -12.0091
 253   2.0000      -0.440929       -11.9983
 254   2.0000      -0.436746       -11.8845
 255   2.0000      -0.434990       -11.8367
 256   2.0000      -0.430720       -11.7205
 257   2.0000      -0.429371       -11.6838
 258   2.0000      -0.428355       -11.6561
 259   2.0000      -0.426431       -11.6038
 260   2.0000      -0.425151       -11.5689
 261   2.0000      -0.424253       -11.5445
 262   2.0000      -0.423946       -11.5362
 263   2.0000      -0.418021       -11.3749
 264   2.0000      -0.417693       -11.3660
 265   2.0000      -0.410030       -11.1575
 266   2.0000      -0.409645       -11.1470
 267   2.0000      -0.406949       -11.0736
 268   2.0000      -0.402583       -10.9548
 269   2.0000      -0.397825       -10.8254
 270   2.0000      -0.389444       -10.5973
 271   2.0000      -0.385563       -10.4917
 272   2.0000      -0.385239       -10.4829
 273   2.0000      -0.383338       -10.4312
 274   2.0000      -0.382176       -10.3995
 275   2.0000      -0.376550       -10.2464
 276   2.0000      -0.368002       -10.0138
 277   2.0000      -0.367522       -10.0008
 278   2.0000      -0.366158        -9.9637
 279   2.0000      -0.364301        -9.9131
 280   2.0000      -0.357473        -9.7273
 281   2.0000      -0.352301        -9.5866
 282   2.0000      -0.351925        -9.5764
 283   2.0000      -0.351311        -9.5597
 284   2.0000      -0.346034        -9.4161
 285   2.0000      -0.342271        -9.3137
 286   2.0000      -0.340348        -9.2613
 287   2.0000      -0.334287        -9.0964
 288   2.0000      -0.328376        -8.9356
 289   2.0000      -0.324966        -8.8428
 290   2.0000      -0.320382        -8.7180
 291   2.0000      -0.312720        -8.5095
 292   2.0000      -0.309680        -8.4268
 293   2.0000      -0.301932        -8.2160
 294   2.0000      -0.281974        -7.6729
 295   2.0000      -0.264350        -7.1933
 296   2.0000      -0.216727        -5.8974
 297   0.0000      -0.098124        -2.6701
 298   0.0000      -0.091017        -2.4767
 299   0.0000      -0.080472        -2.1898
 300   0.0000      -0.065376        -1.7790
 301   0.0000      -0.064277        -1.7491

MULLIKEN ATOMIC CHARGES
-----------------------
   0 C :    0.142587
   1 O :   -0.136661
   2 C :   -0.028672
   3 C :    0.037336
   4 C :   -0.032499
   5 C :    0.052884
   6 C :   -0.001662
   7 C :   -0.015435
   8 Br:   -0.019551
   9 C :    0.303163
  10 C :   -0.348826
  11 C :   -0.189331
  12 N :    0.156209
  13 C :   -0.199643
  14 N :    0.160976
  15 C :   -0.067053
  16 C :   -0.040594
  17 C :    0.084513
  18 C :   -0.110960
  19 C :    0.042194
  20 C :    0.105480
  21 C :   -0.065011
  22 C :    0.062735
  23 C :    0.087148
  24 C :    0.047891
  25 C :   -0.122252
  26 C :    0.052492
  27 C :    0.030575
  28 C :    0.053246
  29 C :    0.029647
  30 C :   -0.122951
  31 C :    0.136553
  32 C :   -0.010165
  33 C :   -0.037777
  34 C :   -0.011750
  35 C :    0.021701
  36 C :   -0.011654
  37 C :   -0.021021
  38 C :    0.043471
  39 C :    0.021569
  40 C :   -0.040388
  41 S :    0.062248
  42 C :   -0.050459
  43 C :    0.032626
  44 C :    0.036402
  45 C :   -0.034993
  46 S :    0.032139
  47 C :    0.016903
  48 N :   -0.015830
  49 C :   -0.101790
  50 S :    0.155863
  51 C :   -0.002944
  52 N :    0.279385
  53 O :   -0.247116
  54 O :   -0.268472
  55 C :    0.028346
  56 C :    0.128160
  57 C :   -0.020114
  58 C :    0.007892
  59 C :    0.027602
  60 C :   -0.117497
  61 C :    0.144289
  62 O :   -0.143622
  63 C :   -0.013793
  64 C :    0.021184
  65 C :    0.274742
  66 C :   -0.328356
  67 C :   -0.178121
  68 N :    0.152724
  69 C :   -0.218344
  70 N :    0.169146
  71 C :   -0.022885
  72 C :    0.045790
  73 C :   -0.004324
  74 C :   -0.012522
  75 Br:   -0.020905
  76 H :    0.010165
  77 H :    0.005426
  78 H :    0.003811
  79 H :    0.024193
  80 H :   -0.020324
  81 H :   -0.027037
  82 H :   -0.012685
  83 H :    0.009315
  84 H :    0.002870
  85 H :    0.017011
  86 H :    0.014898
  87 H :    0.008151
  88 H :    0.009335
  89 H :    0.008192
  90 H :    0.018185
  91 H :    0.018392
  92 H :    0.004196
  93 H :   -0.033481
  94 H :   -0.028621
  95 H :   -0.028825
  96 H :   -0.026169
  97 H :    0.000474
  98 H :   -0.015634
  99 H :   -0.010599
 100 H :   -0.011242
 101 H :   -0.009378
 102 H :   -0.008196
 103 H :    0.027783
 104 H :    0.151495
 105 H :    0.015721
 106 H :   -0.018903
 107 H :    0.017771
 108 H :    0.012017
 109 H :    0.010277
 110 H :    0.007735
 111 H :    0.001814
Sum of atomic charges:   -0.0000000

LOEWDIN ATOMIC CHARGES
----------------------
   0 C :    0.082510
   1 O :   -0.129490
   2 C :   -0.037226
   3 C :   -0.017139
   4 C :    0.008309
   5 C :   -0.013169
   6 C :   -0.097685
   7 C :   -0.000525
   8 Br:    0.115600
   9 C :    0.076377
  10 C :   -0.137862
  11 C :   -0.018495
  12 N :   -0.050975
  13 C :   -0.024371
  14 N :   -0.049026
  15 C :   -0.101686
  16 C :    0.086826
  17 C :   -0.046229
  18 C :    0.002405
  19 C :   -0.001946
  20 C :    0.010190
  21 C :   -0.022737
  22 C :    0.027434
  23 C :   -0.020963
  24 C :    0.009526
  25 C :   -0.032553
  26 C :   -0.014343
  27 C :   -0.058376
  28 C :   -0.013516
  29 C :   -0.058903
  30 C :   -0.020211
  31 C :   -0.021614
  32 C :   -0.010993
  33 C :   -0.009973
  34 C :   -0.010723
  35 C :   -0.030097
  36 C :   -0.046931
  37 C :   -0.147250
  38 C :   -0.028009
  39 C :   -0.034124
  40 C :   -0.175621
  41 S :    0.362447
  42 C :   -0.179637
  43 C :   -0.031452
  44 C :   -0.034210
  45 C :   -0.173151
  46 S :    0.336982
  47 C :   -0.024353
  48 N :    0.059457
  49 C :   -0.083789
  50 S :    0.455592
  51 C :   -0.206016
  52 N :    0.274127
  53 O :   -0.213385
  54 O :   -0.234840
  55 C :    0.021257
  56 C :   -0.115512
  57 C :    0.031310
  58 C :   -0.037496
  59 C :    0.067889
  60 C :   -0.102634
  61 C :    0.083101
  62 O :   -0.143323
  63 C :   -0.039412
  64 C :   -0.013338
  65 C :    0.069733
  66 C :   -0.138659
  67 C :   -0.020586
  68 N :   -0.047845
  69 C :   -0.024084
  70 N :   -0.049403
  71 C :    0.006216
  72 C :   -0.012643
  73 C :   -0.099039
  74 C :   -0.000296
  75 Br:    0.114208
  76 H :    0.043104
  77 H :    0.040457
  78 H :    0.043877
  79 H :    0.045449
  80 H :    0.028519
  81 H :    0.030506
  82 H :    0.031630
  83 H :    0.028924
  84 H :    0.019161
  85 H :    0.023271
  86 H :    0.029432
  87 H :    0.021529
  88 H :    0.029308
  89 H :    0.020777
  90 H :    0.023704
  91 H :    0.030319
  92 H :    0.020145
  93 H :    0.023461
  94 H :    0.027130
  95 H :    0.030046
  96 H :    0.027091
  97 H :    0.020473
  98 H :    0.033460
  99 H :    0.034732
 100 H :    0.032352
 101 H :    0.034420
 102 H :    0.035154
 103 H :    0.031021
 104 H :    0.087883
 105 H :    0.047951
 106 H :    0.028328
 107 H :    0.032100
 108 H :    0.043373
 109 H :    0.042949
 110 H :    0.040767
 111 H :    0.043565

  Mayer bond orders larger than 0.100000
B(  0-C ,  1-O ) :   2.2339 B(  0-C ,  2-C ) :   0.9385 B(  0-C , 15-C ) :   0.9394
B(  2-C ,  3-C ) :   1.3302 B(  2-C ,  7-C ) :   1.3810 B(  3-C ,  4-C ) :   1.3579
B(  3-C ,  9-C ) :   0.9966 B(  4-C ,  5-C ) :   1.3893 B(  4-C , 76-H ) :   0.9831
B(  5-C ,  6-C ) :   1.3847 B(  5-C , 77-H ) :   0.9836 B(  6-C ,  7-C ) :   1.3396
B(  6-C ,  8-Br) :   0.9918 B(  7-C , 78-H ) :   1.0065 B(  9-C , 10-C ) :   1.6398
B(  9-C , 15-C ) :   1.0624 B( 10-C , 11-C ) :   1.1439 B( 10-C , 13-C ) :   1.1401
B( 11-C , 12-N ) :   2.9768 B( 13-C , 14-N ) :   2.9852 B( 15-C , 16-C ) :   1.5866
B( 16-C , 17-C ) :   1.1083 B( 16-C , 79-H ) :   0.9505 B( 17-C , 18-C ) :   1.2449
B( 17-C , 22-C ) :   1.3399 B( 18-C , 19-C ) :   1.4018 B( 18-C , 80-H ) :   1.0021
B( 19-C , 20-C ) :   1.3714 B( 19-C , 25-C ) :   0.9293 B( 20-C , 21-C ) :   1.3192
B( 20-C , 23-C ) :   1.0128 B( 21-C , 22-C ) :   1.4122 B( 21-C , 81-H ) :   0.9931
B( 22-C , 82-H ) :   0.9771 B( 23-C , 24-C ) :   1.3844 B( 23-C , 33-C ) :   1.3123
B( 24-C , 25-C ) :   0.9296 B( 24-C , 30-C ) :   1.3839 B( 25-C , 26-C ) :   1.0082
B( 25-C , 28-C ) :   1.0054 B( 26-C , 27-C ) :   1.1130 B( 26-C , 83-H ) :   0.9387
B( 26-C , 84-H ) :   0.9392 B( 27-C , 85-H ) :   0.9611 B( 27-C , 86-H ) :   0.9598
B( 27-C , 87-H ) :   0.9624 B( 28-C , 29-C ) :   1.1134 B( 28-C , 88-H ) :   0.9378
B( 28-C , 89-H ) :   0.9399 B( 29-C , 90-H ) :   0.9608 B( 29-C , 91-H ) :   0.9603
B( 29-C , 92-H ) :   0.9620 B( 30-C , 31-C ) :   1.2799 B( 30-C , 93-H ) :   1.0027
B( 31-C , 32-C ) :   1.3283 B( 31-C , 34-C ) :   1.0753 B( 32-C , 33-C ) :   1.4160
B( 32-C , 94-H ) :   0.9854 B( 33-C , 95-H ) :   0.9903 B( 34-C , 35-C ) :   1.6463
B( 34-C , 96-H ) :   0.9894 B( 35-C , 36-C ) :   1.1493 B( 35-C , 97-H ) :   0.9623
B( 36-C , 37-C ) :   1.5707 B( 36-C , 98-H ) :   0.9851 B( 37-C , 38-C ) :   1.1368
B( 37-C , 41-S ) :   1.0241 B( 38-C , 39-C ) :   1.5993 B( 38-C , 99-H ) :   0.9988
B( 39-C , 40-C ) :   1.1809 B( 39-C ,100-H ) :   0.9939 B( 40-C , 41-S ) :   1.0452
B( 40-C , 42-C ) :   1.5265 B( 42-C , 43-C ) :   1.1851 B( 42-C , 46-S ) :   1.0344
B( 43-C , 44-C ) :   1.6152 B( 43-C ,101-H ) :   0.9917 B( 44-C , 45-C ) :   1.1496
B( 44-C ,102-H ) :   0.9950 B( 45-C , 46-S ) :   1.0144 B( 45-C , 47-C ) :   1.6188
B( 47-C , 48-N ) :   1.1163 B( 47-C ,103-H ) :   0.9575 B( 48-N , 49-C ) :   1.2912
B( 48-N ,104-H ) :   0.9024 B( 49-C , 50-S ) :   1.1385 B( 49-C , 56-C ) :   1.2911
B( 50-S , 51-C ) :   1.0471 B( 51-C , 52-N ) :   0.9762 B( 51-C , 55-C ) :   1.5251
B( 52-N , 53-O ) :   1.5325 B( 52-N , 54-O ) :   1.5021 B( 53-O , 54-O ) :   0.2571
B( 55-C , 56-C ) :   1.2134 B( 55-C ,105-H ) :   0.9963 B( 56-C , 57-C ) :   1.0972
B( 57-C , 58-C ) :   1.6504 B( 57-C ,106-H ) :   0.9787 B( 58-C , 59-C ) :   1.1501
B( 58-C ,107-H ) :   0.9594 B( 59-C , 60-C ) :   1.5840 B( 59-C ,108-H ) :   0.9561
B( 60-C , 61-C ) :   0.9520 B( 60-C , 65-C ) :   1.0510 B( 61-C , 62-O ) :   2.2635
B( 61-C , 63-C ) :   0.9201 B( 63-C , 64-C ) :   1.3328 B( 63-C , 74-C ) :   1.3845
B( 64-C , 65-C ) :   1.0044 B( 64-C , 71-C ) :   1.3712 B( 65-C , 66-C ) :   1.6410
B( 66-C , 67-C ) :   1.1271 B( 66-C , 69-C ) :   1.1576 B( 67-C , 68-N ) :   2.9892
B( 69-C , 70-N ) :   3.0151 B( 71-C , 72-C ) :   1.3784 B( 71-C ,109-H ) :   0.9855
B( 72-C , 73-C ) :   1.3916 B( 72-C ,110-H ) :   0.9858 B( 73-C , 74-C ) :   1.3400
B( 73-C , 75-Br) :   0.9917 B( 74-C ,111-H ) :   1.0071

-----------------------------------------------------------------------------
         ABSORPTION SPECTRUM VIA TRANSITION ELECTRIC DIPOLE MOMENTS
-----------------------------------------------------------------------------
State   Energy  Wavelength   fosc         T2         TX        TY        TZ
        (cm-1)    (nm)                  (au**2)     (au)      (au)      (au)
-----------------------------------------------------------------------------
   0   12732.2    785.4   0.734110070  18.98163   2.87248  -3.02666   1.25290
   1   16267.2    614.7   1.291377695  26.13457  -0.72209  -4.71823   1.83069
   2   19348.3    516.8   0.376807781   6.41139  -2.25823  -0.55481  -1.00199
   3   21768.0    459.4   0.099920737   1.51117  -1.19953  -0.23130   0.13713
   4   22297.3    448.5   0.553391262   8.17062  -1.73431  -2.07235   0.93175
   5   23365.2    428.0   0.682763228   9.62001   2.43624   1.85381  -0.49811
   6   24209.7    413.1   0.481374183   6.54589   1.51469   1.90675   0.78478
   7   24820.6    402.9   0.061946872   0.82164   0.31860   0.67216  -0.51802
   8   26406.6    378.7   0.080674800   1.00577  -0.71897   0.38872  -0.58116
   9   28266.2    353.8   0.097883959   1.14004   0.96881   0.32154  -0.31315
  10   28671.1    348.8   0.015003153   0.17227  -0.04991  -0.40252  -0.08809
  11   28855.8    346.6   0.012711137   0.14502   0.06080  -0.20995   0.31184
  12   29283.9    341.5   0.080213934   0.90177  -0.68324  -0.53748  -0.38219
  13   29872.0    334.8   0.000726874   0.00801   0.03137  -0.08251   0.01479
  14   30330.4    329.7   0.239469357   2.59925   0.24005   1.49174  -0.56244
  15   30622.7    326.6   0.128527240   1.38174   0.87794   0.62468   0.46983
  16   31180.0    320.7   0.147294060   1.55519  -1.00691  -0.67377   0.29556
  17   31473.5    317.7   0.209532941   2.19171   0.75648   0.33361   1.22807
  18   31489.7    317.6   0.152506474   1.59439   0.44500   1.15164  -0.26477
  19   32340.3    309.2   0.038436941   0.39127  -0.58811  -0.17298   0.12443
  20   32619.6    306.6   0.021326798   0.21524  -0.44890  -0.09512  -0.06842
  21   32839.8    304.5   0.177951919   1.78393   0.74824   0.80681   0.75705
  22   33122.0    301.9   0.118003840   1.17288   0.04104  -0.81021   0.71746
  23   33681.1    296.9   0.025939262   0.25354   0.21873   0.43267   0.13598
  24   33807.2    295.8   0.006941973   0.06760   0.24016   0.07720   0.06297
  25   34154.8    292.8   0.069476006   0.66967   0.24873  -0.76154   0.16688
  26   34408.5    290.6   0.065592742   0.62757  -0.45080   0.59090  -0.27421
  27   34511.9    289.8   0.036542346   0.34858  -0.20869  -0.45450   0.31378
  28   35132.6    284.6   0.036050342   0.33781  -0.23844  -0.46685   0.25101
  29   35566.8    281.2   0.263260214   2.43678  -0.72950  -1.37044   0.16278
  30   35834.0    279.1   0.618508427   5.68232   0.73355  -0.40574   2.23150
  31   35985.4    277.9   0.602232243   5.50952  -0.22191  -2.30282   0.39662
  32   36369.8    275.0   0.024574949   0.22245  -0.06261  -0.22230   0.41123
  33   36583.5    273.3   0.049489231   0.44535  -0.38308  -0.43150  -0.33526
  34   37278.3    268.3   0.064112743   0.56619  -0.08033   0.40738  -0.62752
  35   37760.4    264.8   0.015805817   0.13780   0.27509   0.08138   0.23559
  36   38123.8    262.3   0.023217638   0.20049   0.31603  -0.30913   0.07111
  37   38253.1    261.4   0.027930684   0.24038   0.41854   0.10884   0.23098
  38   38765.7    258.0   0.063975296   0.54330  -0.47440  -0.55619  -0.09432
  39   38841.8    257.5   0.016155089   0.13693   0.07426  -0.32436   0.16186
  40   39074.0    255.9   0.022098507   0.18619  -0.23758   0.28753  -0.21696
  41   39562.2    252.8   0.004562376   0.03797  -0.15156  -0.02557  -0.11975
  42   39642.1    252.3   0.004870863   0.04045   0.07733  -0.13444   0.12805
  43   39889.2    250.7   0.000429988   0.00355  -0.05058   0.02963  -0.01061
  44   40097.4    249.4   0.040416909   0.33184   0.08945   0.56796   0.03541
  45   40223.7    248.6   0.002330873   0.01908  -0.00767   0.12981  -0.04655

FINAL SINGLE POINT ENERGY     -9313.717042185002

DIPOLE MOMENT
-------------
                                X             Y             Z
Electronic contribution:    194.54864      71.29020      67.77475
Nuclear contribution   :   -198.60945     -70.89346     -67.23986
                        -----------------------------------------
Total Dipole Moment    :     -4.06081       0.39674       0.53489
                        -----------------------------------------
Magnitude (a.u.)       :      4.11505
Magnitude (Debye)      :     10.45964

Rotational constants in cm-1:     0.000580     0.000235     0.000181
Rotational constants in MHz :    17.392569     7.041606     5.413412

                             ****ORCA TERMINATED NORMALLY****
TOTAL RUN TIME: 0 days 0 hours 11 minutes 48 seconds 896 msec
