                         Program Version 4.2.0 -  RELEASE  -
|  1> # ORCA input file
|  2> # SCF done       -177.638219097023          0.000588149054
|  3> ! CAM-B3LYP def2-SVP def2/J RIJCOSX Grid4 TightSCF
|  4> %maxcore 5000
|  5> %tddft
|  6>     Mode sTDDFT
|  7>     Ethresh 5.0
|  8>     maxcore 5000
|  9> end
| 10>
| 11> %pal
| 12>   nprocs 6
| 13>   end
| 14> * xyz 0 1
| 15>    C       14.15983        -8.29584         1.16333
| 16>    C       13.39167        -7.26507         0.78758
| 17>    C       13.81660        -5.95977         0.36641
| 18>    C       12.80985        -5.11901         0.04664
| 19>    C       11.50790        -5.68017         0.18216
| 20>    S       11.62329        -7.34158         0.74157
| 21>    C       10.30569        -5.07475        -0.07235
| 22>    C       10.06826        -3.75025        -0.52654
| 23>    C        8.75843        -3.45110        -0.69285
| 24>    C        7.85146        -4.51293        -0.39074
| 25>    S        8.77955        -5.91383         0.14179
| 26>    C        6.50123        -4.42836        -0.54402
| 27>    C        5.48010        -5.41006        -0.33014
| 28>    C        5.71357        -6.64891         0.29027
| 29>    C        4.68548        -7.54649         0.42407
| 30>    C        3.39951        -7.25127        -0.05842
| 31>    C        3.14619        -6.02312        -0.65620
| 32>    C        4.17829        -5.11910        -0.77883
| 33>    C        2.53577        -8.37605         0.22088
| 34>    C        3.28224        -9.36327         0.89092
| 35>    C        4.72940        -8.94066         1.01268
| 36>    C        5.21978        -8.94001         2.46728
| 37>    C        4.39375        -8.01533         3.35433
| 38>    C        5.65363        -9.77943         0.09840
| 39>    C        5.71945       -11.27029         0.40192
| 40>    C        2.67036       -10.50710         1.34435
| 41>    C        1.30945       -10.72002         1.08191
| 42>    C        0.59667        -9.75092         0.36559
| 43>    C        1.18930        -8.57510        -0.04720
| 44>    C        0.61749       -11.91930         1.50857
| 45>    C        1.01398       -12.76404         2.47251
| 46>    C        0.30094       -13.95817         2.88307
| 47>    C        0.52043       -14.47293         4.16901
| 48>    C       -0.16609       -15.58780         4.58417
| 49>    C       -1.06669       -16.23389         3.72083
| 50>    C       -1.27392       -15.74937         2.43794
| 51>    C       -0.59483       -14.61743         2.03359
| 52>    C       -1.63839       -17.36798         4.41506
| 53>    C       -1.09970       -17.41673         5.71177
| 54>    C       -0.11631       -16.28856         5.92240
| 55>    C       -0.57122       -15.35313         7.05808
| 56>    C       -1.96613       -14.78307         6.83051
| 57>    C        1.29379       -16.82501         6.22901
| 58>    C        1.81979       -17.75556         5.14283
| 59>    C       -1.48890       -18.39569         6.59151
| 60>    C       -2.42734       -19.36306         6.19532
| 61>    C       -2.94927       -19.30198         4.89615
| 62>    C       -2.56550       -18.31707         4.00911
| 63>    C       -2.82266       -20.36916         7.15401
| 64>    C       -3.62401       -21.42467         6.91987
| 65>    C       -4.02653       -22.41261         7.88613
| 66>    C       -4.79226       -23.52394         7.44189
| 67>    N       -5.19284       -23.74798         6.19206
| 68>    S       -6.03618       -25.11496         6.15251
| 69>    N       -5.93289       -25.49557         7.71151
| 70>    C       -5.22618       -24.55852         8.34557
| 71>    C       -4.91861       -24.48194         9.72970
| 72>    C       -4.18521       -23.37613        10.12429
| 73>    C       -3.75028       -22.38527         9.24257
| 74>    C       -5.34648       -25.50592        10.67412
| 75>    C       -5.50586       -25.22966        12.05985
| 76>    N       -5.33249       -24.07026        12.69503
| 77>    S       -5.66970       -24.26945        14.25541
| 78>    N       -6.05114       -25.82760        14.21874
| 79>    C       -5.93512       -26.26767        12.96479
| 80>    C       -6.18660       -27.56925        12.50421
| 81>    C       -6.02152       -27.80762        11.16760
| 82>    C       -5.61686       -26.80056        10.27634
| 83>    H       15.23173        -8.20690         1.17314
| 84>    H       13.73649        -9.23799         1.45961
| 85>    H       14.86273        -5.71262         0.32393
| 86>    H       12.94843        -4.10544        -0.28663
| 87>    H       10.87540        -3.06588        -0.71842
| 88>    H        8.39277        -2.49780        -1.03345
| 89>    H        6.14694        -3.47666        -0.92461
| 90>    H        6.69186        -6.88589         0.67496
| 91>    H        2.15850        -5.77939        -1.01905
| 92>    H        3.99324        -4.16126        -1.24480
| 93>    H        6.26531        -8.62555         2.48612
| 94>    H        5.16561        -9.95473         2.86405
| 95>    H        4.45521        -6.98850         3.00087
| 96>    H        4.75996        -8.04963         4.37807
| 97>    H        3.34793        -8.31593         3.35144
| 98>    H        6.65820        -9.35608         0.16803
| 99>    H        5.31177        -9.64755        -0.93179
|100>    H        6.05250       -11.45365         1.42004
|101>    H        6.42997       -11.74219        -0.27360
|102>    H        4.75122       -11.74091         0.25435
|103>    H        3.22799       -11.25023         1.89228
|104>    H       -0.44979        -9.92326         0.15545
|105>    H        0.61503        -7.82555        -0.57156
|106>    H       -0.32482       -12.10061         1.00728
|107>    H        1.90625       -12.54307         3.04419
|108>    H        1.21656       -13.97305         4.82835
|109>    H       -1.95448       -16.24846         1.76395
|110>    H       -0.74117       -14.24483         1.03101
|111>    H        0.14517       -14.53320         7.14413
|112>    H       -0.55590       -15.90975         7.99774
|113>    H       -1.99916       -14.20708         5.90832
|114>    H       -2.24328       -14.12983         7.65488
|115>    H       -2.70090       -15.58223         6.76171
|116>    H        1.26528       -17.35932         7.18126
|117>    H        1.97409       -15.97805         6.34205
|118>    H        1.16508       -18.61625         5.02522
|119>    H        2.81402       -18.11182         5.40311
|120>    H        1.87795       -17.23672         4.18854
|121>    H       -1.07929       -18.43377         7.59155
|122>    H       -3.67595       -20.03474         4.58206
|123>    H       -2.98480       -18.28557         3.01430
|124>    H       -2.40866       -20.23248         8.14513
|125>    H       -4.01969       -21.60210         5.93017
|126>    H       -3.93673       -23.27553        11.16863
|127>    H       -3.18088       -21.56431         9.64999
|128>    H       -6.49933       -28.33208        13.19828
|129>    H       -6.20457       -28.79647        10.77402
|130>    H       -5.51179       -27.05039         9.23312
|131> *
|132>
|133>                          ****END OF INPUT****

CARTESIAN COORDINATES (ANGSTROEM)
---------------------------------
  C     14.159830   -8.295840    1.163330
  C     13.391670   -7.265070    0.787580
  C     13.816600   -5.959770    0.366410
  C     12.809850   -5.119010    0.046640
  C     11.507900   -5.680170    0.182160
  S     11.623290   -7.341580    0.741570
  C     10.305690   -5.074750   -0.072350
  C     10.068260   -3.750250   -0.526540
  C      8.758430   -3.451100   -0.692850
  C      7.851460   -4.512930   -0.390740
  S      8.779550   -5.913830    0.141790
  C      6.501230   -4.428360   -0.544020
  C      5.480100   -5.410060   -0.330140
  C      5.713570   -6.648910    0.290270
  C      4.685480   -7.546490    0.424070
  C      3.399510   -7.251270   -0.058420
  C      3.146190   -6.023120   -0.656200
  C      4.178290   -5.119100   -0.778830
  C      2.535770   -8.376050    0.220880
  C      3.282240   -9.363270    0.890920
  C      4.729400   -8.940660    1.012680
  C      5.219780   -8.940010    2.467280
  C      4.393750   -8.015330    3.354330
  C      5.653630   -9.779430    0.098400
  C      5.719450  -11.270290    0.401920
  C      2.670360  -10.507100    1.344350
  C      1.309450  -10.720020    1.081910
  C      0.596670   -9.750920    0.365590
  C      1.189300   -8.575100   -0.047200
  C      0.617490  -11.919300    1.508570
  C      1.013980  -12.764040    2.472510
  C      0.300940  -13.958170    2.883070
  C      0.520430  -14.472930    4.169010
  C     -0.166090  -15.587800    4.584170
  C     -1.066690  -16.233890    3.720830
  C     -1.273920  -15.749370    2.437940
  C     -0.594830  -14.617430    2.033590
  C     -1.638390  -17.367980    4.415060
  C     -1.099700  -17.416730    5.711770
  C     -0.116310  -16.288560    5.922400
  C     -0.571220  -15.353130    7.058080
  C     -1.966130  -14.783070    6.830510
  C      1.293790  -16.825010    6.229010
  C      1.819790  -17.755560    5.142830
  C     -1.488900  -18.395690    6.591510
  C     -2.427340  -19.363060    6.195320
  C     -2.949270  -19.301980    4.896150
  C     -2.565500  -18.317070    4.009110
  C     -2.822660  -20.369160    7.154010
  C     -3.624010  -21.424670    6.919870
  C     -4.026530  -22.412610    7.886130
  C     -4.792260  -23.523940    7.441890
  N     -5.192840  -23.747980    6.192060
  S     -6.036180  -25.114960    6.152510
  N     -5.932890  -25.495570    7.711510
  C     -5.226180  -24.558520    8.345570
  C     -4.918610  -24.481940    9.729700
  C     -4.185210  -23.376130   10.124290
  C     -3.750280  -22.385270    9.242570
  C     -5.346480  -25.505920   10.674120
  C     -5.505860  -25.229660   12.059850
  N     -5.332490  -24.070260   12.695030
  S     -5.669700  -24.269450   14.255410
  N     -6.051140  -25.827600   14.218740
  C     -5.935120  -26.267670   12.964790
  C     -6.186600  -27.569250   12.504210
  C     -6.021520  -27.807620   11.167600
  C     -5.616860  -26.800560   10.276340
  H     15.231730   -8.206900    1.173140
  H     13.736490   -9.237990    1.459610
  H     14.862730   -5.712620    0.323930
  H     12.948430   -4.105440   -0.286630
  H     10.875400   -3.065880   -0.718420
  H      8.392770   -2.497800   -1.033450
  H      6.146940   -3.476660   -0.924610
  H      6.691860   -6.885890    0.674960
  H      2.158500   -5.779390   -1.019050
  H      3.993240   -4.161260   -1.244800
  H      6.265310   -8.625550    2.486120
  H      5.165610   -9.954730    2.864050
  H      4.455210   -6.988500    3.000870
  H      4.759960   -8.049630    4.378070
  H      3.347930   -8.315930    3.351440
  H      6.658200   -9.356080    0.168030
  H      5.311770   -9.647550   -0.931790
  H      6.052500  -11.453650    1.420040
  H      6.429970  -11.742190   -0.273600
  H      4.751220  -11.740910    0.254350
  H      3.227990  -11.250230    1.892280
  H     -0.449790   -9.923260    0.155450
  H      0.615030   -7.825550   -0.571560
  H     -0.324820  -12.100610    1.007280
  H      1.906250  -12.543070    3.044190
  H      1.216560  -13.973050    4.828350
  H     -1.954480  -16.248460    1.763950
  H     -0.741170  -14.244830    1.031010
  H      0.145170  -14.533200    7.144130
  H     -0.555900  -15.909750    7.997740
  H     -1.999160  -14.207080    5.908320
  H     -2.243280  -14.129830    7.654880
  H     -2.700900  -15.582230    6.761710
  H      1.265280  -17.359320    7.181260
  H      1.974090  -15.978050    6.342050
  H      1.165080  -18.616250    5.025220
  H      2.814020  -18.111820    5.403110
  H      1.877950  -17.236720    4.188540
  H     -1.079290  -18.433770    7.591550
  H     -3.675950  -20.034740    4.582060
  H     -2.984800  -18.285570    3.014300
  H     -2.408660  -20.232480    8.145130
  H     -4.019690  -21.602100    5.930170
  H     -3.936730  -23.275530   11.168630
  H     -3.180880  -21.564310    9.649990
  H     -6.499330  -28.332080   13.198280
  H     -6.204570  -28.796470   10.774020
  H     -5.511790  -27.050390    9.233120

 Total Charge           Charge          ....    0
 Multiplicity           Mult            ....    1
 Number of Electrons    NEL             ....  500
 Basis Dimension        Dim             .... 1208

ORBITAL ENERGIES
----------------

  NO   OCC          E(Eh)            E(eV)
   0   2.0000     -89.013764     -2422.1877
   1   2.0000     -89.011850     -2422.1356
   2   2.0000     -88.937040     -2420.0999
   3   2.0000     -88.931278     -2419.9431
   4   2.0000     -14.429382      -392.6435
   5   2.0000     -14.427418      -392.5900
   6   2.0000     -14.426538      -392.5661
   7   2.0000     -14.425876      -392.5480
   8   2.0000     -10.313186      -280.6360
   9   2.0000     -10.312131      -280.6074
  10   2.0000     -10.310950      -280.5752
  11   2.0000     -10.309216      -280.5280
  12   2.0000     -10.302371      -280.3418
  13   2.0000     -10.301182      -280.3094
  14   2.0000     -10.300400      -280.2881
  15   2.0000     -10.298576      -280.2385
  16   2.0000     -10.285404      -279.8801
  17   2.0000     -10.283950      -279.8405
  18   2.0000     -10.283525      -279.8290
  19   2.0000     -10.283111      -279.8177
  20   2.0000     -10.279426      -279.7174
  21   2.0000     -10.278573      -279.6942
  22   2.0000     -10.277831      -279.6740
  23   2.0000     -10.275304      -279.6052
  24   2.0000     -10.274146      -279.5737
  25   2.0000     -10.272627      -279.5324
  26   2.0000     -10.271285      -279.4959
  27   2.0000     -10.270984      -279.4877
  28   2.0000     -10.270762      -279.4816
  29   2.0000     -10.270706      -279.4801
  30   2.0000     -10.270669      -279.4791
  31   2.0000     -10.269908      -279.4584
  32   2.0000     -10.269409      -279.4448
  33   2.0000     -10.269364      -279.4436
  34   2.0000     -10.269321      -279.4424
  35   2.0000     -10.267822      -279.4016
  36   2.0000     -10.264414      -279.3089
  37   2.0000     -10.264293      -279.3056
  38   2.0000     -10.263738      -279.2905
  39   2.0000     -10.263390      -279.2810
  40   2.0000     -10.263331      -279.2794
  41   2.0000     -10.263231      -279.2767
  42   2.0000     -10.263202      -279.2759
  43   2.0000     -10.262735      -279.2632
  44   2.0000     -10.262468      -279.2559
  45   2.0000     -10.262406      -279.2543
  46   2.0000     -10.262097      -279.2459
  47   2.0000     -10.261795      -279.2376
  48   2.0000     -10.261621      -279.2329
  49   2.0000     -10.261308      -279.2244
  50   2.0000     -10.261144      -279.2199
  51   2.0000     -10.261133      -279.2196
  52   2.0000     -10.260408      -279.1999
  53   2.0000     -10.260331      -279.1978
  54   2.0000     -10.260252      -279.1957
  55   2.0000     -10.260092      -279.1913
  56   2.0000     -10.259888      -279.1857
  57   2.0000     -10.259497      -279.1751
  58   2.0000     -10.259138      -279.1653
  59   2.0000     -10.258362      -279.1442
  60   2.0000     -10.257182      -279.1121
  61   2.0000     -10.257028      -279.1079
  62   2.0000     -10.254451      -279.0378
  63   2.0000     -10.254265      -279.0327
  64   2.0000     -10.243367      -278.7362
  65   2.0000     -10.240278      -278.6521
  66   2.0000     -10.239950      -278.6432
  67   2.0000     -10.238763      -278.6109
  68   2.0000      -8.105732      -220.5682
  69   2.0000      -8.103928      -220.5191
  70   2.0000      -8.032646      -218.5794
  71   2.0000      -8.027980      -218.4524
  72   2.0000      -6.076990      -165.3633
  73   2.0000      -6.075120      -165.3124
  74   2.0000      -6.069259      -165.1529
  75   2.0000      -6.068000      -165.1187
  76   2.0000      -6.067384      -165.1019
  77   2.0000      -6.066322      -165.0730
  78   2.0000      -6.002480      -163.3358
  79   2.0000      -5.998473      -163.2267
  80   2.0000      -5.997855      -163.2099
  81   2.0000      -5.993910      -163.1026
  82   2.0000      -5.993433      -163.0896
  83   2.0000      -5.988446      -162.9539
  84   2.0000      -1.113874       -30.3100
  85   2.0000      -1.111696       -30.2508
  86   2.0000      -0.984707       -26.7952
  87   2.0000      -0.980029       -26.6680
  88   2.0000      -0.977873       -26.6093
  89   2.0000      -0.972737       -26.4695
  90   2.0000      -0.966764       -26.3070
  91   2.0000      -0.961644       -26.1677
  92   2.0000      -0.956031       -26.0149
  93   2.0000      -0.940840       -25.6016
  94   2.0000      -0.938025       -25.5250
  95   2.0000      -0.934781       -25.4367
  96   2.0000      -0.915097       -24.9011
  97   2.0000      -0.908322       -24.7167
  98   2.0000      -0.886667       -24.1274
  99   2.0000      -0.884030       -24.0557
 100   2.0000      -0.877914       -23.8893
 101   2.0000      -0.867133       -23.5959
 102   2.0000      -0.856572       -23.3085
 103   2.0000      -0.849455       -23.1148
 104   2.0000      -0.844415       -22.9777
 105   2.0000      -0.841771       -22.9058
 106   2.0000      -0.838200       -22.8086
 107   2.0000      -0.832470       -22.6527
 108   2.0000      -0.830935       -22.6109
 109   2.0000      -0.827606       -22.5203
 110   2.0000      -0.825743       -22.4696
 111   2.0000      -0.823806       -22.4169
 112   2.0000      -0.822791       -22.3893
 113   2.0000      -0.820853       -22.3366
 114   2.0000      -0.814564       -22.1654
 115   2.0000      -0.808981       -22.0135
 116   2.0000      -0.794813       -21.6280
 117   2.0000      -0.776351       -21.1256
 118   2.0000      -0.761175       -20.7126
 119   2.0000      -0.755128       -20.5481
 120   2.0000      -0.754467       -20.5301
 121   2.0000      -0.740272       -20.1438
 122   2.0000      -0.728989       -19.8368
 123   2.0000      -0.721128       -19.6229
 124   2.0000      -0.715477       -19.4691
 125   2.0000      -0.710061       -19.3217
 126   2.0000      -0.703933       -19.1550
 127   2.0000      -0.702780       -19.1236
 128   2.0000      -0.694559       -18.8999
 129   2.0000      -0.683499       -18.5989
 130   2.0000      -0.681523       -18.5452
 131   2.0000      -0.678550       -18.4643
 132   2.0000      -0.677702       -18.4412
 133   2.0000      -0.669679       -18.2229
 134   2.0000      -0.668095       -18.1798
 135   2.0000      -0.663751       -18.0616
 136   2.0000      -0.656061       -17.8523
 137   2.0000      -0.653502       -17.7827
 138   2.0000      -0.649466       -17.6729
 139   2.0000      -0.639994       -17.4151
 140   2.0000      -0.630203       -17.1487
 141   2.0000      -0.624172       -16.9846
 142   2.0000      -0.618464       -16.8293
 143   2.0000      -0.608200       -16.5500
 144   2.0000      -0.605553       -16.4779
 145   2.0000      -0.598214       -16.2782
 146   2.0000      -0.595458       -16.2032
 147   2.0000      -0.591679       -16.1004
 148   2.0000      -0.587305       -15.9814
 149   2.0000      -0.583883       -15.8883
 150   2.0000      -0.582643       -15.8545
 151   2.0000      -0.577754       -15.7215
 152   2.0000      -0.568697       -15.4750
 153   2.0000      -0.562660       -15.3108
 154   2.0000      -0.559228       -15.2174
 155   2.0000      -0.556264       -15.1367
 156   2.0000      -0.552089       -15.0231
 157   2.0000      -0.549474       -14.9520
 158   2.0000      -0.543930       -14.8011
 159   2.0000      -0.537928       -14.6378
 160   2.0000      -0.536502       -14.5990
 161   2.0000      -0.536250       -14.5921
 162   2.0000      -0.533228       -14.5099
 163   2.0000      -0.532553       -14.4915
 164   2.0000      -0.529704       -14.4140
 165   2.0000      -0.526888       -14.3374
 166   2.0000      -0.522697       -14.2233
 167   2.0000      -0.520075       -14.1520
 168   2.0000      -0.518017       -14.0960
 169   2.0000      -0.513684       -13.9781
 170   2.0000      -0.511178       -13.9099
 171   2.0000      -0.510065       -13.8796
 172   2.0000      -0.509656       -13.8685
 173   2.0000      -0.508903       -13.8479
 174   2.0000      -0.505175       -13.7465
 175   2.0000      -0.502908       -13.6848
 176   2.0000      -0.496547       -13.5117
 177   2.0000      -0.493238       -13.4217
 178   2.0000      -0.490027       -13.3343
 179   2.0000      -0.487282       -13.2596
 180   2.0000      -0.483728       -13.1629
 181   2.0000      -0.481002       -13.0887
 182   2.0000      -0.477565       -12.9952
 183   2.0000      -0.475439       -12.9374
 184   2.0000      -0.474639       -12.9156
 185   2.0000      -0.470370       -12.7994
 186   2.0000      -0.466620       -12.6974
 187   2.0000      -0.465547       -12.6682
 188   2.0000      -0.464209       -12.6318
 189   2.0000      -0.462045       -12.5729
 190   2.0000      -0.460188       -12.5224
 191   2.0000      -0.457955       -12.4616
 192   2.0000      -0.455463       -12.3938
 193   2.0000      -0.454173       -12.3587
 194   2.0000      -0.453145       -12.3307
 195   2.0000      -0.452137       -12.3033
 196   2.0000      -0.451157       -12.2766
 197   2.0000      -0.448439       -12.2027
 198   2.0000      -0.444739       -12.1020
 199   2.0000      -0.442610       -12.0440
 200   2.0000      -0.441625       -12.0172
 201   2.0000      -0.440085       -11.9753
 202   2.0000      -0.434749       -11.8301
 203   2.0000      -0.433786       -11.8039
 204   2.0000      -0.432035       -11.7563
 205   2.0000      -0.430383       -11.7113
 206   2.0000      -0.427360       -11.6290
 207   2.0000      -0.425274       -11.5723
 208   2.0000      -0.421328       -11.4649
 209   2.0000      -0.420235       -11.4352
 210   2.0000      -0.418601       -11.3907
 211   2.0000      -0.418534       -11.3889
 212   2.0000      -0.414319       -11.2742
 213   2.0000      -0.412985       -11.2379
 214   2.0000      -0.411083       -11.1861
 215   2.0000      -0.408871       -11.1259
 216   2.0000      -0.406811       -11.0699
 217   2.0000      -0.404494       -11.0069
 218   2.0000      -0.400885       -10.9086
 219   2.0000      -0.397387       -10.8135
 220   2.0000      -0.396838       -10.7985
 221   2.0000      -0.391534       -10.6542
 222   2.0000      -0.389423       -10.5967
 223   2.0000      -0.386049       -10.5049
 224   2.0000      -0.382542       -10.4095
 225   2.0000      -0.381381       -10.3779
 226   2.0000      -0.379198       -10.3185
 227   2.0000      -0.375943       -10.2299
 228   2.0000      -0.375281       -10.2119
 229   2.0000      -0.374799       -10.1988
 230   2.0000      -0.369807       -10.0630
 231   2.0000      -0.366096        -9.9620
 232   2.0000      -0.359037        -9.7699
 233   2.0000      -0.353338        -9.6148
 234   2.0000      -0.348248        -9.4763
 235   2.0000      -0.331704        -9.0261
 236   2.0000      -0.331367        -9.0169
 237   2.0000      -0.322551        -8.7771
 238   2.0000      -0.319983        -8.7072
 239   2.0000      -0.319830        -8.7030
 240   2.0000      -0.313714        -8.5366
 241   2.0000      -0.311562        -8.4780
 242   2.0000      -0.309769        -8.4293
 243   2.0000      -0.306921        -8.3517
 244   2.0000      -0.305099        -8.3022
 245   2.0000      -0.295980        -8.0540
 246   2.0000      -0.276697        -7.5293
 247   2.0000      -0.254511        -6.9256
 248   2.0000      -0.234356        -6.3772
 249   2.0000      -0.211351        -5.7511
 250   0.0000      -0.067109        -1.8261
 251   0.0000      -0.058118        -1.5815
 252   0.0000      -0.038795        -1.0557
 253   0.0000      -0.025556        -0.6954
 254   0.0000      -0.003506        -0.0954

MULLIKEN ATOMIC CHARGES
-----------------------
   0 C :   -0.032497
   1 C :   -0.062499
   2 C :    0.047378
   3 C :    0.034985
   4 C :   -0.071409
   5 S :    0.072483
   6 C :   -0.032296
   7 C :    0.028923
   8 C :    0.033359
   9 C :   -0.003681
  10 S :    0.040291
  11 C :   -0.044469
  12 C :    0.116164
  13 C :   -0.095338
  14 C :    0.013786
  15 C :    0.093909
  16 C :   -0.047214
  17 C :   -0.018531
  18 C :    0.097291
  19 C :    0.027996
  20 C :   -0.135382
  21 C :    0.053688
  22 C :    0.026144
  23 C :    0.077240
  24 C :    0.031046
  25 C :   -0.099154
  26 C :    0.121218
  27 C :   -0.019084
  28 C :   -0.056039
  29 C :   -0.003943
  30 C :    0.002041
  31 C :    0.123056
  32 C :   -0.111240
  33 C :    0.014407
  34 C :    0.113285
  35 C :   -0.050243
  36 C :   -0.018309
  37 C :    0.114719
  38 C :    0.009801
  39 C :   -0.136229
  40 C :    0.067080
  41 C :    0.025179
  42 C :    0.071720
  43 C :    0.026410
  44 C :   -0.110821
  45 C :    0.127143
  46 C :   -0.016577
  47 C :   -0.044158
  48 C :    0.015956
  49 C :   -0.010710
  50 C :    0.106235
  51 C :   -0.004956
  52 N :   -0.280987
  53 S :    0.496477
  54 N :   -0.293647
  55 C :    0.026969
  56 C :    0.050202
  57 C :   -0.010939
  58 C :   -0.059710
  59 C :    0.076313
  60 C :   -0.008284
  61 N :   -0.292957
  62 S :    0.489348
  63 N :   -0.268320
  64 C :    0.046920
  65 C :   -0.022632
  66 C :    0.042278
  67 C :   -0.035122
  68 H :    0.018270
  69 H :    0.019351
  70 H :   -0.013108
  71 H :   -0.013829
  72 H :   -0.016606
  73 H :   -0.015629
  74 H :   -0.026431
  75 H :   -0.025651
  76 H :   -0.039523
  77 H :   -0.032459
  78 H :    0.001980
  79 H :    0.001187
  80 H :    0.021914
  81 H :    0.006123
  82 H :    0.018407
  83 H :   -0.001110
  84 H :    0.003960
  85 H :    0.000611
  86 H :    0.011550
  87 H :    0.021139
  88 H :   -0.040176
  89 H :   -0.032518
  90 H :   -0.037844
  91 H :   -0.022032
  92 H :   -0.021010
  93 H :   -0.044781
  94 H :   -0.037866
  95 H :   -0.029064
  96 H :   -0.002891
  97 H :   -0.005539
  98 H :    0.022747
  99 H :    0.007036
 100 H :    0.022296
 101 H :   -0.005139
 102 H :   -0.003915
 103 H :    0.022143
 104 H :    0.005461
 105 H :    0.021138
 106 H :   -0.044605
 107 H :   -0.027620
 108 H :   -0.039208
 109 H :   -0.031403
 110 H :   -0.007496
 111 H :   -0.009650
 112 H :   -0.026072
 113 H :   -0.021003
 114 H :   -0.008540
 115 H :   -0.006662
Sum of atomic charges:   -0.0000000

LOEWDIN ATOMIC CHARGES
----------------------
   0 C :   -0.082160
   1 C :   -0.138841
   2 C :   -0.034149
   3 C :   -0.025946
   4 C :   -0.179569
   5 S :    0.343614
   6 C :   -0.179923
   7 C :   -0.038973
   8 C :   -0.028824
   9 C :   -0.145729
  10 S :    0.369665
  11 C :   -0.049846
  12 C :   -0.028597
  13 C :   -0.028634
  14 C :    0.007472
  15 C :   -0.018034
  16 C :   -0.022079
  17 C :   -0.017577
  18 C :   -0.017642
  19 C :    0.005022
  20 C :   -0.034543
  21 C :   -0.015451
  22 C :   -0.056696
  23 C :   -0.009180
  24 C :   -0.059685
  25 C :   -0.019702
  26 C :   -0.025369
  27 C :   -0.020369
  28 C :   -0.021883
  29 C :   -0.016954
  30 C :   -0.021997
  31 C :   -0.021048
  32 C :   -0.024708
  33 C :    0.003145
  34 C :   -0.021208
  35 C :   -0.018123
  36 C :   -0.018479
  37 C :   -0.015454
  38 C :    0.000964
  39 C :   -0.035305
  40 C :   -0.011883
  41 C :   -0.057948
  42 C :   -0.011943
  43 C :   -0.057583
  44 C :   -0.021480
  45 C :   -0.026121
  46 C :   -0.011084
  47 C :   -0.018408
  48 C :   -0.002619
  49 C :   -0.021533
  50 C :   -0.022936
  51 C :   -0.044818
  52 N :   -0.286371
  53 S :    0.629634
  54 N :   -0.290559
  55 C :   -0.038748
  56 C :   -0.032123
  57 C :    0.004457
  58 C :   -0.015682
  59 C :   -0.022909
  60 C :   -0.041378
  61 N :   -0.291742
  62 S :    0.628945
  63 N :   -0.287082
  64 C :   -0.053622
  65 C :   -0.021689
  66 C :   -0.014992
  67 C :   -0.002410
  68 H :    0.027694
  69 H :    0.025305
  70 H :    0.032575
  71 H :    0.031657
  72 H :    0.030420
  73 H :    0.032019
  74 H :    0.031862
  75 H :    0.007426
  76 H :    0.025552
  77 H :    0.024460
  78 H :    0.021651
  79 H :    0.018300
  80 H :    0.025570
  81 H :    0.022671
  82 H :    0.024772
  83 H :    0.021291
  84 H :    0.026526
  85 H :    0.019047
  86 H :    0.027342
  87 H :    0.024279
  88 H :    0.021902
  89 H :    0.024796
  90 H :    0.025584
  91 H :    0.025248
  92 H :    0.024216
  93 H :    0.022564
  94 H :    0.025925
  95 H :    0.024960
  96 H :    0.019453
  97 H :    0.018540
  98 H :    0.026124
  99 H :    0.023113
 100 H :    0.025642
 101 H :    0.018902
 102 H :    0.019122
 103 H :    0.025854
 104 H :    0.022689
 105 H :    0.025571
 106 H :    0.022207
 107 H :    0.027510
 108 H :    0.026173
 109 H :    0.023521
 110 H :    0.029317
 111 H :    0.031125
 112 H :    0.028587
 113 H :    0.035880
 114 H :    0.032265
 115 H :    0.030210

  Mayer bond orders larger than 0.100000
B(  0-C ,  1-C ) :   1.8679 B(  0-C , 68-H ) :   0.9506 B(  0-C , 69-H ) :   0.9407
B(  1-C ,  2-C ) :   1.0781 B(  1-C ,  5-S ) :   1.0074 B(  2-C ,  3-C ) :   1.6665
B(  2-C , 70-H ) :   0.9931 B(  3-C ,  4-C ) :   1.1476 B(  3-C , 71-H ) :   0.9906
B(  4-C ,  5-S ) :   1.0370 B(  4-C ,  6-C ) :   1.5774 B(  6-C ,  7-C ) :   1.1543
B(  6-C , 10-S ) :   1.0290 B(  7-C ,  8-C ) :   1.6285 B(  7-C , 72-H ) :   0.9914
B(  8-C ,  9-C ) :   1.1176 B(  8-C , 73-H ) :   0.9982 B(  9-C , 10-S ) :   1.0191
B(  9-C , 11-C ) :   1.6217 B( 11-C , 12-C ) :   1.0945 B( 11-C , 74-H ) :   0.9688
B( 12-C , 13-C ) :   1.2881 B( 12-C , 17-C ) :   1.3136 B( 13-C , 14-C ) :   1.4332
B( 13-C , 75-H ) :   0.9747 B( 14-C , 15-C ) :   1.3719 B( 14-C , 20-C ) :   0.9267
B( 15-C , 16-C ) :   1.3305 B( 15-C , 18-C ) :   0.9950 B( 16-C , 17-C ) :   1.3937
B( 16-C , 76-H ) :   0.9900 B( 17-C , 77-H ) :   0.9917 B( 18-C , 19-C ) :   1.3728
B( 18-C , 28-C ) :   1.3433 B( 19-C , 20-C ) :   0.9183 B( 19-C , 25-C ) :   1.4056
B( 20-C , 21-C ) :   1.0311 B( 20-C , 23-C ) :   1.0160 B( 21-C , 22-C ) :   1.1039
B( 21-C , 78-H ) :   0.9397 B( 21-C , 79-H ) :   0.9373 B( 22-C , 80-H ) :   0.9630
B( 22-C , 81-H ) :   0.9645 B( 22-C , 82-H ) :   0.9647 B( 23-C , 24-C ) :   1.1138
B( 23-C , 83-H ) :   0.9357 B( 23-C , 84-H ) :   0.9393 B( 24-C , 85-H ) :   0.9631
B( 24-C , 86-H ) :   0.9592 B( 24-C , 87-H ) :   0.9607 B( 25-C , 26-C ) :   1.3038
B( 25-C , 88-H ) :   0.9936 B( 26-C , 27-C ) :   1.3425 B( 26-C , 29-C ) :   1.0518
B( 27-C , 28-C ) :   1.3708 B( 27-C , 89-H ) :   0.9935 B( 28-C , 90-H ) :   0.9909
B( 29-C , 30-C ) :   1.7338 B( 29-C , 91-H ) :   0.9758 B( 30-C , 31-C ) :   1.0466
B( 30-C , 92-H ) :   0.9737 B( 31-C , 32-C ) :   1.2898 B( 31-C , 36-C ) :   1.3593
B( 32-C , 33-C ) :   1.3791 B( 32-C , 93-H ) :   1.0129 B( 33-C , 34-C ) :   1.3689
B( 33-C , 39-C ) :   0.9155 B( 34-C , 35-C ) :   1.3328 B( 34-C , 37-C ) :   0.9978
B( 35-C , 36-C ) :   1.3855 B( 35-C , 94-H ) :   0.9915 B( 36-C , 95-H ) :   0.9848
B( 37-C , 38-C ) :   1.3698 B( 37-C , 47-C ) :   1.3277 B( 38-C , 39-C ) :   0.9159
B( 38-C , 44-C ) :   1.3770 B( 39-C , 40-C ) :   1.0356 B( 39-C , 42-C ) :   1.0400
B( 40-C , 41-C ) :   1.1024 B( 40-C , 96-H ) :   0.9394 B( 40-C , 97-H ) :   0.9393
B( 41-C , 98-H ) :   0.9643 B( 41-C , 99-H ) :   0.9638 B( 41-C ,100-H ) :   0.9641
B( 42-C , 43-C ) :   1.1006 B( 42-C ,101-H ) :   0.9388 B( 42-C ,102-H ) :   0.9382
B( 43-C ,103-H ) :   0.9646 B( 43-C ,104-H ) :   0.9640 B( 43-C ,105-H ) :   0.9644
B( 44-C , 45-C ) :   1.2808 B( 44-C ,106-H ) :   1.0130 B( 45-C , 46-C ) :   1.3457
B( 45-C , 48-C ) :   1.0714 B( 46-C , 47-C ) :   1.3983 B( 46-C ,107-H ) :   0.9865
B( 47-C ,108-H ) :   0.9898 B( 48-C , 49-C ) :   1.6633 B( 48-C ,109-H ) :   0.9815
B( 49-C , 50-C ) :   1.1083 B( 49-C ,110-H ) :   0.9759 B( 50-C , 51-C ) :   1.1564
B( 50-C , 56-C ) :   0.1147 B( 50-C , 58-C ) :   1.4362 B( 51-C , 52-N ) :   1.5428
B( 51-C , 55-C ) :   1.1594 B( 52-N , 53-S ) :   1.2624 B( 52-N , 54-N ) :   0.1491
B( 53-S , 54-N ) :   1.2531 B( 54-N , 55-C ) :   1.5125 B( 55-C , 56-C ) :   1.2050
B( 56-C , 57-C ) :   1.4910 B( 56-C , 59-C ) :   1.0123 B( 57-C , 58-C ) :   1.2235
B( 57-C ,111-H ) :   0.9781 B( 58-C ,112-H ) :   0.9939 B( 59-C , 60-C ) :   1.1956
B( 59-C , 65-C ) :   0.1076 B( 59-C , 67-C ) :   1.5342 B( 60-C , 61-N ) :   1.5140
B( 60-C , 64-C ) :   1.1646 B( 61-N , 62-S ) :   1.2520 B( 61-N , 63-N ) :   0.1506
B( 62-S , 63-N ) :   1.2753 B( 63-N , 64-C ) :   1.5125 B( 64-C , 65-C ) :   1.2042
B( 65-C , 66-C ) :   1.4934 B( 65-C ,113-H ) :   1.0199 B( 66-C , 67-C ) :   1.1985
B( 66-C ,114-H ) :   0.9842 B( 67-C ,115-H ) :   0.9800

-----------------------------------------------------------------------------
         ABSORPTION SPECTRUM VIA TRANSITION ELECTRIC DIPOLE MOMENTS
-----------------------------------------------------------------------------
State   Energy  Wavelength   fosc         T2         TX        TY        TZ
        (cm-1)    (nm)                  (au**2)     (au)      (au)      (au)
-----------------------------------------------------------------------------
   0   19588.0    510.5   1.775936490  29.84788   5.32143   1.17961  -0.37257
   1   21602.6    462.9   1.219604775  18.58611   0.75212   3.42304  -2.51063
   2   26268.6    380.7   0.048443105   0.60711  -0.15026   0.75565  -0.11629
   3   27314.3    366.1   0.013619849   0.16416  -0.07571  -0.36024  -0.16927
   4   28053.9    356.5   0.499772973   5.86483   0.37538   2.22288  -0.88472
   5   28726.0    348.1   0.884234036  10.13368  -0.42811  -2.89302   1.25732
   6   29672.4    337.0   0.181408479   2.01271   0.08053   1.17996  -0.78353
   7   31920.6    313.3   0.197722147   2.03920  -0.88017  -0.71671   0.86651
   8   32418.9    308.5   0.074661272   0.75818   0.17551   0.76688  -0.37319
   9   33450.0    299.0   0.063403554   0.62401  -0.22992  -0.70437   0.27388
  10   34162.8    292.7   0.007346831   0.07080   0.02260  -0.05325   0.25972
  11   34620.3    288.8   0.119990917   1.14102   0.45628   0.91580  -0.30680
  12   34905.8    286.5   0.144032613   1.35843  -0.52455  -0.98754   0.32871
  13   35565.0    281.2   0.002810285   0.02601  -0.14904   0.00525  -0.06144
  14   35667.1    280.4   0.003498320   0.03229  -0.00800   0.16454  -0.07177
  15   36168.4    276.5   0.002819309   0.02566  -0.12103  -0.10403   0.01381
  16   36780.3    271.9   0.000902945   0.00808   0.02906  -0.03898  -0.07562
  17   37105.5    269.5   0.020047843   0.17787  -0.15161  -0.39355   0.00118
  18   37677.9    265.4   0.024218042   0.21161   0.28022   0.36413   0.02216
  19   37860.5    264.1   0.022002109   0.19132   0.29542   0.09327   0.30878
  20   38470.1    259.9   0.017496556   0.14973   0.11012  -0.28737   0.23457
  21   38635.9    258.8   0.028414719   0.24212   0.15218  -0.27111  -0.38139
  22   39144.1    255.5   0.069674555   0.58598   0.55653   0.45360  -0.26551
  23   39283.3    254.6   0.110306584   0.92442  -0.38530  -0.60389  -0.64131
  24   39582.6    252.6   0.079831662   0.66397  -0.11845  -0.75745  -0.27605
  25   39739.0    251.6   0.270358407   2.23975   0.39530   0.19743   1.42986
  26   40247.5    248.5   0.007587354   0.06206   0.23699  -0.05461  -0.05400

FINAL SINGLE POINT ENERGY     -4123.275677650431

DIPOLE MOMENT
-------------
                                X             Y             Z
Electronic contribution:    -49.41593     -71.54258      35.40741
Nuclear contribution   :     50.33462      72.43655     -35.82692
                        -----------------------------------------
Total Dipole Moment    :      0.91869       0.89397      -0.41951
                        -----------------------------------------
Magnitude (a.u.)       :      1.34877
Magnitude (Debye)      :      3.42829

Rotational constants in cm-1:     0.002378     0.000162     0.000157
Rotational constants in MHz :    71.286616     4.856625     4.708577

                             ****ORCA TERMINATED NORMALLY****
TOTAL RUN TIME: 0 days 0 hours 10 minutes 57 seconds 564 msec
