                         Program Version 4.2.0 -  RELEASE  -
|  1> # ORCA input file
|  2> # SCF done       -192.311877893312          0.000324496716
|  3> ! CAM-B3LYP def2-SVP def2/J RIJCOSX Grid4 TightSCF
|  4> %maxcore 5000
|  5> %tddft
|  6>     Mode sTDDFT
|  7>     Ethresh 5.0
|  8>     maxcore 5000
|  9> end
| 10>
| 11> %pal
| 12>   nprocs 6
| 13>   end
| 14> * xyz 0 1
| 15>    C       14.94356        -3.46330        -0.51313
| 16>    C       14.01554        -3.63186        -1.46409
| 17>    C       13.96083        -3.01122        -2.75776
| 18>    C       12.89842        -3.37347        -3.50792
| 19>    C       12.02382        -4.30549        -2.87949
| 20>    S       12.62064        -4.70621        -1.27705
| 21>    C       10.87172        -4.84408        -3.38931
| 22>    C       10.27762        -4.60310        -4.65650
| 23>    C        9.12565        -5.28358        -4.86286
| 24>    C        8.71183        -6.11603        -3.77788
| 25>    S        9.89731        -5.98629        -2.48075
| 26>    C        7.56255        -6.84640        -3.77773
| 27>    C        6.99478        -7.69824        -2.77596
| 28>    C        5.69018        -8.18625        -2.99361
| 29>    C        5.08791        -8.97779        -2.05158
| 30>    C        5.76801        -9.32851        -0.87094
| 31>    C        7.06105        -8.87473        -0.65178
| 32>    C        7.65917        -8.06672        -1.59571
| 33>    C        4.89375       -10.14728        -0.06160
| 34>    C        3.66804       -10.29379        -0.73339
| 35>    C        3.70058        -9.57769        -2.06374
| 36>    C        3.52648       -10.56588        -3.23219
| 37>    C        4.56752       -11.67879        -3.22497
| 38>    C        2.61740        -8.48692        -2.14528
| 39>    C        2.71609        -7.47184        -1.01292
| 40>    C        2.63963       -11.00003        -0.16107
| 41>    C        2.81402       -11.59472         1.09824
| 42>    C        4.04711       -11.45167         1.74642
| 43>    C        5.08211       -10.73463         1.18137
| 44>    C        1.69644       -12.29835         1.69096
| 45>    C        1.74582       -13.12540         2.74744
| 46>    C        0.61551       -13.78685         3.36498
| 47>    C        0.85759       -14.85075         4.24734
| 48>    C       -0.19449       -15.48646         4.85913
| 49>    C       -1.51356       -15.06476         4.62603
| 50>    C       -1.76764       -14.00714         3.76421
| 51>    C       -0.70659       -13.38220         3.14225
| 52>    C       -2.40668       -15.90395         5.39130
| 53>    C       -1.64327       -16.85716         6.09072
| 54>    C       -0.16639       -16.62052         5.86323
| 55>    C        0.52534       -16.07488         7.13494
| 56>    C        0.49920       -16.98901         8.35269
| 57>    C        0.54886       -17.86370         5.31642
| 58>    C       -0.04410       -18.33546         3.99359
| 59>    C       -2.26778       -17.83244         6.82729
| 60>    C       -3.67035       -17.83972         6.94463
| 61>    C       -4.40972       -16.85803         6.26604
| 62>    C       -3.79195       -15.90732         5.48306
| 63>    C       -4.28855       -18.85086         7.75614
| 64>    C       -5.58440       -18.87275         8.16171
| 65>    C       -6.13983       -19.88045         8.97247
| 66>    C       -7.42970       -19.86156         9.43530
| 67>    C       -8.06798       -20.82737        10.25216
| 68>    C       -9.35636       -20.52801        10.57454
| 69>    C       -9.81484       -19.30487        10.03489
| 70>    S       -8.55272       -18.55074         9.08683
| 71>    C      -11.05065       -18.71199        10.19653
| 72>    C      -12.15880       -19.18830        10.93017
| 73>    C      -13.23219       -18.35375        10.90679
| 74>    C      -13.04374       -17.16225        10.15423
| 75>    S      -11.42930       -17.16217         9.46845
| 76>    C      -14.00131       -16.18900        10.02559
| 77>    C      -13.96250       -14.96594         9.31340
| 78>    C      -14.99677       -14.05616         9.33931
| 79>    O      -15.06058       -12.89053         8.62070
| 80>    C      -14.09072       -12.52200         7.75577
| 81>    C      -14.19489       -11.39658         6.99542
| 82>    S      -12.81154       -11.16760         5.99753
| 83>    C      -12.08415       -12.60469         6.60843
| 84>    C      -12.87150       -13.21604         7.52917
| 85>    S      -12.46487       -14.69807         8.37499
| 86>    C      -16.17774       -14.20338        10.16276
| 87>    C      -17.21170       -13.35909        10.13389
| 88>    H       15.77508        -2.79894        -0.66915
| 89>    H       14.88972        -3.97969         0.42757
| 90>    H       14.72475        -2.31884        -3.06485
| 91>    H       12.70194        -3.00530        -4.49957
| 92>    H       10.72111        -3.93165        -5.37000
| 93>    H        8.53779        -5.22166        -5.76239
| 94>    H        6.96443        -6.74450        -4.67693
| 95>    H        5.17024        -7.91556        -3.90224
| 96>    H        7.59415        -9.14506         0.24750
| 97>    H        8.66507        -7.72088        -1.42247
| 98>    H        3.59381       -10.01243        -4.17150
| 99>    H        2.52768       -11.00412        -3.17338
|100>    H        5.57086       -11.26633        -3.30476
|101>    H        4.40312       -12.35130        -4.06392
|102>    H        4.50632       -12.25494        -2.30437
|103>    H        1.63576        -8.96524        -2.11926
|104>    H        2.71111        -7.97129        -3.10364
|105>    H        2.60937        -7.96248        -0.04797
|106>    H        1.93101        -6.72509        -1.10898
|107>    H        3.67855        -6.96543        -1.03458
|108>    H        1.69152       -11.10685        -0.66999
|109>    H        4.18575       -11.89128         2.72229
|110>    H        6.02080       -10.62545         1.70427
|111>    H        0.74766       -12.12938         1.19799
|112>    H        2.70393       -13.35871         3.19367
|113>    H        1.87603       -15.16679         4.42656
|114>    H       -2.77934       -13.67339         3.58669
|115>    H       -0.90108       -12.54771         2.48613
|116>    H        0.04218       -15.12981         7.39760
|117>    H        1.56373       -15.85274         6.87780
|118>    H       -0.51999       -17.15279         8.69172
|119>    H        1.05361       -16.52250         9.16458
|120>    H        0.96104       -17.94944         8.13873
|121>    H        0.47515       -18.67060         6.04692
|122>    H        1.60706       -17.63076         5.17834
|123>    H       -1.09731       -18.58042         4.11334
|124>    H        0.47872       -19.22200         3.64138
|125>    H        0.04227       -17.56008         3.23555
|126>    H       -1.70008       -18.60407         7.32696
|127>    H       -5.48631       -16.86229         6.33534
|128>    H       -4.37858       -15.17692         4.94558
|129>    H       -3.63634       -19.64774         8.09476
|130>    H       -6.25408       -18.07119         7.88020
|131>    H       -5.51685       -20.71844         9.25756
|132>    H       -7.54980       -21.71314        10.57604
|133>    H       -9.98687       -21.14791        11.18678
|134>    H      -12.13459       -20.12728        11.45382
|135>    H      -14.16272       -18.55022        11.41030
|136>    H      -14.92215       -16.41340        10.54296
|137>    H      -15.00480       -10.69767         6.97429
|138>    H      -11.12099       -12.91473         6.26000
|139>    H      -16.19748       -15.03386        10.84863
|140>    H      -17.23553       -12.51342         9.47022
|141>    H      -18.06073       -13.50012        10.77870
|142> *
|143>
|144>                          ****END OF INPUT****

CARTESIAN COORDINATES (ANGSTROEM)
---------------------------------
  C     14.943560   -3.463300   -0.513130
  C     14.015540   -3.631860   -1.464090
  C     13.960830   -3.011220   -2.757760
  C     12.898420   -3.373470   -3.507920
  C     12.023820   -4.305490   -2.879490
  S     12.620640   -4.706210   -1.277050
  C     10.871720   -4.844080   -3.389310
  C     10.277620   -4.603100   -4.656500
  C      9.125650   -5.283580   -4.862860
  C      8.711830   -6.116030   -3.777880
  S      9.897310   -5.986290   -2.480750
  C      7.562550   -6.846400   -3.777730
  C      6.994780   -7.698240   -2.775960
  C      5.690180   -8.186250   -2.993610
  C      5.087910   -8.977790   -2.051580
  C      5.768010   -9.328510   -0.870940
  C      7.061050   -8.874730   -0.651780
  C      7.659170   -8.066720   -1.595710
  C      4.893750  -10.147280   -0.061600
  C      3.668040  -10.293790   -0.733390
  C      3.700580   -9.577690   -2.063740
  C      3.526480  -10.565880   -3.232190
  C      4.567520  -11.678790   -3.224970
  C      2.617400   -8.486920   -2.145280
  C      2.716090   -7.471840   -1.012920
  C      2.639630  -11.000030   -0.161070
  C      2.814020  -11.594720    1.098240
  C      4.047110  -11.451670    1.746420
  C      5.082110  -10.734630    1.181370
  C      1.696440  -12.298350    1.690960
  C      1.745820  -13.125400    2.747440
  C      0.615510  -13.786850    3.364980
  C      0.857590  -14.850750    4.247340
  C     -0.194490  -15.486460    4.859130
  C     -1.513560  -15.064760    4.626030
  C     -1.767640  -14.007140    3.764210
  C     -0.706590  -13.382200    3.142250
  C     -2.406680  -15.903950    5.391300
  C     -1.643270  -16.857160    6.090720
  C     -0.166390  -16.620520    5.863230
  C      0.525340  -16.074880    7.134940
  C      0.499200  -16.989010    8.352690
  C      0.548860  -17.863700    5.316420
  C     -0.044100  -18.335460    3.993590
  C     -2.267780  -17.832440    6.827290
  C     -3.670350  -17.839720    6.944630
  C     -4.409720  -16.858030    6.266040
  C     -3.791950  -15.907320    5.483060
  C     -4.288550  -18.850860    7.756140
  C     -5.584400  -18.872750    8.161710
  C     -6.139830  -19.880450    8.972470
  C     -7.429700  -19.861560    9.435300
  C     -8.067980  -20.827370   10.252160
  C     -9.356360  -20.528010   10.574540
  C     -9.814840  -19.304870   10.034890
  S     -8.552720  -18.550740    9.086830
  C    -11.050650  -18.711990   10.196530
  C    -12.158800  -19.188300   10.930170
  C    -13.232190  -18.353750   10.906790
  C    -13.043740  -17.162250   10.154230
  S    -11.429300  -17.162170    9.468450
  C    -14.001310  -16.189000   10.025590
  C    -13.962500  -14.965940    9.313400
  C    -14.996770  -14.056160    9.339310
  O    -15.060580  -12.890530    8.620700
  C    -14.090720  -12.522000    7.755770
  C    -14.194890  -11.396580    6.995420
  S    -12.811540  -11.167600    5.997530
  C    -12.084150  -12.604690    6.608430
  C    -12.871500  -13.216040    7.529170
  S    -12.464870  -14.698070    8.374990
  C    -16.177740  -14.203380   10.162760
  C    -17.211700  -13.359090   10.133890
  H     15.775080   -2.798940   -0.669150
  H     14.889720   -3.979690    0.427570
  H     14.724750   -2.318840   -3.064850
  H     12.701940   -3.005300   -4.499570
  H     10.721110   -3.931650   -5.370000
  H      8.537790   -5.221660   -5.762390
  H      6.964430   -6.744500   -4.676930
  H      5.170240   -7.915560   -3.902240
  H      7.594150   -9.145060    0.247500
  H      8.665070   -7.720880   -1.422470
  H      3.593810  -10.012430   -4.171500
  H      2.527680  -11.004120   -3.173380
  H      5.570860  -11.266330   -3.304760
  H      4.403120  -12.351300   -4.063920
  H      4.506320  -12.254940   -2.304370
  H      1.635760   -8.965240   -2.119260
  H      2.711110   -7.971290   -3.103640
  H      2.609370   -7.962480   -0.047970
  H      1.931010   -6.725090   -1.108980
  H      3.678550   -6.965430   -1.034580
  H      1.691520  -11.106850   -0.669990
  H      4.185750  -11.891280    2.722290
  H      6.020800  -10.625450    1.704270
  H      0.747660  -12.129380    1.197990
  H      2.703930  -13.358710    3.193670
  H      1.876030  -15.166790    4.426560
  H     -2.779340  -13.673390    3.586690
  H     -0.901080  -12.547710    2.486130
  H      0.042180  -15.129810    7.397600
  H      1.563730  -15.852740    6.877800
  H     -0.519990  -17.152790    8.691720
  H      1.053610  -16.522500    9.164580
  H      0.961040  -17.949440    8.138730
  H      0.475150  -18.670600    6.046920
  H      1.607060  -17.630760    5.178340
  H     -1.097310  -18.580420    4.113340
  H      0.478720  -19.222000    3.641380
  H      0.042270  -17.560080    3.235550
  H     -1.700080  -18.604070    7.326960
  H     -5.486310  -16.862290    6.335340
  H     -4.378580  -15.176920    4.945580
  H     -3.636340  -19.647740    8.094760
  H     -6.254080  -18.071190    7.880200
  H     -5.516850  -20.718440    9.257560
  H     -7.549800  -21.713140   10.576040
  H     -9.986870  -21.147910   11.186780
  H    -12.134590  -20.127280   11.453820
  H    -14.162720  -18.550220   11.410300
  H    -14.922150  -16.413400   10.542960
  H    -15.004800  -10.697670    6.974290
  H    -11.120990  -12.914730    6.260000
  H    -16.197480  -15.033860   10.848630
  H    -17.235530  -12.513420    9.470220
  H    -18.060730  -13.500120   10.778700

 Total Charge           Charge          ....    0
 Multiplicity           Mult            ....    1
 Number of Electrons    NEL             ....  554
 Basis Dimension        Dim             .... 1316

ORBITAL ENERGIES
----------------

  NO   OCC          E(Eh)            E(eV)
   0   2.0000     -88.951523     -2420.4940
   1   2.0000     -88.936762     -2420.0923
   2   2.0000     -88.935652     -2420.0621
   3   2.0000     -88.935562     -2420.0597
   4   2.0000     -88.934005     -2420.0173
   5   2.0000     -88.930233     -2419.9147
   6   2.0000     -19.267194      -524.2870
   7   2.0000     -10.341226      -281.3991
   8   2.0000     -10.336038      -281.2579
   9   2.0000     -10.306837      -280.4633
  10   2.0000     -10.302707      -280.3509
  11   2.0000     -10.301278      -280.3120
  12   2.0000     -10.301165      -280.3090
  13   2.0000     -10.300128      -280.2807
  14   2.0000     -10.299339      -280.2593
  15   2.0000     -10.299195      -280.2553
  16   2.0000     -10.298729      -280.2427
  17   2.0000     -10.297797      -280.2173
  18   2.0000     -10.296576      -280.1841
  19   2.0000     -10.291837      -280.0551
  20   2.0000     -10.284967      -279.8682
  21   2.0000     -10.282912      -279.8123
  22   2.0000     -10.280483      -279.7462
  23   2.0000     -10.279677      -279.7242
  24   2.0000     -10.279445      -279.7179
  25   2.0000     -10.278528      -279.6930
  26   2.0000     -10.277555      -279.6665
  27   2.0000     -10.277053      -279.6528
  28   2.0000     -10.276835      -279.6469
  29   2.0000     -10.276545      -279.6390
  30   2.0000     -10.273065      -279.5443
  31   2.0000     -10.271270      -279.4955
  32   2.0000     -10.271004      -279.4882
  33   2.0000     -10.269698      -279.4527
  34   2.0000     -10.269682      -279.4522
  35   2.0000     -10.269289      -279.4416
  36   2.0000     -10.268675      -279.4249
  37   2.0000     -10.268168      -279.4111
  38   2.0000     -10.267726      -279.3990
  39   2.0000     -10.266392      -279.3627
  40   2.0000     -10.265097      -279.3275
  41   2.0000     -10.262489      -279.2565
  42   2.0000     -10.262447      -279.2554
  43   2.0000     -10.262234      -279.2496
  44   2.0000     -10.262161      -279.2476
  45   2.0000     -10.262137      -279.2469
  46   2.0000     -10.262014      -279.2436
  47   2.0000     -10.261571      -279.2315
  48   2.0000     -10.261433      -279.2278
  49   2.0000     -10.261368      -279.2260
  50   2.0000     -10.261089      -279.2184
  51   2.0000     -10.261083      -279.2183
  52   2.0000     -10.260851      -279.2119
  53   2.0000     -10.260672      -279.2071
  54   2.0000     -10.260262      -279.1959
  55   2.0000     -10.259941      -279.1872
  56   2.0000     -10.259832      -279.1842
  57   2.0000     -10.259739      -279.1817
  58   2.0000     -10.259716      -279.1811
  59   2.0000     -10.259622      -279.1785
  60   2.0000     -10.259585      -279.1775
  61   2.0000     -10.259176      -279.1664
  62   2.0000     -10.258420      -279.1458
  63   2.0000     -10.258272      -279.1418
  64   2.0000     -10.258178      -279.1392
  65   2.0000     -10.257120      -279.1104
  66   2.0000     -10.256510      -279.0938
  67   2.0000     -10.255856      -279.0760
  68   2.0000     -10.255811      -279.0748
  69   2.0000     -10.245890      -278.8048
  70   2.0000     -10.240166      -278.6491
  71   2.0000     -10.238772      -278.6111
  72   2.0000     -10.238757      -278.6108
  73   2.0000      -8.047460      -218.9825
  74   2.0000      -8.032011      -218.5621
  75   2.0000      -8.031548      -218.5495
  76   2.0000      -8.031318      -218.5433
  77   2.0000      -8.030218      -218.5133
  78   2.0000      -8.026905      -218.4232
  79   2.0000      -6.016906      -163.7283
  80   2.0000      -6.012688      -163.6135
  81   2.0000      -6.009303      -163.5215
  82   2.0000      -6.002410      -163.3339
  83   2.0000      -6.001473      -163.3084
  84   2.0000      -6.001145      -163.2995
  85   2.0000      -5.999953      -163.2670
  86   2.0000      -5.998389      -163.2245
  87   2.0000      -5.997174      -163.1914
  88   2.0000      -5.997140      -163.1905
  89   2.0000      -5.996764      -163.1802
  90   2.0000      -5.996022      -163.1600
  91   2.0000      -5.992842      -163.0735
  92   2.0000      -5.992270      -163.0580
  93   2.0000      -5.992113      -163.0537
  94   2.0000      -5.991544      -163.0382
  95   2.0000      -5.991057      -163.0250
  96   2.0000      -5.987387      -162.9251
  97   2.0000      -1.178044       -32.0562
  98   2.0000      -0.986521       -26.8446
  99   2.0000      -0.983697       -26.7678
 100   2.0000      -0.981956       -26.7204
 101   2.0000      -0.978291       -26.6207
 102   2.0000      -0.977895       -26.6099
 103   2.0000      -0.966030       -26.2870
 104   2.0000      -0.960695       -26.1418
 105   2.0000      -0.938888       -25.5484
 106   2.0000      -0.934644       -25.4329
 107   2.0000      -0.933677       -25.4066
 108   2.0000      -0.915098       -24.9011
 109   2.0000      -0.908321       -24.7167
 110   2.0000      -0.893606       -24.3162
 111   2.0000      -0.886730       -24.1292
 112   2.0000      -0.883438       -24.0396
 113   2.0000      -0.878834       -23.9143
 114   2.0000      -0.870933       -23.6993
 115   2.0000      -0.863752       -23.5039
 116   2.0000      -0.852987       -23.2110
 117   2.0000      -0.842479       -22.9250
 118   2.0000      -0.837873       -22.7997
 119   2.0000      -0.835822       -22.7439
 120   2.0000      -0.830224       -22.5916
 121   2.0000      -0.829633       -22.5755
 122   2.0000      -0.827565       -22.5192
 123   2.0000      -0.825027       -22.4501
 124   2.0000      -0.824573       -22.4378
 125   2.0000      -0.823697       -22.4139
 126   2.0000      -0.822130       -22.3713
 127   2.0000      -0.819547       -22.3010
 128   2.0000      -0.816528       -22.2189
 129   2.0000      -0.811389       -22.0790
 130   2.0000      -0.808470       -21.9996
 131   2.0000      -0.798116       -21.7178
 132   2.0000      -0.782921       -21.3044
 133   2.0000      -0.771253       -20.9869
 134   2.0000      -0.764146       -20.7935
 135   2.0000      -0.756758       -20.5924
 136   2.0000      -0.755216       -20.5505
 137   2.0000      -0.752561       -20.4782
 138   2.0000      -0.733714       -19.9654
 139   2.0000      -0.721388       -19.6300
 140   2.0000      -0.711636       -19.3646
 141   2.0000      -0.709331       -19.3019
 142   2.0000      -0.704701       -19.1759
 143   2.0000      -0.697817       -18.9886
 144   2.0000      -0.685214       -18.6456
 145   2.0000      -0.682592       -18.5743
 146   2.0000      -0.678216       -18.4552
 147   2.0000      -0.673939       -18.3388
 148   2.0000      -0.671732       -18.2788
 149   2.0000      -0.667312       -18.1585
 150   2.0000      -0.666711       -18.1421
 151   2.0000      -0.665942       -18.1212
 152   2.0000      -0.655608       -17.8400
 153   2.0000      -0.653493       -17.7824
 154   2.0000      -0.648696       -17.6519
 155   2.0000      -0.646562       -17.5939
 156   2.0000      -0.639534       -17.4026
 157   2.0000      -0.629799       -17.1377
 158   2.0000      -0.626870       -17.0580
 159   2.0000      -0.620875       -16.8949
 160   2.0000      -0.614984       -16.7346
 161   2.0000      -0.611055       -16.6276
 162   2.0000      -0.606925       -16.5153
 163   2.0000      -0.603528       -16.4228
 164   2.0000      -0.595792       -16.2123
 165   2.0000      -0.593675       -16.1547
 166   2.0000      -0.591581       -16.0977
 167   2.0000      -0.589684       -16.0461
 168   2.0000      -0.583131       -15.8678
 169   2.0000      -0.582112       -15.8401
 170   2.0000      -0.570520       -15.5247
 171   2.0000      -0.569259       -15.4903
 172   2.0000      -0.564710       -15.3665
 173   2.0000      -0.560480       -15.2514
 174   2.0000      -0.553424       -15.0594
 175   2.0000      -0.548976       -14.9384
 176   2.0000      -0.543249       -14.7826
 177   2.0000      -0.541087       -14.7237
 178   2.0000      -0.538929       -14.6650
 179   2.0000      -0.535406       -14.5691
 180   2.0000      -0.534923       -14.5560
 181   2.0000      -0.533254       -14.5106
 182   2.0000      -0.529383       -14.4052
 183   2.0000      -0.525570       -14.3015
 184   2.0000      -0.523507       -14.2454
 185   2.0000      -0.523204       -14.2371
 186   2.0000      -0.515022       -14.0145
 187   2.0000      -0.513733       -13.9794
 188   2.0000      -0.510711       -13.8971
 189   2.0000      -0.509832       -13.8732
 190   2.0000      -0.508451       -13.8357
 191   2.0000      -0.508116       -13.8265
 192   2.0000      -0.506061       -13.7706
 193   2.0000      -0.502481       -13.6732
 194   2.0000      -0.499683       -13.5971
 195   2.0000      -0.495206       -13.4752
 196   2.0000      -0.492867       -13.4116
 197   2.0000      -0.492468       -13.4007
 198   2.0000      -0.488682       -13.2977
 199   2.0000      -0.487606       -13.2684
 200   2.0000      -0.486794       -13.2463
 201   2.0000      -0.484881       -13.1943
 202   2.0000      -0.483064       -13.1448
 203   2.0000      -0.482645       -13.1334
 204   2.0000      -0.478740       -13.0272
 205   2.0000      -0.476370       -12.9627
 206   2.0000      -0.472303       -12.8520
 207   2.0000      -0.471865       -12.8401
 208   2.0000      -0.470190       -12.7945
 209   2.0000      -0.467481       -12.7208
 210   2.0000      -0.465887       -12.6774
 211   2.0000      -0.465173       -12.6580
 212   2.0000      -0.462974       -12.5982
 213   2.0000      -0.462841       -12.5945
 214   2.0000      -0.461450       -12.5567
 215   2.0000      -0.460004       -12.5174
 216   2.0000      -0.457221       -12.4416
 217   2.0000      -0.453958       -12.3528
 218   2.0000      -0.452539       -12.3142
 219   2.0000      -0.450260       -12.2522
 220   2.0000      -0.448192       -12.1959
 221   2.0000      -0.444789       -12.1033
 222   2.0000      -0.443850       -12.0778
 223   2.0000      -0.439086       -11.9481
 224   2.0000      -0.438953       -11.9445
 225   2.0000      -0.434565       -11.8251
 226   2.0000      -0.432727       -11.7751
 227   2.0000      -0.432212       -11.7611
 228   2.0000      -0.430531       -11.7154
 229   2.0000      -0.426671       -11.6103
 230   2.0000      -0.425693       -11.5837
 231   2.0000      -0.424342       -11.5469
 232   2.0000      -0.423606       -11.5269
 233   2.0000      -0.421282       -11.4637
 234   2.0000      -0.418984       -11.4011
 235   2.0000      -0.417531       -11.3616
 236   2.0000      -0.417198       -11.3525
 237   2.0000      -0.412279       -11.2187
 238   2.0000      -0.411334       -11.1930
 239   2.0000      -0.409763       -11.1502
 240   2.0000      -0.408644       -11.1198
 241   2.0000      -0.407122       -11.0783
 242   2.0000      -0.403909       -10.9909
 243   2.0000      -0.400816       -10.9068
 244   2.0000      -0.399479       -10.8704
 245   2.0000      -0.396128       -10.7792
 246   2.0000      -0.394345       -10.7307
 247   2.0000      -0.386595       -10.5198
 248   2.0000      -0.386195       -10.5089
 249   2.0000      -0.382782       -10.4160
 250   2.0000      -0.379216       -10.3190
 251   2.0000      -0.377481       -10.2718
 252   2.0000      -0.374726       -10.1968
 253   2.0000      -0.373595       -10.1660
 254   2.0000      -0.371751       -10.1159
 255   2.0000      -0.370947       -10.0940
 256   2.0000      -0.368167       -10.0183
 257   2.0000      -0.364486        -9.9182
 258   2.0000      -0.351074        -9.5532
 259   2.0000      -0.336196        -9.1484
 260   2.0000      -0.330414        -8.9910
 261   2.0000      -0.329868        -8.9762
 262   2.0000      -0.322484        -8.7752
 263   2.0000      -0.316440        -8.6108
 264   2.0000      -0.315864        -8.5951
 265   2.0000      -0.312286        -8.4977
 266   2.0000      -0.309627        -8.4254
 267   2.0000      -0.305541        -8.3142
 268   2.0000      -0.305154        -8.3037
 269   2.0000      -0.301511        -8.2045
 270   2.0000      -0.293224        -7.9790
 271   2.0000      -0.285273        -7.7627
 272   2.0000      -0.268999        -7.3198
 273   2.0000      -0.249321        -6.7844
 274   2.0000      -0.236423        -6.4334
 275   2.0000      -0.210435        -5.7262
 276   2.0000      -0.194576        -5.2947
 277   0.0000      -0.071510        -1.9459
 278   0.0000      -0.057359        -1.5608
 279   0.0000      -0.028145        -0.7659
 280   0.0000      -0.011512        -0.3133
 281   0.0000       0.009481         0.2580

MULLIKEN ATOMIC CHARGES
-----------------------
   0 C :   -0.032630
   1 C :   -0.062855
   2 C :    0.048371
   3 C :    0.031362
   4 C :   -0.068937
   5 S :    0.074554
   6 C :   -0.034460
   7 C :    0.027228
   8 C :    0.033766
   9 C :   -0.004340
  10 S :    0.051618
  11 C :   -0.045684
  12 C :    0.121648
  13 C :   -0.116402
  14 C :    0.027885
  15 C :    0.108416
  16 C :   -0.053064
  17 C :   -0.020760
  18 C :    0.106667
  19 C :    0.023763
  20 C :   -0.144400
  21 C :    0.073406
  22 C :    0.023790
  23 C :    0.066380
  24 C :    0.027541
  25 C :   -0.113905
  26 C :    0.127552
  27 C :   -0.015794
  28 C :   -0.047387
  29 C :    0.001142
  30 C :    0.002932
  31 C :    0.126278
  32 C :   -0.113121
  33 C :    0.023088
  34 C :    0.101206
  35 C :   -0.044337
  36 C :   -0.018939
  37 C :    0.103732
  38 C :    0.027365
  39 C :   -0.135925
  40 C :    0.082070
  41 C :    0.029162
  42 C :    0.051154
  43 C :    0.025079
  44 C :   -0.115026
  45 C :    0.127145
  46 C :   -0.012366
  47 C :   -0.048758
  48 C :   -0.012394
  49 C :    0.016519
  50 C :   -0.015807
  51 C :   -0.019460
  52 C :    0.038807
  53 C :    0.020855
  54 C :   -0.046637
  55 S :    0.060587
  56 C :   -0.035579
  57 C :    0.033418
  58 C :    0.023242
  59 C :   -0.030054
  60 S :    0.073404
  61 C :   -0.056335
  62 C :   -0.027595
  63 C :    0.156992
  64 O :   -0.248753
  65 C :    0.240701
  66 C :   -0.160603
  67 S :    0.112675
  68 C :   -0.132132
  69 C :   -0.001732
  70 S :    0.064241
  71 C :   -0.059862
  72 C :    0.015697
  73 H :    0.017587
  74 H :    0.019731
  75 H :   -0.013990
  76 H :   -0.014094
  77 H :   -0.016885
  78 H :   -0.015815
  79 H :   -0.027169
  80 H :   -0.045144
  81 H :   -0.038113
  82 H :   -0.019322
  83 H :   -0.005353
  84 H :   -0.004809
  85 H :    0.022036
  86 H :    0.006445
  87 H :    0.022952
  88 H :   -0.004913
  89 H :   -0.005259
  90 H :    0.020833
  91 H :    0.006601
  92 H :    0.022303
  93 H :   -0.045769
  94 H :   -0.032479
  95 H :   -0.038922
  96 H :   -0.025470
  97 H :   -0.025837
  98 H :   -0.044633
  99 H :   -0.040046
 100 H :   -0.031659
 101 H :    0.004228
 102 H :   -0.006290
 103 H :    0.021766
 104 H :    0.010739
 105 H :    0.000695
 106 H :    0.005337
 107 H :   -0.003521
 108 H :    0.020034
 109 H :    0.006562
 110 H :    0.022626
 111 H :   -0.040910
 112 H :   -0.029860
 113 H :   -0.038626
 114 H :   -0.028292
 115 H :    0.000740
 116 H :   -0.020777
 117 H :   -0.016353
 118 H :   -0.015861
 119 H :   -0.018250
 120 H :   -0.016926
 121 H :   -0.019419
 122 H :    0.019609
 123 H :    0.023339
 124 H :   -0.004435
 125 H :    0.028201
 126 H :    0.017433
Sum of atomic charges:   -0.0000000

LOEWDIN ATOMIC CHARGES
----------------------
   0 C :   -0.082279
   1 C :   -0.138885
   2 C :   -0.034253
   3 C :   -0.026079
   4 C :   -0.179621
   5 S :    0.345099
   6 C :   -0.179843
   7 C :   -0.038879
   8 C :   -0.029322
   9 C :   -0.145381
  10 S :    0.371651
  11 C :   -0.052087
  12 C :   -0.028485
  13 C :   -0.020559
  14 C :    0.000780
  15 C :   -0.017389
  16 C :   -0.017238
  17 C :   -0.024814
  18 C :   -0.020051
  19 C :    0.002609
  20 C :   -0.035226
  21 C :   -0.011503
  22 C :   -0.057960
  23 C :   -0.012574
  24 C :   -0.057766
  25 C :   -0.024123
  26 C :   -0.022775
  27 C :   -0.016737
  28 C :   -0.017972
  29 C :   -0.019759
  30 C :   -0.019041
  31 C :   -0.022819
  32 C :   -0.024061
  33 C :    0.004790
  34 C :   -0.020681
  35 C :   -0.018749
  36 C :   -0.017621
  37 C :   -0.016139
  38 C :    0.001128
  39 C :   -0.034155
  40 C :   -0.009204
  41 C :   -0.059812
  42 C :   -0.016019
  43 C :   -0.056845
  44 C :   -0.022254
  45 C :   -0.027607
  46 C :   -0.013632
  47 C :   -0.019583
  48 C :   -0.015834
  49 C :   -0.033472
  50 C :   -0.054260
  51 C :   -0.146443
  52 C :   -0.035392
  53 C :   -0.034899
  54 C :   -0.178878
  55 S :    0.362857
  56 C :   -0.184250
  57 C :   -0.034197
  58 C :   -0.036755
  59 C :   -0.152718
  60 S :    0.366997
  61 C :   -0.077394
  62 C :   -0.186265
  63 C :    0.035380
  64 O :   -0.037880
  65 C :   -0.002643
  66 C :   -0.214700
  67 S :    0.436482
  68 C :   -0.205563
  69 C :   -0.217942
  70 S :    0.349276
  71 C :   -0.043401
  72 C :   -0.030355
  73 H :    0.027492
  74 H :    0.025427
  75 H :    0.032378
  76 H :    0.031530
  77 H :    0.030273
  78 H :    0.031791
  79 H :    0.031361
  80 H :    0.021970
  81 H :    0.026673
  82 H :    0.011034
  83 H :    0.018617
  84 H :    0.019066
  85 H :    0.025715
  86 H :    0.022843
  87 H :    0.026128
  88 H :    0.018695
  89 H :    0.018726
  90 H :    0.025562
  91 H :    0.022770
  92 H :    0.026137
  93 H :    0.022200
  94 H :    0.024316
  95 H :    0.025926
  96 H :    0.024152
  97 H :    0.023909
  98 H :    0.021890
  99 H :    0.025310
 100 H :    0.024248
 101 H :    0.026736
 102 H :    0.018897
 103 H :    0.024584
 104 H :    0.026819
 105 H :    0.018850
 106 H :    0.018913
 107 H :    0.019543
 108 H :    0.025547
 109 H :    0.022603
 110 H :    0.025782
 111 H :    0.022228
 112 H :    0.025929
 113 H :    0.025908
 114 H :    0.025344
 115 H :    0.019554
 116 H :    0.030909
 117 H :    0.032086
 118 H :    0.030468
 119 H :    0.030651
 120 H :    0.030836
 121 H :    0.035388
 122 H :    0.026867
 123 H :    0.025424
 124 H :    0.030706
 125 H :    0.024554
 126 H :    0.024711

  Mayer bond orders larger than 0.100000
B(  0-C ,  1-C ) :   1.8674 B(  0-C , 73-H ) :   0.9504 B(  0-C , 74-H ) :   0.9408
B(  1-C ,  2-C ) :   1.0786 B(  1-C ,  5-S ) :   1.0081 B(  2-C ,  3-C ) :   1.6661
B(  2-C , 75-H ) :   0.9928 B(  3-C ,  4-C ) :   1.1475 B(  3-C , 76-H ) :   0.9913
B(  4-C ,  5-S ) :   1.0374 B(  4-C ,  6-C ) :   1.5758 B(  6-C ,  7-C ) :   1.1548
B(  6-C , 10-S ) :   1.0266 B(  7-C ,  8-C ) :   1.6272 B(  7-C , 77-H ) :   0.9919
B(  8-C ,  9-C ) :   1.1165 B(  8-C , 78-H ) :   0.9986 B(  9-C , 10-S ) :   1.0220
B(  9-C , 11-C ) :   1.6147 B( 11-C , 12-C ) :   1.0979 B( 11-C , 79-H ) :   0.9703
B( 12-C , 13-C ) :   1.2637 B( 12-C , 17-C ) :   1.3265 B( 13-C , 14-C ) :   1.3891
B( 13-C , 80-H ) :   1.0139 B( 14-C , 15-C ) :   1.3546 B( 14-C , 20-C ) :   0.9169
B( 15-C , 16-C ) :   1.3349 B( 15-C , 18-C ) :   1.0000 B( 16-C , 17-C ) :   1.4100
B( 16-C , 81-H ) :   0.9902 B( 17-C , 82-H ) :   0.9689 B( 18-C , 19-C ) :   1.3667
B( 18-C , 28-C ) :   1.3307 B( 19-C , 20-C ) :   0.9163 B( 19-C , 25-C ) :   1.3754
B( 20-C , 21-C ) :   1.0362 B( 20-C , 23-C ) :   1.0399 B( 21-C , 22-C ) :   1.0997
B( 21-C , 83-H ) :   0.9394 B( 21-C , 84-H ) :   0.9393 B( 22-C , 85-H ) :   0.9645
B( 22-C , 86-H ) :   0.9640 B( 22-C , 87-H ) :   0.9649 B( 23-C , 24-C ) :   1.1021
B( 23-C , 88-H ) :   0.9387 B( 23-C , 89-H ) :   0.9387 B( 24-C , 90-H ) :   0.9640
B( 24-C , 91-H ) :   0.9640 B( 24-C , 92-H ) :   0.9644 B( 25-C , 26-C ) :   1.2854
B( 25-C , 93-H ) :   1.0139 B( 26-C , 27-C ) :   1.3524 B( 26-C , 29-C ) :   1.0570
B( 27-C , 28-C ) :   1.3946 B( 27-C , 94-H ) :   0.9836 B( 28-C , 95-H ) :   0.9899
B( 29-C , 30-C ) :   1.7117 B( 29-C , 96-H ) :   0.9777 B( 30-C , 31-C ) :   1.0556
B( 30-C , 97-H ) :   0.9777 B( 31-C , 32-C ) :   1.2905 B( 31-C , 36-C ) :   1.3521
B( 32-C , 33-C ) :   1.3741 B( 32-C , 98-H ) :   1.0112 B( 33-C , 34-C ) :   1.3788
B( 33-C , 39-C ) :   0.9256 B( 34-C , 35-C ) :   1.3304 B( 34-C , 37-C ) :   1.0032
B( 35-C , 36-C ) :   1.3942 B( 35-C , 99-H ) :   0.9899 B( 36-C ,100-H ) :   0.9850
B( 37-C , 38-C ) :   1.3804 B( 37-C , 47-C ) :   1.3249 B( 38-C , 39-C ) :   0.9180
B( 38-C , 44-C ) :   1.3887 B( 39-C , 40-C ) :   1.0153 B( 39-C , 42-C ) :   1.0325
B( 40-C , 41-C ) :   1.1149 B( 40-C ,101-H ) :   0.9385 B( 40-C ,102-H ) :   0.9362
B( 41-C ,103-H ) :   0.9605 B( 41-C ,104-H ) :   0.9596 B( 41-C ,105-H ) :   0.9629
B( 42-C , 43-C ) :   1.1049 B( 42-C ,106-H ) :   0.9385 B( 42-C ,107-H ) :   0.9389
B( 43-C ,108-H ) :   0.9648 B( 43-C ,109-H ) :   0.9644 B( 43-C ,110-H ) :   0.9632
B( 44-C , 45-C ) :   1.2755 B( 44-C ,111-H ) :   1.0048 B( 45-C , 46-C ) :   1.3391
B( 45-C , 48-C ) :   1.0698 B( 46-C , 47-C ) :   1.4030 B( 46-C ,112-H ) :   0.9845
B( 47-C ,113-H ) :   0.9893 B( 48-C , 49-C ) :   1.6508 B( 48-C ,114-H ) :   0.9881
B( 49-C , 50-C ) :   1.1482 B( 49-C ,115-H ) :   0.9626 B( 50-C , 51-C ) :   1.5686
B( 50-C ,116-H ) :   0.9850 B( 51-C , 52-C ) :   1.1394 B( 51-C , 55-S ) :   1.0258
B( 52-C , 53-C ) :   1.5896 B( 52-C ,117-H ) :   0.9989 B( 53-C , 54-C ) :   1.1887
B( 53-C ,118-H ) :   0.9935 B( 54-C , 55-S ) :   1.0434 B( 54-C , 56-C ) :   1.5123
B( 56-C , 57-C ) :   1.1848 B( 56-C , 60-S ) :   1.0325 B( 57-C , 58-C ) :   1.5996
B( 57-C ,119-H ) :   0.9919 B( 58-C , 59-C ) :   1.1422 B( 58-C ,120-H ) :   0.9986
B( 59-C , 60-S ) :   1.0283 B( 59-C , 61-C ) :   1.5991 B( 61-C , 62-C ) :   1.1856
B( 61-C ,121-H ) :   0.9555 B( 62-C , 63-C ) :   1.5359 B( 62-C , 70-S ) :   0.9649
B( 63-C , 64-O ) :   1.0675 B( 63-C , 71-C ) :   1.1409 B( 64-O , 65-C ) :   1.0684
B( 65-C , 66-C ) :   1.5845 B( 65-C , 69-C ) :   1.2285 B( 66-C , 67-S ) :   1.1449
B( 66-C ,122-H ) :   0.9679 B( 67-S , 68-C ) :   1.1672 B( 68-C , 69-C ) :   1.5798
B( 68-C ,123-H ) :   0.9704 B( 69-C , 70-S ) :   0.9805 B( 71-C , 72-C ) :   1.9210
B( 71-C ,124-H ) :   0.9544 B( 72-C ,125-H ) :   0.9496 B( 72-C ,126-H ) :   0.9420

-----------------------------------------------------------------------------
         ABSORPTION SPECTRUM VIA TRANSITION ELECTRIC DIPOLE MOMENTS
-----------------------------------------------------------------------------
State   Energy  Wavelength   fosc         T2         TX        TY        TZ
        (cm-1)    (nm)                  (au**2)     (au)      (au)      (au)
-----------------------------------------------------------------------------
   0   14059.5    711.3   1.697589381  39.75009   5.98515  -1.33935  -1.46089
   1   19658.8    508.7   2.037050132  34.11305  -4.57451  -3.57906   0.61420
   2   21756.0    459.6   0.109902768   1.66305  -0.82818  -0.53210   0.83309
   3   23578.3    424.1   0.545657371   7.61875   0.62143   2.04423  -1.74749
   4   25117.8    398.1   0.171282803   2.24496   0.04657  -1.12664   0.98664
   5   25402.7    393.7   0.016343825   0.21181  -0.27996   0.03193  -0.36389
   6   27249.8    367.0   0.587096221   7.09287   0.51926   2.08129  -1.57844
   7   28399.4    352.1   0.137450952   1.59336   0.48072   0.77566  -0.87214
   8   28863.1    346.5   0.279442624   3.18732  -0.61161  -0.75473   1.49787
   9   29909.8    334.3   0.142711584   1.57080  -0.17705   0.06669   1.23895
  10   31523.2    317.2   0.028454240   0.29716   0.11097  -0.41165   0.33970
  11   31736.6    315.1   0.021153804   0.21943   0.08084  -0.36556   0.28154
  12   32578.1    307.0   0.198335806   2.00425   0.18681   1.15808  -0.79259
  13   32841.0    304.5   0.045820768   0.45933   0.33461   0.46670  -0.35994
  14   33115.3    302.0   0.003011619   0.02994   0.00865  -0.07764   0.15439
  15   33275.6    300.5   0.071927137   0.71161   0.75804  -0.05540   0.36595
  16   33806.8    295.8   0.088869541   0.86541  -0.68184  -0.54311   0.32486
  17   34286.1    291.7   0.014027198   0.13469   0.00976  -0.28930   0.22561
  18   34783.3    287.5   0.018073433   0.17106   0.09375   0.21491  -0.34071
  19   34858.1    286.9   0.003880350   0.03665  -0.19129  -0.00737  -0.00011
  20   35056.2    285.3   0.079217221   0.74393  -0.25584   0.36729  -0.73727
  21   35500.4    281.7   0.164114131   1.52191   0.85448   0.67488  -0.57992
  22   35694.9    280.2   0.090177579   0.83170  -0.49933  -0.52556   0.55332
  23   36130.9    276.8   0.019888982   0.18122  -0.31752  -0.13957   0.24682
  24   36475.1    274.2   0.039275872   0.35449   0.41340  -0.41280  -0.11484
  25   36947.3    270.7   0.101228926   0.90198   0.79776   0.03858  -0.51388
  26   37150.6    269.2   0.027269875   0.24165   0.30592  -0.37731   0.07556
  27   38069.0    262.7   0.032971051   0.28513  -0.24004  -0.28942   0.37913
  28   38362.2    260.7   0.050952109   0.43725   0.65458  -0.07888  -0.05061
  29   38789.1    257.8   0.031604581   0.26824   0.49666   0.06751  -0.13040
  30   38883.0    257.2   0.015024256   0.12721   0.07233  -0.28695   0.19909
  31   39459.8    253.4   0.002245800   0.01874  -0.13115  -0.00834   0.03829
  32   39520.4    253.0   0.025823367   0.21511   0.35461   0.12123  -0.27326
  33   39578.5    252.7   0.033187020   0.27605   0.38912  -0.26975   0.22774

FINAL SINGLE POINT ENERGY     -5007.679204346950

DIPOLE MOMENT
-------------
                                X             Y             Z
Electronic contribution:    -71.71070      11.10569      31.63917
Nuclear contribution   :     71.67055     -11.32261     -31.86562
                        -----------------------------------------
Total Dipole Moment    :     -0.04015      -0.21693      -0.22645
                        -----------------------------------------
Magnitude (a.u.)       :      0.31615
Magnitude (Debye)      :      0.80359

Rotational constants in cm-1:     0.001289     0.000131     0.000123
Rotational constants in MHz :    38.637372     3.928647     3.673272

                             ****ORCA TERMINATED NORMALLY****
TOTAL RUN TIME: 0 days 0 hours 12 minutes 26 seconds 224 msec
