                         Program Version 4.2.0 -  RELEASE  -
|  1> # ORCA input file
|  2> # SCF done       -206.704060834278          0.000961398293
|  3> ! CAM-B3LYP def2-SVP def2/J RIJCOSX Grid4 TightSCF
|  4> %maxcore 5000
|  5> %tddft
|  6>     Mode sTDDFT
|  7>     Ethresh 5.0
|  8>     maxcore 5000
|  9> end
| 10>
| 11> %pal
| 12>   nprocs 6
| 13>   end
| 14> * xyz 0 1
| 15>    C       -1.92908        -0.10750         1.98212
| 16>    C       -1.57068        -0.19046         0.66048
| 17>    C       -0.61820        -1.10186         0.15681
| 18>    N        0.13989        -1.81929        -0.32115
| 19>    C       -2.06009         0.61476        -0.38946
| 20>    N       -2.39050         1.22828        -1.30304
| 21>    C       -1.34513        -0.90342         3.05558
| 22>    C       -1.88539        -0.46500         4.28753
| 23>    C       -1.52902        -1.01219         5.49589
| 24>    C       -0.59205        -2.05010         5.48840
| 25>    C       -0.06045        -2.48882         4.25181
| 26>    C       -0.42041        -1.93181         3.03095
| 27>    S        1.07348        -3.78736         4.46964
| 28>    C        0.82395        -3.72141         6.19434
| 29>    C       -0.06334        -2.77759         6.58925
| 30>   Br        1.75437        -4.90767         7.30927
| 31>    C       -2.85406         0.62043         4.04638
| 32>    O       -3.49201         1.19550         4.90226
| 33>    C       -2.89881         0.80018         2.57576
| 34>    C       -3.76242         1.57294         1.84600
| 35>    C       -4.73784         2.50582         2.24507
| 36>    C       -5.04761         3.08931         3.46882
| 37>    C       -6.12934         3.95205         3.37871
| 38>    C       -6.66418         4.04365         2.07265
| 39>    S       -5.81098         3.08831         0.95844
| 40>    C       -7.80259         4.88311         2.10527
| 41>    C       -7.99247         5.32145         3.43014
| 42>    C       -6.92908         4.78423         4.26495
| 43>    C       -6.71077         5.03360         5.58679
| 44>    C       -5.61248         4.50450         6.30037
| 45>    N       -4.72326         4.10912         6.90574
| 46>    C       -7.55269         5.87782         6.34360
| 47>    N       -8.22357         6.56384         6.97109
| 48>    C       -9.13378         6.10531         3.57788
| 49>    C       -9.80393         6.27052         2.37633
| 50>    S       -9.00109         5.47241         1.03777
| 51>    C      -11.03981         6.94303         2.12221
| 52>    C      -11.90675         7.43286         3.09096
| 53>    F      -11.59472         7.34483         4.39391
| 54>    C      -13.14651         8.00582         2.78743
| 55>    F      -13.86836         8.41984         3.84702
| 56>    C      -13.64545         8.17184         1.49735
| 57>    C      -12.75570         7.72977         0.47444
| 58>    C      -11.49718         7.11386         0.79072
| 59>    N      -10.84341         6.73983        -0.30142
| 60>    S      -11.70370         7.13548        -1.61321
| 61>    N      -12.94706         7.78187        -0.84001
| 62>    C      -14.95727         8.70280         1.20181
| 63>    C      -15.28775         9.16316        -0.05613
| 64>    C      -16.53738         9.64131        -0.43629
| 65>    C      -17.63160         9.73395         0.53083
| 66>    C      -17.53094         9.33535         1.82183
| 67>    S      -16.11718         8.68450         2.51508
| 68>    C      -18.72362        10.32066        -0.16317
| 69>    C      -18.34546        10.59516        -1.47637
| 70>    C      -19.39241        11.18216        -2.21981
| 71>    C      -20.51175        11.33668        -1.46472
| 72>    S      -20.34631        10.77887         0.16584
| 73>    C      -16.98418        10.16382        -1.68202
| 74>    C      -16.34115        10.31280        -2.91932
| 75>    C      -15.14951         9.77961        -3.34842
| 76>    C      -14.62338        10.12571        -4.59672
| 77>    C      -13.42467         9.67234        -5.11119
| 78>    C      -12.79063        10.09810        -6.33973
| 79>    C      -13.31509        10.92336        -7.30343
| 80>    C      -12.63340        11.29711        -8.47948
| 81>    N      -12.13545        11.64153        -9.45527
| 82>    C      -14.60070        11.50023        -7.27714
| 83>    N      -15.63230        12.00314        -7.33238
| 84>    C      -11.46746         9.47857        -6.39109
| 85>    C      -11.31825         8.64109        -5.24724
| 86>    C      -12.54654         8.70952        -4.44692
| 87>    O      -12.79500         8.06343        -3.43153
| 88>    C      -10.17540         7.93105        -5.01552
| 89>    C       -9.10368         8.03359        -5.93134
| 90>    C       -9.24447         8.86830        -7.07668
| 91>    C      -10.44445         9.58734        -7.29281
| 92>    C       -8.16986         8.96367        -7.98266
| 93>    C       -7.00975         8.26879        -7.76897
| 94>    C       -6.87200         7.44785        -6.64055
| 95>    C       -7.89723         7.33253        -5.74066
| 96>    H       -1.95949        -0.64840         6.41562
| 97>    H        0.01242        -2.30576         2.11852
| 98>    H       -0.33591        -2.60040         7.61359
| 99>    H       -3.72635         1.43819         0.77116
|100>    H       -4.50671         2.86180         4.36953
|101>    H       -9.46504         6.52982         4.50720
|102>    H      -14.49416         9.14270        -0.78521
|103>    H      -18.35504         9.41491         2.51368
|104>    H      -19.33086        11.47597        -3.25172
|105>    H      -21.45322        11.75307        -1.76541
|106>    H      -16.88396        10.92227        -3.63494
|107>    H      -14.60105         9.07730        -2.74348
|108>    H      -15.18378        10.84617        -5.17873
|109>    H      -10.08310         7.29981        -4.14306
|110>    H      -10.51743        10.21099        -8.16938
|111>    H       -8.28048         9.59710        -8.85053
|112>    H       -6.19218         8.34874        -8.46956
|113>    H       -5.95040         6.90683        -6.48699
|114>    H       -7.79688         6.70168        -4.86940
|115> *
|116>
|117>                          ****END OF INPUT****

CARTESIAN COORDINATES (ANGSTROEM)
---------------------------------
  C     -1.929080   -0.107500    1.982120
  C     -1.570680   -0.190460    0.660480
  C     -0.618200   -1.101860    0.156810
  N      0.139890   -1.819290   -0.321150
  C     -2.060090    0.614760   -0.389460
  N     -2.390500    1.228280   -1.303040
  C     -1.345130   -0.903420    3.055580
  C     -1.885390   -0.465000    4.287530
  C     -1.529020   -1.012190    5.495890
  C     -0.592050   -2.050100    5.488400
  C     -0.060450   -2.488820    4.251810
  C     -0.420410   -1.931810    3.030950
  S      1.073480   -3.787360    4.469640
  C      0.823950   -3.721410    6.194340
  C     -0.063340   -2.777590    6.589250
  Br     1.754370   -4.907670    7.309270
  C     -2.854060    0.620430    4.046380
  O     -3.492010    1.195500    4.902260
  C     -2.898810    0.800180    2.575760
  C     -3.762420    1.572940    1.846000
  C     -4.737840    2.505820    2.245070
  C     -5.047610    3.089310    3.468820
  C     -6.129340    3.952050    3.378710
  C     -6.664180    4.043650    2.072650
  S     -5.810980    3.088310    0.958440
  C     -7.802590    4.883110    2.105270
  C     -7.992470    5.321450    3.430140
  C     -6.929080    4.784230    4.264950
  C     -6.710770    5.033600    5.586790
  C     -5.612480    4.504500    6.300370
  N     -4.723260    4.109120    6.905740
  C     -7.552690    5.877820    6.343600
  N     -8.223570    6.563840    6.971090
  C     -9.133780    6.105310    3.577880
  C     -9.803930    6.270520    2.376330
  S     -9.001090    5.472410    1.037770
  C    -11.039810    6.943030    2.122210
  C    -11.906750    7.432860    3.090960
  F    -11.594720    7.344830    4.393910
  C    -13.146510    8.005820    2.787430
  F    -13.868360    8.419840    3.847020
  C    -13.645450    8.171840    1.497350
  C    -12.755700    7.729770    0.474440
  C    -11.497180    7.113860    0.790720
  N    -10.843410    6.739830   -0.301420
  S    -11.703700    7.135480   -1.613210
  N    -12.947060    7.781870   -0.840010
  C    -14.957270    8.702800    1.201810
  C    -15.287750    9.163160   -0.056130
  C    -16.537380    9.641310   -0.436290
  C    -17.631600    9.733950    0.530830
  C    -17.530940    9.335350    1.821830
  S    -16.117180    8.684500    2.515080
  C    -18.723620   10.320660   -0.163170
  C    -18.345460   10.595160   -1.476370
  C    -19.392410   11.182160   -2.219810
  C    -20.511750   11.336680   -1.464720
  S    -20.346310   10.778870    0.165840
  C    -16.984180   10.163820   -1.682020
  C    -16.341150   10.312800   -2.919320
  C    -15.149510    9.779610   -3.348420
  C    -14.623380   10.125710   -4.596720
  C    -13.424670    9.672340   -5.111190
  C    -12.790630   10.098100   -6.339730
  C    -13.315090   10.923360   -7.303430
  C    -12.633400   11.297110   -8.479480
  N    -12.135450   11.641530   -9.455270
  C    -14.600700   11.500230   -7.277140
  N    -15.632300   12.003140   -7.332380
  C    -11.467460    9.478570   -6.391090
  C    -11.318250    8.641090   -5.247240
  C    -12.546540    8.709520   -4.446920
  O    -12.795000    8.063430   -3.431530
  C    -10.175400    7.931050   -5.015520
  C     -9.103680    8.033590   -5.931340
  C     -9.244470    8.868300   -7.076680
  C    -10.444450    9.587340   -7.292810
  C     -8.169860    8.963670   -7.982660
  C     -7.009750    8.268790   -7.768970
  C     -6.872000    7.447850   -6.640550
  C     -7.897230    7.332530   -5.740660
  H     -1.959490   -0.648400    6.415620
  H      0.012420   -2.305760    2.118520
  H     -0.335910   -2.600400    7.613590
  H     -3.726350    1.438190    0.771160
  H     -4.506710    2.861800    4.369530
  H     -9.465040    6.529820    4.507200
  H    -14.494160    9.142700   -0.785210
  H    -18.355040    9.414910    2.513680
  H    -19.330860   11.475970   -3.251720
  H    -21.453220   11.753070   -1.765410
  H    -16.883960   10.922270   -3.634940
  H    -14.601050    9.077300   -2.743480
  H    -15.183780   10.846170   -5.178730
  H    -10.083100    7.299810   -4.143060
  H    -10.517430   10.210990   -8.169380
  H     -8.280480    9.597100   -8.850530
  H     -6.192180    8.348740   -8.469560
  H     -5.950400    6.906830   -6.486990
  H     -7.796880    6.701680   -4.869400

 Total Charge           Charge          ....    0
 Multiplicity           Mult            ....    1
 Number of Electrons    NEL             ....  612
 Basis Dimension        Dim             .... 1271

ORBITAL ENERGIES
----------------

  NO   OCC          E(Eh)            E(eV)
   0   2.0000    -482.886437    -13140.0080
   1   2.0000     -89.037782     -2422.8412
   2   2.0000     -88.997547     -2421.7464
   3   2.0000     -88.997137     -2421.7352
   4   2.0000     -88.993141     -2421.6265
   5   2.0000     -88.976586     -2421.1760
   6   2.0000     -88.966698     -2420.9069
   7   2.0000     -62.564130     -1702.4565
   8   2.0000     -56.398081     -1534.6698
   9   2.0000     -56.395363     -1534.5958
  10   2.0000     -56.395332     -1534.5950
  11   2.0000     -24.821634      -675.4310
  12   2.0000     -24.818217      -675.3380
  13   2.0000     -19.221104      -523.0328
  14   2.0000     -19.220122      -523.0061
  15   2.0000     -14.450006      -393.2047
  16   2.0000     -14.447382      -393.1332
  17   2.0000     -14.432210      -392.7204
  18   2.0000     -14.429250      -392.6398
  19   2.0000     -14.420076      -392.3902
  20   2.0000     -14.416259      -392.2864
  21   2.0000     -14.409617      -392.1056
  22   2.0000     -14.406780      -392.0284
  23   2.0000     -10.402129      -283.0563
  24   2.0000     -10.399485      -282.9844
  25   2.0000     -10.372063      -282.2382
  26   2.0000     -10.369988      -282.1817
  27   2.0000     -10.367958      -282.1265
  28   2.0000     -10.360103      -281.9127
  29   2.0000     -10.354951      -281.7726
  30   2.0000     -10.350068      -281.6397
  31   2.0000     -10.347796      -281.5778
  32   2.0000     -10.347419      -281.5676
  33   2.0000     -10.344833      -281.4972
  34   2.0000     -10.344247      -281.4813
  35   2.0000     -10.343929      -281.4726
  36   2.0000     -10.343415      -281.4586
  37   2.0000     -10.337785      -281.3054
  38   2.0000     -10.336192      -281.2621
  39   2.0000     -10.333735      -281.1952
  40   2.0000     -10.333414      -281.1865
  41   2.0000     -10.332145      -281.1520
  42   2.0000     -10.332090      -281.1505
  43   2.0000     -10.331977      -281.1474
  44   2.0000     -10.330865      -281.1171
  45   2.0000     -10.329977      -281.0930
  46   2.0000     -10.328502      -281.0528
  47   2.0000     -10.326797      -281.0064
  48   2.0000     -10.323262      -280.9102
  49   2.0000     -10.319519      -280.8084
  50   2.0000     -10.315070      -280.6873
  51   2.0000     -10.313239      -280.6375
  52   2.0000     -10.310611      -280.5660
  53   2.0000     -10.310584      -280.5653
  54   2.0000     -10.310581      -280.5652
  55   2.0000     -10.310055      -280.5509
  56   2.0000     -10.309583      -280.5380
  57   2.0000     -10.308754      -280.5155
  58   2.0000     -10.308751      -280.5154
  59   2.0000     -10.307895      -280.4921
  60   2.0000     -10.307727      -280.4875
  61   2.0000     -10.307004      -280.4678
  62   2.0000     -10.306910      -280.4653
  63   2.0000     -10.306480      -280.4536
  64   2.0000     -10.306346      -280.4499
  65   2.0000     -10.304157      -280.3904
  66   2.0000     -10.301770      -280.3254
  67   2.0000     -10.300147      -280.2813
  68   2.0000     -10.299158      -280.2543
  69   2.0000     -10.298114      -280.2259
  70   2.0000     -10.297521      -280.2098
  71   2.0000     -10.297063      -280.1973
  72   2.0000     -10.296269      -280.1757
  73   2.0000     -10.294101      -280.1167
  74   2.0000     -10.293264      -280.0939
  75   2.0000     -10.289934      -280.0033
  76   2.0000     -10.289409      -279.9890
  77   2.0000     -10.286669      -279.9145
  78   2.0000     -10.286270      -279.9036
  79   2.0000     -10.285606      -279.8856
  80   2.0000     -10.285424      -279.8806
  81   2.0000     -10.284841      -279.8648
  82   2.0000     -10.284268      -279.8492
  83   2.0000     -10.284193      -279.8471
  84   2.0000     -10.275841      -279.6198
  85   2.0000      -8.793555      -239.2848
  86   2.0000      -8.126187      -221.1248
  87   2.0000      -8.092271      -220.2019
  88   2.0000      -8.092113      -220.1976
  89   2.0000      -8.086224      -220.0373
  90   2.0000      -8.072578      -219.6660
  91   2.0000      -8.062125      -219.3816
  92   2.0000      -6.629844      -180.4072
  93   2.0000      -6.615299      -180.0114
  94   2.0000      -6.615088      -180.0057
  95   2.0000      -6.097595      -165.9240
  96   2.0000      -6.089575      -165.7058
  97   2.0000      -6.088677      -165.6813
  98   2.0000      -6.061471      -164.9410
  99   2.0000      -6.061362      -164.9380
 100   2.0000      -6.057224      -164.8255
 101   2.0000      -6.056630      -164.8093
 102   2.0000      -6.055673      -164.7832
 103   2.0000      -6.054867      -164.7613
 104   2.0000      -6.054614      -164.7544
 105   2.0000      -6.051024      -164.6567
 106   2.0000      -6.048646      -164.5920
 107   2.0000      -6.042248      -164.4179
 108   2.0000      -6.037992      -164.3021
 109   2.0000      -6.033815      -164.1885
 110   2.0000      -6.031602      -164.1282
 111   2.0000      -6.027329      -164.0119
 112   2.0000      -6.024100      -163.9241
 113   2.0000      -2.745745       -74.7155
 114   2.0000      -2.741630       -74.6035
 115   2.0000      -2.741465       -74.5991
 116   2.0000      -2.729904       -74.2845
 117   2.0000      -2.729890       -74.2841
 118   2.0000      -1.344252       -36.5789
 119   2.0000      -1.324941       -36.0535
 120   2.0000      -1.141917       -31.0731
 121   2.0000      -1.136828       -30.9347
 122   2.0000      -1.131332       -30.7851
 123   2.0000      -1.050604       -28.5884
 124   2.0000      -1.025132       -27.8953
 125   2.0000      -1.023595       -27.8534
 126   2.0000      -1.022423       -27.8216
 127   2.0000      -1.015950       -27.6454
 128   2.0000      -1.012874       -27.5617
 129   2.0000      -1.011981       -27.5374
 130   2.0000      -1.007352       -27.4114
 131   2.0000      -1.002402       -27.2767
 132   2.0000      -0.997040       -27.1308
 133   2.0000      -0.995644       -27.0929
 134   2.0000      -0.993578       -27.0366
 135   2.0000      -0.989948       -26.9379
 136   2.0000      -0.986964       -26.8567
 137   2.0000      -0.979300       -26.6481
 138   2.0000      -0.968923       -26.3657
 139   2.0000      -0.961748       -26.1705
 140   2.0000      -0.944796       -25.7092
 141   2.0000      -0.943660       -25.6783
 142   2.0000      -0.926848       -25.2208
 143   2.0000      -0.923422       -25.1276
 144   2.0000      -0.915979       -24.9251
 145   2.0000      -0.910161       -24.7667
 146   2.0000      -0.906988       -24.6804
 147   2.0000      -0.897396       -24.4194
 148   2.0000      -0.888655       -24.1815
 149   2.0000      -0.887172       -24.1412
 150   2.0000      -0.881838       -23.9960
 151   2.0000      -0.880332       -23.9551
 152   2.0000      -0.877991       -23.8914
 153   2.0000      -0.872609       -23.7449
 154   2.0000      -0.864875       -23.5344
 155   2.0000      -0.861304       -23.4373
 156   2.0000      -0.856777       -23.3141
 157   2.0000      -0.840015       -22.8580
 158   2.0000      -0.830781       -22.6067
 159   2.0000      -0.827735       -22.5238
 160   2.0000      -0.827118       -22.5070
 161   2.0000      -0.809755       -22.0346
 162   2.0000      -0.802278       -21.8311
 163   2.0000      -0.791585       -21.5401
 164   2.0000      -0.781304       -21.2604
 165   2.0000      -0.771936       -21.0055
 166   2.0000      -0.765190       -20.8219
 167   2.0000      -0.761578       -20.7236
 168   2.0000      -0.758255       -20.6332
 169   2.0000      -0.745221       -20.2785
 170   2.0000      -0.738425       -20.0936
 171   2.0000      -0.732058       -19.9203
 172   2.0000      -0.724356       -19.7107
 173   2.0000      -0.711942       -19.3729
 174   2.0000      -0.703552       -19.1446
 175   2.0000      -0.700526       -19.0623
 176   2.0000      -0.696902       -18.9637
 177   2.0000      -0.695472       -18.9247
 178   2.0000      -0.692246       -18.8370
 179   2.0000      -0.691603       -18.8195
 180   2.0000      -0.683699       -18.6044
 181   2.0000      -0.676559       -18.4101
 182   2.0000      -0.674581       -18.3563
 183   2.0000      -0.668415       -18.1885
 184   2.0000      -0.661444       -17.9988
 185   2.0000      -0.657390       -17.8885
 186   2.0000      -0.655339       -17.8327
 187   2.0000      -0.647655       -17.6236
 188   2.0000      -0.644302       -17.5323
 189   2.0000      -0.640868       -17.4389
 190   2.0000      -0.636666       -17.3246
 191   2.0000      -0.634215       -17.2579
 192   2.0000      -0.627904       -17.0861
 193   2.0000      -0.624669       -16.9981
 194   2.0000      -0.618792       -16.8382
 195   2.0000      -0.615969       -16.7614
 196   2.0000      -0.610652       -16.6167
 197   2.0000      -0.608437       -16.5564
 198   2.0000      -0.606077       -16.4922
 199   2.0000      -0.601744       -16.3743
 200   2.0000      -0.597685       -16.2638
 201   2.0000      -0.595618       -16.2076
 202   2.0000      -0.590143       -16.0586
 203   2.0000      -0.583243       -15.8708
 204   2.0000      -0.574985       -15.6461
 205   2.0000      -0.570846       -15.5335
 206   2.0000      -0.567232       -15.4352
 207   2.0000      -0.563282       -15.3277
 208   2.0000      -0.560237       -15.2448
 209   2.0000      -0.557807       -15.1787
 210   2.0000      -0.552277       -15.0282
 211   2.0000      -0.551426       -15.0051
 212   2.0000      -0.550661       -14.9842
 213   2.0000      -0.547334       -14.8937
 214   2.0000      -0.546066       -14.8592
 215   2.0000      -0.543231       -14.7821
 216   2.0000      -0.542469       -14.7613
 217   2.0000      -0.541173       -14.7261
 218   2.0000      -0.538268       -14.6470
 219   2.0000      -0.534415       -14.5422
 220   2.0000      -0.533258       -14.5107
 221   2.0000      -0.527910       -14.3652
 222   2.0000      -0.526549       -14.3281
 223   2.0000      -0.525132       -14.2896
 224   2.0000      -0.523554       -14.2466
 225   2.0000      -0.518762       -14.1162
 226   2.0000      -0.518469       -14.1083
 227   2.0000      -0.513944       -13.9851
 228   2.0000      -0.513145       -13.9634
 229   2.0000      -0.511231       -13.9113
 230   2.0000      -0.507075       -13.7982
 231   2.0000      -0.504332       -13.7236
 232   2.0000      -0.502920       -13.6852
 233   2.0000      -0.502571       -13.6757
 234   2.0000      -0.498427       -13.5629
 235   2.0000      -0.495449       -13.4818
 236   2.0000      -0.493725       -13.4349
 237   2.0000      -0.492045       -13.3892
 238   2.0000      -0.491495       -13.3743
 239   2.0000      -0.490117       -13.3367
 240   2.0000      -0.487504       -13.2657
 241   2.0000      -0.485539       -13.2122
 242   2.0000      -0.481854       -13.1119
 243   2.0000      -0.475526       -12.9397
 244   2.0000      -0.471087       -12.8189
 245   2.0000      -0.468425       -12.7465
 246   2.0000      -0.465113       -12.6564
 247   2.0000      -0.462615       -12.5884
 248   2.0000      -0.461896       -12.5688
 249   2.0000      -0.460302       -12.5255
 250   2.0000      -0.459402       -12.5010
 251   2.0000      -0.455885       -12.4053
 252   2.0000      -0.455345       -12.3906
 253   2.0000      -0.452845       -12.3225
 254   2.0000      -0.452160       -12.3039
 255   2.0000      -0.450026       -12.2458
 256   2.0000      -0.449204       -12.2235
 257   2.0000      -0.445862       -12.1325
 258   2.0000      -0.445216       -12.1150
 259   2.0000      -0.444255       -12.0888
 260   2.0000      -0.442776       -12.0486
 261   2.0000      -0.440885       -11.9971
 262   2.0000      -0.440522       -11.9872
 263   2.0000      -0.440241       -11.9796
 264   2.0000      -0.439544       -11.9606
 265   2.0000      -0.438802       -11.9404
 266   2.0000      -0.436735       -11.8842
 267   2.0000      -0.435820       -11.8593
 268   2.0000      -0.431445       -11.7402
 269   2.0000      -0.430473       -11.7138
 270   2.0000      -0.429772       -11.6947
 271   2.0000      -0.427352       -11.6288
 272   2.0000      -0.424797       -11.5593
 273   2.0000      -0.422878       -11.5071
 274   2.0000      -0.422573       -11.4988
 275   2.0000      -0.420521       -11.4430
 276   2.0000      -0.415158       -11.2970
 277   2.0000      -0.410575       -11.1723
 278   2.0000      -0.409784       -11.1508
 279   2.0000      -0.409362       -11.1393
 280   2.0000      -0.401670       -10.9300
 281   2.0000      -0.400309       -10.8930
 282   2.0000      -0.396918       -10.8007
 283   2.0000      -0.394526       -10.7356
 284   2.0000      -0.387370       -10.5409
 285   2.0000      -0.383811       -10.4440
 286   2.0000      -0.375705       -10.2235
 287   2.0000      -0.373195       -10.1552
 288   2.0000      -0.371283       -10.1031
 289   2.0000      -0.367995       -10.0137
 290   2.0000      -0.354996        -9.6599
 291   2.0000      -0.349964        -9.5230
 292   2.0000      -0.346766        -9.4360
 293   2.0000      -0.345586        -9.4039
 294   2.0000      -0.341713        -9.2985
 295   2.0000      -0.335014        -9.1162
 296   2.0000      -0.325574        -8.8593
 297   2.0000      -0.320165        -8.7121
 298   2.0000      -0.317839        -8.6489
 299   2.0000      -0.316810        -8.6208
 300   2.0000      -0.312039        -8.4910
 301   2.0000      -0.295760        -8.0480
 302   2.0000      -0.293706        -7.9922
 303   2.0000      -0.289153        -7.8683
 304   2.0000      -0.267909        -7.2902
 305   2.0000      -0.244251        -6.6464
 306   0.0000      -0.119839        -3.2610
 307   0.0000      -0.102425        -2.7871
 308   0.0000      -0.090648        -2.4667
 309   0.0000      -0.080437        -2.1888
 310   0.0000      -0.063057        -1.7159

MULLIKEN ATOMIC CHARGES
-----------------------
   0 C :    0.310490
   1 C :   -0.354948
   2 C :   -0.186036
   3 N :    0.147143
   4 C :   -0.190017
   5 N :    0.149650
   6 C :    0.012969
   7 C :   -0.017462
   8 C :   -0.065653
   9 C :    0.117178
  10 C :   -0.091731
  11 C :   -0.015503
  12 S :    0.186821
  13 C :   -0.124243
  14 C :    0.040536
  15 Br:    0.025802
  16 C :    0.151232
  17 O :   -0.148358
  18 C :   -0.080319
  19 C :    0.035960
  20 C :   -0.118250
  21 C :   -0.001877
  22 C :   -0.007283
  23 C :   -0.083073
  24 S :    0.203564
  25 C :   -0.084251
  26 C :    0.024849
  27 C :    0.308007
  28 C :   -0.298325
  29 C :   -0.192631
  30 N :    0.193018
  31 C :   -0.194029
  32 N :    0.178873
  33 C :   -0.053956
  34 C :   -0.121842
  35 S :    0.226958
  36 C :    0.127635
  37 C :    0.143771
  38 F :   -0.162416
  39 C :    0.132755
  40 F :   -0.171439
  41 C :    0.064241
  42 C :    0.014574
  43 C :   -0.024730
  44 N :   -0.323540
  45 S :    0.548239
  46 N :   -0.277159
  47 C :   -0.112248
  48 C :   -0.042129
  49 C :    0.078886
  50 C :    0.057995
  51 C :   -0.125784
  52 S :    0.190391
  53 C :   -0.106617
  54 C :    0.054027
  55 C :    0.009456
  56 C :   -0.063910
  57 S :    0.134781
  58 C :    0.100098
  59 C :   -0.010108
  60 C :   -0.043775
  61 C :   -0.023417
  62 C :   -0.076444
  63 C :    0.339642
  64 C :   -0.361876
  65 C :   -0.184296
  66 N :    0.140314
  67 C :   -0.192861
  68 N :    0.137429
  69 C :    0.042619
  70 C :    0.009564
  71 C :    0.190810
  72 O :   -0.241841
  73 C :   -0.092538
  74 C :    0.097294
  75 C :    0.097057
  76 C :   -0.085444
  77 C :   -0.022004
  78 C :    0.036227
  79 C :    0.037030
  80 C :   -0.020777
  81 H :   -0.006229
  82 H :   -0.006913
  83 H :   -0.001776
  84 H :    0.006191
  85 H :    0.039369
  86 H :    0.016603
  87 H :    0.013972
  88 H :    0.044951
  89 H :   -0.005866
  90 H :    0.031839
  91 H :   -0.001563
  92 H :    0.041605
  93 H :    0.006008
  94 H :   -0.035616
  95 H :   -0.008375
  96 H :   -0.008084
  97 H :   -0.003235
  98 H :   -0.004326
  99 H :   -0.021303
Sum of atomic charges:   -0.0000000

LOEWDIN ATOMIC CHARGES
----------------------
   0 C :    0.077843
   1 C :   -0.144601
   2 C :   -0.018095
   3 N :   -0.054159
   4 C :   -0.023816
   5 N :   -0.055423
   6 C :   -0.022387
   7 C :   -0.050427
   8 C :    0.024368
   9 C :   -0.031759
  10 C :   -0.143803
  11 C :   -0.009124
  12 S :    0.433206
  13 C :   -0.270790
  14 C :   -0.069542
  15 Br:    0.138353
  16 C :    0.086695
  17 O :   -0.135563
  18 C :   -0.096977
  19 C :    0.041449
  20 C :   -0.176268
  21 C :    0.017932
  22 C :   -0.073005
  23 C :   -0.157890
  24 S :    0.494508
  25 C :   -0.193562
  26 C :   -0.059705
  27 C :    0.075056
  28 C :   -0.095122
  29 C :   -0.022459
  30 N :   -0.017443
  31 C :   -0.017445
  32 N :   -0.028635
  33 C :   -0.020348
  34 C :   -0.156299
  35 S :    0.527299
  36 C :   -0.063032
  37 C :    0.069677
  38 F :   -0.036573
  39 C :    0.064950
  40 F :   -0.048962
  41 C :   -0.073237
  42 C :   -0.041809
  43 C :   -0.055935
  44 N :   -0.315959
  45 S :    0.702128
  46 N :   -0.266397
  47 C :   -0.155162
  48 C :   -0.003743
  49 C :    0.011944
  50 C :   -0.045428
  51 C :   -0.142445
  52 S :    0.509481
  53 C :   -0.207262
  54 C :   -0.033645
  55 C :   -0.061703
  56 C :   -0.156837
  57 S :    0.425352
  58 C :   -0.064486
  59 C :    0.051622
  60 C :   -0.055449
  61 C :    0.073294
  62 C :   -0.116795
  63 C :    0.076458
  64 C :   -0.150617
  65 C :   -0.018174
  66 N :   -0.062781
  67 C :   -0.019804
  68 N :   -0.062938
  69 C :   -0.021615
  70 C :   -0.054636
  71 C :    0.101587
  72 O :   -0.202780
  73 C :    0.020803
  74 C :   -0.010348
  75 C :   -0.006214
  76 C :    0.018948
  77 C :   -0.005262
  78 C :   -0.013115
  79 C :   -0.012760
  80 C :   -0.011812
  81 H :    0.042659
  82 H :    0.040958
  83 H :    0.039551
  84 H :    0.042355
  85 H :    0.043390
  86 H :    0.039560
  87 H :    0.041059
  88 H :    0.040452
  89 H :    0.034135
  90 H :    0.026099
  91 H :    0.038424
  92 H :    0.031606
  93 H :    0.040960
  94 H :    0.026639
  95 H :    0.039520
  96 H :    0.035199
  97 H :    0.033595
  98 H :    0.033249
  99 H :    0.029999

  Mayer bond orders larger than 0.100000
B(  0-C ,  1-C ) :   1.6161 B(  0-C ,  6-C ) :   1.0000 B(  0-C , 18-C ) :   1.0833
B(  1-C ,  2-C ) :   1.1456 B(  1-C ,  4-C ) :   1.1419 B(  2-C ,  3-N ) :   2.9669
B(  4-C ,  5-N ) :   2.9683 B(  6-C ,  7-C ) :   1.2754 B(  6-C , 11-C ) :   1.4074
B(  7-C ,  8-C ) :   1.4240 B(  7-C , 16-C ) :   0.9547 B(  8-C ,  9-C ) :   1.2438
B(  8-C , 81-H ) :   1.0179 B(  9-C , 10-C ) :   1.3037 B(  9-C , 14-C ) :   1.1634
B( 10-C , 11-C ) :   1.3324 B( 10-C , 12-S ) :   1.0866 B( 11-C , 82-H ) :   0.9800
B( 12-S , 13-C ) :   1.0863 B( 13-C , 14-C ) :   1.6177 B( 13-C , 15-Br) :   1.0200
B( 14-C , 83-H ) :   1.0006 B( 16-C , 17-O ) :   2.1714 B( 16-C , 18-C ) :   0.9389
B( 18-C , 19-C ) :   1.5905 B( 19-C , 20-C ) :   1.2228 B( 19-C , 84-H ) :   0.9099
B( 20-C , 21-C ) :   1.3958 B( 20-C , 24-S ) :   1.0746 B( 21-C , 22-C ) :   1.3171
B( 21-C , 85-H ) :   0.9698 B( 22-C , 23-C ) :   1.3782 B( 22-C , 27-C ) :   0.9951
B( 23-C , 24-S ) :   1.1671 B( 23-C , 25-C ) :   1.2014 B( 25-C , 26-C ) :   1.4130
B( 25-C , 35-S ) :   1.0922 B( 26-C , 27-C ) :   0.9924 B( 26-C , 33-C ) :   1.2924
B( 27-C , 28-C ) :   1.7156 B( 28-C , 29-C ) :   1.1351 B( 28-C , 31-C ) :   1.1372
B( 29-C , 30-N ) :   2.9972 B( 31-C , 32-N ) :   2.9935 B( 33-C , 34-C ) :   1.4369
B( 33-C , 86-H ) :   0.9941 B( 34-C , 35-S ) :   1.1243 B( 34-C , 36-C ) :   1.1291
B( 36-C , 37-C ) :   1.3670 B( 36-C , 41-C ) :   0.1162 B( 36-C , 43-C ) :   1.1615
B( 37-C , 38-F ) :   1.1497 B( 37-C , 39-C ) :   1.1819 B( 39-C , 40-F ) :   1.1302
B( 39-C , 41-C ) :   1.3647 B( 41-C , 42-C ) :   1.1802 B( 41-C , 47-C ) :   1.1163
B( 42-C , 43-C ) :   1.1511 B( 42-C , 46-N ) :   1.5298 B( 43-C , 44-N ) :   1.5182
B( 44-N , 45-S ) :   1.2226 B( 44-N , 46-N ) :   0.1312 B( 45-S , 46-N ) :   1.2662
B( 45-S , 72-O ) :   0.1129 B( 47-C , 48-C ) :   1.5010 B( 47-C , 52-S ) :   1.0927
B( 48-C , 49-C ) :   1.2654 B( 48-C , 87-H ) :   0.9607 B( 49-C , 50-C ) :   1.0874
B( 49-C , 58-C ) :   1.2864 B( 50-C , 51-C ) :   1.5482 B( 50-C , 53-C ) :   1.1812
B( 51-C , 52-S ) :   1.1756 B( 51-C , 88-H ) :   0.9422 B( 53-C , 54-C ) :   1.4423
B( 53-C , 57-S ) :   1.0739 B( 54-C , 55-C ) :   1.2250 B( 54-C , 58-C ) :   1.0960
B( 55-C , 56-C ) :   1.5874 B( 55-C , 89-H ) :   0.9970 B( 56-C , 57-S ) :   1.1572
B( 56-C , 90-H ) :   0.9658 B( 58-C , 59-C ) :   1.2074 B( 59-C , 60-C ) :   1.4276
B( 59-C , 91-H ) :   0.9753 B( 60-C , 61-C ) :   1.2667 B( 60-C , 92-H ) :   0.9786
B( 61-C , 62-C ) :   1.3994 B( 61-C , 93-H ) :   0.9635 B( 62-C , 63-C ) :   1.0895
B( 62-C , 71-C ) :   1.0378 B( 63-C , 64-C ) :   1.6048 B( 63-C , 69-C ) :   0.9758
B( 64-C , 65-C ) :   1.1494 B( 64-C , 67-C ) :   1.1525 B( 65-C , 66-N ) :   2.9593
B( 67-C , 68-N ) :   2.9600 B( 69-C , 70-C ) :   1.2134 B( 69-C , 76-C ) :   1.4689
B( 70-C , 71-C ) :   0.9568 B( 70-C , 73-C ) :   1.4558 B( 71-C , 72-O ) :   1.9617
B( 73-C , 74-C ) :   1.1910 B( 73-C , 94-H ) :   1.0138 B( 74-C , 75-C ) :   1.2590
B( 74-C , 80-C ) :   1.2448 B( 75-C , 76-C ) :   1.1924 B( 75-C , 77-C ) :   1.2461
B( 76-C , 95-H ) :   0.9896 B( 77-C , 78-C ) :   1.4841 B( 77-C , 96-H ) :   0.9971
B( 78-C , 79-C ) :   1.2656 B( 78-C , 97-H ) :   0.9879 B( 79-C , 80-C ) :   1.4864
B( 79-C , 98-H ) :   0.9880 B( 80-C , 99-H ) :   0.9970

-----------------------------------------------------------------------------
         ABSORPTION SPECTRUM VIA TRANSITION ELECTRIC DIPOLE MOMENTS
-----------------------------------------------------------------------------
State   Energy  Wavelength   fosc         T2         TX        TY        TZ
        (cm-1)    (nm)                  (au**2)     (au)      (au)      (au)
-----------------------------------------------------------------------------
   0   13068.8    765.2   0.781159967  19.67790  -2.33737   2.41446  -2.89568
   1   15362.6    650.9   0.390375633   8.36552   1.67525  -0.39401  -2.32461
   2   17912.4    558.3   0.112136351   2.06095  -0.81685  -0.18522   1.16594
   3   20132.8    496.7   1.688731836  27.61423   4.53647  -2.52221  -0.82047
   4   21617.0    462.6   0.140412867   2.13839  -1.10777   0.88365   0.36111
   5   22965.1    435.4   0.105390556   1.51081   0.49397   1.02244  -0.47054
   6   23620.9    423.4   0.048547727   0.67663   0.19280   0.33190  -0.72753
   7   24207.7    413.1   0.096162093   1.30776  -1.07518   0.32051   0.22139
   8   24636.0    405.9   0.123161548   1.64582   1.01139  -0.21391  -0.75970
   9   25647.7    389.9   0.165881665   2.12925  -0.49956   0.50881  -1.27311
  10   25834.7    387.1   0.061181322   0.77963  -0.71632   0.24396   0.45498
  11   26019.9    384.3   0.013625301   0.17239   0.39325   0.05932  -0.11929
  12   27052.3    369.7   0.034195141   0.41614   0.06176  -0.30729  -0.56382
  13   27261.1    366.8   0.006431691   0.07767  -0.00216   0.25695   0.10790
  14   27909.7    358.3   0.089933198   1.06082  -0.52222   0.79539  -0.39427
  15   28279.8    353.6   0.012390589   0.14424  -0.27931   0.04335   0.25367
  16   28659.9    348.9   0.015712407   0.18049  -0.04095  -0.40697   0.11481
  17   28740.7    347.9   0.004889173   0.05600   0.04229  -0.23267   0.00901
  18   28946.3    345.5   0.045004703   0.51185   0.48748  -0.43182   0.29622
  19   29204.1    342.4   0.131021444   1.47698   0.73047  -0.38591  -0.89132
  20   29609.2    337.7   0.119260894   1.32601   0.44253   0.12945   1.05519
  21   29915.2    334.3   0.070909622   0.78035   0.62537  -0.16298  -0.60225
  22   30271.8    330.3   0.354649660   3.85688   1.16030  -0.87294   1.32233
  23   30762.2    325.1   0.071724791   0.76759   0.16278  -0.44449   0.73724
  24   30843.5    324.2   0.347072511   3.70452  -0.74108   0.92640  -1.51562
  25   31412.4    318.3   0.031127219   0.32622   0.20594  -0.25927   0.46539
  26   31650.8    315.9   0.020950804   0.21792  -0.14769   0.06497  -0.43805
  27   31902.3    313.5   0.245061406   2.52888  -1.52035   0.22805  -0.40672
  28   32257.7    310.0   0.473864355   4.83611  -1.80874   1.16955   0.44355
  29   32476.6    307.9   0.137229223   1.39108  -0.59905   0.80135  -0.62454
  30   32852.3    304.4   0.138825187   1.39116   0.84434  -0.39014  -0.72529
  31   32920.2    303.8   0.011962400   0.11963   0.17554   0.00786  -0.29791
  32   33142.6    301.7   0.085719545   0.85147  -0.42951   0.08652  -0.81210
  33   33173.7    301.4   0.089664898   0.88983   0.06129  -0.04175  -0.94039
  34   33397.3    299.4   0.057629651   0.56808  -0.51129   0.03894  -0.55240
  35   33661.9    297.1   0.075310399   0.73653   0.00630  -0.26718  -0.81554
  36   33748.8    296.3   0.041114547   0.40106  -0.03479   0.04074   0.63103
  37   33839.1    295.5   0.100677591   0.97947  -0.76772   0.44317  -0.44009
  38   34062.0    293.6   0.001384144   0.01338   0.04237  -0.01110  -0.10705
  39   34191.5    292.5   0.070629692   0.68006   0.02716   0.20800   0.79753
  40   34591.6    289.1   0.210693620   2.00519   0.12091   0.14647  -1.40325
  41   34728.3    287.9   0.193382153   1.83319   0.80956  -0.45451   0.98551
  42   34878.4    286.7   0.184464271   1.74113   1.10804  -0.43575  -0.56876
  43   35115.6    284.8   0.097371354   0.91286  -0.41867   0.30029  -0.80461
  44   35184.5    284.2   0.011030228   0.10321   0.31366   0.06630   0.02076
  45   35356.1    282.8   0.111953097   1.04243  -0.84872   0.51324   0.24228
  46   35797.7    279.3   0.222995447   2.05077  -0.86865   0.00373   1.13851
  47   35980.9    277.9   0.030190457   0.27623  -0.37088   0.04804  -0.36928
  48   36019.5    277.6   0.077938528   0.71234   0.59019  -0.24996  -0.54913
  49   36334.0    275.2   0.045625801   0.41340   0.49880  -0.25538   0.31525
  50   36462.9    274.3   0.028397762   0.25639  -0.31751   0.30505   0.25005
  51   37068.3    269.8   0.192425254   1.70897  -0.77821   0.77737  -0.70644
  52   37171.6    269.0   0.184091391   1.63041   0.84546  -0.70097   0.65134
  53   37238.6    268.5   0.031051554   0.27451   0.05119   0.17393  -0.49157
  54   37611.0    265.9   0.393125659   3.44106  -1.47310   0.96551  -0.58210
  55   37881.2    264.0   0.068051349   0.59141   0.38061  -0.54405   0.38802
  56   38114.6    262.4   0.117687750   1.01652  -0.33649  -0.16955   0.93517
  57   38440.1    260.1   0.094606510   0.81024   0.36181  -0.01494  -0.82408
  58   38641.0    258.8   0.093987889   0.80075   0.56583  -0.65931  -0.21423
  59   38855.2    257.4   0.010405026   0.08816   0.10586  -0.21517   0.17509
  60   38906.9    257.0   0.090044119   0.76191  -0.67922  -0.09943   0.53915
  61   39147.3    255.4   0.098692053   0.82996  -0.78172   0.28619   0.37010
  62   39305.1    254.4   0.033424642   0.27996  -0.32588   0.07338  -0.41034
  63   39493.1    253.2   0.070619333   0.58868  -0.19200   0.44660  -0.59360
  64   39621.7    252.4   0.110208443   0.91571   0.88142  -0.18279   0.32464
  65   39953.5    250.3   0.005248214   0.04324   0.14506  -0.05371  -0.13898
  66   39966.6    250.2   0.004164394   0.03430   0.13574   0.11691   0.04700
  67   40090.3    249.4   0.012010454   0.09863   0.14387  -0.25041   0.12337
  68   40229.0    248.6   0.084258725   0.68953   0.20926  -0.16979  -0.78544

FINAL SINGLE POINT ENERGY     -8120.437067413520

DIPOLE MOMENT
-------------
                                X             Y             Z
Electronic contribution:    109.89671    -116.42162     109.81799
Nuclear contribution   :   -111.69390     115.73567    -107.86824
                        -----------------------------------------
Total Dipole Moment    :     -1.79719      -0.68595       1.94975
                        -----------------------------------------
Magnitude (a.u.)       :      2.73897
Magnitude (Debye)      :      6.96190

Rotational constants in cm-1:     0.001034     0.000191     0.000165
Rotational constants in MHz :    31.002824     5.713285     4.937593

                             ****ORCA TERMINATED NORMALLY****
TOTAL RUN TIME: 0 days 0 hours 12 minutes 1 seconds 881 msec
