                         Program Version 4.2.0 -  RELEASE  -
|  1> # ORCA input file
|  2> # SCF done       -206.643511315994          0.000697459943
|  3> ! CAM-B3LYP def2-SVP def2/J RIJCOSX Grid4 TightSCF
|  4> %maxcore 5000
|  5> %tddft
|  6>     Mode sTDDFT
|  7>     Ethresh 5.0
|  8>     maxcore 5000
|  9> end
| 10>
| 11> %pal
| 12>   nprocs 6
| 13>   end
| 14> * xyz 0 1
| 15>    C       -0.51432         0.26300         4.28906
| 16>    C        0.39307         1.01606         3.59099
| 17>    C        0.64723         2.37945         3.84424
| 18>    N        0.88681         3.49015         4.00687
| 19>    C        1.22636         0.50155         2.57498
| 20>    N        1.96405         0.13390         1.77571
| 21>    C       -1.27622         0.69342         5.45750
| 22>    C       -1.95281        -0.41875         5.98925
| 23>    C       -2.74336        -0.31816         7.11523
| 24>    C       -2.86181         0.92355         7.72804
| 25>    C       -2.19605         2.03630         7.20303
| 26>    C       -1.39979         1.93032         6.06710
| 27>   Cl       -2.35790         3.56587         7.96657
| 28>   Cl       -3.82985         1.08767         9.13714
| 29>    C       -1.67024        -1.61531         5.16679
| 30>    O       -2.12247        -2.73106         5.33905
| 31>    C       -0.80236        -1.13827         4.07089
| 32>    C       -0.53964        -1.84769         2.92697
| 33>    C       -0.81557        -3.22595         2.72897
| 34>    C       -0.73131        -4.25276         3.68211
| 35>    O        0.06272        -4.24045         4.76814
| 36>    C        1.07885        -3.28650         4.93369
| 37>    C       -1.40338        -5.49512         3.47667
| 38>    O       -1.45378        -6.42182         4.46370
| 39>    C       -1.61868        -6.01991         5.81569
| 40>    C       -1.96085        -5.86865         2.24942
| 41>    C       -1.83543        -4.91811         1.18935
| 42>    C       -1.29075        -3.61454         1.44298
| 43>    N       -1.31935        -2.83264         0.37218
| 44>    S       -1.94362        -3.65726        -0.86170
| 45>    N       -2.23392        -5.03469        -0.07402
| 46>    C       -2.60889        -7.14252         2.05807
| 47>    C       -2.87483        -7.63769         0.80067
| 48>    C       -3.54441        -8.82348         0.52203
| 49>    C       -4.07552        -9.67353         1.58388
| 50>    C       -3.91821        -9.39227         2.89748
| 51>    S       -3.06386        -8.03627         3.50347
| 52>    C       -4.70260       -10.75958         0.91812
| 53>    C       -4.56707       -10.61655        -0.46837
| 54>    C       -5.18292       -11.68614        -1.16111
| 55>    C       -5.74544       -12.58167        -0.30978
| 56>    S       -5.56107       -12.17748         1.36417
| 57>    C       -3.83763        -9.40507        -0.73541
| 58>    C       -3.44807        -8.84253        -1.97089
| 59>    C       -3.64511        -9.40020        -3.19380
| 60>    C       -3.24623        -8.85673        -4.45405
| 61>    C       -2.78268        -7.56757        -4.70488
| 62>    O       -2.67144        -6.66194        -3.67258
| 63>    C       -3.73690        -5.73232        -3.57712
| 64>    C       -2.38007        -7.12281        -6.00206
| 65>    O       -2.03018        -5.81899        -5.99224
| 66>    C       -1.65555        -5.10785        -7.14780
| 67>    C       -2.44524        -7.95896        -7.12052
| 68>    C       -2.95191        -9.27039        -6.89592
| 69>    C       -3.33685        -9.71200        -5.59126
| 70>    N       -3.73787       -10.97856        -5.58655
| 71>    S       -3.62653       -11.56313        -7.08252
| 72>    N       -3.05373       -10.24049        -7.80033
| 73>    C       -1.95638        -7.65698        -8.43904
| 74>    C       -2.57491        -8.04726        -9.58577
| 75>    C       -2.01341        -8.05061       -10.92259
| 76>    C       -0.83479        -7.47912       -11.32675
| 77>    C       -0.34228        -7.52584       -12.64782
| 78>    N        0.11337        -7.52925       -13.70135
| 79>    C        0.01452        -6.72310       -10.49338
| 80>    N        0.73043        -6.07702        -9.86884
| 81>    C       -2.95811        -8.75625       -11.78459
| 82>    C       -4.12123        -9.04684       -11.05001
| 83>    C       -3.97579        -8.53269        -9.66920
| 84>    O       -4.84945        -8.42837        -8.83854
| 85>    C       -5.19346        -9.70227       -11.61820
| 86>    C       -5.09731       -10.09579       -12.94744
| 87>    C       -3.94065        -9.81771       -13.68371
| 88>    C       -2.86743        -9.14392       -13.11188
| 89>   Cl       -3.83468       -10.31186       -15.32544
| 90>   Cl       -6.40494       -10.92826       -13.68623
| 91>    H       -3.25350        -1.18235         7.51037
| 92>    H       -0.90454         2.80852         5.68627
| 93>    H       -0.25200        -1.30915         2.03245
| 94>    H        1.84618        -3.77732         5.53394
| 95>    H        0.71725        -2.40315         5.47103
| 96>    H        1.50099        -2.96866         3.97624
| 97>    H       -0.65578        -6.00948         6.32866
| 98>    H       -2.26618        -6.77183         6.26854
| 99>    H       -2.08229        -5.03680         5.88825
|100>    H       -2.53483        -7.03808        -0.03024
|101>    H       -4.29965       -10.03744         3.67384
|102>    H       -5.21986       -11.80373        -2.22819
|103>    H       -6.27339       -13.48112        -0.55995
|104>    H       -2.92829        -7.89848        -1.91439
|105>    H       -4.10499       -10.37320        -3.27353
|106>    H       -3.54723        -5.15840        -2.67171
|107>    H       -4.69777        -6.25028        -3.48835
|108>    H       -3.76283        -5.06279        -4.44018
|109>    H       -0.61767        -5.30293        -7.42806
|110>    H       -1.75249        -4.05506        -6.87972
|111>    H       -2.31542        -5.33132        -7.99118
|112>    H       -0.98103        -7.19971        -8.50869
|113>    H       -6.08105        -9.90840       -11.04134
|114>    H       -1.99321        -8.94438       -13.70977
|115> *
|116>
|117>                          ****END OF INPUT****

CARTESIAN COORDINATES (ANGSTROEM)
---------------------------------
  C     -0.514320    0.263000    4.289060
  C      0.393070    1.016060    3.590990
  C      0.647230    2.379450    3.844240
  N      0.886810    3.490150    4.006870
  C      1.226360    0.501550    2.574980
  N      1.964050    0.133900    1.775710
  C     -1.276220    0.693420    5.457500
  C     -1.952810   -0.418750    5.989250
  C     -2.743360   -0.318160    7.115230
  C     -2.861810    0.923550    7.728040
  C     -2.196050    2.036300    7.203030
  C     -1.399790    1.930320    6.067100
  Cl    -2.357900    3.565870    7.966570
  Cl    -3.829850    1.087670    9.137140
  C     -1.670240   -1.615310    5.166790
  O     -2.122470   -2.731060    5.339050
  C     -0.802360   -1.138270    4.070890
  C     -0.539640   -1.847690    2.926970
  C     -0.815570   -3.225950    2.728970
  C     -0.731310   -4.252760    3.682110
  O      0.062720   -4.240450    4.768140
  C      1.078850   -3.286500    4.933690
  C     -1.403380   -5.495120    3.476670
  O     -1.453780   -6.421820    4.463700
  C     -1.618680   -6.019910    5.815690
  C     -1.960850   -5.868650    2.249420
  C     -1.835430   -4.918110    1.189350
  C     -1.290750   -3.614540    1.442980
  N     -1.319350   -2.832640    0.372180
  S     -1.943620   -3.657260   -0.861700
  N     -2.233920   -5.034690   -0.074020
  C     -2.608890   -7.142520    2.058070
  C     -2.874830   -7.637690    0.800670
  C     -3.544410   -8.823480    0.522030
  C     -4.075520   -9.673530    1.583880
  C     -3.918210   -9.392270    2.897480
  S     -3.063860   -8.036270    3.503470
  C     -4.702600  -10.759580    0.918120
  C     -4.567070  -10.616550   -0.468370
  C     -5.182920  -11.686140   -1.161110
  C     -5.745440  -12.581670   -0.309780
  S     -5.561070  -12.177480    1.364170
  C     -3.837630   -9.405070   -0.735410
  C     -3.448070   -8.842530   -1.970890
  C     -3.645110   -9.400200   -3.193800
  C     -3.246230   -8.856730   -4.454050
  C     -2.782680   -7.567570   -4.704880
  O     -2.671440   -6.661940   -3.672580
  C     -3.736900   -5.732320   -3.577120
  C     -2.380070   -7.122810   -6.002060
  O     -2.030180   -5.818990   -5.992240
  C     -1.655550   -5.107850   -7.147800
  C     -2.445240   -7.958960   -7.120520
  C     -2.951910   -9.270390   -6.895920
  C     -3.336850   -9.712000   -5.591260
  N     -3.737870  -10.978560   -5.586550
  S     -3.626530  -11.563130   -7.082520
  N     -3.053730  -10.240490   -7.800330
  C     -1.956380   -7.656980   -8.439040
  C     -2.574910   -8.047260   -9.585770
  C     -2.013410   -8.050610  -10.922590
  C     -0.834790   -7.479120  -11.326750
  C     -0.342280   -7.525840  -12.647820
  N      0.113370   -7.529250  -13.701350
  C      0.014520   -6.723100  -10.493380
  N      0.730430   -6.077020   -9.868840
  C     -2.958110   -8.756250  -11.784590
  C     -4.121230   -9.046840  -11.050010
  C     -3.975790   -8.532690   -9.669200
  O     -4.849450   -8.428370   -8.838540
  C     -5.193460   -9.702270  -11.618200
  C     -5.097310  -10.095790  -12.947440
  C     -3.940650   -9.817710  -13.683710
  C     -2.867430   -9.143920  -13.111880
  Cl    -3.834680  -10.311860  -15.325440
  Cl    -6.404940  -10.928260  -13.686230
  H     -3.253500   -1.182350    7.510370
  H     -0.904540    2.808520    5.686270
  H     -0.252000   -1.309150    2.032450
  H      1.846180   -3.777320    5.533940
  H      0.717250   -2.403150    5.471030
  H      1.500990   -2.968660    3.976240
  H     -0.655780   -6.009480    6.328660
  H     -2.266180   -6.771830    6.268540
  H     -2.082290   -5.036800    5.888250
  H     -2.534830   -7.038080   -0.030240
  H     -4.299650  -10.037440    3.673840
  H     -5.219860  -11.803730   -2.228190
  H     -6.273390  -13.481120   -0.559950
  H     -2.928290   -7.898480   -1.914390
  H     -4.104990  -10.373200   -3.273530
  H     -3.547230   -5.158400   -2.671710
  H     -4.697770   -6.250280   -3.488350
  H     -3.762830   -5.062790   -4.440180
  H     -0.617670   -5.302930   -7.428060
  H     -1.752490   -4.055060   -6.879720
  H     -2.315420   -5.331320   -7.991180
  H     -0.981030   -7.199710   -8.508690
  H     -6.081050   -9.908400  -11.041340
  H     -1.993210   -8.944380  -13.709770

 Total Charge           Charge          ....    0
 Multiplicity           Mult            ....    1
 Number of Electrons    NEL             ....  584
 Basis Dimension        Dim             .... 1216

ORBITAL ENERGIES
----------------

  NO   OCC          E(Eh)            E(eV)
   0   2.0000    -101.608492     -2764.9076
   1   2.0000    -101.606535     -2764.8544
   2   2.0000    -101.598572     -2764.6377
   3   2.0000    -101.596340     -2764.5770
   4   2.0000     -89.029409     -2422.6134
   5   2.0000     -89.011958     -2422.1385
   6   2.0000     -88.969675     -2420.9879
   7   2.0000     -88.952189     -2420.5121
   8   2.0000     -19.291525      -524.9491
   9   2.0000     -19.267329      -524.2907
  10   2.0000     -19.266267      -524.2618
  11   2.0000     -19.236122      -523.4415
  12   2.0000     -19.234562      -523.3990
  13   2.0000     -19.212014      -522.7855
  14   2.0000     -14.449397      -393.1881
  15   2.0000     -14.446334      -393.1047
  16   2.0000     -14.431748      -392.7078
  17   2.0000     -14.426814      -392.5736
  18   2.0000     -14.425337      -392.5334
  19   2.0000     -14.424659      -392.5149
  20   2.0000     -14.421015      -392.4158
  21   2.0000     -14.415054      -392.2536
  22   2.0000     -10.387978      -282.6713
  23   2.0000     -10.385558      -282.6054
  24   2.0000     -10.366240      -282.0797
  25   2.0000     -10.365151      -282.0501
  26   2.0000     -10.365039      -282.0470
  27   2.0000     -10.364549      -282.0337
  28   2.0000     -10.362425      -281.9759
  29   2.0000     -10.355323      -281.7827
  30   2.0000     -10.354054      -281.7481
  31   2.0000     -10.353129      -281.7230
  32   2.0000     -10.352705      -281.7114
  33   2.0000     -10.347730      -281.5760
  34   2.0000     -10.343768      -281.4682
  35   2.0000     -10.343202      -281.4528
  36   2.0000     -10.340114      -281.3688
  37   2.0000     -10.339326      -281.3474
  38   2.0000     -10.334355      -281.2121
  39   2.0000     -10.330733      -281.1135
  40   2.0000     -10.329694      -281.0853
  41   2.0000     -10.327285      -281.0197
  42   2.0000     -10.326758      -281.0054
  43   2.0000     -10.325613      -280.9742
  44   2.0000     -10.324964      -280.9566
  45   2.0000     -10.324083      -280.9326
  46   2.0000     -10.323386      -280.9136
  47   2.0000     -10.322118      -280.8791
  48   2.0000     -10.319790      -280.8158
  49   2.0000     -10.319238      -280.8008
  50   2.0000     -10.319082      -280.7965
  51   2.0000     -10.317991      -280.7668
  52   2.0000     -10.317853      -280.7631
  53   2.0000     -10.316190      -280.7178
  54   2.0000     -10.315176      -280.6902
  55   2.0000     -10.315112      -280.6885
  56   2.0000     -10.312680      -280.6223
  57   2.0000     -10.312049      -280.6051
  58   2.0000     -10.310445      -280.5615
  59   2.0000     -10.308995      -280.5220
  60   2.0000     -10.306544      -280.4553
  61   2.0000     -10.306123      -280.4439
  62   2.0000     -10.297913      -280.2205
  63   2.0000     -10.295488      -280.1545
  64   2.0000     -10.293333      -280.0958
  65   2.0000     -10.292187      -280.0647
  66   2.0000     -10.291846      -280.0554
  67   2.0000     -10.290311      -280.0136
  68   2.0000     -10.287214      -279.9293
  69   2.0000     -10.283921      -279.8397
  70   2.0000     -10.280672      -279.7513
  71   2.0000     -10.270846      -279.4839
  72   2.0000     -10.270411      -279.4721
  73   2.0000     -10.270212      -279.4667
  74   2.0000     -10.269809      -279.4557
  75   2.0000     -10.263954      -279.2964
  76   2.0000      -9.563514      -260.2364
  77   2.0000      -9.561507      -260.1818
  78   2.0000      -9.553585      -259.9663
  79   2.0000      -9.551420      -259.9074
  80   2.0000      -8.120862      -220.9799
  81   2.0000      -8.103896      -220.5182
  82   2.0000      -8.063783      -219.4267
  83   2.0000      -8.047751      -218.9904
  84   2.0000      -7.333909      -199.5658
  85   2.0000      -7.331947      -199.5124
  86   2.0000      -7.323965      -199.2952
  87   2.0000      -7.323770      -199.2899
  88   2.0000      -7.323036      -199.2700
  89   2.0000      -7.321829      -199.2371
  90   2.0000      -7.321746      -199.2348
  91   2.0000      -7.321011      -199.2148
  92   2.0000      -7.313860      -199.0203
  93   2.0000      -7.313113      -198.9999
  94   2.0000      -7.311647      -198.9600
  95   2.0000      -7.310948      -198.9410
  96   2.0000      -6.092355      -165.7814
  97   2.0000      -6.084525      -165.5683
  98   2.0000      -6.082763      -165.5204
  99   2.0000      -6.075258      -165.3162
 100   2.0000      -6.067604      -165.1079
 101   2.0000      -6.065880      -165.0610
 102   2.0000      -6.033367      -164.1763
 103   2.0000      -6.028604      -164.0467
 104   2.0000      -6.025838      -163.9714
 105   2.0000      -6.017178      -163.7357
 106   2.0000      -6.012956      -163.6208
 107   2.0000      -6.009763      -163.5340
 108   2.0000      -1.201850       -32.7040
 109   2.0000      -1.174858       -31.9695
 110   2.0000      -1.167575       -31.7713
 111   2.0000      -1.148847       -31.2617
 112   2.0000      -1.133850       -30.8536
 113   2.0000      -1.133169       -30.8351
 114   2.0000      -1.128630       -30.7116
 115   2.0000      -1.114521       -30.3276
 116   2.0000      -1.040234       -28.3062
 117   2.0000      -1.028761       -27.9940
 118   2.0000      -1.024438       -27.8764
 119   2.0000      -1.016586       -27.6627
 120   2.0000      -1.003318       -27.3017
 121   2.0000      -1.002234       -27.2722
 122   2.0000      -1.001148       -27.2426
 123   2.0000      -0.996620       -27.1194
 124   2.0000      -0.992535       -27.0083
 125   2.0000      -0.989227       -26.9182
 126   2.0000      -0.982672       -26.7399
 127   2.0000      -0.973405       -26.4877
 128   2.0000      -0.969765       -26.3887
 129   2.0000      -0.961099       -26.1528
 130   2.0000      -0.959439       -26.1077
 131   2.0000      -0.957908       -26.0660
 132   2.0000      -0.943384       -25.6708
 133   2.0000      -0.931106       -25.3367
 134   2.0000      -0.925044       -25.1717
 135   2.0000      -0.915623       -24.9154
 136   2.0000      -0.904270       -24.6064
 137   2.0000      -0.898847       -24.4589
 138   2.0000      -0.887171       -24.1411
 139   2.0000      -0.884952       -24.0808
 140   2.0000      -0.874971       -23.8092
 141   2.0000      -0.870187       -23.6790
 142   2.0000      -0.868461       -23.6320
 143   2.0000      -0.858893       -23.3717
 144   2.0000      -0.857609       -23.3367
 145   2.0000      -0.854430       -23.2502
 146   2.0000      -0.839306       -22.8387
 147   2.0000      -0.823429       -22.4066
 148   2.0000      -0.820889       -22.3375
 149   2.0000      -0.807945       -21.9853
 150   2.0000      -0.807139       -21.9634
 151   2.0000      -0.799178       -21.7467
 152   2.0000      -0.789608       -21.4863
 153   2.0000      -0.781681       -21.2706
 154   2.0000      -0.776759       -21.1367
 155   2.0000      -0.774155       -21.0658
 156   2.0000      -0.763956       -20.7883
 157   2.0000      -0.757729       -20.6188
 158   2.0000      -0.742322       -20.1996
 159   2.0000      -0.730198       -19.8697
 160   2.0000      -0.719861       -19.5884
 161   2.0000      -0.713859       -19.4251
 162   2.0000      -0.712136       -19.3782
 163   2.0000      -0.705777       -19.2052
 164   2.0000      -0.702948       -19.1282
 165   2.0000      -0.700822       -19.0703
 166   2.0000      -0.696542       -18.9539
 167   2.0000      -0.691126       -18.8065
 168   2.0000      -0.685730       -18.6597
 169   2.0000      -0.677339       -18.4313
 170   2.0000      -0.671223       -18.2649
 171   2.0000      -0.665931       -18.1209
 172   2.0000      -0.655943       -17.8491
 173   2.0000      -0.651761       -17.7353
 174   2.0000      -0.643892       -17.5212
 175   2.0000      -0.639914       -17.4130
 176   2.0000      -0.633410       -17.2360
 177   2.0000      -0.630940       -17.1687
 178   2.0000      -0.628187       -17.0939
 179   2.0000      -0.624549       -16.9948
 180   2.0000      -0.620447       -16.8832
 181   2.0000      -0.618006       -16.8168
 182   2.0000      -0.614839       -16.7306
 183   2.0000      -0.606184       -16.4951
 184   2.0000      -0.601012       -16.3544
 185   2.0000      -0.598851       -16.2956
 186   2.0000      -0.595285       -16.1985
 187   2.0000      -0.589159       -16.0318
 188   2.0000      -0.585489       -15.9320
 189   2.0000      -0.583508       -15.8781
 190   2.0000      -0.576255       -15.6807
 191   2.0000      -0.572921       -15.5900
 192   2.0000      -0.569985       -15.5101
 193   2.0000      -0.566964       -15.4279
 194   2.0000      -0.562527       -15.3071
 195   2.0000      -0.560579       -15.2541
 196   2.0000      -0.557409       -15.1679
 197   2.0000      -0.553617       -15.0647
 198   2.0000      -0.551067       -14.9953
 199   2.0000      -0.550912       -14.9911
 200   2.0000      -0.548894       -14.9362
 201   2.0000      -0.547677       -14.9031
 202   2.0000      -0.544826       -14.8255
 203   2.0000      -0.543289       -14.7837
 204   2.0000      -0.540931       -14.7195
 205   2.0000      -0.539521       -14.6811
 206   2.0000      -0.537060       -14.6141
 207   2.0000      -0.532956       -14.5025
 208   2.0000      -0.532529       -14.4908
 209   2.0000      -0.528277       -14.3752
 210   2.0000      -0.525760       -14.3066
 211   2.0000      -0.524169       -14.2634
 212   2.0000      -0.520888       -14.1741
 213   2.0000      -0.516563       -14.0564
 214   2.0000      -0.515738       -14.0339
 215   2.0000      -0.512630       -13.9494
 216   2.0000      -0.512090       -13.9347
 217   2.0000      -0.509764       -13.8714
 218   2.0000      -0.506017       -13.7694
 219   2.0000      -0.505853       -13.7650
 220   2.0000      -0.505441       -13.7538
 221   2.0000      -0.503715       -13.7068
 222   2.0000      -0.498930       -13.5766
 223   2.0000      -0.494965       -13.4687
 224   2.0000      -0.493243       -13.4218
 225   2.0000      -0.488209       -13.2848
 226   2.0000      -0.482021       -13.1165
 227   2.0000      -0.481317       -13.0973
 228   2.0000      -0.478570       -13.0226
 229   2.0000      -0.477445       -12.9919
 230   2.0000      -0.473528       -12.8854
 231   2.0000      -0.467144       -12.7116
 232   2.0000      -0.464601       -12.6424
 233   2.0000      -0.462577       -12.5874
 234   2.0000      -0.460445       -12.5293
 235   2.0000      -0.458252       -12.4697
 236   2.0000      -0.456833       -12.4311
 237   2.0000      -0.452757       -12.3202
 238   2.0000      -0.452173       -12.3042
 239   2.0000      -0.448001       -12.1907
 240   2.0000      -0.446356       -12.1460
 241   2.0000      -0.445111       -12.1121
 242   2.0000      -0.442231       -12.0337
 243   2.0000      -0.438602       -11.9350
 244   2.0000      -0.437405       -11.9024
 245   2.0000      -0.436373       -11.8743
 246   2.0000      -0.436070       -11.8661
 247   2.0000      -0.435951       -11.8628
 248   2.0000      -0.435047       -11.8382
 249   2.0000      -0.433593       -11.7987
 250   2.0000      -0.430885       -11.7250
 251   2.0000      -0.429900       -11.6982
 252   2.0000      -0.428322       -11.6552
 253   2.0000      -0.425854       -11.5881
 254   2.0000      -0.423960       -11.5365
 255   2.0000      -0.421562       -11.4713
 256   2.0000      -0.419210       -11.4073
 257   2.0000      -0.418027       -11.3751
 258   2.0000      -0.416808       -11.3419
 259   2.0000      -0.414882       -11.2895
 260   2.0000      -0.413449       -11.2505
 261   2.0000      -0.411173       -11.1886
 262   2.0000      -0.406882       -11.0718
 263   2.0000      -0.404866       -11.0170
 264   2.0000      -0.403852       -10.9894
 265   2.0000      -0.399940       -10.8829
 266   2.0000      -0.397898       -10.8274
 267   2.0000      -0.392828       -10.6894
 268   2.0000      -0.389404       -10.5962
 269   2.0000      -0.387165       -10.5353
 270   2.0000      -0.381802       -10.3894
 271   2.0000      -0.379397       -10.3239
 272   2.0000      -0.378478       -10.2989
 273   2.0000      -0.370654       -10.0860
 274   2.0000      -0.360877        -9.8200
 275   2.0000      -0.360504        -9.8098
 276   2.0000      -0.356105        -9.6901
 277   2.0000      -0.354384        -9.6433
 278   2.0000      -0.350527        -9.5383
 279   2.0000      -0.345046        -9.3892
 280   2.0000      -0.342344        -9.3156
 281   2.0000      -0.335384        -9.1263
 282   2.0000      -0.330542        -8.9945
 283   2.0000      -0.323753        -8.8098
 284   2.0000      -0.320416        -8.7190
 285   2.0000      -0.310866        -8.4591
 286   2.0000      -0.308028        -8.3819
 287   2.0000      -0.301138        -8.1944
 288   2.0000      -0.298343        -8.1183
 289   2.0000      -0.282763        -7.6944
 290   2.0000      -0.268563        -7.3080
 291   2.0000      -0.222673        -6.0592
 292   0.0000      -0.106167        -2.8890
 293   0.0000      -0.088702        -2.4137
 294   0.0000      -0.080377        -2.1872
 295   0.0000      -0.063578        -1.7300
 296   0.0000      -0.056933        -1.5492

MULLIKEN ATOMIC CHARGES
-----------------------
   0 C :    0.296310
   1 C :   -0.324212
   2 C :   -0.188542
   3 N :    0.162396
   4 C :   -0.209256
   5 N :    0.170385
   6 C :    0.036229
   7 C :   -0.016688
   8 C :   -0.029678
   9 C :    0.058999
  10 C :    0.052108
  11 C :   -0.016644
  12 Cl:   -0.032482
  13 Cl:   -0.040494
  14 C :    0.153870
  15 O :   -0.153631
  16 C :   -0.140625
  17 C :   -0.056852
  18 C :   -0.025760
  19 C :    0.147923
  20 O :   -0.288477
  21 C :    0.176347
  22 C :    0.088572
  23 O :   -0.336721
  24 C :    0.197082
  25 C :    0.114206
  26 C :    0.023663
  27 C :    0.000371
  28 N :   -0.259776
  29 S :    0.498446
  30 N :   -0.306018
  31 C :   -0.119207
  32 C :   -0.049162
  33 C :    0.052983
  34 C :    0.064589
  35 C :   -0.116449
  36 S :    0.153740
  37 C :   -0.111339
  38 C :    0.052035
  39 C :   -0.006506
  40 C :   -0.067050
  41 S :    0.120432
  42 C :    0.094084
  43 C :   -0.006789
  44 C :   -0.099911
  45 C :    0.124737
  46 C :    0.026592
  47 O :   -0.340712
  48 C :    0.212445
  49 C :    0.177317
  50 O :   -0.292802
  51 C :    0.160600
  52 C :   -0.014194
  53 C :    0.045218
  54 C :   -0.008722
  55 N :   -0.279186
  56 S :    0.492693
  57 N :   -0.303867
  58 C :   -0.103088
  59 C :   -0.059250
  60 C :    0.297608
  61 C :   -0.352052
  62 C :   -0.189017
  63 N :    0.156296
  64 C :   -0.184355
  65 N :    0.147446
  66 C :    0.038280
  67 C :   -0.007716
  68 C :    0.155999
  69 O :   -0.138709
  70 C :   -0.036297
  71 C :    0.059785
  72 C :    0.050555
  73 C :   -0.022707
  74 Cl:   -0.038110
  75 Cl:   -0.044873
  76 H :   -0.004861
  77 H :    0.002570
  78 H :    0.051310
  79 H :    0.046139
  80 H :    0.044247
  81 H :    0.052878
  82 H :    0.029646
  83 H :    0.025370
  84 H :    0.041021
  85 H :    0.015761
  86 H :    0.030037
  87 H :    0.000734
  88 H :    0.022834
  89 H :    0.000451
  90 H :   -0.027296
  91 H :    0.011820
  92 H :    0.019578
  93 H :    0.022946
  94 H :    0.053621
  95 H :    0.038056
  96 H :    0.051363
  97 H :    0.030559
  98 H :   -0.002476
  99 H :    0.001275
Sum of atomic charges:   -0.0000000

LOEWDIN ATOMIC CHARGES
----------------------
   0 C :    0.071150
   1 C :   -0.131865
   2 C :   -0.021204
   3 N :   -0.042757
   4 C :   -0.026685
   5 N :   -0.042389
   6 C :   -0.014015
   7 C :   -0.044836
   8 C :   -0.000705
   9 C :   -0.134421
  10 C :   -0.129913
  11 C :   -0.011134
  12 Cl:    0.164683
  13 Cl:    0.160185
  14 C :    0.081059
  15 O :   -0.146703
  16 C :   -0.113730
  17 C :    0.082421
  18 C :   -0.102604
  19 C :    0.087091
  20 O :   -0.045235
  21 C :    0.086437
  22 C :    0.037338
  23 O :   -0.104140
  24 C :    0.079655
  25 C :   -0.044562
  26 C :   -0.041135
  27 C :   -0.034702
  28 N :   -0.284909
  29 S :    0.634033
  30 N :   -0.275922
  31 C :   -0.171425
  32 C :   -0.001321
  33 C :   -0.014588
  34 C :   -0.058656
  35 C :   -0.144923
  36 S :    0.484422
  37 C :   -0.198373
  38 C :   -0.037598
  39 C :   -0.062585
  40 C :   -0.165707
  41 S :    0.416873
  42 C :   -0.047321
  43 C :    0.011124
  44 C :   -0.045113
  45 C :   -0.016592
  46 C :    0.021492
  47 O :   -0.122966
  48 C :    0.079811
  49 C :    0.081944
  50 O :   -0.071991
  51 C :    0.081256
  52 C :   -0.107390
  53 C :   -0.028373
  54 C :   -0.048534
  55 N :   -0.281845
  56 S :    0.621649
  57 N :   -0.292209
  58 C :    0.072383
  59 C :   -0.089784
  60 C :    0.080929
  61 C :   -0.142248
  62 C :   -0.021454
  63 N :   -0.049260
  64 C :   -0.013657
  65 N :   -0.058403
  66 C :   -0.013989
  67 C :   -0.036080
  68 C :    0.084252
  69 O :   -0.136604
  70 C :   -0.002047
  71 C :   -0.133376
  72 C :   -0.132134
  73 C :   -0.012375
  74 Cl:    0.159267
  75 Cl:    0.157320
  76 H :    0.044491
  77 H :    0.045211
  78 H :    0.050428
  79 H :    0.031696
  80 H :    0.021897
  81 H :    0.029086
  82 H :    0.019020
  83 H :    0.017769
  84 H :    0.021165
  85 H :    0.036996
  86 H :    0.034280
  87 H :    0.033346
  88 H :    0.022793
  89 H :    0.030703
  90 H :    0.028684
  91 H :    0.009294
  92 H :    0.015848
  93 H :    0.011584
  94 H :    0.025412
  95 H :    0.031054
  96 H :    0.025168
  97 H :    0.040578
  98 H :    0.044930
  99 H :    0.044281

  Mayer bond orders larger than 0.100000
B(  0-C ,  1-C ) :   1.6633 B(  0-C ,  6-C ) :   0.9953 B(  0-C , 16-C ) :   1.0638
B(  1-C ,  2-C ) :   1.1337 B(  1-C ,  4-C ) :   1.1445 B(  2-C ,  3-N ) :   2.9783
B(  4-C ,  5-N ) :   2.9949 B(  6-C ,  7-C ) :   1.3272 B(  6-C , 11-C ) :   1.3455
B(  7-C ,  8-C ) :   1.3443 B(  7-C , 14-C ) :   0.9537 B(  8-C ,  9-C ) :   1.3378
B(  8-C , 76-H ) :   1.0186 B(  9-C , 10-C ) :   1.4103 B(  9-C , 13-Cl) :   1.0481
B( 10-C , 11-C ) :   1.3511 B( 10-C , 12-Cl) :   1.0764 B( 11-C , 77-H ) :   0.9887
B( 14-C , 15-O ) :   2.1417 B( 14-C , 16-C ) :   0.9720 B( 16-C , 17-C ) :   1.5194
B( 17-C , 18-C ) :   1.2091 B( 17-C , 78-H ) :   0.9442 B( 18-C , 19-C ) :   1.2718
B( 18-C , 27-C ) :   1.1336 B( 19-C , 20-O ) :   1.2347 B( 19-C , 22-C ) :   1.1479
B( 20-O , 21-C ) :   0.9366 B( 21-C , 79-H ) :   0.9737 B( 21-C , 80-H ) :   0.9579
B( 21-C , 81-H ) :   0.9607 B( 22-C , 23-O ) :   1.1703 B( 22-C , 25-C ) :   1.4480
B( 23-O , 24-C ) :   0.9015 B( 24-C , 82-H ) :   0.9783 B( 24-C , 83-H ) :   0.9708
B( 24-C , 84-H ) :   0.9663 B( 25-C , 26-C ) :   1.1497 B( 25-C , 31-C ) :   1.1430
B( 26-C , 27-C ) :   1.1561 B( 26-C , 30-N ) :   1.5371 B( 27-C , 28-N ) :   1.6131
B( 28-N , 29-S ) :   1.2398 B( 28-N , 30-N ) :   0.1366 B( 29-S , 30-N ) :   1.2267
B( 31-C , 32-C ) :   1.5124 B( 31-C , 36-S ) :   1.0479 B( 32-C , 33-C ) :   1.2549
B( 32-C , 85-H ) :   0.9479 B( 33-C , 34-C ) :   1.0617 B( 33-C , 42-C ) :   1.3367
B( 34-C , 35-C ) :   1.5725 B( 34-C , 37-C ) :   1.1829 B( 35-C , 36-S ) :   1.1492
B( 35-C , 86-H ) :   0.9391 B( 37-C , 38-C ) :   1.4353 B( 37-C , 41-S ) :   1.0768
B( 38-C , 39-C ) :   1.2071 B( 38-C , 42-C ) :   1.0895 B( 39-C , 40-C ) :   1.5945
B( 39-C , 87-H ) :   1.0008 B( 40-C , 41-S ) :   1.1469 B( 40-C , 88-H ) :   0.9638
B( 42-C , 43-C ) :   1.1777 B( 43-C , 44-C ) :   1.5495 B( 43-C , 89-H ) :   0.9598
B( 44-C , 45-C ) :   1.1827 B( 44-C , 90-H ) :   0.9772 B( 45-C , 46-C ) :   1.4274
B( 45-C , 52-C ) :   0.1077 B( 45-C , 54-C ) :   1.1007 B( 46-C , 47-O ) :   1.1252
B( 46-C , 49-C ) :   1.1668 B( 47-O , 48-C ) :   0.9278 B( 48-C , 91-H ) :   0.9797
B( 48-C , 92-H ) :   0.9632 B( 48-C , 93-H ) :   0.9687 B( 49-C , 50-O ) :   1.2420
B( 49-C , 52-C ) :   1.3267 B( 50-O , 51-C ) :   0.9279 B( 51-C , 94-H ) :   0.9715
B( 51-C , 95-H ) :   0.9712 B( 51-C , 96-H ) :   0.9546 B( 52-C , 53-C ) :   1.1833
B( 52-C , 58-C ) :   1.0675 B( 53-C , 54-C ) :   1.1615 B( 53-C , 57-N ) :   1.5403
B( 54-C , 55-N ) :   1.5752 B( 55-N , 56-S ) :   1.2528 B( 55-N , 57-N ) :   0.1414
B( 56-S , 57-N ) :   1.2328 B( 58-C , 59-C ) :   1.6655 B( 58-C , 97-H ) :   0.9276
B( 59-C , 60-C ) :   1.0712 B( 59-C , 68-C ) :   0.9216 B( 60-C , 61-C ) :   1.6354
B( 60-C , 66-C ) :   0.9970 B( 61-C , 62-C ) :   1.1358 B( 61-C , 64-C ) :   1.1557
B( 62-C , 63-N ) :   2.9767 B( 64-C , 65-N ) :   2.9635 B( 66-C , 67-C ) :   1.3300
B( 66-C , 73-C ) :   1.3353 B( 67-C , 68-C ) :   0.9316 B( 67-C , 70-C ) :   1.3507
B( 68-C , 69-O ) :   2.2590 B( 70-C , 71-C ) :   1.3406 B( 70-C , 98-H ) :   1.0165
B( 71-C , 72-C ) :   1.4070 B( 71-C , 75-Cl) :   1.0461 B( 72-C , 73-C ) :   1.3645
B( 72-C , 74-Cl) :   1.0721 B( 73-C , 99-H ) :   0.9863

-----------------------------------------------------------------------------
         ABSORPTION SPECTRUM VIA TRANSITION ELECTRIC DIPOLE MOMENTS
-----------------------------------------------------------------------------
State   Energy  Wavelength   fosc         T2         TX        TY        TZ
        (cm-1)    (nm)                  (au**2)     (au)      (au)      (au)
-----------------------------------------------------------------------------
   0   11865.6    842.8   0.834444304  23.15175   0.86018   2.79649   3.81988
   1   16250.4    615.4   0.610116592  12.36014   0.71412   0.98927  -3.29720
   2   19250.6    519.5   0.003861577   0.06604   0.03974   0.25141   0.03541
   3   20868.7    479.2   0.468365036   7.38863   0.91887   2.50120   0.53693
   4   21341.4    468.6   0.086687126   1.33723   0.13544   1.04554  -0.47512
   5   21778.2    459.2   0.027112640   0.40985   0.28615   0.32520  -0.47140
   6   22823.1    438.2   0.087813947   1.26667   0.37515   0.95458  -0.46338
   7   23953.1    417.5   0.079216704   1.08875  -0.23058  -0.53620  -0.86491
   8   24658.1    405.5   0.141985375   1.89565  -0.42029   0.64985   1.13873
   9   25043.6    399.3   0.099754427   1.31133  -0.15089   0.26199  -1.10450
  10   26557.0    376.5   0.008768169   0.10869   0.26021  -0.18044   0.09181
  11   27216.5    367.4   0.022030102   0.26648   0.00217   0.11811  -0.50252
  12   27666.4    361.4   0.024100026   0.28677   0.13211   0.38781  -0.34485
  13   28089.7    356.0   0.042939437   0.50325  -0.25657  -0.34580  -0.56378
  14   28939.1    345.6   0.047265338   0.53769   0.19336   0.04395   0.70595
  15   29099.4    343.6   0.111641563   1.26304  -0.13237  -0.48351  -1.00585
  16   30102.5    332.2   0.027745457   0.30343  -0.04721   0.17495   0.52019
  17   30200.4    331.1   0.091156135   0.99368  -0.42486   0.47403   0.76712
  18   30359.4    329.4   0.116194771   1.25999  -0.65473  -0.04889   0.91046
  19   30572.8    327.1   0.164881885   1.77547   1.07063   0.78633  -0.10441
  20   30970.4    322.9   0.065033074   0.69129  -0.68724  -0.26477  -0.38585
  21   31483.4    317.6   0.002732934   0.02858  -0.08254   0.14329   0.03512
  22   31817.0    314.3   0.122722942   1.26982  -0.86550  -0.57773  -0.43240
  23   31929.9    313.2   0.048839160   0.50355  -0.32210  -0.51521  -0.36655
  24   32154.5    311.0   0.116876309   1.19663   0.18246  -1.07014  -0.13467
  25   32751.7    305.3   0.029817310   0.29972   0.18177   0.06533  -0.51226
  26   33691.4    296.8   0.056861305   0.55561   0.44988   0.39342  -0.44547
  27   33925.5    294.8   0.049167336   0.47712  -0.17747   0.27255  -0.60937
  28   34090.1    293.3   0.129518732   1.25078   0.91747   0.43434  -0.46944
  29   34370.3    290.9   0.123079665   1.17891   0.06472  -0.29773  -1.04215
  30   34526.2    289.6   0.046241462   0.44092  -0.56900  -0.04750   0.33897
  31   34847.8    287.0   0.028220790   0.26661  -0.47795   0.10342  -0.16576
  32   34944.5    286.2   0.100740743   0.94908  -0.52868  -0.02896   0.81776
  33   35185.9    284.2   0.050078401   0.46855  -0.55408  -0.19581  -0.35101
  34   35253.9    283.7   0.044236808   0.41310   0.43125   0.04438  -0.47450
  35   35425.9    282.3   0.143219000   1.33093  -0.04649   0.30623   1.11130
  36   35660.1    280.4   0.540237814   4.98744   1.17369   0.94062  -1.65079
  37   35897.3    278.6   0.024032344   0.22040   0.14075  -0.44263   0.06830
  38   36120.6    276.9   0.228783856   2.08519   1.22169   0.67964   0.36159
  39   36224.9    276.1   0.068597943   0.62342   0.42260   0.17852   0.64262
  40   36398.5    274.7   0.073989783   0.66921  -0.58556  -0.44309   0.36056
  41   36721.9    272.3   0.100520337   0.90116   0.83252   0.37494  -0.25979
  42   37067.0    269.8   0.069130660   0.61399   0.21488   0.71087   0.24995
  43   37136.9    269.3   0.037616978   0.33347   0.27396   0.46743   0.19982
  44   37360.7    267.7   0.073735312   0.64973   0.12088   0.49259  -0.62648
  45   37797.5    264.6   0.174467261   1.51959  -0.99656  -0.41303   0.59653
  46   37887.4    263.9   0.071711909   0.62312   0.02243  -0.55872  -0.55718
  47   38013.3    263.1   0.036897658   0.31955   0.21556  -0.11862  -0.50893
  48   38137.4    262.2   0.193285377   1.66849  -0.30182  -0.01747   1.25582
  49   38673.1    258.6   0.062018039   0.52794   0.05583  -0.63251   0.35320
  50   38725.3    258.2   0.026035611   0.22133   0.02695  -0.40406  -0.23947
  51   38955.7    256.7   0.056442806   0.47699  -0.16783  -0.61690  -0.26126
  52   39126.7    255.6   0.026579733   0.22364  -0.03113  -0.32752  -0.33971
  53   39230.2    254.9   0.047691776   0.40022  -0.47508  -0.41645   0.03299
  54   39304.8    254.4   0.014678367   0.12294   0.24753   0.24123  -0.05898
  55   39591.7    252.6   0.020911226   0.17388   0.03053  -0.25805  -0.32613
  56   39681.5    252.0   0.012557800   0.10418   0.30666  -0.02522   0.09750
  57   39836.3    251.0   0.264957302   2.18964   0.81256   1.08519   0.59308
  58   40008.2    249.9   0.065197554   0.53649  -0.40476  -0.59707  -0.12714
  59   40239.2    248.5   0.058136616   0.47564  -0.09950  -0.53916  -0.41838

FINAL SINGLE POINT ENERGY     -6390.189363622134

DIPOLE MOMENT
-------------
                                X             Y             Z
Electronic contribution:    -15.04048      10.47365     -24.90869
Nuclear contribution   :     13.16444     -11.41663      28.84429
                        -----------------------------------------
Total Dipole Moment    :     -1.87604      -0.94298       3.93560
                        -----------------------------------------
Magnitude (a.u.)       :      4.46068
Magnitude (Debye)      :     11.33816

Rotational constants in cm-1:     0.001258     0.000232     0.000205
Rotational constants in MHz :    37.725406     6.959469     6.156895

                             ****ORCA TERMINATED NORMALLY****
TOTAL RUN TIME: 0 days 0 hours 12 minutes 7 seconds 742 msec
