                         Program Version 4.2.0 -  RELEASE  -
|  1> # ORCA input file
|  2> # SCF done       -192.484500928484          0.000437325803
|  3> ! CAM-B3LYP def2-SVP def2/J RIJCOSX Grid4 TightSCF
|  4> %maxcore 5000
|  5> %tddft
|  6>     Mode sTDDFT
|  7>     Ethresh 5.0
|  8>     maxcore 5000
|  9> end
| 10>
| 11> %pal
| 12>   nprocs 6
| 13>   end
| 14> * xyz 0 1
| 15>    C        6.74668         6.94453         5.73885
| 16>    C        6.72303         7.51799         4.50453
| 17>    C        5.53539         7.20153         3.81655
| 18>    C        4.68301         6.38505         4.56525
| 19>    S        5.33173         6.00856         6.09724
| 20>    C        3.50920         6.11375         3.79636
| 21>    C        3.64178         6.76293         2.56365
| 22>    C        4.91125         7.47406         2.53366
| 23>    C        5.40065         8.24251         1.51718
| 24>    C        4.68585         8.43824         0.31781
| 25>    N        4.10547         8.60164        -0.65822
| 26>    C        6.64662         8.89726         1.59887
| 27>    N        7.65900         9.43312         1.65833
| 28>    C        2.54159         6.55146         1.72938
| 29>    C        1.58733         5.75137         2.32347
| 30>    S        2.04270         5.25573         3.93936
| 31>    C        0.34669         5.36877         1.70843
| 32>    C       -0.17983         5.92118         0.56530
| 33>    O       -1.33656         5.33107         0.23109
| 34>    C       -1.57533         4.37745         1.12749
| 35>    C       -0.58229         4.33151         2.07529
| 36>    C       -0.54715         3.47001         3.25816
| 37>    O       -0.01996         3.81058         4.30688
| 38>    C       -1.20432         2.17721         3.13033
| 39>    C       -1.45311         1.40897         2.01263
| 40>    C       -2.04170         0.18465         2.31116
| 41>    C       -2.25835        -0.00044         3.66762
| 42>    S       -1.68405         1.35898         4.58146
| 43>    C       -2.87574        -1.12013         4.27389
| 44>    S       -3.37471        -2.47098         3.29486
| 45>    C       -4.03984        -3.34833         4.65713
| 46>    C       -3.86690        -2.59659         5.80453
| 47>    C       -3.20248        -1.35128         5.60771
| 48>    C       -3.02606        -0.64934         6.82481
| 49>    C       -3.53277        -1.33521         7.88632
| 50>    C       -3.53348        -0.96473         9.30481
| 51>    O       -4.01851        -1.64313        10.17629
| 52>    O       -2.92543         0.20988         9.51246
| 53>    C       -2.86774         0.64223        10.86507
| 54>    S       -4.26432        -2.86940         7.46849
| 55>    C       -4.63211        -4.62752         4.47713
| 56>    C       -4.52843        -5.31519         3.28623
| 57>    C       -5.07497        -6.56782         3.04414
| 58>    C       -5.86447        -7.26309         4.06139
| 59>    C       -6.08970        -6.77515         5.30265
| 60>    S       -5.48967        -5.27013         5.86621
| 61>    C       -6.26058        -8.48742         3.45745
| 62>    C       -5.73781        -8.58000         2.16419
| 63>    C       -6.11521        -9.78769         1.53465
| 64>    C       -6.88881       -10.55529         2.34687
| 65>    S       -7.19446        -9.85841         3.90001
| 66>    C       -4.98025        -7.38153         1.88839
| 67>    C       -4.23695        -7.05552         0.74442
| 68>    C       -4.00462        -7.87888        -0.32548
| 69>    C       -3.19199        -7.48114        -1.39382
| 70>    C       -2.84776        -8.28239        -2.45833
| 71>    C       -1.97613        -7.93163        -3.55445
| 72>    C       -1.40044        -6.70747        -3.80105
| 73>    C       -0.55941        -6.43504        -4.89832
| 74>    N        0.13054        -6.14464        -5.76967
| 75>    C       -1.56273        -5.54945        -3.01568
| 76>    N       -1.64157        -4.56032        -2.43497
| 77>    C       -1.80709        -9.12121        -4.38575
| 78>    C       -2.58682       -10.16995        -3.84081
| 79>    C       -3.28091        -9.68333        -2.63014
| 80>    O       -4.04453       -10.32802        -1.93654
| 81>    C       -2.63086       -11.42581        -4.39343
| 82>    C       -1.86286       -11.66238        -5.53885
| 83>    C       -1.08622       -10.60970        -6.07588
| 84>    C       -1.04572        -9.33701        -5.51861
| 85>    S       -0.20773       -11.11916        -7.48674
| 86>    C       -0.88617       -12.71817        -7.33546
| 87>    C       -1.72789       -12.86515        -6.28531
| 88>   Br       -0.41623       -14.04437        -8.57662
| 89>    H        7.51834         7.00950         6.47946
| 90>    H        7.51484         8.13125         4.11482
| 91>    H        2.44221         6.94535         0.73527
| 92>    H        0.16378         6.71981        -0.06010
| 93>    H       -2.48998         3.82547         1.03514
| 94>    H       -1.18725         1.71487         1.01742
| 95>    H       -2.31101        -0.55278         1.57583
| 96>    H       -2.54612         0.30642         6.92066
| 97>    H       -2.29237         1.56400        10.86261
| 98>    H       -2.38238        -0.11478        11.48437
| 99>    H       -3.87433         0.81776        11.24997
|100>    H       -3.96620        -4.83000         2.49924
|101>    H       -6.66274        -7.31132         6.04243
|102>    H       -5.84556       -10.09244         0.54056
|103>    H       -7.31361       -11.51533         2.12773
|104>    H       -3.77966        -6.07299         0.72756
|105>    H       -4.41756        -8.87226        -0.34792
|106>    H       -2.79037        -6.47668        -1.35425
|107>    H       -3.23457       -12.20418        -3.95357
|108>    H       -0.43584        -8.57017        -5.96584
|109>    H       -2.23240       -13.78298        -6.04421
|110> *
|111>
|112>                          ****END OF INPUT****

CARTESIAN COORDINATES (ANGSTROEM)
---------------------------------
  C      6.746680    6.944530    5.738850
  C      6.723030    7.517990    4.504530
  C      5.535390    7.201530    3.816550
  C      4.683010    6.385050    4.565250
  S      5.331730    6.008560    6.097240
  C      3.509200    6.113750    3.796360
  C      3.641780    6.762930    2.563650
  C      4.911250    7.474060    2.533660
  C      5.400650    8.242510    1.517180
  C      4.685850    8.438240    0.317810
  N      4.105470    8.601640   -0.658220
  C      6.646620    8.897260    1.598870
  N      7.659000    9.433120    1.658330
  C      2.541590    6.551460    1.729380
  C      1.587330    5.751370    2.323470
  S      2.042700    5.255730    3.939360
  C      0.346690    5.368770    1.708430
  C     -0.179830    5.921180    0.565300
  O     -1.336560    5.331070    0.231090
  C     -1.575330    4.377450    1.127490
  C     -0.582290    4.331510    2.075290
  C     -0.547150    3.470010    3.258160
  O     -0.019960    3.810580    4.306880
  C     -1.204320    2.177210    3.130330
  C     -1.453110    1.408970    2.012630
  C     -2.041700    0.184650    2.311160
  C     -2.258350   -0.000440    3.667620
  S     -1.684050    1.358980    4.581460
  C     -2.875740   -1.120130    4.273890
  S     -3.374710   -2.470980    3.294860
  C     -4.039840   -3.348330    4.657130
  C     -3.866900   -2.596590    5.804530
  C     -3.202480   -1.351280    5.607710
  C     -3.026060   -0.649340    6.824810
  C     -3.532770   -1.335210    7.886320
  C     -3.533480   -0.964730    9.304810
  O     -4.018510   -1.643130   10.176290
  O     -2.925430    0.209880    9.512460
  C     -2.867740    0.642230   10.865070
  S     -4.264320   -2.869400    7.468490
  C     -4.632110   -4.627520    4.477130
  C     -4.528430   -5.315190    3.286230
  C     -5.074970   -6.567820    3.044140
  C     -5.864470   -7.263090    4.061390
  C     -6.089700   -6.775150    5.302650
  S     -5.489670   -5.270130    5.866210
  C     -6.260580   -8.487420    3.457450
  C     -5.737810   -8.580000    2.164190
  C     -6.115210   -9.787690    1.534650
  C     -6.888810  -10.555290    2.346870
  S     -7.194460   -9.858410    3.900010
  C     -4.980250   -7.381530    1.888390
  C     -4.236950   -7.055520    0.744420
  C     -4.004620   -7.878880   -0.325480
  C     -3.191990   -7.481140   -1.393820
  C     -2.847760   -8.282390   -2.458330
  C     -1.976130   -7.931630   -3.554450
  C     -1.400440   -6.707470   -3.801050
  C     -0.559410   -6.435040   -4.898320
  N      0.130540   -6.144640   -5.769670
  C     -1.562730   -5.549450   -3.015680
  N     -1.641570   -4.560320   -2.434970
  C     -1.807090   -9.121210   -4.385750
  C     -2.586820  -10.169950   -3.840810
  C     -3.280910   -9.683330   -2.630140
  O     -4.044530  -10.328020   -1.936540
  C     -2.630860  -11.425810   -4.393430
  C     -1.862860  -11.662380   -5.538850
  C     -1.086220  -10.609700   -6.075880
  C     -1.045720   -9.337010   -5.518610
  S     -0.207730  -11.119160   -7.486740
  C     -0.886170  -12.718170   -7.335460
  C     -1.727890  -12.865150   -6.285310
  Br    -0.416230  -14.044370   -8.576620
  H      7.518340    7.009500    6.479460
  H      7.514840    8.131250    4.114820
  H      2.442210    6.945350    0.735270
  H      0.163780    6.719810   -0.060100
  H     -2.489980    3.825470    1.035140
  H     -1.187250    1.714870    1.017420
  H     -2.311010   -0.552780    1.575830
  H     -2.546120    0.306420    6.920660
  H     -2.292370    1.564000   10.862610
  H     -2.382380   -0.114780   11.484370
  H     -3.874330    0.817760   11.249970
  H     -3.966200   -4.830000    2.499240
  H     -6.662740   -7.311320    6.042430
  H     -5.845560  -10.092440    0.540560
  H     -7.313610  -11.515330    2.127730
  H     -3.779660   -6.072990    0.727560
  H     -4.417560   -8.872260   -0.347920
  H     -2.790370   -6.476680   -1.354250
  H     -3.234570  -12.204180   -3.953570
  H     -0.435840   -8.570170   -5.965840
  H     -2.232400  -13.782980   -6.044210

 Total Charge           Charge          ....    0
 Multiplicity           Mult            ....    1
 Number of Electrons    NEL             ....  588
 Basis Dimension        Dim             .... 1191

ORBITAL ENERGIES
----------------

  NO   OCC          E(Eh)            E(eV)
   0   2.0000    -482.879859    -13139.8290
   1   2.0000     -88.997515     -2421.7455
   2   2.0000     -88.990628     -2421.5581
   3   2.0000     -88.981743     -2421.3163
   4   2.0000     -88.976509     -2421.1739
   5   2.0000     -88.975808     -2421.1548
   6   2.0000     -88.972156     -2421.0554
   7   2.0000     -88.968067     -2420.9442
   8   2.0000     -88.963899     -2420.8308
   9   2.0000     -62.557587     -1702.2785
  10   2.0000     -56.391529     -1534.4915
  11   2.0000     -56.388828     -1534.4180
  12   2.0000     -56.388790     -1534.4170
  13   2.0000     -19.313829      -525.5560
  14   2.0000     -19.273246      -524.4517
  15   2.0000     -19.220377      -523.0131
  16   2.0000     -19.218189      -522.9535
  17   2.0000     -19.205212      -522.6004
  18   2.0000     -14.419631      -392.3781
  19   2.0000     -14.418390      -392.3443
  20   2.0000     -14.406536      -392.0218
  21   2.0000     -14.402840      -391.9212
  22   2.0000     -10.417853      -283.4842
  23   2.0000     -10.382593      -282.5247
  24   2.0000     -10.355282      -281.7816
  25   2.0000     -10.351725      -281.6847
  26   2.0000     -10.350799      -281.6596
  27   2.0000     -10.350123      -281.6412
  28   2.0000     -10.349936      -281.6361
  29   2.0000     -10.343079      -281.4495
  30   2.0000     -10.341826      -281.4154
  31   2.0000     -10.339293      -281.3465
  32   2.0000     -10.339190      -281.3437
  33   2.0000     -10.336957      -281.2829
  34   2.0000     -10.335390      -281.2403
  35   2.0000     -10.331986      -281.1476
  36   2.0000     -10.329721      -281.0860
  37   2.0000     -10.329011      -281.0667
  38   2.0000     -10.326893      -281.0090
  39   2.0000     -10.326851      -281.0079
  40   2.0000     -10.320839      -280.8443
  41   2.0000     -10.319395      -280.8050
  42   2.0000     -10.317528      -280.7542
  43   2.0000     -10.317001      -280.7399
  44   2.0000     -10.316927      -280.7379
  45   2.0000     -10.314491      -280.6716
  46   2.0000     -10.313281      -280.6387
  47   2.0000     -10.312651      -280.6215
  48   2.0000     -10.311950      -280.6024
  49   2.0000     -10.310814      -280.5715
  50   2.0000     -10.309410      -280.5333
  51   2.0000     -10.309046      -280.5234
  52   2.0000     -10.308592      -280.5111
  53   2.0000     -10.306978      -280.4671
  54   2.0000     -10.304987      -280.4130
  55   2.0000     -10.301951      -280.3303
  56   2.0000     -10.301032      -280.3053
  57   2.0000     -10.300894      -280.3016
  58   2.0000     -10.300815      -280.2994
  59   2.0000     -10.299555      -280.2651
  60   2.0000     -10.299005      -280.2502
  61   2.0000     -10.298518      -280.2369
  62   2.0000     -10.297838      -280.2184
  63   2.0000     -10.296612      -280.1851
  64   2.0000     -10.296009      -280.1687
  65   2.0000     -10.294708      -280.1333
  66   2.0000     -10.291869      -280.0560
  67   2.0000     -10.289974      -280.0044
  68   2.0000     -10.287120      -279.9268
  69   2.0000     -10.286602      -279.9127
  70   2.0000     -10.286494      -279.9097
  71   2.0000     -10.286290      -279.9042
  72   2.0000     -10.285119      -279.8723
  73   2.0000     -10.284985      -279.8687
  74   2.0000     -10.281913      -279.7851
  75   2.0000     -10.279171      -279.7105
  76   2.0000     -10.278271      -279.6860
  77   2.0000     -10.269012      -279.4340
  78   2.0000      -8.787023      -239.1071
  79   2.0000      -8.092476      -220.2075
  80   2.0000      -8.085140      -220.0079
  81   2.0000      -8.076676      -219.7775
  82   2.0000      -8.071540      -219.6378
  83   2.0000      -8.070739      -219.6160
  84   2.0000      -8.065300      -219.4680
  85   2.0000      -8.064104      -219.4354
  86   2.0000      -8.059430      -219.3083
  87   2.0000      -6.623303      -180.2292
  88   2.0000      -6.608758      -179.8334
  89   2.0000      -6.608591      -179.8289
  90   2.0000      -6.062025      -164.9561
  91   2.0000      -6.057390      -164.8300
  92   2.0000      -6.054618      -164.7545
  93   2.0000      -6.054531      -164.7522
  94   2.0000      -6.050415      -164.6402
  95   2.0000      -6.047048      -164.5485
  96   2.0000      -6.046014      -164.5204
  97   2.0000      -6.041648      -164.4016
  98   2.0000      -6.040739      -164.3769
  99   2.0000      -6.040598      -164.3730
 100   2.0000      -6.038952      -164.3283
 101   2.0000      -6.036361      -164.2577
 102   2.0000      -6.036170      -164.2525
 103   2.0000      -6.034685      -164.2121
 104   2.0000      -6.034207      -164.1991
 105   2.0000      -6.033802      -164.1881
 106   2.0000      -6.031898      -164.1363
 107   2.0000      -6.030015      -164.0850
 108   2.0000      -6.029529      -164.0718
 109   2.0000      -6.028835      -164.0529
 110   2.0000      -6.027850      -164.0261
 111   2.0000      -6.025299      -163.9567
 112   2.0000      -6.024594      -163.9375
 113   2.0000      -6.021494      -163.8532
 114   2.0000      -2.739135       -74.5356
 115   2.0000      -2.735122       -74.4265
 116   2.0000      -2.734968       -74.4223
 117   2.0000      -2.723422       -74.1081
 118   2.0000      -2.723389       -74.1072
 119   2.0000      -1.234928       -33.6041
 120   2.0000      -1.205034       -32.7906
 121   2.0000      -1.139702       -31.0129
 122   2.0000      -1.118265       -30.4295
 123   2.0000      -1.111952       -30.2578
 124   2.0000      -1.038779       -28.2666
 125   2.0000      -1.029152       -28.0046
 126   2.0000      -1.018830       -27.7238
 127   2.0000      -1.013375       -27.5753
 128   2.0000      -1.009916       -27.4812
 129   2.0000      -1.006252       -27.3815
 130   2.0000      -1.003741       -27.3132
 131   2.0000      -0.996816       -27.1247
 132   2.0000      -0.987875       -26.8815
 133   2.0000      -0.983849       -26.7719
 134   2.0000      -0.982186       -26.7267
 135   2.0000      -0.978682       -26.6313
 136   2.0000      -0.968265       -26.3478
 137   2.0000      -0.946651       -25.7597
 138   2.0000      -0.942780       -25.6544
 139   2.0000      -0.934037       -25.4164
 140   2.0000      -0.927730       -25.2448
 141   2.0000      -0.920086       -25.0368
 142   2.0000      -0.906219       -24.6595
 143   2.0000      -0.898983       -24.4626
 144   2.0000      -0.895712       -24.3736
 145   2.0000      -0.886327       -24.1182
 146   2.0000      -0.877273       -23.8718
 147   2.0000      -0.875250       -23.8168
 148   2.0000      -0.871725       -23.7208
 149   2.0000      -0.864789       -23.5321
 150   2.0000      -0.858327       -23.3563
 151   2.0000      -0.853846       -23.2343
 152   2.0000      -0.850470       -23.1425
 153   2.0000      -0.847327       -23.0569
 154   2.0000      -0.838216       -22.8090
 155   2.0000      -0.832367       -22.6499
 156   2.0000      -0.826091       -22.4791
 157   2.0000      -0.820324       -22.3221
 158   2.0000      -0.814282       -22.1577
 159   2.0000      -0.806008       -21.9326
 160   2.0000      -0.792939       -21.5770
 161   2.0000      -0.786069       -21.3900
 162   2.0000      -0.765861       -20.8401
 163   2.0000      -0.763460       -20.7748
 164   2.0000      -0.756639       -20.5892
 165   2.0000      -0.748159       -20.3584
 166   2.0000      -0.738757       -20.1026
 167   2.0000      -0.728887       -19.8340
 168   2.0000      -0.724333       -19.7101
 169   2.0000      -0.718938       -19.5633
 170   2.0000      -0.699593       -19.0369
 171   2.0000      -0.695272       -18.9193
 172   2.0000      -0.690370       -18.7859
 173   2.0000      -0.684375       -18.6228
 174   2.0000      -0.682155       -18.5624
 175   2.0000      -0.675139       -18.3715
 176   2.0000      -0.670837       -18.2544
 177   2.0000      -0.664855       -18.0916
 178   2.0000      -0.663662       -18.0592
 179   2.0000      -0.655018       -17.8240
 180   2.0000      -0.651708       -17.7339
 181   2.0000      -0.649725       -17.6799
 182   2.0000      -0.646946       -17.6043
 183   2.0000      -0.645110       -17.5543
 184   2.0000      -0.635105       -17.2821
 185   2.0000      -0.629010       -17.1162
 186   2.0000      -0.621441       -16.9103
 187   2.0000      -0.619806       -16.8658
 188   2.0000      -0.614924       -16.7329
 189   2.0000      -0.612240       -16.6599
 190   2.0000      -0.604647       -16.4533
 191   2.0000      -0.601412       -16.3653
 192   2.0000      -0.597400       -16.2561
 193   2.0000      -0.590223       -16.0608
 194   2.0000      -0.585535       -15.9332
 195   2.0000      -0.583475       -15.8772
 196   2.0000      -0.579821       -15.7777
 197   2.0000      -0.575556       -15.6617
 198   2.0000      -0.574092       -15.6218
 199   2.0000      -0.571046       -15.5390
 200   2.0000      -0.566214       -15.4075
 201   2.0000      -0.561676       -15.2840
 202   2.0000      -0.556280       -15.1372
 203   2.0000      -0.552547       -15.0356
 204   2.0000      -0.548846       -14.9349
 205   2.0000      -0.543976       -14.8023
 206   2.0000      -0.541754       -14.7419
 207   2.0000      -0.538918       -14.6647
 208   2.0000      -0.532864       -14.5000
 209   2.0000      -0.531910       -14.4740
 210   2.0000      -0.530779       -14.4432
 211   2.0000      -0.529284       -14.4026
 212   2.0000      -0.527409       -14.3515
 213   2.0000      -0.525505       -14.2997
 214   2.0000      -0.523391       -14.2422
 215   2.0000      -0.520463       -14.1625
 216   2.0000      -0.519143       -14.1266
 217   2.0000      -0.517383       -14.0787
 218   2.0000      -0.515414       -14.0251
 219   2.0000      -0.511110       -13.9080
 220   2.0000      -0.506764       -13.7897
 221   2.0000      -0.500812       -13.6278
 222   2.0000      -0.500195       -13.6110
 223   2.0000      -0.499766       -13.5993
 224   2.0000      -0.496811       -13.5189
 225   2.0000      -0.495179       -13.4745
 226   2.0000      -0.491854       -13.3840
 227   2.0000      -0.491222       -13.3668
 228   2.0000      -0.488266       -13.2864
 229   2.0000      -0.485077       -13.1996
 230   2.0000      -0.484225       -13.1764
 231   2.0000      -0.483141       -13.1469
 232   2.0000      -0.481996       -13.1158
 233   2.0000      -0.479220       -13.0402
 234   2.0000      -0.477527       -12.9942
 235   2.0000      -0.471581       -12.8324
 236   2.0000      -0.466460       -12.6930
 237   2.0000      -0.465434       -12.6651
 238   2.0000      -0.463144       -12.6028
 239   2.0000      -0.460112       -12.5203
 240   2.0000      -0.456937       -12.4339
 241   2.0000      -0.453988       -12.3536
 242   2.0000      -0.452582       -12.3154
 243   2.0000      -0.451564       -12.2877
 244   2.0000      -0.450047       -12.2464
 245   2.0000      -0.446943       -12.1619
 246   2.0000      -0.446476       -12.1492
 247   2.0000      -0.443431       -12.0664
 248   2.0000      -0.441373       -12.0104
 249   2.0000      -0.441119       -12.0035
 250   2.0000      -0.439595       -11.9620
 251   2.0000      -0.437122       -11.8947
 252   2.0000      -0.435107       -11.8399
 253   2.0000      -0.434646       -11.8273
 254   2.0000      -0.433619       -11.7994
 255   2.0000      -0.430427       -11.7125
 256   2.0000      -0.430012       -11.7012
 257   2.0000      -0.429967       -11.7000
 258   2.0000      -0.427732       -11.6392
 259   2.0000      -0.427049       -11.6206
 260   2.0000      -0.422037       -11.4842
 261   2.0000      -0.421082       -11.4582
 262   2.0000      -0.417546       -11.3620
 263   2.0000      -0.417042       -11.3483
 264   2.0000      -0.413508       -11.2521
 265   2.0000      -0.411825       -11.2063
 266   2.0000      -0.409954       -11.1554
 267   2.0000      -0.408005       -11.1024
 268   2.0000      -0.397470       -10.8157
 269   2.0000      -0.391340       -10.6489
 270   2.0000      -0.390950       -10.6383
 271   2.0000      -0.384199       -10.4546
 272   2.0000      -0.378466       -10.2986
 273   2.0000      -0.373150       -10.1539
 274   2.0000      -0.371748       -10.1158
 275   2.0000      -0.369476       -10.0540
 276   2.0000      -0.359919        -9.7939
 277   2.0000      -0.352557        -9.5936
 278   2.0000      -0.349346        -9.5062
 279   2.0000      -0.344528        -9.3751
 280   2.0000      -0.342310        -9.3147
 281   2.0000      -0.338321        -9.2062
 282   2.0000      -0.331964        -9.0332
 283   2.0000      -0.331454        -9.0193
 284   2.0000      -0.324920        -8.8415
 285   2.0000      -0.321729        -8.7547
 286   2.0000      -0.309248        -8.4151
 287   2.0000      -0.307748        -8.3743
 288   2.0000      -0.307163        -8.3583
 289   2.0000      -0.297688        -8.1005
 290   2.0000      -0.285881        -7.7792
 291   2.0000      -0.272280        -7.4091
 292   2.0000      -0.256402        -6.9770
 293   2.0000      -0.235017        -6.3951
 294   0.0000      -0.103344        -2.8121
 295   0.0000      -0.088094        -2.3972
 296   0.0000      -0.078287        -2.1303
 297   0.0000      -0.056850        -1.5470
 298   0.0000      -0.041866        -1.1392

MULLIKEN ATOMIC CHARGES
-----------------------
   0 C :   -0.084376
   1 C :    0.032291
   2 C :   -0.032857
   3 C :   -0.117253
   4 S :    0.175409
   5 C :   -0.087207
   6 C :    0.012911
   7 C :    0.304321
   8 C :   -0.306870
   9 C :   -0.184483
  10 N :    0.158272
  11 C :   -0.193632
  12 N :    0.170532
  13 C :   -0.058701
  14 C :   -0.080299
  15 S :    0.212794
  16 C :    0.084405
  17 C :    0.050880
  18 O :   -0.152454
  19 C :    0.084810
  20 C :   -0.063453
  21 C :    0.192071
  22 O :   -0.205448
  23 C :   -0.158424
  24 C :    0.041901
  25 C :   -0.027708
  26 C :   -0.066216
  27 S :    0.171857
  28 C :   -0.048939
  29 S :    0.144922
  30 C :   -0.122755
  31 C :   -0.052340
  32 C :    0.096860
  33 C :    0.005693
  34 C :   -0.136864
  35 C :    0.208853
  36 O :   -0.197413
  37 O :   -0.300289
  38 C :    0.188779
  39 S :    0.174502
  40 C :   -0.031196
  41 C :   -0.098184
  42 C :    0.085154
  43 C :    0.060857
  44 C :   -0.115695
  45 S :    0.152890
  46 C :   -0.114717
  47 C :    0.055313
  48 C :   -0.005264
  49 C :   -0.064482
  50 S :    0.132439
  51 C :    0.099245
  52 C :   -0.001331
  53 C :   -0.019976
  54 C :   -0.025502
  55 C :   -0.087351
  56 C :    0.336782
  57 C :   -0.366956
  58 C :   -0.186887
  59 N :    0.137934
  60 C :   -0.184742
  61 N :    0.124479
  62 C :    0.010759
  63 C :   -0.007133
  64 C :    0.144102
  65 O :   -0.169905
  66 C :   -0.077915
  67 C :    0.119512
  68 C :   -0.092181
  69 C :   -0.024184
  70 S :    0.181732
  71 C :   -0.123525
  72 C :    0.037162
  73 Br:    0.017071
  74 H :    0.032663
  75 H :    0.008864
  76 H :   -0.006718
  77 H :    0.022217
  78 H :    0.024220
  79 H :    0.008894
  80 H :    0.007515
  81 H :    0.014479
  82 H :    0.039559
  83 H :    0.038132
  84 H :    0.036010
  85 H :    0.001364
  86 H :    0.044563
  87 H :    0.015858
  88 H :    0.029796
  89 H :   -0.021013
  90 H :    0.004616
  91 H :   -0.002373
  92 H :   -0.015398
  93 H :   -0.009501
  94 H :   -0.006132
Sum of atomic charges:   -0.0000000

LOEWDIN ATOMIC CHARGES
----------------------
   0 C :   -0.183266
   1 C :   -0.035521
   2 C :   -0.081162
   3 C :   -0.180046
   4 S :    0.473492
   5 C :   -0.192946
   6 C :   -0.077050
   7 C :    0.087270
   8 C :   -0.113192
   9 C :   -0.014350
  10 N :   -0.045115
  11 C :   -0.017342
  12 N :   -0.040143
  13 C :   -0.030882
  14 C :   -0.173466
  15 S :    0.526024
  16 C :   -0.063592
  17 C :    0.038298
  18 O :    0.048906
  19 C :    0.058717
  20 C :   -0.108362
  21 C :    0.059617
  22 O :   -0.179480
  23 C :   -0.213336
  24 C :   -0.025178
  25 C :   -0.061326
  26 C :   -0.172400
  27 S :    0.490507
  28 C :   -0.171687
  29 S :    0.475212
  30 C :   -0.210361
  31 C :   -0.186037
  32 C :   -0.075024
  33 C :   -0.020035
  34 C :   -0.190478
  35 C :    0.063519
  36 O :   -0.173348
  37 O :   -0.089624
  38 C :    0.084734
  39 S :    0.433507
  40 C :   -0.169282
  41 C :   -0.034059
  42 C :    0.009942
  43 C :   -0.044063
  44 C :   -0.140362
  45 S :    0.478485
  46 C :   -0.205064
  47 C :   -0.029588
  48 C :   -0.058673
  49 C :   -0.158203
  50 S :    0.426987
  51 C :   -0.063011
  52 C :    0.039411
  53 C :   -0.052326
  54 C :    0.066878
  55 C :   -0.115122
  56 C :    0.077465
  57 C :   -0.156172
  58 C :   -0.019177
  59 N :   -0.066281
  60 C :   -0.017014
  61 N :   -0.072822
  62 C :   -0.019317
  63 C :   -0.048785
  64 C :    0.084836
  65 O :   -0.162505
  66 C :    0.017774
  67 C :   -0.034944
  68 C :   -0.145561
  69 C :   -0.011959
  70 S :    0.428828
  71 C :   -0.273880
  72 C :   -0.070902
  73 Br:    0.131583
  74 H :    0.025667
  75 H :    0.041322
  76 H :    0.035013
  77 H :    0.028663
  78 H :    0.028586
  79 H :    0.038204
  80 H :    0.031337
  81 H :    0.032205
  82 H :    0.028371
  83 H :    0.025729
  84 H :    0.025351
  85 H :    0.029641
  86 H :    0.040179
  87 H :    0.039546
  88 H :    0.025989
  89 H :    0.030837
  90 H :    0.029797
  91 H :    0.038582
  92 H :    0.038852
  93 H :    0.040263
  94 H :    0.037696

  Mayer bond orders larger than 0.100000
B(  0-C ,  1-C ) :   1.5533 B(  0-C ,  4-S ) :   1.1458 B(  0-C , 74-H ) :   0.9640
B(  1-C ,  2-C ) :   1.2736 B(  1-C , 75-H ) :   0.9962 B(  2-C ,  3-C ) :   1.4654
B(  2-C ,  7-C ) :   1.0133 B(  3-C ,  4-S ) :   1.1409 B(  3-C ,  5-C ) :   1.1631
B(  5-C ,  6-C ) :   1.4545 B(  5-C , 15-S ) :   1.0988 B(  6-C ,  7-C ) :   0.9942
B(  6-C , 13-C ) :   1.2824 B(  7-C ,  8-C ) :   1.7010 B(  8-C ,  9-C ) :   1.1341
B(  8-C , 11-C ) :   1.1323 B(  9-C , 10-N ) :   2.9880 B( 11-C , 12-N ) :   3.0030
B( 13-C , 14-C ) :   1.4940 B( 13-C , 76-H ) :   0.9946 B( 14-C , 15-S ) :   1.1265
B( 14-C , 16-C ) :   1.0576 B( 16-C , 17-C ) :   1.5249 B( 16-C , 20-C ) :   1.2373
B( 17-C , 18-O ) :   1.1421 B( 17-C , 77-H ) :   1.0022 B( 18-O , 19-C ) :   1.2061
B( 19-C , 20-C ) :   1.4891 B( 19-C , 78-H ) :   1.0014 B( 20-C , 21-C ) :   0.9487
B( 21-C , 22-O ) :   2.1398 B( 21-C , 23-C ) :   0.9950 B( 23-C , 24-C ) :   1.4992
B( 23-C , 26-C ) :   0.1050 B( 23-C , 27-S ) :   1.1206 B( 24-C , 25-C ) :   1.2946
B( 24-C , 79-H ) :   0.9937 B( 25-C , 26-C ) :   1.4557 B( 25-C , 80-H ) :   0.9937
B( 26-C , 27-S ) :   1.1507 B( 26-C , 28-C ) :   1.1764 B( 28-C , 29-S ) :   1.1416
B( 28-C , 30-C ) :   0.1031 B( 28-C , 32-C ) :   1.3906 B( 29-S , 30-C ) :   1.1219
B( 30-C , 31-C ) :   1.4787 B( 30-C , 40-C ) :   1.1828 B( 31-C , 32-C ) :   1.2477
B( 31-C , 39-S ) :   1.0544 B( 32-C , 33-C ) :   1.1321 B( 33-C , 34-C ) :   1.6315
B( 33-C , 81-H ) :   0.9920 B( 34-C , 35-C ) :   0.9564 B( 34-C , 39-S ) :   1.0646
B( 35-C , 36-O ) :   2.1409 B( 35-C , 37-O ) :   1.2512 B( 37-O , 38-C ) :   0.9154
B( 38-C , 82-H ) :   0.9811 B( 38-C , 83-H ) :   0.9752 B( 38-C , 84-H ) :   0.9773
B( 40-C , 41-C ) :   1.4742 B( 40-C , 45-S ) :   1.0750 B( 41-C , 42-C ) :   1.2866
B( 41-C , 85-H ) :   0.9621 B( 42-C , 43-C ) :   1.0629 B( 42-C , 51-C ) :   1.3120
B( 43-C , 44-C ) :   1.5961 B( 43-C , 46-C ) :   1.1767 B( 44-C , 45-S ) :   1.1486
B( 44-C , 86-H ) :   0.9385 B( 46-C , 47-C ) :   1.4525 B( 46-C , 50-S ) :   1.0795
B( 47-C , 48-C ) :   1.2238 B( 47-C , 51-C ) :   1.0700 B( 48-C , 49-C ) :   1.5827
B( 48-C , 87-H ) :   0.9976 B( 49-C , 50-S ) :   1.1572 B( 49-C , 88-H ) :   0.9632
B( 51-C , 52-C ) :   1.1992 B( 52-C , 53-C ) :   1.4533 B( 52-C , 89-H ) :   0.9738
B( 53-C , 54-C ) :   1.2329 B( 53-C , 90-H ) :   0.9928 B( 54-C , 55-C ) :   1.4467
B( 54-C , 91-H ) :   0.9640 B( 55-C , 56-C ) :   1.0962 B( 55-C , 64-C ) :   0.9681
B( 56-C , 57-C ) :   1.5945 B( 56-C , 62-C ) :   0.9924 B( 57-C , 58-C ) :   1.1446
B( 57-C , 60-C ) :   1.1549 B( 58-C , 59-N ) :   2.9641 B( 60-C , 61-N ) :   2.9539
B( 62-C , 63-C ) :   1.2781 B( 62-C , 69-C ) :   1.4141 B( 63-C , 64-C ) :   0.9402
B( 63-C , 66-C ) :   1.4277 B( 64-C , 65-O ) :   2.1767 B( 66-C , 67-C ) :   1.2378
B( 66-C , 92-H ) :   1.0170 B( 67-C , 68-C ) :   1.3134 B( 67-C , 72-C ) :   1.1618
B( 68-C , 69-C ) :   1.3240 B( 68-C , 70-S ) :   1.0840 B( 69-C , 93-H ) :   0.9801
B( 70-S , 71-C ) :   1.0861 B( 71-C , 72-C ) :   1.6196 B( 71-C , 73-Br) :   1.0142
B( 72-C , 94-H ) :   1.0002

-----------------------------------------------------------------------------
         ABSORPTION SPECTRUM VIA TRANSITION ELECTRIC DIPOLE MOMENTS
-----------------------------------------------------------------------------
State   Energy  Wavelength   fosc         T2         TX        TY        TZ
        (cm-1)    (nm)                  (au**2)     (au)      (au)      (au)
-----------------------------------------------------------------------------
   0   13988.7    714.9   1.105608574  26.01949  -0.16831   3.63071   3.57898
   1   15361.8    651.0   0.023794268   0.50992   0.67709   0.06903   0.21612
   2   19670.8    508.4   0.344911848   5.77248   1.34762   1.14635  -1.62551
   3   22121.9    452.0   0.976089400  14.52588   2.29417   1.93105  -2.35238
   4   22545.8    443.5   0.009801780   0.14312   0.22140   0.25347   0.17280
   5   22749.6    439.6   0.100399341   1.45289  -0.49975  -0.70067   0.84392
   6   24722.9    404.5   0.194209575   2.58610  -0.65646   0.05799   1.46690
   7   24752.5    404.0   0.000596716   0.00794  -0.03968  -0.06063  -0.05182
   8   26005.1    384.5   0.098687116   1.24933  -0.28488  -1.07962   0.05104
   9   27088.1    369.2   0.231007854   2.80753   0.21158  -1.26789  -1.07481
  10   27801.1    359.7   0.023506837   0.27836   0.10711  -0.47756  -0.19705
  11   28720.0    348.2   0.002086628   0.02392  -0.02029   0.12074   0.09449
  12   29230.9    342.1   0.031741731   0.35749  -0.49588  -0.30225  -0.14226
  13   29674.5    337.0   0.158352067   1.75678  -0.11494   0.99026   0.87347
  14   30158.5    331.6   0.074287883   0.81093  -0.44245  -0.77167  -0.14032
  15   30699.6    325.7   0.128006758   1.37270   0.55575  -0.40306  -0.94941
  16   31108.3    321.5   0.197551862   2.09064   0.80550   1.00568  -0.65606
  17   31359.0    318.9   0.274492932   2.88167   0.97169   0.90762  -1.05533
  18   32094.6    311.6   0.006404438   0.06569   0.03308   0.25255   0.02859
  19   32096.5    311.6   0.017619702   0.18072  -0.20876  -0.19375   0.31560
  20   32361.0    309.0   0.404232748   4.11230  -0.52704  -1.14345   1.58967
  21   32753.6    305.3   0.523538662   5.26218   0.02898   2.04477   1.03934
  22   33079.6    302.3   0.213878311   2.12854  -0.07813   0.86329   1.17352
  23   33318.5    300.1   0.010462525   0.10338  -0.04858  -0.05100   0.31371
  24   33426.7    299.2   0.132394983   1.30393  -0.54139  -0.99961   0.10779
  25   33929.2    294.7   0.080622101   0.78227  -0.62471  -0.21503  -0.58802
  26   33996.8    294.1   0.131877957   1.27706  -0.00525  -0.60623  -0.95368
  27   34213.2    292.3   0.109558058   1.05421   0.98091   0.18398   0.24120
  28   34553.9    289.4   0.044306542   0.42213  -0.24143  -0.04746   0.60132
  29   34730.5    287.9   0.016767031   0.15894   0.03865   0.03166  -0.39552
  30   35022.9    285.5   0.020382808   0.19160  -0.34629  -0.24219  -0.11413
  31   35281.6    283.4   0.148673510   1.38727  -0.29810  -0.74646  -0.86093
  32   35883.9    278.7   0.052420019   0.48092   0.48585   0.21592   0.44525
  33   36799.9    271.7   0.052884217   0.47310   0.13915  -0.16679  -0.65263
  34   36902.6    271.0   0.596101711   5.31789  -1.87283  -0.47711  -1.25808
  35   37172.3    269.0   0.342055989   3.02938  -1.42467  -0.23736  -0.97127
  36   37248.3    268.5   0.024381720   0.21549  -0.44961   0.00202  -0.11551
  37   37308.9    268.0   0.230307962   2.03223   0.37225   1.26798  -0.53469
  38   37566.1    266.2   0.000288479   0.00253   0.04312   0.02521   0.00578
  39   37751.9    264.9   0.047105955   0.41078  -0.40918  -0.31919   0.37613
  40   37844.8    264.2   0.159701104   1.38924  -0.02616  -0.27630  -1.14552
  41   38067.1    262.7   0.109138758   0.94385   0.03848  -0.69071  -0.68213
  42   38535.5    259.5   0.189032609   1.61492  -0.57493  -1.11886  -0.18031
  43   38936.6    256.8   0.005072990   0.04289   0.06902  -0.15567  -0.11787
  44   39008.5    256.4   0.000181677   0.00153  -0.02413  -0.02205  -0.02157
  45   39065.4    256.0   0.010994308   0.09265  -0.04867   0.10263   0.28240
  46   39294.4    254.5   0.061628154   0.51633   0.50937   0.31364  -0.39811
  47   39343.0    254.2   0.055995303   0.46855   0.19970  -0.23178   0.61234
  48   39614.5    252.4   0.017086654   0.14200  -0.15786  -0.00987  -0.34202
  49   39725.6    251.7   0.037643050   0.31195   0.21953  -0.08359   0.50673
  50   40240.4    248.5   0.246504529   2.01669  -0.34187  -0.96949  -0.97974
  51   40274.9    248.3   0.000044888   0.00037   0.00930  -0.01664  -0.00188

FINAL SINGLE POINT ENERGY     -8496.691806612549

DIPOLE MOMENT
-------------
                                X             Y             Z
Electronic contribution:     17.72238    -111.46082    -109.58123
Nuclear contribution   :    -20.45713     109.57818     113.11860
                        -----------------------------------------
Total Dipole Moment    :     -2.73474      -1.88264       3.53737
                        -----------------------------------------
Magnitude (a.u.)       :      4.85140
Magnitude (Debye)      :     12.33128

Rotational constants in cm-1:     0.000640     0.000216     0.000168
Rotational constants in MHz :    19.199163     6.469143     5.045845

                             ****ORCA TERMINATED NORMALLY****
TOTAL RUN TIME: 0 days 0 hours 9 minutes 42 seconds 630 msec
