                         Program Version 4.2.0 -  RELEASE  -
|  1> # ORCA input file
|  2> # SCF done       -185.485961341925          0.000695435631
|  3> ! CAM-B3LYP def2-SVP def2/J RIJCOSX Grid4 TightSCF
|  4> %maxcore 5000
|  5> %tddft
|  6>     Mode sTDDFT
|  7>     Ethresh 5.0
|  8>     maxcore 5000
|  9> end
| 10>
| 11> %pal
| 12>   nprocs 6
| 13>   end
| 14> * xyz 0 1
| 15>    C       15.34071        -6.04086        -0.17926
| 16>    C       14.09627        -5.50540        -0.29642
| 17>    C       14.13634        -4.23513        -0.90523
| 18>    C       15.44545        -3.84175        -1.23858
| 19>    S       16.60144        -5.02218        -0.80460
| 20>    C       15.39913        -2.55988        -1.84108
| 21>    C       14.05443        -2.15368        -1.89767
| 22>    C       13.21868        -3.19931        -1.31163
| 23>    C       11.85859        -3.16989        -1.17967
| 24>    C       11.05272        -2.12613        -1.68129
| 25>    N       10.35524        -1.31502        -2.09634
| 26>    C       11.12640        -4.18140        -0.52975
| 27>    N       10.48779        -4.96473         0.01421
| 28>    C       13.87710        -0.89064        -2.43439
| 29>    C       15.08395        -0.29109        -2.79728
| 30>    S       16.44950        -1.36600        -2.47493
| 31>    C       15.33037         0.98806        -3.32004
| 32>    C       14.40696         1.99505        -3.48819
| 33>    C       14.65318         3.29798        -3.99071
| 34>    C       13.55976         4.11604        -4.01220
| 35>    C       12.38625         3.50360        -3.52899
| 36>    S       12.71781         1.85625        -3.05264
| 37>    C       11.09009         3.96504        -3.38198
| 38>    C       10.49847         5.21100        -3.67599
| 39>    C        9.16532         5.26076        -3.39200
| 40>    C        8.63296         4.05722        -2.85923
| 41>    S        9.90091         2.86213        -2.72542
| 42>    C        7.32943         3.80934        -2.50476
| 43>    C        6.82681         2.59979        -1.99056
| 44>    S        7.84467         1.23106        -1.64412
| 45>    C        6.48969         0.28328        -1.13249
| 46>    C        5.30589         1.00246        -1.21781
| 47>    C        5.49408         2.30682        -1.68679
| 48>    C        4.38449         3.30595        -1.80685
| 49>    C        3.00868         2.64225        -1.64839
| 50>    C        2.00876         3.66741        -1.44946
| 51>    N        1.24874         4.50433        -1.28687
| 52>    C        3.02967         1.66026        -0.45755
| 53>    C        1.69646         1.16164        -0.20334
| 54>    N        0.64456         0.74890        -0.03775
| 55>    C        3.96427         0.48881        -0.79206
| 56>    C        6.68786        -1.07405        -0.68439
| 57>    C        5.78130        -2.09172        -0.99366
| 58>    C        5.96352        -3.36652        -0.51122
| 59>    F        5.06568        -4.30699        -0.87341
| 60>    C        7.04962        -3.72651         0.29585
| 61>    C        7.99587        -2.72508         0.54163
| 62>    C        7.80843        -1.44725         0.07528
| 63>    F        8.72197        -0.51751         0.40463
| 64>    C        7.26488        -5.04677         0.82958
| 65>    C        6.37179        -5.97836         1.23558
| 66>    C        6.85016        -7.37893         1.45645
| 67>    O        7.99642        -7.74552         1.54253
| 68>    C        5.62757        -8.20400         1.50566
| 69>    C        5.51430        -9.56345         1.56051
| 70>    C        4.22729       -10.14521         1.56286
| 71>    C        3.07977        -9.30231         1.49528
| 72>    C        1.79838        -9.88990         1.48397
| 73>    C        1.66297       -11.24831         1.54298
| 74>    C        2.79854       -12.08036         1.61436
| 75>    C        4.05439       -11.54189         1.62365
| 76>    F        2.63541       -13.40939         1.67191
| 77>    F        0.44463       -11.80524         1.53357
| 78>    C        3.22863        -7.89771         1.44679
| 79>    C        4.48617        -7.35448         1.46438
| 80>    C        4.93581        -5.96451         1.45586
| 81>    C        4.15962        -4.89514         1.81010
| 82>    C        4.62407        -3.57709         1.98606
| 83>    N        4.93371        -2.48457         2.15645
| 84>    C        2.78453        -4.99603         2.11607
| 85>    N        1.66724        -5.02071         2.37543
| 86>    H       15.61373        -6.98746         0.24206
| 87>    H       13.20058        -5.99680         0.03790
| 88>    H       12.91632        -0.43419        -2.56813
| 89>    H       16.35414         1.21465        -3.58732
| 90>    H       15.63488         3.59238        -4.31824
| 91>    H       13.57073         5.13467        -4.35707
| 92>    H       11.06370         6.02830        -4.08750
| 93>    H        8.54347         6.12446        -3.55032
| 94>    H        6.62207         4.61558        -2.64441
| 95>    H        4.42979         3.81203        -2.77479
| 96>    H        4.50628         4.07268        -1.03243
| 97>    H        2.75252         2.08633        -2.55914
| 98>    H        3.38422         2.18225         0.43926
| 99>    H        3.51063        -0.09518        -1.60064
|100>    H        4.06941        -0.16938         0.07381
|101>    H        4.93485        -1.89825        -1.63064
|102>    H        8.86182        -2.94668         1.14487
|103>    H        8.30632        -5.35481         0.87883
|104>    H        6.39502       -10.18626         1.59913
|105>    H        0.91875        -9.26737         1.43377
|106>    H        4.91354       -12.19204         1.67772
|107>    H        2.34336        -7.28558         1.38479
|108> *
|109>
|110>                          ****END OF INPUT****

CARTESIAN COORDINATES (ANGSTROEM)
---------------------------------
  C     15.340710   -6.040860   -0.179260
  C     14.096270   -5.505400   -0.296420
  C     14.136340   -4.235130   -0.905230
  C     15.445450   -3.841750   -1.238580
  S     16.601440   -5.022180   -0.804600
  C     15.399130   -2.559880   -1.841080
  C     14.054430   -2.153680   -1.897670
  C     13.218680   -3.199310   -1.311630
  C     11.858590   -3.169890   -1.179670
  C     11.052720   -2.126130   -1.681290
  N     10.355240   -1.315020   -2.096340
  C     11.126400   -4.181400   -0.529750
  N     10.487790   -4.964730    0.014210
  C     13.877100   -0.890640   -2.434390
  C     15.083950   -0.291090   -2.797280
  S     16.449500   -1.366000   -2.474930
  C     15.330370    0.988060   -3.320040
  C     14.406960    1.995050   -3.488190
  C     14.653180    3.297980   -3.990710
  C     13.559760    4.116040   -4.012200
  C     12.386250    3.503600   -3.528990
  S     12.717810    1.856250   -3.052640
  C     11.090090    3.965040   -3.381980
  C     10.498470    5.211000   -3.675990
  C      9.165320    5.260760   -3.392000
  C      8.632960    4.057220   -2.859230
  S      9.900910    2.862130   -2.725420
  C      7.329430    3.809340   -2.504760
  C      6.826810    2.599790   -1.990560
  S      7.844670    1.231060   -1.644120
  C      6.489690    0.283280   -1.132490
  C      5.305890    1.002460   -1.217810
  C      5.494080    2.306820   -1.686790
  C      4.384490    3.305950   -1.806850
  C      3.008680    2.642250   -1.648390
  C      2.008760    3.667410   -1.449460
  N      1.248740    4.504330   -1.286870
  C      3.029670    1.660260   -0.457550
  C      1.696460    1.161640   -0.203340
  N      0.644560    0.748900   -0.037750
  C      3.964270    0.488810   -0.792060
  C      6.687860   -1.074050   -0.684390
  C      5.781300   -2.091720   -0.993660
  C      5.963520   -3.366520   -0.511220
  F      5.065680   -4.306990   -0.873410
  C      7.049620   -3.726510    0.295850
  C      7.995870   -2.725080    0.541630
  C      7.808430   -1.447250    0.075280
  F      8.721970   -0.517510    0.404630
  C      7.264880   -5.046770    0.829580
  C      6.371790   -5.978360    1.235580
  C      6.850160   -7.378930    1.456450
  O      7.996420   -7.745520    1.542530
  C      5.627570   -8.204000    1.505660
  C      5.514300   -9.563450    1.560510
  C      4.227290  -10.145210    1.562860
  C      3.079770   -9.302310    1.495280
  C      1.798380   -9.889900    1.483970
  C      1.662970  -11.248310    1.542980
  C      2.798540  -12.080360    1.614360
  C      4.054390  -11.541890    1.623650
  F      2.635410  -13.409390    1.671910
  F      0.444630  -11.805240    1.533570
  C      3.228630   -7.897710    1.446790
  C      4.486170   -7.354480    1.464380
  C      4.935810   -5.964510    1.455860
  C      4.159620   -4.895140    1.810100
  C      4.624070   -3.577090    1.986060
  N      4.933710   -2.484570    2.156450
  C      2.784530   -4.996030    2.116070
  N      1.667240   -5.020710    2.375430
  H     15.613730   -6.987460    0.242060
  H     13.200580   -5.996800    0.037900
  H     12.916320   -0.434190   -2.568130
  H     16.354140    1.214650   -3.587320
  H     15.634880    3.592380   -4.318240
  H     13.570730    5.134670   -4.357070
  H     11.063700    6.028300   -4.087500
  H      8.543470    6.124460   -3.550320
  H      6.622070    4.615580   -2.644410
  H      4.429790    3.812030   -2.774790
  H      4.506280    4.072680   -1.032430
  H      2.752520    2.086330   -2.559140
  H      3.384220    2.182250    0.439260
  H      3.510630   -0.095180   -1.600640
  H      4.069410   -0.169380    0.073810
  H      4.934850   -1.898250   -1.630640
  H      8.861820   -2.946680    1.144870
  H      8.306320   -5.354810    0.878830
  H      6.395020  -10.186260    1.599130
  H      0.918750   -9.267370    1.433770
  H      4.913540  -12.192040    1.677720
  H      2.343360   -7.285580    1.384790

 Total Charge           Charge          ....    0
 Multiplicity           Mult            ....    1
 Number of Electrons    NEL             ....  518
 Basis Dimension        Dim             .... 1124

ORBITAL ENERGIES
----------------

  NO   OCC          E(Eh)            E(eV)
   0   2.0000     -88.986636     -2421.4495
   1   2.0000     -88.984512     -2421.3917
   2   2.0000     -88.957416     -2420.6544
   3   2.0000     -88.952233     -2420.5133
   4   2.0000     -88.950282     -2420.4602
   5   2.0000     -24.795959      -674.7323
   6   2.0000     -24.794950      -674.7049
   7   2.0000     -24.794544      -674.6938
   8   2.0000     -24.784381      -674.4173
   9   2.0000     -19.213471      -522.8251
  10   2.0000     -14.436695      -392.8424
  11   2.0000     -14.431074      -392.6895
  12   2.0000     -14.416866      -392.3029
  13   2.0000     -14.413931      -392.2230
  14   2.0000     -14.404349      -391.9623
  15   2.0000     -14.401332      -391.8802
  16   2.0000     -10.378863      -282.4232
  17   2.0000     -10.378280      -282.4074
  18   2.0000     -10.368697      -282.1466
  19   2.0000     -10.363943      -282.0172
  20   2.0000     -10.363323      -282.0004
  21   2.0000     -10.362791      -281.9859
  22   2.0000     -10.352069      -281.6941
  23   2.0000     -10.343026      -281.4480
  24   2.0000     -10.339774      -281.3596
  25   2.0000     -10.338392      -281.3219
  26   2.0000     -10.334110      -281.2054
  27   2.0000     -10.331722      -281.1405
  28   2.0000     -10.331574      -281.1364
  29   2.0000     -10.330951      -281.1195
  30   2.0000     -10.325193      -280.9628
  31   2.0000     -10.322039      -280.8770
  32   2.0000     -10.318294      -280.7751
  33   2.0000     -10.317318      -280.7485
  34   2.0000     -10.317268      -280.7471
  35   2.0000     -10.316414      -280.7239
  36   2.0000     -10.316122      -280.7160
  37   2.0000     -10.314102      -280.6610
  38   2.0000     -10.311035      -280.5775
  39   2.0000     -10.310155      -280.5536
  40   2.0000     -10.309500      -280.5358
  41   2.0000     -10.308040      -280.4960
  42   2.0000     -10.307764      -280.4885
  43   2.0000     -10.306076      -280.4426
  44   2.0000     -10.305626      -280.4304
  45   2.0000     -10.305155      -280.4175
  46   2.0000     -10.303172      -280.3636
  47   2.0000     -10.302630      -280.3488
  48   2.0000     -10.300829      -280.2998
  49   2.0000     -10.300198      -280.2826
  50   2.0000     -10.299563      -280.2653
  51   2.0000     -10.299433      -280.2618
  52   2.0000     -10.299293      -280.2580
  53   2.0000     -10.298749      -280.2432
  54   2.0000     -10.297709      -280.2149
  55   2.0000     -10.297653      -280.2134
  56   2.0000     -10.297167      -280.2001
  57   2.0000     -10.296972      -280.1949
  58   2.0000     -10.296898      -280.1928
  59   2.0000     -10.295917      -280.1662
  60   2.0000     -10.295587      -280.1572
  61   2.0000     -10.294307      -280.1223
  62   2.0000     -10.294103      -280.1168
  63   2.0000     -10.294096      -280.1166
  64   2.0000     -10.293676      -280.1052
  65   2.0000     -10.293524      -280.1010
  66   2.0000     -10.291455      -280.0447
  67   2.0000     -10.291387      -280.0429
  68   2.0000     -10.290792      -280.0267
  69   2.0000     -10.289283      -279.9856
  70   2.0000     -10.286148      -279.9003
  71   2.0000      -8.081733      -219.9151
  72   2.0000      -8.079127      -219.8442
  73   2.0000      -8.052489      -219.1194
  74   2.0000      -8.048173      -219.0019
  75   2.0000      -8.046657      -218.9607
  76   2.0000      -6.050983      -164.6556
  77   2.0000      -6.048381      -164.5848
  78   2.0000      -6.046561      -164.5353
  79   2.0000      -6.044335      -164.4747
  80   2.0000      -6.044294      -164.4736
  81   2.0000      -6.041378      -164.3942
  82   2.0000      -6.021649      -163.8574
  83   2.0000      -6.017947      -163.7567
  84   2.0000      -6.017447      -163.7431
  85   2.0000      -6.016442      -163.7157
  86   2.0000      -6.014721      -163.6689
  87   2.0000      -6.013708      -163.6413
  88   2.0000      -6.012126      -163.5983
  89   2.0000      -6.009195      -163.5185
  90   2.0000      -6.007573      -163.4744
  91   2.0000      -1.318271       -35.8720
  92   2.0000      -1.307322       -35.5740
  93   2.0000      -1.303401       -35.4673
  94   2.0000      -1.299499       -35.3612
  95   2.0000      -1.129552       -30.7367
  96   2.0000      -1.041237       -28.3335
  97   2.0000      -1.024776       -27.8856
  98   2.0000      -1.018339       -27.7104
  99   2.0000      -1.010564       -27.4988
 100   2.0000      -1.010397       -27.4943
 101   2.0000      -1.004819       -27.3425
 102   2.0000      -1.002471       -27.2786
 103   2.0000      -0.995592       -27.0914
 104   2.0000      -0.993625       -27.0379
 105   2.0000      -0.990727       -26.9590
 106   2.0000      -0.985789       -26.8247
 107   2.0000      -0.980678       -26.6856
 108   2.0000      -0.978810       -26.6348
 109   2.0000      -0.973333       -26.4857
 110   2.0000      -0.955782       -26.0082
 111   2.0000      -0.948362       -25.8062
 112   2.0000      -0.929995       -25.3064
 113   2.0000      -0.916731       -24.9455
 114   2.0000      -0.913162       -24.8484
 115   2.0000      -0.899940       -24.4886
 116   2.0000      -0.891671       -24.2636
 117   2.0000      -0.888479       -24.1767
 118   2.0000      -0.881435       -23.9851
 119   2.0000      -0.872752       -23.7488
 120   2.0000      -0.863575       -23.4991
 121   2.0000      -0.858682       -23.3659
 122   2.0000      -0.854280       -23.2461
 123   2.0000      -0.851671       -23.1751
 124   2.0000      -0.850080       -23.1319
 125   2.0000      -0.840876       -22.8814
 126   2.0000      -0.838053       -22.8046
 127   2.0000      -0.827694       -22.5227
 128   2.0000      -0.823867       -22.4186
 129   2.0000      -0.805652       -21.9229
 130   2.0000      -0.790733       -21.5169
 131   2.0000      -0.777820       -21.1655
 132   2.0000      -0.772238       -21.0137
 133   2.0000      -0.764819       -20.8118
 134   2.0000      -0.754167       -20.5219
 135   2.0000      -0.750776       -20.4297
 136   2.0000      -0.748127       -20.3576
 137   2.0000      -0.732241       -19.9253
 138   2.0000      -0.722037       -19.6476
 139   2.0000      -0.715374       -19.4663
 140   2.0000      -0.713879       -19.4256
 141   2.0000      -0.702128       -19.1059
 142   2.0000      -0.697302       -18.9746
 143   2.0000      -0.686241       -18.6736
 144   2.0000      -0.684818       -18.6349
 145   2.0000      -0.680706       -18.5230
 146   2.0000      -0.675333       -18.3768
 147   2.0000      -0.672594       -18.3022
 148   2.0000      -0.656243       -17.8573
 149   2.0000      -0.651971       -17.7410
 150   2.0000      -0.650485       -17.7006
 151   2.0000      -0.641210       -17.4482
 152   2.0000      -0.639104       -17.3909
 153   2.0000      -0.637371       -17.3438
 154   2.0000      -0.633025       -17.2255
 155   2.0000      -0.628152       -17.0929
 156   2.0000      -0.625784       -17.0284
 157   2.0000      -0.623723       -16.9724
 158   2.0000      -0.617027       -16.7902
 159   2.0000      -0.613298       -16.6887
 160   2.0000      -0.611416       -16.6375
 161   2.0000      -0.608968       -16.5709
 162   2.0000      -0.598331       -16.2814
 163   2.0000      -0.591975       -16.1085
 164   2.0000      -0.588723       -16.0200
 165   2.0000      -0.582875       -15.8608
 166   2.0000      -0.579993       -15.7824
 167   2.0000      -0.578250       -15.7350
 168   2.0000      -0.570789       -15.5319
 169   2.0000      -0.570506       -15.5242
 170   2.0000      -0.569136       -15.4870
 171   2.0000      -0.559775       -15.2322
 172   2.0000      -0.557464       -15.1694
 173   2.0000      -0.552085       -15.0230
 174   2.0000      -0.551858       -15.0168
 175   2.0000      -0.548733       -14.9318
 176   2.0000      -0.544565       -14.8184
 177   2.0000      -0.544226       -14.8091
 178   2.0000      -0.541670       -14.7396
 179   2.0000      -0.538131       -14.6433
 180   2.0000      -0.535028       -14.5589
 181   2.0000      -0.533195       -14.5090
 182   2.0000      -0.530320       -14.4307
 183   2.0000      -0.527761       -14.3611
 184   2.0000      -0.525054       -14.2874
 185   2.0000      -0.522231       -14.2106
 186   2.0000      -0.519968       -14.1490
 187   2.0000      -0.515491       -14.0272
 188   2.0000      -0.511079       -13.9072
 189   2.0000      -0.509429       -13.8623
 190   2.0000      -0.507264       -13.8034
 191   2.0000      -0.505239       -13.7482
 192   2.0000      -0.503979       -13.7140
 193   2.0000      -0.503643       -13.7048
 194   2.0000      -0.500690       -13.6245
 195   2.0000      -0.498788       -13.5727
 196   2.0000      -0.495868       -13.4933
 197   2.0000      -0.494007       -13.4426
 198   2.0000      -0.491399       -13.3717
 199   2.0000      -0.488858       -13.3025
 200   2.0000      -0.486530       -13.2391
 201   2.0000      -0.483375       -13.1533
 202   2.0000      -0.481965       -13.1149
 203   2.0000      -0.475663       -12.9435
 204   2.0000      -0.474701       -12.9173
 205   2.0000      -0.470618       -12.8062
 206   2.0000      -0.469525       -12.7764
 207   2.0000      -0.468812       -12.7570
 208   2.0000      -0.465851       -12.6764
 209   2.0000      -0.464238       -12.6326
 210   2.0000      -0.464134       -12.6297
 211   2.0000      -0.460441       -12.5292
 212   2.0000      -0.460187       -12.5223
 213   2.0000      -0.456985       -12.4352
 214   2.0000      -0.453175       -12.3315
 215   2.0000      -0.450061       -12.2468
 216   2.0000      -0.448509       -12.2046
 217   2.0000      -0.447265       -12.1707
 218   2.0000      -0.445784       -12.1304
 219   2.0000      -0.443677       -12.0731
 220   2.0000      -0.443237       -12.0611
 221   2.0000      -0.440360       -11.9828
 222   2.0000      -0.439664       -11.9639
 223   2.0000      -0.438651       -11.9363
 224   2.0000      -0.434508       -11.8236
 225   2.0000      -0.431421       -11.7396
 226   2.0000      -0.429940       -11.6993
 227   2.0000      -0.428037       -11.6475
 228   2.0000      -0.427583       -11.6351
 229   2.0000      -0.425962       -11.5910
 230   2.0000      -0.423587       -11.5264
 231   2.0000      -0.421136       -11.4597
 232   2.0000      -0.418151       -11.3785
 233   2.0000      -0.413688       -11.2570
 234   2.0000      -0.413391       -11.2490
 235   2.0000      -0.409920       -11.1545
 236   2.0000      -0.402132       -10.9426
 237   2.0000      -0.401340       -10.9210
 238   2.0000      -0.398062       -10.8318
 239   2.0000      -0.395579       -10.7642
 240   2.0000      -0.391984       -10.6664
 241   2.0000      -0.384448       -10.4613
 242   2.0000      -0.379601       -10.3295
 243   2.0000      -0.377052       -10.2601
 244   2.0000      -0.363429        -9.8894
 245   2.0000      -0.348809        -9.4916
 246   2.0000      -0.346562        -9.4304
 247   2.0000      -0.341718        -9.2986
 248   2.0000      -0.335044        -9.1170
 249   2.0000      -0.330706        -8.9990
 250   2.0000      -0.323949        -8.8151
 251   2.0000      -0.321715        -8.7543
 252   2.0000      -0.313997        -8.5443
 253   2.0000      -0.312785        -8.5113
 254   2.0000      -0.312491        -8.5033
 255   2.0000      -0.297806        -8.1037
 256   2.0000      -0.292412        -7.9569
 257   2.0000      -0.264066        -7.1856
 258   2.0000      -0.214763        -5.8440
 259   0.0000      -0.107055        -2.9131
 260   0.0000      -0.091361        -2.4861
 261   0.0000      -0.082525        -2.2456
 262   0.0000      -0.053571        -1.4577
 263   0.0000      -0.031831        -0.8662

MULLIKEN ATOMIC CHARGES
-----------------------
   0 C :   -0.084113
   1 C :    0.039080
   2 C :   -0.045289
   3 C :   -0.117725
   4 S :    0.179172
   5 C :   -0.100934
   6 C :   -0.010596
   7 C :    0.331971
   8 C :   -0.321228
   9 C :   -0.180100
  10 N :    0.163487
  11 C :   -0.180051
  12 N :    0.180424
  13 C :   -0.051140
  14 C :   -0.094126
  15 S :    0.178047
  16 C :    0.033573
  17 C :   -0.024435
  18 C :    0.031673
  19 C :    0.036509
  20 C :   -0.029460
  21 S :    0.038180
  22 C :   -0.020330
  23 C :    0.034033
  24 C :    0.034009
  25 C :   -0.026377
  26 S :    0.061306
  27 C :   -0.027839
  28 C :   -0.101367
  29 S :    0.164261
  30 C :   -0.129990
  31 C :   -0.043775
  32 C :   -0.091318
  33 C :    0.205833
  34 C :   -0.106065
  35 C :   -0.254092
  36 N :    0.156845
  37 C :   -0.096843
  38 C :   -0.257895
  39 N :    0.163760
  40 C :    0.182739
  41 C :    0.024090
  42 C :   -0.079789
  43 C :    0.249215
  44 F :   -0.185222
  45 C :    0.017487
  46 C :   -0.069366
  47 C :    0.269507
  48 F :   -0.182577
  49 C :    0.007682
  50 C :   -0.093305
  51 C :    0.130770
  52 O :   -0.132182
  53 C :    0.011593
  54 C :   -0.079897
  55 C :    0.111857
  56 C :    0.108145
  57 C :   -0.104203
  58 C :    0.239773
  59 C :    0.237092
  60 C :   -0.102007
  61 F :   -0.173228
  62 F :   -0.171423
  63 C :   -0.076155
  64 C :    0.035795
  65 C :    0.291651
  66 C :   -0.330028
  67 C :   -0.195809
  68 N :    0.169224
  69 C :   -0.185337
  70 N :    0.158648
  71 H :    0.035216
  72 H :    0.012698
  73 H :    0.033826
  74 H :   -0.017760
  75 H :   -0.011136
  76 H :   -0.011643
  77 H :   -0.012457
  78 H :   -0.008460
  79 H :   -0.012050
  80 H :    0.035882
  81 H :    0.032418
  82 H :    0.047402
  83 H :    0.052061
  84 H :    0.027261
  85 H :    0.060142
  86 H :   -0.014505
  87 H :   -0.002581
  88 H :    0.035494
  89 H :   -0.009530
  90 H :    0.008363
  91 H :   -0.001279
  92 H :   -0.001177
Sum of atomic charges:   -0.0000000

LOEWDIN ATOMIC CHARGES
----------------------
   0 C :   -0.180486
   1 C :   -0.033299
   2 C :   -0.086122
   3 C :   -0.173888
   4 S :    0.474528
   5 C :   -0.193648
   6 C :   -0.065009
   7 C :    0.090329
   8 C :   -0.112325
   9 C :   -0.015200
  10 N :   -0.037083
  11 C :   -0.001128
  12 N :   -0.039198
  13 C :   -0.046961
  14 C :   -0.160172
  15 S :    0.464887
  16 C :   -0.083349
  17 C :   -0.142855
  18 C :   -0.032007
  19 C :   -0.033407
  20 C :   -0.178835
  21 S :    0.402671
  22 C :   -0.172330
  23 C :   -0.036953
  24 C :   -0.026335
  25 C :   -0.152797
  26 S :    0.385414
  27 C :   -0.070262
  28 C :   -0.176262
  29 S :    0.485247
  30 C :   -0.179853
  31 C :   -0.057554
  32 C :   -0.069820
  33 C :   -0.006508
  34 C :   -0.032579
  35 C :   -0.036920
  36 N :   -0.048582
  37 C :   -0.030916
  38 C :   -0.037503
  39 N :   -0.044548
  40 C :   -0.007097
  41 C :   -0.040303
  42 C :   -0.030382
  43 C :    0.093874
  44 F :   -0.058076
  45 C :   -0.058404
  46 C :   -0.013463
  47 C :    0.083552
  48 F :   -0.059513
  49 C :    0.077988
  50 C :   -0.082396
  51 C :    0.084717
  52 O :   -0.131296
  53 C :   -0.054213
  54 C :    0.030066
  55 C :   -0.009318
  56 C :   -0.005502
  57 C :   -0.029482
  58 C :    0.066653
  59 C :    0.066877
  60 C :   -0.033294
  61 F :   -0.050439
  62 F :   -0.049162
  63 C :    0.016052
  64 C :   -0.018693
  65 C :    0.071363
  66 C :   -0.130370
  67 C :   -0.013898
  68 N :   -0.049702
  69 C :   -0.017967
  70 N :   -0.046955
  71 H :    0.027126
  72 H :    0.042622
  73 H :    0.021533
  74 H :    0.033234
  75 H :    0.033560
  76 H :    0.033623
  77 H :    0.033225
  78 H :    0.034474
  79 H :    0.037019
  80 H :    0.041010
  81 H :    0.042938
  82 H :    0.057733
  83 H :    0.060174
  84 H :    0.037784
  85 H :    0.050117
  86 H :    0.041030
  87 H :    0.042777
  88 H :    0.047657
  89 H :    0.040206
  90 H :    0.047903
  91 H :    0.044426
  92 H :    0.040228

  Mayer bond orders larger than 0.100000
B(  0-C ,  1-C ) :   1.5604 B(  0-C ,  4-S ) :   1.1382 B(  0-C , 71-H ) :   0.9640
B(  1-C ,  2-C ) :   1.2668 B(  1-C , 72-H ) :   0.9962 B(  2-C ,  3-C ) :   1.4377
B(  2-C ,  7-C ) :   1.0284 B(  3-C ,  4-S ) :   1.1415 B(  3-C ,  5-C ) :   1.2008
B(  5-C ,  6-C ) :   1.4407 B(  5-C , 15-S ) :   1.1117 B(  6-C ,  7-C ) :   0.9946
B(  6-C , 13-C ) :   1.3460 B(  7-C ,  8-C ) :   1.6747 B(  8-C ,  9-C ) :   1.1465
B(  8-C , 11-C ) :   1.1515 B(  9-C , 10-N ) :   2.9401 B( 11-C , 12-N ) :   2.9502
B( 13-C , 14-C ) :   1.3994 B( 13-C , 73-H ) :   0.9628 B( 14-C , 15-S ) :   1.0971
B( 14-C , 16-C ) :   1.1843 B( 16-C , 17-C ) :   1.5756 B( 16-C , 74-H ) :   0.9545
B( 17-C , 18-C ) :   1.1560 B( 17-C , 21-S ) :   1.0481 B( 18-C , 19-C ) :   1.5810
B( 18-C , 75-H ) :   0.9981 B( 19-C , 20-C ) :   1.1967 B( 19-C , 76-H ) :   0.9936
B( 20-C , 21-S ) :   1.0436 B( 20-C , 22-C ) :   1.4942 B( 22-C , 23-C ) :   1.1899
B( 22-C , 26-S ) :   1.0467 B( 23-C , 24-C ) :   1.5866 B( 23-C , 77-H ) :   0.9940
B( 24-C , 25-C ) :   1.1450 B( 24-C , 78-H ) :   0.9983 B( 25-C , 26-S ) :   1.0438
B( 25-C , 27-C ) :   1.5591 B( 27-C , 28-C ) :   1.1923 B( 27-C , 79-H ) :   0.9654
B( 28-C , 29-S ) :   1.1120 B( 28-C , 30-C ) :   0.1018 B( 28-C , 32-C ) :   1.4342
B( 29-S , 30-C ) :   1.1486 B( 30-C , 31-C ) :   1.5020 B( 30-C , 41-C ) :   1.0302
B( 31-C , 32-C ) :   1.3657 B( 31-C , 40-C ) :   1.0486 B( 32-C , 33-C ) :   1.0554
B( 33-C , 34-C ) :   1.0910 B( 33-C , 80-H ) :   0.9038 B( 33-C , 81-H ) :   0.8910
B( 34-C , 35-C ) :   1.0760 B( 34-C , 37-C ) :   1.0631 B( 34-C , 82-H ) :   0.8590
B( 35-C , 36-N ) :   3.1266 B( 37-C , 38-C ) :   1.0904 B( 37-C , 40-C ) :   1.0911
B( 37-C , 83-H ) :   0.8562 B( 38-C , 39-N ) :   3.1231 B( 40-C , 84-H ) :   0.8802
B( 40-C , 85-H ) :   0.9109 B( 41-C , 42-C ) :   1.3190 B( 41-C , 47-C ) :   1.3012
B( 42-C , 43-C ) :   1.3725 B( 42-C , 86-H ) :   0.9938 B( 43-C , 44-F ) :   1.1001
B( 43-C , 45-C ) :   1.2992 B( 45-C , 46-C ) :   1.2794 B( 45-C , 49-C ) :   1.0386
B( 46-C , 47-C ) :   1.3797 B( 46-C , 87-H ) :   0.9972 B( 47-C , 48-F ) :   1.1143
B( 49-C , 50-C ) :   1.7248 B( 49-C , 88-H ) :   0.9240 B( 50-C , 51-C ) :   0.9305
B( 50-C , 65-C ) :   1.0074 B( 51-C , 52-O ) :   2.2690 B( 51-C , 53-C ) :   0.9208
B( 53-C , 54-C ) :   1.4759 B( 53-C , 64-C ) :   1.2167 B( 54-C , 55-C ) :   1.1968
B( 54-C , 89-H ) :   1.0155 B( 55-C , 56-C ) :   1.2530 B( 55-C , 60-C ) :   1.1929
B( 56-C , 57-C ) :   1.1885 B( 56-C , 63-C ) :   1.2227 B( 57-C , 58-C ) :   1.4450
B( 57-C , 60-C ) :   0.1084 B( 57-C , 90-H ) :   1.0068 B( 58-C , 59-C ) :   1.1892
B( 58-C , 62-F ) :   1.1351 B( 59-C , 60-C ) :   1.4460 B( 59-C , 61-F ) :   1.1314
B( 60-C , 91-H ) :   1.0067 B( 63-C , 64-C ) :   1.4522 B( 63-C , 92-H ) :   0.9924
B( 64-C , 65-C ) :   1.0019 B( 65-C , 66-C ) :   1.6685 B( 66-C , 67-C ) :   1.1728
B( 66-C , 69-C ) :   1.1319 B( 67-C , 68-N ) :   2.9809 B( 69-C , 70-N ) :   2.9884

-----------------------------------------------------------------------------
         ABSORPTION SPECTRUM VIA TRANSITION ELECTRIC DIPOLE MOMENTS
-----------------------------------------------------------------------------
State   Energy  Wavelength   fosc         T2         TX        TY        TZ
        (cm-1)    (nm)                  (au**2)     (au)      (au)      (au)
-----------------------------------------------------------------------------
   0    7750.3   1290.3   0.089189735   3.78856  -1.43297   1.30002  -0.21239
   1   13500.3    740.7   0.604057485  14.73022  -3.75504   0.06480   0.79103
   2   16988.1    588.6   0.285843495   5.53936   1.23858  -1.95205   0.44135
   3   17572.6    569.1   0.081483657   1.52655   0.22030   1.11970  -0.47359
   4   22585.9    442.8   0.299420586   4.36434   0.45930   1.87030  -0.80953
   5   24839.1    402.6   0.267365600   3.54360  -0.02094   1.76239  -0.66118
   6   25061.9    399.0   0.578729703   7.60217   0.41876   2.53184  -1.00826
   7   25395.4    393.8   0.018262857   0.23675   0.45391  -0.01862  -0.17428
   8   27641.7    361.8   0.713794787   8.50127   0.80651   2.61000  -1.01917
   9   28116.6    355.7   0.080110617   0.93800   0.12494  -0.93841  -0.20438
  10   28904.3    346.0   0.107259196   1.22165  -0.10102  -0.97891   0.50317
  11   29184.6    342.6   0.017307157   0.19523  -0.35117  -0.26801   0.00884
  12   29649.4    337.3   0.038648610   0.42914  -0.33953  -0.52696   0.19017
  13   29817.5    335.4   0.003114776   0.03439  -0.05448  -0.17699  -0.00978
  14   30208.6    331.0   0.049200222   0.53618   0.41315   0.60440   0.01346
  15   30614.6    326.6   0.098406589   1.05821  -1.01965  -0.10529  -0.08619
  16   30688.3    325.9   0.336708049   3.61207   1.88672  -0.00168  -0.22879
  17   30966.4    322.9   0.277706268   2.95237   1.66851  -0.23616  -0.33568
  18   31269.0    319.8   0.139129392   1.46481  -1.20711   0.06042  -0.06348
  19   31773.3    314.7   0.032776325   0.33960   0.17973   0.55408   0.01720
  20   31894.1    313.5   0.068279395   0.70478   0.72406  -0.42225  -0.04707
  21   32414.3    308.5   0.181904461   1.84749  -0.76389   1.02291  -0.46649
  22   32665.6    306.1   0.089540394   0.90241  -0.38423  -0.75928   0.42223
  23   33404.0    299.4   0.014087269   0.13884   0.28768   0.22761   0.06531
  24   33522.3    298.3   0.013555574   0.13313   0.31088  -0.03954  -0.18686
  25   33759.4    296.2   0.009001264   0.08778   0.26429  -0.11475  -0.06898
  26   34175.9    292.6   0.409749217   3.94706  -0.07600   1.98519  -0.01786
  27   34402.8    290.7   0.007174273   0.06865   0.09657  -0.16485   0.17931
  28   34824.3    287.2   0.236550180   2.23623  -1.17654  -0.91693   0.10590
  29   35179.5    284.3   0.464261818   4.34459   0.23331  -2.05248  -0.27837
  30   35353.0    282.9   0.099011503   0.92201   0.36653   0.88430  -0.07538
  31   35459.5    282.0   0.023814280   0.22110  -0.20524   0.36974  -0.20559
  32   35686.6    280.2   0.093472559   0.86229  -0.49454  -0.78262   0.07228
  33   35870.4    278.8   0.003855948   0.03539   0.10422   0.15523   0.02076
  34   35922.9    278.4   0.057331547   0.52541  -0.72440   0.00787  -0.02432
  35   36049.5    277.4   0.100432556   0.91717  -0.65242   0.69175   0.11402
  36   36550.2    273.6   0.058589679   0.52772   0.55407   0.46674  -0.05366
  37   36616.4    273.1   0.029549731   0.26568  -0.44013  -0.24161   0.11659
  38   36872.0    271.2   0.014033217   0.12530   0.19913   0.13735  -0.25842
  39   37202.3    268.8   0.003692375   0.03267   0.03255  -0.17427   0.03527
  40   37403.9    267.4   0.077251632   0.67993   0.15042   0.80222  -0.11728
  41   37985.2    263.3   0.031605707   0.27392  -0.51158   0.05169   0.09768
  42   38195.6    261.8   0.083915557   0.72328  -0.29839  -0.67846   0.41706
  43   38618.8    258.9   0.035614692   0.30360   0.35147   0.41519  -0.08769
  44   38786.2    257.8   0.027200702   0.23088   0.05726   0.47179  -0.07079
  45   38824.2    257.6   0.032355085   0.27436   0.03900  -0.52190   0.02130
  46   39167.9    255.3   0.044763748   0.37625   0.54421  -0.28094  -0.03402
  47   39618.0    252.4   0.001720418   0.01430  -0.03718  -0.11203   0.01903
  48   40056.8    249.6   0.061216540   0.50312  -0.29066  -0.57603   0.29466

FINAL SINGLE POINT ENERGY     -4898.776732769926

DIPOLE MOMENT
-------------
                                X             Y             Z
Electronic contribution:     -1.52476     -45.44753      12.26446
Nuclear contribution   :      7.20181      45.56100     -14.30523
                        -----------------------------------------
Total Dipole Moment    :      5.67704       0.11346      -2.04077
                        -----------------------------------------
Magnitude (a.u.)       :      6.03378
Magnitude (Debye)      :     15.33664

Rotational constants in cm-1:     0.000983     0.000507     0.000341
Rotational constants in MHz :    29.468936    15.190680    10.237666

                             ****ORCA TERMINATED NORMALLY****
TOTAL RUN TIME: 0 days 0 hours 10 minutes 47 seconds 567 msec
