                         Program Version 4.2.0 -  RELEASE  -
|  1> # ORCA input file
|  2> # SCF done       -202.851449625367          0.000678341257
|  3> ! CAM-B3LYP def2-SVP def2/J RIJCOSX Grid4 TightSCF
|  4> %maxcore 5000
|  5> %tddft
|  6>     Mode sTDDFT
|  7>     Ethresh 5.0
|  8>     maxcore 5000
|  9> end
| 10>
| 11> %pal
| 12>   nprocs 6
| 13>   end
| 14> * xyz 0 1
| 15>    C       -3.69510         2.01543        -4.56085
| 16>    C       -3.38272         2.10647        -5.88829
| 17>    F       -3.09701         3.29720        -6.43311
| 18>    C       -3.35703         0.95497        -6.69974
| 19>    F       -3.04666         1.07383        -7.99871
| 20>    C       -3.64547        -0.27253        -6.17253
| 21>    C       -3.97284        -0.39860        -4.80867
| 22>    C       -3.99811         0.76470        -3.98640
| 23>    C       -4.32554         0.66345        -2.61419
| 24>    C       -4.62111        -0.56314        -2.08110
| 25>    C       -4.59152        -1.71818        -2.91110
| 26>    C       -4.27841        -1.65407        -4.23771
| 27>    C       -4.94253        -2.89919        -2.10354
| 28>    O       -5.03608        -4.04492        -2.50955
| 29>    C       -5.15451        -2.41493        -0.73699
| 30>    C       -5.00000        -0.97297        -0.72918
| 31>    C       -5.20918        -0.11762         0.32137
| 32>    C       -5.64852        -0.48448         1.61131
| 33>    N       -6.02747        -0.68879         2.67591
| 34>    C       -5.04444         1.28125         0.24277
| 35>    N       -4.92914         2.42359         0.24428
| 36>    C       -5.41067        -3.20468         0.35729
| 37>    C       -5.58386        -4.59157         0.45339
| 38>    C       -5.81982        -5.21564         1.68542
| 39>    C       -5.96423        -6.58291         1.56458
| 40>    C       -5.84346        -7.02069         0.21963
| 41>    S       -5.54767        -5.75244        -0.87624
| 42>    C       -5.97195        -8.42655         0.20943
| 43>    C       -6.16546        -8.88208         1.52935
| 44>    C       -6.18971        -7.73235         2.41897
| 45>    C       -6.39295        -7.74594         3.77038
| 46>    C       -6.62616        -8.94481         4.47112
| 47>    N       -6.79405        -9.92949         5.03743
| 48>    C       -6.39786        -6.57439         4.55644
| 49>    N       -6.41956        -5.64037         5.22047
| 50>    C       -6.25731       -10.26809         1.62335
| 51>    C       -6.13752       -10.88105         0.38494
| 52>    S       -5.92754        -9.71241        -0.91563
| 53>    C       -6.15047       -12.27865         0.09924
| 54>    C       -6.00583       -13.24356         1.07056
| 55>    C       -6.02739       -14.61476         0.82837
| 56>    C       -6.21005       -15.14691        -0.52314
| 57>    C       -6.34549       -14.38269        -1.62964
| 58>    S       -6.34872       -12.66996        -1.60311
| 59>    C       -6.20091       -16.56025        -0.37508
| 60>    C       -6.03186       -16.90335         0.96875
| 61>    C       -6.00355       -18.30660         1.14119
| 62>    C       -6.15490       -18.96486        -0.03808
| 63>    S       -6.33373       -17.92532        -1.40743
| 64>    C       -5.91693       -15.68901         1.74197
| 65>    C       -5.73781       -15.53270         3.13075
| 66>    C       -5.77988       -16.53517         4.05431
| 67>    C       -5.61637       -16.38414         5.45524
| 68>    C       -5.39451       -15.18375         6.10583
| 69>    C       -5.23294       -15.03153         7.47459
| 70>    C       -5.40056       -16.16956         8.38448
| 71>    C       -5.60882       -17.44310         7.97866
| 72>    S       -5.71989       -17.90240         6.33316
| 73>    C       -5.30760       -15.63208         9.69823
| 74>    C       -5.09028       -14.25784         9.62916
| 75>    C       -4.98619       -13.67106        10.90892
| 76>    C       -5.12823       -14.59624        11.89434
| 77>    S       -5.38589       -16.20727        11.31614
| 78>    C       -5.00437       -13.85725         8.24576
| 79>    C       -4.71542       -12.54712         7.84403
| 80>    C       -4.35072       -12.12844         6.58747
| 81>    C       -4.11411       -10.79075         6.27244
| 82>    C       -3.77726       -10.35039         5.01421
| 83>    C       -3.65591       -11.13374         3.81297
| 84>    O       -3.87175       -12.32444         3.66038
| 85>    N       -3.25588       -10.32561         2.74105
| 86>    C       -3.17591        -8.99736         2.99569
| 87>    C       -2.95323        -7.98605         2.08831
| 88>    C       -2.79672        -8.15332         0.70436
| 89>    N       -2.70270        -8.21828        -0.43936
| 90>    C       -2.94318        -6.64049         2.49899
| 91>    N       -2.95866        -5.52924         2.78656
| 92>    S       -3.46456        -8.65520         4.67997
| 93>    C       -2.89412       -10.93606         1.48611
| 94>    H       -3.71049         2.90722        -3.95392
| 95>    H       -3.62151        -1.14498        -6.80656
| 96>    H       -4.33195         1.56317        -2.02091
| 97>    H       -4.26455        -2.54826        -4.84212
| 98>    H       -5.48444        -2.70506         1.31575
| 99>    H       -5.86321        -4.66519         2.60826
|100>    H       -6.41667       -10.80796         2.53863
|101>    H       -5.83988       -12.90426         2.08242
|102>    H       -6.46867       -14.80230        -2.61551
|103>    H       -5.87176       -18.82567         2.07238
|104>    H       -6.17241       -20.02538        -0.19688
|105>    H       -5.55710       -14.52053         3.46202
|106>    H       -5.97002       -17.54414         3.72083
|107>    H       -5.37421       -14.30394         5.48471
|108>    H       -5.71427       -18.26289         8.67141
|109>    H       -4.81963       -12.62639        11.09874
|110>    H       -5.09678       -14.43663        12.95441
|111>    H       -4.75577       -11.79840         8.62707
|112>    H       -4.20277       -12.84186         5.79606
|113>    H       -4.20702       -10.04617         7.05328
|114>    H       -3.02424       -12.01130         1.61511
|115>    H       -1.85356       -10.71586         1.24269
|116>    H       -3.52914       -10.58817         0.67310
|117> *
|118>
|119>                          ****END OF INPUT****

CARTESIAN COORDINATES (ANGSTROEM)
---------------------------------
  C     -3.695100    2.015430   -4.560850
  C     -3.382720    2.106470   -5.888290
  F     -3.097010    3.297200   -6.433110
  C     -3.357030    0.954970   -6.699740
  F     -3.046660    1.073830   -7.998710
  C     -3.645470   -0.272530   -6.172530
  C     -3.972840   -0.398600   -4.808670
  C     -3.998110    0.764700   -3.986400
  C     -4.325540    0.663450   -2.614190
  C     -4.621110   -0.563140   -2.081100
  C     -4.591520   -1.718180   -2.911100
  C     -4.278410   -1.654070   -4.237710
  C     -4.942530   -2.899190   -2.103540
  O     -5.036080   -4.044920   -2.509550
  C     -5.154510   -2.414930   -0.736990
  C     -5.000000   -0.972970   -0.729180
  C     -5.209180   -0.117620    0.321370
  C     -5.648520   -0.484480    1.611310
  N     -6.027470   -0.688790    2.675910
  C     -5.044440    1.281250    0.242770
  N     -4.929140    2.423590    0.244280
  C     -5.410670   -3.204680    0.357290
  C     -5.583860   -4.591570    0.453390
  C     -5.819820   -5.215640    1.685420
  C     -5.964230   -6.582910    1.564580
  C     -5.843460   -7.020690    0.219630
  S     -5.547670   -5.752440   -0.876240
  C     -5.971950   -8.426550    0.209430
  C     -6.165460   -8.882080    1.529350
  C     -6.189710   -7.732350    2.418970
  C     -6.392950   -7.745940    3.770380
  C     -6.626160   -8.944810    4.471120
  N     -6.794050   -9.929490    5.037430
  C     -6.397860   -6.574390    4.556440
  N     -6.419560   -5.640370    5.220470
  C     -6.257310  -10.268090    1.623350
  C     -6.137520  -10.881050    0.384940
  S     -5.927540   -9.712410   -0.915630
  C     -6.150470  -12.278650    0.099240
  C     -6.005830  -13.243560    1.070560
  C     -6.027390  -14.614760    0.828370
  C     -6.210050  -15.146910   -0.523140
  C     -6.345490  -14.382690   -1.629640
  S     -6.348720  -12.669960   -1.603110
  C     -6.200910  -16.560250   -0.375080
  C     -6.031860  -16.903350    0.968750
  C     -6.003550  -18.306600    1.141190
  C     -6.154900  -18.964860   -0.038080
  S     -6.333730  -17.925320   -1.407430
  C     -5.916930  -15.689010    1.741970
  C     -5.737810  -15.532700    3.130750
  C     -5.779880  -16.535170    4.054310
  C     -5.616370  -16.384140    5.455240
  C     -5.394510  -15.183750    6.105830
  C     -5.232940  -15.031530    7.474590
  C     -5.400560  -16.169560    8.384480
  C     -5.608820  -17.443100    7.978660
  S     -5.719890  -17.902400    6.333160
  C     -5.307600  -15.632080    9.698230
  C     -5.090280  -14.257840    9.629160
  C     -4.986190  -13.671060   10.908920
  C     -5.128230  -14.596240   11.894340
  S     -5.385890  -16.207270   11.316140
  C     -5.004370  -13.857250    8.245760
  C     -4.715420  -12.547120    7.844030
  C     -4.350720  -12.128440    6.587470
  C     -4.114110  -10.790750    6.272440
  C     -3.777260  -10.350390    5.014210
  C     -3.655910  -11.133740    3.812970
  O     -3.871750  -12.324440    3.660380
  N     -3.255880  -10.325610    2.741050
  C     -3.175910   -8.997360    2.995690
  C     -2.953230   -7.986050    2.088310
  C     -2.796720   -8.153320    0.704360
  N     -2.702700   -8.218280   -0.439360
  C     -2.943180   -6.640490    2.498990
  N     -2.958660   -5.529240    2.786560
  S     -3.464560   -8.655200    4.679970
  C     -2.894120  -10.936060    1.486110
  H     -3.710490    2.907220   -3.953920
  H     -3.621510   -1.144980   -6.806560
  H     -4.331950    1.563170   -2.020910
  H     -4.264550   -2.548260   -4.842120
  H     -5.484440   -2.705060    1.315750
  H     -5.863210   -4.665190    2.608260
  H     -6.416670  -10.807960    2.538630
  H     -5.839880  -12.904260    2.082420
  H     -6.468670  -14.802300   -2.615510
  H     -5.871760  -18.825670    2.072380
  H     -6.172410  -20.025380   -0.196880
  H     -5.557100  -14.520530    3.462020
  H     -5.970020  -17.544140    3.720830
  H     -5.374210  -14.303940    5.484710
  H     -5.714270  -18.262890    8.671410
  H     -4.819630  -12.626390   11.098740
  H     -5.096780  -14.436630   12.954410
  H     -4.755770  -11.798400    8.627070
  H     -4.202770  -12.841860    5.796060
  H     -4.207020  -10.046170    7.053280
  H     -3.024240  -12.011300    1.615110
  H     -1.853560  -10.715860    1.242690
  H     -3.529140  -10.588170    0.673100

 Total Charge           Charge          ....    0
 Multiplicity           Mult            ....    1
 Number of Electrons    NEL             ....  584
 Basis Dimension        Dim             .... 1249

ORBITAL ENERGIES
----------------

  NO   OCC          E(Eh)            E(eV)
   0   2.0000     -88.992896     -2421.6198
   1   2.0000     -88.989349     -2421.5233
   2   2.0000     -88.985699     -2421.4240
   3   2.0000     -88.980421     -2421.2804
   4   2.0000     -88.980104     -2421.2717
   5   2.0000     -88.966879     -2420.9118
   6   2.0000     -88.959931     -2420.7228
   7   2.0000     -24.793870      -674.6755
   8   2.0000     -24.792777      -674.6458
   9   2.0000     -19.218180      -522.9533
  10   2.0000     -19.214580      -522.8553
  11   2.0000     -14.493672      -394.3929
  12   2.0000     -14.431867      -392.7111
  13   2.0000     -14.423978      -392.4964
  14   2.0000     -14.409220      -392.0948
  15   2.0000     -14.408189      -392.0668
  16   2.0000     -14.407680      -392.0529
  17   2.0000     -14.405852      -392.0032
  18   2.0000     -10.400600      -283.0147
  19   2.0000     -10.394584      -282.8510
  20   2.0000     -10.376661      -282.3633
  21   2.0000     -10.375874      -282.3419
  22   2.0000     -10.366120      -282.0765
  23   2.0000     -10.361756      -281.9577
  24   2.0000     -10.347178      -281.5610
  25   2.0000     -10.341128      -281.3964
  26   2.0000     -10.339677      -281.3569
  27   2.0000     -10.336732      -281.2768
  28   2.0000     -10.335723      -281.2493
  29   2.0000     -10.334932      -281.2278
  30   2.0000     -10.334341      -281.2117
  31   2.0000     -10.333332      -281.1843
  32   2.0000     -10.332779      -281.1692
  33   2.0000     -10.332555      -281.1631
  34   2.0000     -10.330934      -281.1190
  35   2.0000     -10.326298      -280.9929
  36   2.0000     -10.323867      -280.9267
  37   2.0000     -10.320022      -280.8221
  38   2.0000     -10.317698      -280.7588
  39   2.0000     -10.316506      -280.7264
  40   2.0000     -10.314799      -280.6800
  41   2.0000     -10.311644      -280.5941
  42   2.0000     -10.311539      -280.5912
  43   2.0000     -10.310905      -280.5740
  44   2.0000     -10.309867      -280.5458
  45   2.0000     -10.309657      -280.5400
  46   2.0000     -10.309242      -280.5287
  47   2.0000     -10.308985      -280.5217
  48   2.0000     -10.306993      -280.4675
  49   2.0000     -10.306922      -280.4656
  50   2.0000     -10.306765      -280.4613
  51   2.0000     -10.305853      -280.4365
  52   2.0000     -10.305327      -280.4222
  53   2.0000     -10.305001      -280.4133
  54   2.0000     -10.304027      -280.3868
  55   2.0000     -10.302067      -280.3335
  56   2.0000     -10.301630      -280.3216
  57   2.0000     -10.300727      -280.2970
  58   2.0000     -10.299810      -280.2721
  59   2.0000     -10.297807      -280.2176
  60   2.0000     -10.297599      -280.2119
  61   2.0000     -10.297160      -280.2000
  62   2.0000     -10.296560      -280.1836
  63   2.0000     -10.296362      -280.1783
  64   2.0000     -10.296304      -280.1767
  65   2.0000     -10.296152      -280.1726
  66   2.0000     -10.295514      -280.1552
  67   2.0000     -10.293960      -280.1129
  68   2.0000     -10.292060      -280.0612
  69   2.0000     -10.289444      -279.9900
  70   2.0000     -10.288591      -279.9668
  71   2.0000     -10.288093      -279.9532
  72   2.0000     -10.287297      -279.9316
  73   2.0000     -10.285978      -279.8957
  74   2.0000     -10.285122      -279.8724
  75   2.0000     -10.278454      -279.6910
  76   2.0000     -10.277983      -279.6781
  77   2.0000     -10.277432      -279.6631
  78   2.0000     -10.268008      -279.4067
  79   2.0000      -8.086951      -220.0571
  80   2.0000      -8.084887      -220.0010
  81   2.0000      -8.081078      -219.8973
  82   2.0000      -8.075000      -219.7319
  83   2.0000      -8.072537      -219.6649
  84   2.0000      -8.062312      -219.3867
  85   2.0000      -8.055383      -219.1981
  86   2.0000      -6.056289      -164.8000
  87   2.0000      -6.054464      -164.7503
  88   2.0000      -6.052096      -164.6859
  89   2.0000      -6.050413      -164.6401
  90   2.0000      -6.049855      -164.6249
  91   2.0000      -6.049209      -164.6073
  92   2.0000      -6.046775      -164.5411
  93   2.0000      -6.045952      -164.5187
  94   2.0000      -6.044900      -164.4901
  95   2.0000      -6.043360      -164.4482
  96   2.0000      -6.041988      -164.4108
  97   2.0000      -6.040816      -164.3790
  98   2.0000      -6.037217      -164.2810
  99   2.0000      -6.035715      -164.2401
 100   2.0000      -6.035059      -164.2223
 101   2.0000      -6.031715      -164.1313
 102   2.0000      -6.027472      -164.0159
 103   2.0000      -6.024856      -163.9447
 104   2.0000      -6.024412      -163.9326
 105   2.0000      -6.020605      -163.8290
 106   2.0000      -6.017343      -163.7402
 107   2.0000      -1.315957       -35.8090
 108   2.0000      -1.301117       -35.4052
 109   2.0000      -1.159698       -31.5570
 110   2.0000      -1.133916       -30.8554
 111   2.0000      -1.091340       -29.6969
 112   2.0000      -1.043669       -28.3997
 113   2.0000      -1.022127       -27.8135
 114   2.0000      -1.017734       -27.6939
 115   2.0000      -1.013657       -27.5830
 116   2.0000      -1.011736       -27.5307
 117   2.0000      -1.005292       -27.3554
 118   2.0000      -1.003601       -27.3094
 119   2.0000      -0.999938       -27.2097
 120   2.0000      -0.998750       -27.1774
 121   2.0000      -0.987403       -26.8686
 122   2.0000      -0.987173       -26.8623
 123   2.0000      -0.980348       -26.6766
 124   2.0000      -0.979573       -26.6555
 125   2.0000      -0.975611       -26.5477
 126   2.0000      -0.959202       -26.1012
 127   2.0000      -0.956202       -26.0196
 128   2.0000      -0.940113       -25.5818
 129   2.0000      -0.934873       -25.4392
 130   2.0000      -0.927622       -25.2419
 131   2.0000      -0.923709       -25.1354
 132   2.0000      -0.918508       -24.9939
 133   2.0000      -0.911681       -24.8081
 134   2.0000      -0.901040       -24.5185
 135   2.0000      -0.894697       -24.3459
 136   2.0000      -0.892220       -24.2785
 137   2.0000      -0.886207       -24.1149
 138   2.0000      -0.875454       -23.8223
 139   2.0000      -0.871435       -23.7129
 140   2.0000      -0.859823       -23.3970
 141   2.0000      -0.857390       -23.3308
 142   2.0000      -0.854392       -23.2492
 143   2.0000      -0.845116       -22.9968
 144   2.0000      -0.835451       -22.7338
 145   2.0000      -0.832737       -22.6599
 146   2.0000      -0.828732       -22.5509
 147   2.0000      -0.819364       -22.2960
 148   2.0000      -0.817533       -22.2462
 149   2.0000      -0.811391       -22.0791
 150   2.0000      -0.798387       -21.7252
 151   2.0000      -0.790508       -21.5108
 152   2.0000      -0.777047       -21.1445
 153   2.0000      -0.772687       -21.0259
 154   2.0000      -0.762897       -20.7595
 155   2.0000      -0.761085       -20.7102
 156   2.0000      -0.745695       -20.2914
 157   2.0000      -0.740886       -20.1605
 158   2.0000      -0.734047       -19.9744
 159   2.0000      -0.726778       -19.7766
 160   2.0000      -0.714732       -19.4488
 161   2.0000      -0.708674       -19.2840
 162   2.0000      -0.702188       -19.1075
 163   2.0000      -0.697377       -18.9766
 164   2.0000      -0.693391       -18.8681
 165   2.0000      -0.688805       -18.7433
 166   2.0000      -0.682941       -18.5838
 167   2.0000      -0.680008       -18.5040
 168   2.0000      -0.673122       -18.3166
 169   2.0000      -0.669290       -18.2123
 170   2.0000      -0.664618       -18.0852
 171   2.0000      -0.658331       -17.9141
 172   2.0000      -0.653552       -17.7841
 173   2.0000      -0.646346       -17.5880
 174   2.0000      -0.643133       -17.5005
 175   2.0000      -0.640649       -17.4329
 176   2.0000      -0.638276       -17.3684
 177   2.0000      -0.635715       -17.2987
 178   2.0000      -0.630337       -17.1523
 179   2.0000      -0.624965       -17.0062
 180   2.0000      -0.624179       -16.9848
 181   2.0000      -0.617283       -16.7971
 182   2.0000      -0.616739       -16.7823
 183   2.0000      -0.607293       -16.5253
 184   2.0000      -0.601337       -16.3632
 185   2.0000      -0.596976       -16.2446
 186   2.0000      -0.594061       -16.1652
 187   2.0000      -0.587871       -15.9968
 188   2.0000      -0.585448       -15.9309
 189   2.0000      -0.581495       -15.8233
 190   2.0000      -0.580624       -15.7996
 191   2.0000      -0.576491       -15.6871
 192   2.0000      -0.575069       -15.6484
 193   2.0000      -0.568452       -15.4684
 194   2.0000      -0.566297       -15.4097
 195   2.0000      -0.562050       -15.2942
 196   2.0000      -0.556286       -15.1373
 197   2.0000      -0.550095       -14.9688
 198   2.0000      -0.548216       -14.9177
 199   2.0000      -0.546779       -14.8786
 200   2.0000      -0.546020       -14.8579
 201   2.0000      -0.542591       -14.7647
 202   2.0000      -0.542298       -14.7567
 203   2.0000      -0.535658       -14.5760
 204   2.0000      -0.532318       -14.4851
 205   2.0000      -0.529214       -14.4006
 206   2.0000      -0.528936       -14.3931
 207   2.0000      -0.526522       -14.3274
 208   2.0000      -0.524951       -14.2846
 209   2.0000      -0.523757       -14.2521
 210   2.0000      -0.518865       -14.1190
 211   2.0000      -0.517030       -14.0691
 212   2.0000      -0.516414       -14.0523
 213   2.0000      -0.514523       -14.0009
 214   2.0000      -0.510900       -13.9023
 215   2.0000      -0.510359       -13.8876
 216   2.0000      -0.508356       -13.8331
 217   2.0000      -0.502717       -13.6796
 218   2.0000      -0.501996       -13.6600
 219   2.0000      -0.500597       -13.6219
 220   2.0000      -0.496646       -13.5144
 221   2.0000      -0.493800       -13.4370
 222   2.0000      -0.491826       -13.3833
 223   2.0000      -0.490434       -13.3454
 224   2.0000      -0.488023       -13.2798
 225   2.0000      -0.487287       -13.2598
 226   2.0000      -0.482821       -13.1382
 227   2.0000      -0.479645       -13.0518
 228   2.0000      -0.476620       -12.9695
 229   2.0000      -0.474552       -12.9132
 230   2.0000      -0.473159       -12.8753
 231   2.0000      -0.466487       -12.6937
 232   2.0000      -0.465753       -12.6738
 233   2.0000      -0.465190       -12.6585
 234   2.0000      -0.464511       -12.6400
 235   2.0000      -0.463304       -12.6072
 236   2.0000      -0.459605       -12.5065
 237   2.0000      -0.459311       -12.4985
 238   2.0000      -0.456390       -12.4190
 239   2.0000      -0.451979       -12.2990
 240   2.0000      -0.451550       -12.2873
 241   2.0000      -0.448194       -12.1960
 242   2.0000      -0.445163       -12.1135
 243   2.0000      -0.443841       -12.0775
 244   2.0000      -0.443108       -12.0576
 245   2.0000      -0.441069       -12.0021
 246   2.0000      -0.440757       -11.9936
 247   2.0000      -0.439228       -11.9520
 248   2.0000      -0.438427       -11.9302
 249   2.0000      -0.437109       -11.8944
 250   2.0000      -0.436708       -11.8834
 251   2.0000      -0.436276       -11.8717
 252   2.0000      -0.433708       -11.8018
 253   2.0000      -0.431705       -11.7473
 254   2.0000      -0.430278       -11.7084
 255   2.0000      -0.428212       -11.6522
 256   2.0000      -0.427773       -11.6403
 257   2.0000      -0.426116       -11.5952
 258   2.0000      -0.425348       -11.5743
 259   2.0000      -0.423806       -11.5324
 260   2.0000      -0.423492       -11.5238
 261   2.0000      -0.422587       -11.4992
 262   2.0000      -0.420616       -11.4456
 263   2.0000      -0.419654       -11.4194
 264   2.0000      -0.413004       -11.2384
 265   2.0000      -0.409505       -11.1432
 266   2.0000      -0.407983       -11.1018
 267   2.0000      -0.406158       -11.0521
 268   2.0000      -0.404388       -11.0040
 269   2.0000      -0.400267       -10.8918
 270   2.0000      -0.396910       -10.8005
 271   2.0000      -0.392267       -10.6741
 272   2.0000      -0.382941       -10.4204
 273   2.0000      -0.370378       -10.0785
 274   2.0000      -0.366442        -9.9714
 275   2.0000      -0.361854        -9.8465
 276   2.0000      -0.359590        -9.7849
 277   2.0000      -0.345579        -9.4037
 278   2.0000      -0.343033        -9.3344
 279   2.0000      -0.334457        -9.1010
 280   2.0000      -0.332304        -9.0424
 281   2.0000      -0.330124        -8.9831
 282   2.0000      -0.325540        -8.8584
 283   2.0000      -0.314491        -8.5577
 284   2.0000      -0.311058        -8.4643
 285   2.0000      -0.298369        -8.1190
 286   2.0000      -0.295829        -8.0499
 287   2.0000      -0.293128        -7.9764
 288   2.0000      -0.285289        -7.7631
 289   2.0000      -0.268527        -7.3070
 290   2.0000      -0.246451        -6.7063
 291   2.0000      -0.222660        -6.0589
 292   0.0000      -0.110261        -3.0003
 293   0.0000      -0.090406        -2.4601
 294   0.0000      -0.081625        -2.2211
 295   0.0000      -0.062742        -1.7073
 296   0.0000      -0.055658        -1.5145

MULLIKEN ATOMIC CHARGES
-----------------------
   0 C :   -0.111436
   1 C :    0.241788
   2 F :   -0.172678
   3 C :    0.240458
   4 F :   -0.173802
   5 C :   -0.107922
   6 C :    0.118489
   7 C :    0.115613
   8 C :   -0.086973
   9 C :    0.048203
  10 C :    0.001943
  11 C :   -0.085627
  12 C :    0.169444
  13 O :   -0.188740
  14 C :   -0.099038
  15 C :    0.331921
  16 C :   -0.352217
  17 C :   -0.196493
  18 N :    0.159793
  19 C :   -0.183706
  20 N :    0.141167
  21 C :   -0.019976
  22 C :   -0.058390
  23 C :   -0.032899
  24 C :    0.023620
  25 C :   -0.057830
  26 S :    0.252474
  27 C :   -0.101161
  28 C :    0.006433
  29 C :    0.317876
  30 C :   -0.309944
  31 C :   -0.191796
  32 N :    0.161961
  33 C :   -0.201649
  34 N :    0.203812
  35 C :   -0.061558
  36 C :   -0.087497
  37 S :    0.205129
  38 C :   -0.039013
  39 C :   -0.048165
  40 C :    0.051680
  41 C :    0.069881
  42 C :   -0.124885
  43 S :    0.139538
  44 C :   -0.117990
  45 C :    0.054024
  46 C :   -0.007420
  47 C :   -0.068349
  48 S :    0.135486
  49 C :    0.083751
  50 C :    0.010184
  51 C :    0.017786
  52 C :   -0.059788
  53 C :   -0.051542
  54 C :    0.078757
  55 C :    0.057553
  56 C :   -0.132921
  57 S :    0.150248
  58 C :   -0.115320
  59 C :    0.058293
  60 C :    0.009556
  61 C :   -0.068509
  62 S :    0.128009
  63 C :    0.074294
  64 C :    0.001679
  65 C :   -0.037201
  66 C :    0.068859
  67 C :   -0.177198
  68 C :    0.224891
  69 O :   -0.224801
  70 N :   -0.236310
  71 C :    0.108112
  72 C :   -0.305311
  73 C :   -0.204349
  74 N :    0.159413
  75 C :   -0.205968
  76 N :    0.136698
  77 S :    0.141367
  78 C :    0.118068
  79 H :    0.008008
  80 H :   -0.002004
  81 H :   -0.007256
  82 H :   -0.011662
  83 H :    0.023592
  84 H :    0.031322
  85 H :    0.020015
  86 H :   -0.010329
  87 H :    0.040459
  88 H :   -0.009595
  89 H :    0.028960
  90 H :   -0.006133
  91 H :   -0.043244
  92 H :   -0.011052
  93 H :    0.037725
  94 H :   -0.015847
  95 H :    0.029663
  96 H :   -0.019583
  97 H :    0.021451
  98 H :   -0.005294
  99 H :    0.066196
 100 H :    0.054872
 101 H :    0.067859
Sum of atomic charges:   -0.0000000

LOEWDIN ATOMIC CHARGES
----------------------
   0 C :   -0.029228
   1 C :    0.065812
   2 F :   -0.050380
   3 C :    0.066698
   4 F :   -0.051290
   5 C :   -0.033788
   6 C :   -0.009530
   7 C :   -0.006714
   8 C :    0.016938
   9 C :   -0.020638
  10 C :   -0.050653
  11 C :    0.028555
  12 C :    0.085303
  13 O :   -0.173144
  14 C :   -0.114047
  15 C :    0.076494
  16 C :   -0.141473
  17 C :   -0.024459
  18 N :   -0.046714
  19 C :   -0.016205
  20 N :   -0.057801
  21 C :    0.066071
  22 C :   -0.179268
  23 C :    0.027896
  24 C :   -0.079665
  25 C :   -0.165751
  26 S :    0.555153
  27 C :   -0.182639
  28 C :   -0.059681
  29 C :    0.066103
  30 C :   -0.113150
  31 C :   -0.021323
  32 N :   -0.042847
  33 C :   -0.025126
  34 N :   -0.022067
  35 C :   -0.036771
  36 C :   -0.182066
  37 S :    0.481302
  38 C :   -0.182825
  39 C :   -0.011375
  40 C :   -0.008418
  41 C :   -0.048497
  42 C :   -0.139301
  43 S :    0.452070
  44 C :   -0.200062
  45 C :   -0.036379
  46 C :   -0.066512
  47 C :   -0.163343
  48 S :    0.429870
  49 C :   -0.050022
  50 C :    0.018409
  51 C :   -0.076344
  52 C :   -0.137548
  53 C :   -0.026102
  54 C :    0.017595
  55 C :   -0.044088
  56 C :   -0.148653
  57 S :    0.474208
  58 C :   -0.211094
  59 C :   -0.033325
  60 C :   -0.064573
  61 C :   -0.161467
  62 S :    0.420834
  63 C :   -0.075694
  64 C :    0.041203
  65 C :   -0.065624
  66 C :    0.042086
  67 C :   -0.256131
  68 C :    0.068499
  69 O :   -0.207144
  70 N :    0.001957
  71 C :   -0.037368
  72 C :   -0.225852
  73 C :   -0.031030
  74 N :   -0.077513
  75 C :   -0.038398
  76 N :   -0.061608
  77 S :    0.446020
  78 C :    0.033891
  79 H :    0.047778
  80 H :    0.044148
  81 H :    0.039858
  82 H :    0.039700
  83 H :    0.055970
  84 H :    0.049387
  85 H :    0.039152
  86 H :    0.038839
  87 H :    0.038500
  88 H :    0.028836
  89 H :    0.025033
  90 H :    0.033785
  91 H :    0.021130
  92 H :    0.041084
  93 H :    0.036950
  94 H :    0.030486
  95 H :    0.024522
  96 H :    0.031894
  97 H :    0.027270
  98 H :    0.035945
  99 H :    0.041418
 100 H :    0.037993
 101 H :    0.030062

  Mayer bond orders larger than 0.100000
B(  0-C ,  1-C ) :   1.4376 B(  0-C ,  5-C ) :   0.1088 B(  0-C ,  7-C ) :   1.1894
B(  0-C , 79-H ) :   1.0080 B(  1-C ,  2-F ) :   1.1333 B(  1-C ,  3-C ) :   1.1929
B(  3-C ,  4-F ) :   1.1313 B(  3-C ,  5-C ) :   1.4411 B(  5-C ,  6-C ) :   1.1910
B(  5-C , 80-H ) :   1.0082 B(  6-C ,  7-C ) :   1.2601 B(  6-C , 11-C ) :   1.1844
B(  7-C ,  8-C ) :   1.2104 B(  8-C ,  9-C ) :   1.4550 B(  8-C , 81-H ) :   0.9908
B(  9-C , 10-C ) :   1.2248 B(  9-C , 15-C ) :   0.9781 B( 10-C , 11-C ) :   1.4677
B( 10-C , 12-C ) :   0.9586 B( 11-C , 82-H ) :   1.0180 B( 12-C , 13-O ) :   2.1145
B( 12-C , 14-C ) :   0.9875 B( 14-C , 15-C ) :   1.0845 B( 14-C , 21-C ) :   1.4660
B( 15-C , 16-C ) :   1.6245 B( 16-C , 17-C ) :   1.1413 B( 16-C , 19-C ) :   1.1505
B( 17-C , 18-N ) :   2.9714 B( 19-C , 20-N ) :   2.9576 B( 21-C , 22-C ) :   1.2839
B( 21-C , 83-H ) :   0.9427 B( 22-C , 23-C ) :   1.3165 B( 22-C , 26-S ) :   1.0708
B( 23-C , 24-C ) :   1.3359 B( 23-C , 84-H ) :   1.0078 B( 24-C , 25-C ) :   1.3454
B( 24-C , 29-C ) :   0.9914 B( 25-C , 26-S ) :   1.1249 B( 25-C , 27-C ) :   1.2195
B( 27-C , 28-C ) :   1.4292 B( 27-C , 37-S ) :   1.1101 B( 28-C , 29-C ) :   0.9909
B( 28-C , 35-C ) :   1.2992 B( 29-C , 30-C ) :   1.7144 B( 30-C , 31-C ) :   1.1343
B( 30-C , 33-C ) :   1.1374 B( 31-C , 32-N ) :   2.9374 B( 33-C , 34-N ) :   3.0061
B( 35-C , 36-C ) :   1.4564 B( 35-C , 85-H ) :   0.9882 B( 36-C , 37-S ) :   1.1200
B( 36-C , 38-C ) :   1.1065 B( 38-C , 39-C ) :   1.5382 B( 38-C , 43-S ) :   1.0510
B( 39-C , 40-C ) :   1.2561 B( 39-C , 86-H ) :   0.9609 B( 40-C , 41-C ) :   1.0544
B( 40-C , 49-C ) :   1.3451 B( 41-C , 42-C ) :   1.6002 B( 41-C , 44-C ) :   1.1789
B( 42-C , 43-S ) :   1.1430 B( 42-C , 87-H ) :   0.9414 B( 44-C , 45-C ) :   1.4540
B( 44-C , 48-S ) :   1.0813 B( 45-C , 46-C ) :   1.2134 B( 45-C , 49-C ) :   1.0684
B( 46-C , 47-C ) :   1.5872 B( 46-C , 88-H ) :   0.9990 B( 47-C , 48-S ) :   1.1586
B( 47-C , 89-H ) :   0.9647 B( 49-C , 50-C ) :   1.2254 B( 50-C , 51-C ) :   1.5960
B( 50-C , 90-H ) :   0.9492 B( 51-C , 52-C ) :   1.1384 B( 51-C , 91-H ) :   0.9659
B( 52-C , 53-C ) :   1.4641 B( 52-C , 57-S ) :   1.0901 B( 53-C , 54-C ) :   1.3071
B( 53-C , 92-H ) :   0.9629 B( 54-C , 55-C ) :   1.0752 B( 54-C , 63-C ) :   1.2826
B( 55-C , 56-C ) :   1.5894 B( 55-C , 58-C ) :   1.1760 B( 56-C , 57-S ) :   1.1469
B( 56-C , 93-H ) :   0.9416 B( 58-C , 59-C ) :   1.4518 B( 58-C , 62-S ) :   1.0705
B( 59-C , 60-C ) :   1.2277 B( 59-C , 63-C ) :   1.0866 B( 60-C , 61-C ) :   1.5808
B( 60-C , 94-H ) :   0.9976 B( 61-C , 62-S ) :   1.1594 B( 61-C , 95-H ) :   0.9667
B( 63-C , 64-C ) :   1.2361 B( 64-C , 65-C ) :   1.4546 B( 64-C , 96-H ) :   0.9725
B( 65-C , 66-C ) :   1.2923 B( 65-C , 97-H ) :   0.9614 B( 66-C , 67-C ) :   1.4877
B( 66-C , 98-H ) :   0.9704 B( 67-C , 68-C ) :   1.0569 B( 67-C , 77-S ) :   0.9937
B( 68-C , 69-O ) :   1.9949 B( 68-C , 70-N ) :   1.0319 B( 70-N , 71-C ) :   1.2386
B( 70-N , 78-C ) :   0.9407 B( 71-C , 72-C ) :   1.4735 B( 71-C , 77-S ) :   1.1230
B( 72-C , 73-C ) :   1.1991 B( 72-C , 75-C ) :   1.1670 B( 73-C , 74-N ) :   2.9634
B( 75-C , 76-N ) :   2.9745 B( 78-C , 99-H ) :   0.9424 B( 78-C ,100-H ) :   0.9683
B( 78-C ,101-H ) :   0.9557

-----------------------------------------------------------------------------
         ABSORPTION SPECTRUM VIA TRANSITION ELECTRIC DIPOLE MOMENTS
-----------------------------------------------------------------------------
State   Energy  Wavelength   fosc         T2         TX        TY        TZ
        (cm-1)    (nm)                  (au**2)     (au)      (au)      (au)
-----------------------------------------------------------------------------
   0   10465.4    955.5   0.245691335   7.72877  -0.71037   2.06465  -1.72086
   1   12355.3    809.4   0.097078987   2.58670   0.49067   1.36591   0.69298
   2   14376.3    695.6   0.284792024   6.52163  -0.77607  -2.42536  -0.19224
   3   18109.5    552.2   0.183925912   3.34359  -0.61825  -1.70110   0.26004
   4   18756.3    533.2   1.641368155  28.80935   0.56758   4.96561  -1.95701
   5   19302.7    518.1   0.082185699   1.40169  -0.18976   1.01968  -0.57091
   6   20323.5    492.0   0.107078417   1.73452   0.01286  -0.89090   0.96987
   7   21891.9    456.8   0.244795267   3.68125  -0.22278  -1.89661   0.18569
   8   22431.0    445.8   0.044448075   0.65235   0.12302  -0.79537  -0.06783
   9   23242.2    430.3   0.523593219   7.41638  -0.18322  -1.28163   2.39588
  10   23718.4    421.6   0.084348538   1.17076   0.65075   0.65899  -0.55948
  11   24476.8    408.6   0.341631362   4.59493  -0.09549   0.65332  -2.03936
  12   24963.2    400.6   0.137029173   1.80713   0.17209   0.17305  -1.32195
  13   25994.6    384.7   0.016987238   0.21514  -0.14758  -0.13471   0.41858
  14   26395.3    378.9   0.016991287   0.21192  -0.30513  -0.04954   0.34112
  15   26877.0    372.1   0.022097774   0.27067  -0.07548  -0.28394  -0.42937
  16   27266.6    366.7   0.039468517   0.47654  -0.25649  -0.45661   0.44973
  17   27629.6    361.9   0.033775764   0.40244  -0.08660  -0.62661   0.04806
  18   27709.0    360.9   0.277352261   3.29524   0.56253   1.15457  -1.28288
  19   28110.4    355.7   0.129285369   1.51411  -0.09023   0.13911   1.21927
  20   28142.6    355.3   0.135970412   1.59058  -0.00479   0.03587  -1.26066
  21   28874.7    346.3   0.054742017   0.62414  -0.10023   0.37048  -0.69053
  22   29070.0    344.0   0.057263643   0.64850  -0.11370  -0.64886  -0.46321
  23   29305.9    341.2   0.000742332   0.00834  -0.03127   0.06081   0.06053
  24   29707.5    336.6   0.109375245   1.21207  -0.24920  -0.87675  -0.61748
  25   29940.5    334.0   0.225382134   2.47820  -0.05241  -0.51953   1.48511
  26   30121.4    332.0   0.023835317   0.26051  -0.29815   0.25566  -0.32596
  27   30607.3    326.7   0.486864112   5.23671   0.00106   0.20636  -2.27906
  28   30921.1    323.4   0.018229453   0.19409  -0.21785  -0.38025   0.04510
  29   31223.0    320.3   0.056825031   0.59916  -0.24915  -0.71383   0.16593
  30   31648.5    316.0   0.037866553   0.39389  -0.03121  -0.57806  -0.24242
  31   31773.3    314.7   0.024523993   0.25410   0.28182   0.34503  -0.23587
  32   31988.9    312.6   0.076586923   0.78819  -0.04374   0.30048   0.83426
  33   32413.1    308.5   0.014626190   0.14855  -0.18782   0.28561   0.17806
  34   33065.0    302.4   0.725057245   7.21904   0.61688   0.67046  -2.52764
  35   33241.3    300.8   0.081472649   0.80688  -0.00244   0.10239   0.89241
  36   33283.4    300.4   0.097167621   0.96110  -0.18679  -0.16422   0.94828
  37   33452.3    298.9   0.059586220   0.58640  -0.12448   0.18744   0.73197
  38   33912.7    294.9   0.116416685   1.13013   0.24040  -0.73660  -0.72785
  39   34103.2    293.2   0.141423830   1.36522  -0.12214  -0.51603   1.04116
  40   34312.1    291.4   0.085211665   0.81757  -0.48976   0.06244   0.75750
  41   34576.9    289.2   0.302490237   2.88006  -0.09897  -1.53505  -0.71685
  42   34919.7    286.4   0.064715961   0.61012  -0.05255   0.05237   0.77757
  43   35140.7    284.6   0.047468294   0.44470   0.01452  -0.32659  -0.58123
  44   35158.7    284.4   0.080093966   0.74997  -0.03194  -0.84246  -0.19802
  45   35375.1    282.7   0.011023385   0.10259   0.01022   0.22968   0.22300
  46   35526.6    281.5   0.104426571   0.96768  -0.03490   0.94173   0.28215
  47   35762.6    279.6   0.146483480   1.34845   0.13237   1.04820  -0.48188
  48   35913.9    278.4   0.103004739   0.94421   0.08755   0.70642  -0.66145
  49   36057.7    277.3   0.031821964   0.29054  -0.02388   0.15073  -0.51696
  50   36295.4    275.5   0.467338935   4.23893  -0.40498   0.35101   1.98789
  51   36385.5    274.8   0.039269340   0.35530  -0.19525   0.42510   0.36942
  52   36511.5    273.9   0.072386134   0.65268   0.17522  -0.45544  -0.64386
  53   36796.5    271.8   0.002724591   0.02438  -0.05115   0.07491  -0.12708
  54   37215.6    268.7   0.043395605   0.38388  -0.14564   0.34254  -0.49532
  55   37468.2    266.9   0.016260686   0.14287   0.00110   0.18535   0.32942
  56   37586.2    266.1   0.074094771   0.64898   0.20271   0.55393   0.54868
  57   37748.6    264.9   0.005485315   0.04784   0.03315  -0.07364  -0.20327
  58   37921.8    263.7   0.068524811   0.59489  -0.05887   0.76226   0.10186
  59   37970.5    263.4   0.093206639   0.80812   0.10119  -0.48479  -0.75024
  60   38246.6    261.5   0.101720128   0.87557  -0.06878   0.34212   0.86821
  61   38539.1    259.5   0.072204754   0.61679   0.17591   0.59221  -0.48491
  62   38699.1    258.4   0.106522965   0.90619  -0.14870  -0.79084  -0.50857
  63   38729.8    258.2   0.037303272   0.31709   0.15107  -0.43381  -0.32568
  64   39099.1    255.8   0.111806101   0.94140   0.14244   0.61763  -0.73460
  65   39186.9    255.2   0.038733620   0.32540  -0.20524   0.10415   0.52195
  66   39448.5    253.5   0.053214340   0.44409   0.06269   0.57014  -0.33926
  67   39538.7    252.9   0.048657237   0.40514   0.06906   0.47888   0.41357
  68   39712.4    251.8   0.015514124   0.12861  -0.09497   0.18785  -0.29035
  69   40033.3    249.8   0.018158656   0.14933   0.04449  -0.34645   0.16530

FINAL SINGLE POINT ENERGY     -5854.187043987902

DIPOLE MOMENT
-------------
                                X             Y             Z
Electronic contribution:     -0.69879      48.61234     -36.36019
Nuclear contribution   :      0.31448     -55.02207      35.94316
                        -----------------------------------------
Total Dipole Moment    :     -0.38432      -6.40972      -0.41703
                        -----------------------------------------
Magnitude (a.u.)       :      6.43476
Magnitude (Debye)      :     16.35587

Rotational constants in cm-1:     0.001351     0.000288     0.000246
Rotational constants in MHz :    40.516902     8.632054     7.368755

                             ****ORCA TERMINATED NORMALLY****
TOTAL RUN TIME: 0 days 0 hours 14 minutes 18 seconds 296 msec
