                         Program Version 4.2.0 -  RELEASE  -
|  1> # ORCA input file
|  2> # SCF done       -176.435805463010          0.000622462997
|  3> ! CAM-B3LYP def2-SVP def2/J RIJCOSX Grid4 TightSCF
|  4> %maxcore 5000
|  5> %tddft
|  6>     Mode sTDDFT
|  7>     Ethresh 5.0
|  8>     maxcore 5000
|  9> end
| 10>
| 11> %pal
| 12>   nprocs 6
| 13>   end
| 14> * xyz 0 1
| 15>    C        1.69598        -3.40247        -1.19693
| 16>    O        1.08495        -4.09627        -0.19896
| 17>    C       -0.23650        -3.93271        -0.40741
| 18>    C       -1.49889        -4.28775         0.12163
| 19>    C       -1.70277        -5.12211         1.32459
| 20>    O       -2.77760        -5.47303         1.76540
| 21>    N       -0.54003        -5.47927         1.91863
| 22>    C       -2.40883        -3.65893        -0.74581
| 23>    O       -1.76108        -2.97447        -1.73348
| 24>    C       -0.45338        -3.13980        -1.52984
| 25>    C        0.81468        -2.79516        -2.04490
| 26>    C       -3.82873        -3.57691        -0.78441
| 27>    C       -4.79775        -4.33337         0.01989
| 28>    N       -6.03858        -4.04559        -0.24058
| 29>    C       -6.00452        -3.09519        -1.21430
| 30>    C       -4.61708        -2.78750        -1.59894
| 31>    C       -4.60900        -1.74091        -2.59394
| 32>    S       -3.30059        -0.99597        -3.25903
| 33>    C       -6.00295        -1.43646        -2.81479
| 34>    C       -6.83407        -2.28137        -1.93972
| 35>    N       -8.15385        -1.97089        -2.07666
| 36>    C       -8.18792        -0.98462        -2.92539
| 37>    C       -6.88008        -0.57599        -3.44119
| 38>    C       -6.67773         0.48576        -4.38931
| 39>    C       -7.55697         1.55013        -4.42864
| 40>    C       -7.32635         2.61726        -5.31218
| 41>    C       -8.02500         3.80607        -5.50968
| 42>    C       -9.24747         4.23732        -4.77943
| 43>    C       -8.97064         5.46544        -3.89163
| 44>    N       -7.97238         5.13437        -2.88959
| 45>    C      -10.43212         4.51202        -5.72465
| 46>    N      -11.64014         4.71153        -4.94345
| 47>    C       -7.31188         4.53991        -6.52784
| 48>    C       -7.50439         5.76213        -7.06026
| 49>    C       -6.59171         6.32209        -8.09764
| 50>    C       -5.48180         5.41470        -8.51017
| 51>    C       -5.28984         4.20037        -7.95978
| 52>    C       -6.16251         3.72596        -6.95339
| 53>    C       -6.17811         2.56468        -6.20304
| 54>    C       -5.31705         1.44571        -6.16562
| 55>    C       -5.55969         0.44441        -5.28055
| 56>    C       -7.43207         6.73097        -9.28329
| 57>    C       -7.88271         7.97696        -9.45662
| 58>    C       -8.71900         8.41723       -10.53040
| 59>    C       -9.11305         7.69835       -11.74221
| 60>    N       -9.89372         8.37429       -12.53993
| 61>    C      -10.08354         9.57967       -11.93060
| 62>    C       -9.34720         9.63357       -10.66019
| 63>    C       -9.56174        10.90200       -10.01039
| 64>    S       -8.93612        11.38017        -8.56558
| 65>    C      -10.43446        11.61301       -10.90783
| 66>    C      -10.73634        10.77814       -12.08206
| 67>    N      -11.56737        11.43625       -12.94042
| 68>    C      -11.79819        12.59231       -12.38911
| 69>    C      -11.12735        12.78947       -11.10369
| 70>    C      -11.21280        13.94092       -10.28175
| 71>    O      -10.51144        13.93447        -9.10615
| 72>    C      -10.75993        15.10740        -8.52269
| 73>    C      -10.45732        15.86348        -7.36537
| 74>    C       -9.59290        15.50467        -6.21719
| 75>    O       -9.40937        16.24509        -5.27448
| 76>    N       -9.03525        14.28066        -6.32626
| 77>    C      -11.16061        17.03278        -7.55042
| 78>    O      -11.85970        17.06162        -8.70476
| 79>    C      -11.61833        15.88069        -9.30818
| 80>    C      -11.91610        15.12865       -10.45241
| 81>    H        2.76758        -3.41572        -1.19544
| 82>    H        0.36008        -5.20755         1.56576
| 83>    H       -0.59098        -6.05355         2.74306
| 84>    H        1.04520        -2.19547        -2.89929
| 85>    H       -4.53266        -5.06146         0.76452
| 86>    H       -9.13209        -0.56597        -3.22845
| 87>    H       -8.39168         1.58798        -3.74496
| 88>    H       -9.55034         3.42266        -4.11226
| 89>    H       -9.93626         5.78996        -3.47390
| 90>    H       -8.56779         6.27886        -4.49811
| 91>    H       -8.33334         4.43801        -2.24572
| 92>    H       -7.72777         5.95620        -2.34936
| 93>    H      -10.50601         3.67698        -6.44245
| 94>    H      -10.25484         5.42667        -6.29340
| 95>    H      -11.91064         3.84984        -4.48060
| 96>    H      -12.40831         4.99735        -5.53939
| 97>    H       -8.32649         6.40025        -6.77064
| 98>    H       -6.15450         7.24142        -7.67752
| 99>    H       -4.82967         5.78926        -9.28455
|100>    H       -4.46627         3.57630        -8.27447
|101>    H       -4.47155         1.39724        -6.83517
|102>    H       -4.91045        -0.41476        -5.23701
|103>    H       -7.68593         5.93596        -9.96879
|104>    H       -7.63407         8.74588        -8.73460
|105>    H       -8.80589         6.70182       -12.00666
|106>    H      -12.43499        13.31204       -12.87144
|107>    H       -9.19150        13.67206        -7.11348
|108>    H       -8.43045        13.96161        -5.58824
|109>    H      -11.22070        17.89344        -6.91419
|110>    H      -12.53986        15.38645       -11.28194
|111> *
|112>
|113>                          ****END OF INPUT****

CARTESIAN COORDINATES (ANGSTROEM)
---------------------------------
  C      1.695980   -3.402470   -1.196930
  O      1.084950   -4.096270   -0.198960
  C     -0.236500   -3.932710   -0.407410
  C     -1.498890   -4.287750    0.121630
  C     -1.702770   -5.122110    1.324590
  O     -2.777600   -5.473030    1.765400
  N     -0.540030   -5.479270    1.918630
  C     -2.408830   -3.658930   -0.745810
  O     -1.761080   -2.974470   -1.733480
  C     -0.453380   -3.139800   -1.529840
  C      0.814680   -2.795160   -2.044900
  C     -3.828730   -3.576910   -0.784410
  C     -4.797750   -4.333370    0.019890
  N     -6.038580   -4.045590   -0.240580
  C     -6.004520   -3.095190   -1.214300
  C     -4.617080   -2.787500   -1.598940
  C     -4.609000   -1.740910   -2.593940
  S     -3.300590   -0.995970   -3.259030
  C     -6.002950   -1.436460   -2.814790
  C     -6.834070   -2.281370   -1.939720
  N     -8.153850   -1.970890   -2.076660
  C     -8.187920   -0.984620   -2.925390
  C     -6.880080   -0.575990   -3.441190
  C     -6.677730    0.485760   -4.389310
  C     -7.556970    1.550130   -4.428640
  C     -7.326350    2.617260   -5.312180
  C     -8.025000    3.806070   -5.509680
  C     -9.247470    4.237320   -4.779430
  C     -8.970640    5.465440   -3.891630
  N     -7.972380    5.134370   -2.889590
  C    -10.432120    4.512020   -5.724650
  N    -11.640140    4.711530   -4.943450
  C     -7.311880    4.539910   -6.527840
  C     -7.504390    5.762130   -7.060260
  C     -6.591710    6.322090   -8.097640
  C     -5.481800    5.414700   -8.510170
  C     -5.289840    4.200370   -7.959780
  C     -6.162510    3.725960   -6.953390
  C     -6.178110    2.564680   -6.203040
  C     -5.317050    1.445710   -6.165620
  C     -5.559690    0.444410   -5.280550
  C     -7.432070    6.730970   -9.283290
  C     -7.882710    7.976960   -9.456620
  C     -8.719000    8.417230  -10.530400
  C     -9.113050    7.698350  -11.742210
  N     -9.893720    8.374290  -12.539930
  C    -10.083540    9.579670  -11.930600
  C     -9.347200    9.633570  -10.660190
  C     -9.561740   10.902000  -10.010390
  S     -8.936120   11.380170   -8.565580
  C    -10.434460   11.613010  -10.907830
  C    -10.736340   10.778140  -12.082060
  N    -11.567370   11.436250  -12.940420
  C    -11.798190   12.592310  -12.389110
  C    -11.127350   12.789470  -11.103690
  C    -11.212800   13.940920  -10.281750
  O    -10.511440   13.934470   -9.106150
  C    -10.759930   15.107400   -8.522690
  C    -10.457320   15.863480   -7.365370
  C     -9.592900   15.504670   -6.217190
  O     -9.409370   16.245090   -5.274480
  N     -9.035250   14.280660   -6.326260
  C    -11.160610   17.032780   -7.550420
  O    -11.859700   17.061620   -8.704760
  C    -11.618330   15.880690   -9.308180
  C    -11.916100   15.128650  -10.452410
  H      2.767580   -3.415720   -1.195440
  H      0.360080   -5.207550    1.565760
  H     -0.590980   -6.053550    2.743060
  H      1.045200   -2.195470   -2.899290
  H     -4.532660   -5.061460    0.764520
  H     -9.132090   -0.565970   -3.228450
  H     -8.391680    1.587980   -3.744960
  H     -9.550340    3.422660   -4.112260
  H     -9.936260    5.789960   -3.473900
  H     -8.567790    6.278860   -4.498110
  H     -8.333340    4.438010   -2.245720
  H     -7.727770    5.956200   -2.349360
  H    -10.506010    3.676980   -6.442450
  H    -10.254840    5.426670   -6.293400
  H    -11.910640    3.849840   -4.480600
  H    -12.408310    4.997350   -5.539390
  H     -8.326490    6.400250   -6.770640
  H     -6.154500    7.241420   -7.677520
  H     -4.829670    5.789260   -9.284550
  H     -4.466270    3.576300   -8.274470
  H     -4.471550    1.397240   -6.835170
  H     -4.910450   -0.414760   -5.237010
  H     -7.685930    5.935960   -9.968790
  H     -7.634070    8.745880   -8.734600
  H     -8.805890    6.701820  -12.006660
  H    -12.434990   13.312040  -12.871440
  H     -9.191500   13.672060   -7.113480
  H     -8.430450   13.961610   -5.588240
  H    -11.220700   17.893440   -6.914190
  H    -12.539860   15.386450  -11.281940

 Total Charge           Charge          ....    0
 Multiplicity           Mult            ....    1
 Number of Electrons    NEL             ....  466
 Basis Dimension        Dim             .... 1082

ORBITAL ENERGIES
----------------

  NO   OCC          E(Eh)            E(eV)
   0   2.0000     -88.903527     -2419.1879
   1   2.0000     -88.881823     -2418.5974
   2   2.0000     -19.312666      -525.5243
   3   2.0000     -19.312263      -525.5134
   4   2.0000     -19.311981      -525.5057
   5   2.0000     -19.300610      -525.1963
   6   2.0000     -19.181883      -521.9656
   7   2.0000     -19.169080      -521.6172
   8   2.0000     -14.429775      -392.6541
   9   2.0000     -14.424528      -392.5114
  10   2.0000     -14.419731      -392.3808
  11   2.0000     -14.419314      -392.3695
  12   2.0000     -14.403171      -391.9302
  13   2.0000     -14.397604      -391.7787
  14   2.0000     -14.382065      -391.3559
  15   2.0000     -14.369003      -391.0004
  16   2.0000     -10.383060      -282.5374
  17   2.0000     -10.371585      -282.2252
  18   2.0000     -10.357699      -281.8473
  19   2.0000     -10.355996      -281.8010
  20   2.0000     -10.349780      -281.6318
  21   2.0000     -10.346928      -281.5542
  22   2.0000     -10.345301      -281.5100
  23   2.0000     -10.342607      -281.4366
  24   2.0000     -10.342525      -281.4344
  25   2.0000     -10.339565      -281.3539
  26   2.0000     -10.337996      -281.3112
  27   2.0000     -10.335325      -281.2385
  28   2.0000     -10.333346      -281.1846
  29   2.0000     -10.332746      -281.1683
  30   2.0000     -10.332521      -281.1622
  31   2.0000     -10.329561      -281.0817
  32   2.0000     -10.321619      -280.8655
  33   2.0000     -10.319206      -280.7999
  34   2.0000     -10.316116      -280.7158
  35   2.0000     -10.315408      -280.6965
  36   2.0000     -10.312685      -280.6224
  37   2.0000     -10.309428      -280.5338
  38   2.0000     -10.307712      -280.4871
  39   2.0000     -10.301431      -280.3162
  40   2.0000     -10.301399      -280.3153
  41   2.0000     -10.300182      -280.2822
  42   2.0000     -10.298992      -280.2498
  43   2.0000     -10.298202      -280.2283
  44   2.0000     -10.295862      -280.1647
  45   2.0000     -10.294825      -280.1364
  46   2.0000     -10.294513      -280.1279
  47   2.0000     -10.292553      -280.0746
  48   2.0000     -10.291533      -280.0469
  49   2.0000     -10.287898      -279.9479
  50   2.0000     -10.287172      -279.9282
  51   2.0000     -10.285102      -279.8719
  52   2.0000     -10.280014      -279.7334
  53   2.0000     -10.278807      -279.7006
  54   2.0000     -10.273201      -279.5480
  55   2.0000     -10.272371      -279.5254
  56   2.0000     -10.271656      -279.5060
  57   2.0000     -10.270772      -279.4819
  58   2.0000     -10.267119      -279.3825
  59   2.0000     -10.264931      -279.3230
  60   2.0000     -10.260579      -279.2045
  61   2.0000     -10.260447      -279.2010
  62   2.0000     -10.260150      -279.1929
  63   2.0000     -10.257911      -279.1319
  64   2.0000     -10.257455      -279.1195
  65   2.0000     -10.256086      -279.0823
  66   2.0000      -7.998950      -217.6625
  67   2.0000      -7.977838      -217.0880
  68   2.0000      -5.967757      -162.3909
  69   2.0000      -5.967375      -162.3805
  70   2.0000      -5.958458      -162.1379
  71   2.0000      -5.946827      -161.8214
  72   2.0000      -5.946602      -161.8153
  73   2.0000      -5.936623      -161.5437
  74   2.0000      -1.238162       -33.6921
  75   2.0000      -1.231342       -33.5065
  76   2.0000      -1.220031       -33.1987
  77   2.0000      -1.213070       -33.0093
  78   2.0000      -1.123122       -30.5617
  79   2.0000      -1.109679       -30.1959
  80   2.0000      -1.088836       -29.6287
  81   2.0000      -1.069980       -29.1156
  82   2.0000      -1.069579       -29.1047
  83   2.0000      -1.050487       -28.5852
  84   2.0000      -0.991110       -26.9695
  85   2.0000      -0.981272       -26.7018
  86   2.0000      -0.981108       -26.6973
  87   2.0000      -0.966872       -26.3099
  88   2.0000      -0.965556       -26.2741
  89   2.0000      -0.949442       -25.8356
  90   2.0000      -0.947027       -25.7699
  91   2.0000      -0.945016       -25.7152
  92   2.0000      -0.927103       -25.2278
  93   2.0000      -0.920648       -25.0521
  94   2.0000      -0.919715       -25.0267
  95   2.0000      -0.916379       -24.9359
  96   2.0000      -0.913179       -24.8489
  97   2.0000      -0.899892       -24.4873
  98   2.0000      -0.892301       -24.2807
  99   2.0000      -0.880235       -23.9524
 100   2.0000      -0.872187       -23.7334
 101   2.0000      -0.864016       -23.5111
 102   2.0000      -0.854388       -23.2491
 103   2.0000      -0.840021       -22.8581
 104   2.0000      -0.833927       -22.6923
 105   2.0000      -0.832130       -22.6434
 106   2.0000      -0.826104       -22.4794
 107   2.0000      -0.823342       -22.4043
 108   2.0000      -0.815317       -22.1859
 109   2.0000      -0.794779       -21.6270
 110   2.0000      -0.778785       -21.1918
 111   2.0000      -0.768136       -20.9021
 112   2.0000      -0.762300       -20.7432
 113   2.0000      -0.754886       -20.5415
 114   2.0000      -0.751647       -20.4534
 115   2.0000      -0.743187       -20.2231
 116   2.0000      -0.736773       -20.0486
 117   2.0000      -0.733391       -19.9566
 118   2.0000      -0.728689       -19.8286
 119   2.0000      -0.718468       -19.5505
 120   2.0000      -0.713012       -19.4020
 121   2.0000      -0.711918       -19.3723
 122   2.0000      -0.695390       -18.9225
 123   2.0000      -0.687522       -18.7084
 124   2.0000      -0.686854       -18.6902
 125   2.0000      -0.676546       -18.4098
 126   2.0000      -0.674488       -18.3537
 127   2.0000      -0.672688       -18.3048
 128   2.0000      -0.672653       -18.3038
 129   2.0000      -0.662841       -18.0368
 130   2.0000      -0.657507       -17.8917
 131   2.0000      -0.650761       -17.7081
 132   2.0000      -0.637281       -17.3413
 133   2.0000      -0.631273       -17.1778
 134   2.0000      -0.626188       -17.0394
 135   2.0000      -0.625771       -17.0281
 136   2.0000      -0.624034       -16.9808
 137   2.0000      -0.613888       -16.7047
 138   2.0000      -0.609611       -16.5884
 139   2.0000      -0.601547       -16.3689
 140   2.0000      -0.599124       -16.3030
 141   2.0000      -0.597414       -16.2565
 142   2.0000      -0.595126       -16.1942
 143   2.0000      -0.590759       -16.0754
 144   2.0000      -0.588706       -16.0195
 145   2.0000      -0.579912       -15.7802
 146   2.0000      -0.577667       -15.7191
 147   2.0000      -0.575250       -15.6534
 148   2.0000      -0.571033       -15.5386
 149   2.0000      -0.567802       -15.4507
 150   2.0000      -0.565954       -15.4004
 151   2.0000      -0.559528       -15.2255
 152   2.0000      -0.557048       -15.1580
 153   2.0000      -0.553642       -15.0654
 154   2.0000      -0.551102       -14.9963
 155   2.0000      -0.549832       -14.9617
 156   2.0000      -0.539733       -14.6869
 157   2.0000      -0.537990       -14.6395
 158   2.0000      -0.537255       -14.6194
 159   2.0000      -0.536603       -14.6017
 160   2.0000      -0.533539       -14.5183
 161   2.0000      -0.530238       -14.4285
 162   2.0000      -0.528519       -14.3817
 163   2.0000      -0.525374       -14.2961
 164   2.0000      -0.523165       -14.2361
 165   2.0000      -0.521422       -14.1886
 166   2.0000      -0.518372       -14.1056
 167   2.0000      -0.514235       -13.9930
 168   2.0000      -0.513222       -13.9655
 169   2.0000      -0.508342       -13.8327
 170   2.0000      -0.505217       -13.7477
 171   2.0000      -0.504136       -13.7182
 172   2.0000      -0.503416       -13.6986
 173   2.0000      -0.501626       -13.6499
 174   2.0000      -0.499848       -13.6015
 175   2.0000      -0.495919       -13.4946
 176   2.0000      -0.495697       -13.4886
 177   2.0000      -0.495029       -13.4704
 178   2.0000      -0.492050       -13.3894
 179   2.0000      -0.485117       -13.2007
 180   2.0000      -0.482804       -13.1378
 181   2.0000      -0.481108       -13.0916
 182   2.0000      -0.480444       -13.0735
 183   2.0000      -0.475696       -12.9444
 184   2.0000      -0.473826       -12.8935
 185   2.0000      -0.471720       -12.8361
 186   2.0000      -0.468470       -12.7477
 187   2.0000      -0.464250       -12.6329
 188   2.0000      -0.459043       -12.4912
 189   2.0000      -0.453748       -12.3471
 190   2.0000      -0.448098       -12.1934
 191   2.0000      -0.445316       -12.1177
 192   2.0000      -0.444099       -12.0845
 193   2.0000      -0.438284       -11.9263
 194   2.0000      -0.433808       -11.8045
 195   2.0000      -0.433176       -11.7873
 196   2.0000      -0.431610       -11.7447
 197   2.0000      -0.425682       -11.5834
 198   2.0000      -0.420940       -11.4544
 199   2.0000      -0.413240       -11.2448
 200   2.0000      -0.408580       -11.1180
 201   2.0000      -0.404716       -11.0129
 202   2.0000      -0.403940       -10.9918
 203   2.0000      -0.396964       -10.8019
 204   2.0000      -0.392923       -10.6920
 205   2.0000      -0.388807       -10.5800
 206   2.0000      -0.382210       -10.4005
 207   2.0000      -0.363780        -9.8990
 208   2.0000      -0.363304        -9.8860
 209   2.0000      -0.357000        -9.7145
 210   2.0000      -0.356659        -9.7052
 211   2.0000      -0.349861        -9.5202
 212   2.0000      -0.348485        -9.4828
 213   2.0000      -0.348022        -9.4702
 214   2.0000      -0.344729        -9.3806
 215   2.0000      -0.343227        -9.3397
 216   2.0000      -0.340447        -9.2640
 217   2.0000      -0.338610        -9.2140
 218   2.0000      -0.334267        -9.0959
 219   2.0000      -0.333065        -9.0632
 220   2.0000      -0.326865        -8.8944
 221   2.0000      -0.325599        -8.8600
 222   2.0000      -0.321404        -8.7458
 223   2.0000      -0.312553        -8.5050
 224   2.0000      -0.302050        -8.2192
 225   2.0000      -0.297448        -8.0940
 226   2.0000      -0.290176        -7.8961
 227   2.0000      -0.283863        -7.7243
 228   2.0000      -0.281413        -7.6576
 229   2.0000      -0.268551        -7.3077
 230   2.0000      -0.264903        -7.2084
 231   2.0000      -0.260815        -7.0971
 232   2.0000      -0.217274        -5.9123
 233   0.0000      -0.116183        -3.1615
 234   0.0000      -0.100701        -2.7402
 235   0.0000      -0.085540        -2.3277
 236   0.0000      -0.075022        -2.0414
 237   0.0000      -0.054805        -1.4913

MULLIKEN ATOMIC CHARGES
-----------------------
   0 C :    0.147725
   1 O :   -0.224746
   2 C :    0.069059
   3 C :   -0.063447
   4 C :    0.072537
   5 O :   -0.205272
   6 N :   -0.084527
   7 C :    0.089578
   8 O :   -0.155938
   9 C :    0.201533
  10 C :   -0.086337
  11 C :   -0.039778
  12 C :    0.067915
  13 N :   -0.022796
  14 C :    0.003741
  15 C :   -0.002550
  16 C :   -0.020246
  17 S :   -0.130313
  18 C :   -0.015695
  19 C :   -0.000713
  20 N :   -0.027841
  21 C :    0.047388
  22 C :    0.000046
  23 C :    0.073507
  24 C :   -0.108212
  25 C :    0.059757
  26 C :    0.053323
  27 C :   -0.077412
  28 C :    0.148017
  29 N :   -0.216745
  30 C :    0.140574
  31 N :   -0.213960
  32 C :    0.095630
  33 C :   -0.130615
  34 C :    0.141214
  35 C :   -0.062231
  36 C :    0.024562
  37 C :    0.002542
  38 C :    0.042622
  39 C :   -0.014974
  40 C :    0.029298
  41 C :   -0.051977
  42 C :   -0.001719
  43 C :    0.003911
  44 C :    0.055850
  45 N :   -0.028627
  46 C :    0.021075
  47 C :   -0.017132
  48 C :    0.004830
  49 S :   -0.147176
  50 C :   -0.015241
  51 C :   -0.005600
  52 N :   -0.021919
  53 C :    0.061364
  54 C :    0.020177
  55 C :    0.120410
  56 O :   -0.186033
  57 C :    0.111903
  58 C :   -0.075589
  59 C :    0.056115
  60 O :   -0.202663
  61 N :   -0.093005
  62 C :    0.122230
  63 O :   -0.176009
  64 C :    0.193033
  65 C :   -0.134897
  66 H :    0.021385
  67 H :    0.123867
  68 H :    0.131858
  69 H :    0.009964
  70 H :    0.029772
  71 H :    0.002285
  72 H :   -0.044204
  73 H :   -0.041133
  74 H :   -0.000496
  75 H :   -0.027640
  76 H :    0.084283
  77 H :    0.089592
  78 H :   -0.003084
  79 H :   -0.021079
  80 H :    0.090374
  81 H :    0.092620
  82 H :    0.002419
  83 H :    0.041952
  84 H :   -0.013378
  85 H :   -0.034554
  86 H :   -0.039001
  87 H :   -0.029774
  88 H :    0.011244
  89 H :   -0.004434
  90 H :    0.009748
  91 H :    0.006782
  92 H :    0.127239
  93 H :    0.129238
  94 H :    0.034628
  95 H :   -0.000008
Sum of atomic charges:   -0.0000000

LOEWDIN ATOMIC CHARGES
----------------------
   0 C :    0.055525
   1 O :   -0.002584
   2 C :   -0.014934
   3 C :   -0.109420
   4 C :    0.070227
   5 O :   -0.209564
   6 N :    0.001387
   7 C :    0.069115
   8 O :    0.041648
   9 C :    0.005529
  10 C :   -0.070737
  11 C :   -0.055703
  12 C :    0.098206
  13 N :   -0.084938
  14 C :    0.033535
  15 C :   -0.027776
  16 C :   -0.141523
  17 S :    0.061956
  18 C :   -0.046571
  19 C :    0.035092
  20 N :   -0.082496
  21 C :    0.081471
  22 C :   -0.024960
  23 C :   -0.027502
  24 C :   -0.000385
  25 C :   -0.016645
  26 C :   -0.011251
  27 C :   -0.041010
  28 C :    0.024377
  29 N :   -0.119535
  30 C :    0.026309
  31 N :   -0.115199
  32 C :   -0.011074
  33 C :    0.063802
  34 C :   -0.029230
  35 C :   -0.045878
  36 C :   -0.010182
  37 C :   -0.040373
  38 C :   -0.024112
  39 C :   -0.011499
  40 C :   -0.014794
  41 C :    0.019498
  42 C :   -0.034891
  43 C :   -0.030197
  44 C :    0.088709
  45 N :   -0.080185
  46 C :    0.035815
  47 C :   -0.042063
  48 C :   -0.134130
  49 S :    0.041473
  50 C :   -0.048623
  51 C :    0.036144
  52 N :   -0.072458
  53 C :    0.087978
  54 C :   -0.045723
  55 C :    0.032583
  56 O :    0.023670
  57 C :    0.008340
  58 C :   -0.122341
  59 C :    0.058014
  60 O :   -0.219837
  61 N :   -0.001370
  62 C :    0.102813
  63 O :    0.021188
  64 C :   -0.008496
  65 C :   -0.049676
  66 H :    0.027441
  67 H :    0.071342
  68 H :    0.083625
  69 H :    0.041751
  70 H :    0.025284
  71 H :    0.021997
  72 H :    0.020359
  73 H :    0.018412
  74 H :    0.000801
  75 H :    0.010171
  76 H :    0.049585
  77 H :    0.054141
  78 H :    0.003531
  79 H :    0.013839
  80 H :    0.052165
  81 H :    0.055760
  82 H :    0.026988
  83 H :    0.061575
  84 H :    0.023909
  85 H :    0.030726
  86 H :    0.026876
  87 H :    0.015329
  88 H :    0.027872
  89 H :    0.027838
  90 H :    0.025089
  91 H :    0.025579
  92 H :    0.055275
  93 H :    0.082317
  94 H :    0.037286
  95 H :    0.038597

  Mayer bond orders larger than 0.100000
B(  0-C ,  1-O ) :   1.0958 B(  0-C , 10-C ) :   1.5593 B(  0-C , 66-H ) :   1.0062
B(  1-O ,  2-C ) :   1.1063 B(  2-C ,  3-C ) :   1.1891 B(  2-C ,  9-C ) :   1.4073
B(  3-C ,  4-C ) :   0.8833 B(  3-C ,  7-C ) :   1.4337 B(  4-C ,  5-O ) :   2.1135
B(  4-C ,  6-N ) :   1.3134 B(  6-N , 67-H ) :   0.9333 B(  6-N , 68-H ) :   0.9327
B(  7-C ,  8-O ) :   1.1886 B(  7-C , 11-C ) :   1.0891 B(  8-O ,  9-C ) :   1.1435
B(  9-C , 10-C ) :   1.2041 B( 10-C , 69-H ) :   1.0217 B( 11-C , 12-C ) :   1.0495
B( 11-C , 15-C ) :   1.5081 B( 12-C , 13-N ) :   1.6983 B( 12-C , 70-H ) :   0.9708
B( 13-N , 14-C ) :   1.2817 B( 14-C , 15-C ) :   1.0599 B( 14-C , 19-C ) :   1.5079
B( 15-C , 16-C ) :   1.0276 B( 16-C , 17-S ) :   1.7044 B( 16-C , 18-C ) :   1.0319
B( 18-C , 19-C ) :   1.0667 B( 18-C , 22-C ) :   1.5380 B( 19-C , 20-N ) :   1.2666
B( 20-N , 21-C ) :   1.7203 B( 21-C , 22-C ) :   1.0427 B( 21-C , 71-H ) :   0.9864
B( 22-C , 23-C ) :   1.0092 B( 23-C , 24-C ) :   1.5021 B( 23-C , 40-C ) :   1.1469
B( 24-C , 25-C ) :   1.1428 B( 24-C , 72-H ) :   0.9896 B( 25-C , 26-C ) :   1.4819
B( 25-C , 38-C ) :   1.1180 B( 26-C , 27-C ) :   1.0063 B( 26-C , 32-C ) :   1.0944
B( 27-C , 28-C ) :   1.0363 B( 27-C , 30-C ) :   1.0376 B( 27-C , 73-H ) :   0.8911
B( 28-C , 29-N ) :   1.0799 B( 28-C , 74-H ) :   0.9350 B( 28-C , 75-H ) :   0.9350
B( 29-N , 76-H ) :   0.9724 B( 29-N , 77-H ) :   0.9701 B( 30-C , 31-N ) :   1.0852
B( 30-C , 78-H ) :   0.9475 B( 30-C , 79-H ) :   0.9294 B( 31-N , 80-H ) :   0.9709
B( 31-N , 81-H ) :   0.9676 B( 32-C , 33-C ) :   1.6429 B( 32-C , 37-C ) :   1.0477
B( 33-C , 34-C ) :   0.9817 B( 33-C , 82-H ) :   0.9655 B( 34-C , 35-C ) :   0.9739
B( 34-C , 41-C ) :   0.9569 B( 34-C , 83-H ) :   0.8648 B( 35-C , 36-C ) :   1.7045
B( 35-C , 84-H ) :   0.9811 B( 36-C , 37-C ) :   1.1364 B( 36-C , 85-H ) :   0.9909
B( 37-C , 38-C ) :   1.4379 B( 38-C , 39-C ) :   1.1367 B( 39-C , 40-C ) :   1.6084
B( 39-C , 86-H ) :   0.9940 B( 40-C , 87-H ) :   0.9688 B( 41-C , 42-C ) :   1.7598
B( 41-C , 88-H ) :   0.9725 B( 42-C , 43-C ) :   1.0838 B( 42-C , 89-H ) :   0.9642
B( 43-C , 44-C ) :   1.0129 B( 43-C , 47-C ) :   1.5377 B( 44-C , 45-N ) :   1.7247
B( 44-C , 90-H ) :   0.9903 B( 45-N , 46-C ) :   1.2625 B( 46-C , 47-C ) :   1.0668
B( 46-C , 51-C ) :   1.5186 B( 47-C , 48-C ) :   1.0345 B( 48-C , 49-S ) :   1.6943
B( 48-C , 50-C ) :   1.0352 B( 50-C , 51-C ) :   1.0712 B( 50-C , 54-C ) :   1.4957
B( 51-C , 52-N ) :   1.2590 B( 52-N , 53-C ) :   1.7364 B( 53-C , 54-C ) :   1.0370
B( 53-C , 91-H ) :   0.9898 B( 54-C , 55-C ) :   1.0686 B( 55-C , 56-O ) :   1.1445
B( 55-C , 65-C ) :   1.4394 B( 56-O , 57-C ) :   1.1535 B( 57-C , 58-C ) :   1.1743
B( 57-C , 64-C ) :   1.3761 B( 58-C , 59-C ) :   0.8822 B( 58-C , 62-C ) :   1.5352
B( 59-C , 60-O ) :   2.2292 B( 59-C , 61-N ) :   1.2994 B( 61-N , 92-H ) :   0.9187
B( 61-N , 93-H ) :   0.9352 B( 62-C , 63-O ) :   1.1448 B( 62-C , 94-H ) :   1.0033
B( 63-O , 64-C ) :   1.1377 B( 64-C , 65-C ) :   1.2244 B( 65-C , 95-H ) :   1.0195

-----------------------------------------------------------------------------
         ABSORPTION SPECTRUM VIA TRANSITION ELECTRIC DIPOLE MOMENTS
-----------------------------------------------------------------------------
State   Energy  Wavelength   fosc         T2         TX        TY        TZ
        (cm-1)    (nm)                  (au**2)     (au)      (au)      (au)
-----------------------------------------------------------------------------
   0   10077.6    992.3   0.134220254   4.38466   1.00238  -1.64092   0.82902
   1   10897.5    917.6   0.015103418   0.45627  -0.35342   0.47271  -0.32850
   2   13571.8    736.8   0.021028913   0.51010  -0.49808  -0.14500   0.49091
   3   14307.1    699.0   0.047495428   1.09289  -0.27602   0.77363  -0.64669
   4   15667.3    638.3   0.182623428   3.83740   0.61692  -1.82998  -0.32862
   5   16325.9    612.5   0.007465310   0.15054  -0.28979   0.15344   0.20740
   6   16385.0    610.3   0.000298685   0.00600  -0.05961   0.01989   0.04530
   7   17007.8    588.0   0.034299578   0.66392  -0.09096   0.65287  -0.47897
   8   17380.2    575.4   0.156404656   2.96259   1.38890  -0.79655   0.63171
   9   18485.8    541.0   0.173375984   3.08764   0.13144  -1.34396   1.12434
  10   18620.9    537.0   0.000646146   0.01142  -0.00539  -0.07691   0.07402
  11   19272.5    518.9   0.017672389   0.30188   0.28475  -0.32224   0.34199
  12   20599.4    485.5   0.010763227   0.17201   0.27424   0.30113  -0.07827
  13   22044.4    453.6   0.361991288   5.40600  -0.71596   2.14909   0.52424
  14   23598.3    423.8   0.288388720   4.02322   1.68551  -0.82406   0.70936
  15   24216.9    412.9   0.137018998   1.86268   0.61929  -1.08621   0.54710
  16   24570.4    407.0   0.076450984   1.02435  -0.65509   0.62925  -0.44637
  17   24779.1    403.6   0.310678529   4.12764   1.38240  -1.23241   0.83533
  18   25154.3    397.5   0.020739015   0.27143  -0.25852   0.44063  -0.10219
  19   25408.1    393.6   0.060393093   0.78251  -0.17739   0.86264   0.08300
  20   25571.6    391.1   0.003648652   0.04697   0.16200  -0.12791  -0.06610
  21   25653.0    389.8   0.034115294   0.43781   0.16241  -0.56893  -0.29623
  22   25760.6    388.2   0.111854810   1.42947   0.44347  -1.10777  -0.07512
  23   26380.3    379.1   0.084987005   1.06059  -0.12981  -0.96199   0.34397
  24   26695.0    374.6   0.492087421   6.06860   1.15532  -1.87532   1.10319
  25   26907.0    371.7   0.002408257   0.02947   0.06959   0.11945  -0.10176
  26   27201.9    367.6   0.238224190   2.88312  -0.79153   1.33995  -0.67907
  27   28282.5    353.6   0.258482327   3.00877  -0.43626   1.67628  -0.09233
  28   28682.8    348.6   0.041864009   0.48050  -0.25584   0.58220   0.27585
  29   28849.3    346.6   0.001846461   0.02107  -0.06266   0.01247   0.13034
  30   29997.6    333.4   0.004989058   0.05475   0.08692   0.01968  -0.21636
  31   30360.2    329.4   0.037623364   0.40797   0.08425  -0.41715   0.47629
  32   30916.7    323.5   0.009370765   0.09978   0.15346  -0.25349  -0.10943
  33   31149.8    321.0   0.001488395   0.01573  -0.07355   0.08097  -0.06135
  34   31454.6    317.9   0.000398831   0.00417  -0.03128   0.05641  -0.00365
  35   31686.5    315.6   0.002078914   0.02160   0.13713   0.02683   0.04556
  36   32025.3    312.3   0.018397010   0.18912  -0.18525   0.25726  -0.29768
  37   32094.6    311.6   0.000009009   0.00009  -0.00630  -0.00375   0.00622
  38   32202.3    310.5   0.011547907   0.11806   0.12237  -0.26495   0.18133
  39   32326.1    309.3   0.010158679   0.10346  -0.16444   0.22855  -0.15551
  40   32504.1    307.7   0.031695301   0.32102  -0.21984   0.37790  -0.36039
  41   32750.9    305.3   0.008367373   0.08411   0.12411   0.17106  -0.19860
  42   32804.3    304.8   0.029506905   0.29612  -0.20808   0.45266  -0.21891
  43   32951.1    303.5   0.048902498   0.48858  -0.20120   0.57443  -0.34370
  44   33249.9    300.8   0.230410940   2.28133   0.24970  -1.23201   0.83733
  45   33400.7    299.4   0.000785962   0.00775   0.01291  -0.07296   0.04751
  46   33601.0    297.6   0.010759504   0.10542   0.20830  -0.24893   0.00773
  47   33723.4    296.5   0.018417465   0.17979   0.24971  -0.31129  -0.14332
  48   34088.6    293.4   0.021078724   0.20357  -0.27520  -0.24478   0.26061
  49   34406.0    290.6   0.090845671   0.86925  -0.18542   0.86765  -0.28644
  50   34571.9    289.3   0.009378395   0.08931   0.10222   0.26691   0.08726
  51   34797.2    287.4   0.121586792   1.15032  -0.40634  -0.76216   0.63586
  52   35015.8    285.6   0.147068498   1.38271   0.26317  -1.02281   0.51703
  53   35111.7    284.8   0.182592512   1.71201  -0.80358   1.01764  -0.17511
  54   35287.3    283.4   0.052426507   0.48911  -0.13338   0.41965  -0.54334
  55   35328.7    283.1   0.145794353   1.35859  -0.31015   0.73338  -0.85121
  56   35895.3    278.6   0.001336406   0.01226  -0.08554   0.07005  -0.00572
  57   35912.2    278.5   0.006522874   0.05980   0.00995   0.03143  -0.24230
  58   36194.4    276.3   0.006744439   0.06135   0.22630   0.07087  -0.07149
  59   36263.6    275.8   0.022138689   0.20098   0.29804   0.18764  -0.27740
  60   36441.4    274.4   0.048011683   0.43374  -0.64562  -0.11964   0.05101
  61   36478.9    274.1   0.002753609   0.02485  -0.08139  -0.09349   0.09739
  62   36762.1    272.0   0.055538231   0.49736  -0.19512   0.40518  -0.54325
  63   37128.2    269.3   0.112460518   0.99718  -0.22186   0.60709  -0.76118
  64   37156.2    269.1   0.006820741   0.06043  -0.00707  -0.22813   0.09133
  65   37177.3    269.0   0.022434447   0.19866  -0.27432  -0.34734  -0.05253
  66   37504.3    266.6   0.000934548   0.00820  -0.06704  -0.05068   0.03379
  67   37541.6    266.4   0.008867756   0.07776  -0.18499   0.20156  -0.05401
  68   37574.0    266.1   0.019566440   0.17144  -0.12132   0.14921   0.36668
  69   37649.5    265.6   0.202081889   1.76703  -1.17122  -0.23196  -0.58434
  70   37905.7    263.8   0.228514843   1.98466  -0.28612   0.74910  -1.15829
  71   38407.8    260.4   0.048773865   0.41806  -0.15750  -0.24002   0.57935
  72   38647.1    258.8   0.058528179   0.49857  -0.44590  -0.41311   0.35929
  73   38822.6    257.6   0.007633655   0.06473   0.25363   0.01267  -0.01559
  74   38915.8    257.0   0.031387914   0.26553  -0.46864  -0.11383   0.18151
  75   39437.8    253.6   0.005255972   0.04387   0.16786  -0.09936   0.07633
  76   39538.7    252.9   0.074270114   0.61840  -0.22798   0.75239  -0.01819
  77   39741.8    251.6   0.049957849   0.41384   0.55465  -0.31474   0.08452
  78   40086.9    249.5   0.034053283   0.27966   0.52621  -0.05069   0.01398
  79   40127.1    249.2   0.106024994   0.86985   0.92283   0.00612  -0.13490

FINAL SINGLE POINT ENERGY     -3605.114724173524

DIPOLE MOMENT
-------------
                                X             Y             Z
Electronic contribution:      9.86731      -1.80951      -5.29667
Nuclear contribution   :     -8.42971       2.40467       4.09351
                        -----------------------------------------
Total Dipole Moment    :      1.43760       0.59516      -1.20315
                        -----------------------------------------
Magnitude (a.u.)       :      1.96685
Magnitude (Debye)      :      4.99933

Rotational constants in cm-1:     0.002575     0.000249     0.000246
Rotational constants in MHz :    77.189914     7.470831     7.381598

                             ****ORCA TERMINATED NORMALLY****
TOTAL RUN TIME: 0 days 0 hours 16 minutes 45 seconds 892 msec
