                         Program Version 4.2.0 -  RELEASE  -
|  1> # ORCA input file
|  2> # SCF done       -198.935691638184          0.000784042562
|  3> ! CAM-B3LYP def2-SVP def2/J RIJCOSX Grid4 TightSCF
|  4> %maxcore 5000
|  5> %tddft
|  6>     Mode sTDDFT
|  7>     Ethresh 5.0
|  8>     maxcore 5000
|  9> end
| 10>
| 11> %pal
| 12>   nprocs 6
| 13>   end
| 14> * xyz 0 1
| 15>    C        5.03674         1.80575         0.74565
| 16>    C        5.11906         3.16670         0.65497
| 17>    C        5.91449         3.83793        -0.29744
| 18>    N        6.54196         4.42420        -1.05813
| 19>    C        4.51143         4.05476         1.57067
| 20>    N        4.13594         4.82217         2.33721
| 21>    C        5.84587         0.84770         0.00338
| 22>    C        5.82334        -0.40266         0.69329
| 23>    C        6.51608        -1.48782         0.23218
| 24>    C        7.25949        -1.37173        -0.96237
| 25>    C        7.27898        -0.12823        -1.66074
| 26>    C        6.55890         0.98001        -1.15738
| 27>    C        8.02608        -0.03227        -2.85181
| 28>    C        8.71957        -1.11111        -3.33075
| 29>    C        8.69356        -2.33596        -2.64598
| 30>    C        7.97865        -2.46471        -1.48590
| 31>    C        4.95097        -0.30022         1.86878
| 32>    O        4.71862        -1.12930         2.71496
| 33>    C        4.30686         1.05397         1.74791
| 34>    C        3.12155         1.28442         2.36914
| 35>    C        2.17499         2.28405         2.01956
| 36>    N        2.32457         3.06567         0.95996
| 37>    C        1.20948         3.81386         0.87986
| 38>    C        0.27112         3.48951         1.96217
| 39>    C       -0.94756         4.31299         1.85305
| 40>    O       -1.94005         4.27939         2.54728
| 41>    C       -0.66506         5.15109         0.67463
| 42>    C        0.65332         4.79565         0.09721
| 43>    N        0.90574         5.53616        -1.00727
| 44>    C       -0.13303         6.32492        -1.13731
| 45>    C       -1.15301         6.13574        -0.12062
| 46>    C        0.87425         2.50163         2.70255
| 47>    C        0.41669         1.77837         3.83253
| 48>    C       -0.83099         1.90746         4.35804
| 49>    C       -1.26820         1.06570         5.40815
| 50>    C       -0.58445         0.03835         6.05536
| 51>    C       -1.48426        -0.62925         6.93050
| 52>    C       -2.78432         0.05321         6.84537
| 53>    O       -3.84213        -0.13884         7.37566
| 54>    N       -2.53839         1.08092         5.91663
| 55>    C       -0.83447        -1.74904         7.39752
| 56>    O        0.44676        -1.76294         6.92244
| 57>    C        0.65297        -0.70513         6.05803
| 58>    O        1.69651        -0.55384         5.47454
| 59>    C       -1.28907        -2.87456         8.14311
| 60>    N       -2.17237        -2.78346         9.11645
| 61>    C       -2.27029        -4.02275         9.64133
| 62>    C       -1.37553        -4.96829         8.94627
| 63>    C       -1.49365        -6.32333         9.52361
| 64>    O       -0.92193        -7.33459         9.19459
| 65>    C       -2.48610        -6.11930        10.59798
| 66>    C       -2.92941        -4.70278        10.63388
| 67>    N       -3.85193        -4.51837        11.60948
| 68>    C       -4.01267        -5.69486        12.15871
| 69>    C       -3.19521        -6.74351        11.56961
| 70>    C       -0.76484        -4.25724         7.95437
| 71>    C        0.13014        -4.65506         6.91161
| 72>    C        0.08203        -4.09098         5.68108
| 73>    C        1.09362        -4.25890         4.70203
| 74>    C        1.23150        -3.43707         3.62093
| 75>    C        2.29906        -3.46754         2.63319
| 76>    C        3.37169        -4.31686         2.60663
| 77>    C        4.39136        -4.27747         1.63500
| 78>    N        5.25586        -4.32026         0.87993
| 79>    C        3.63285        -5.35179         3.53089
| 80>    N        3.91944        -6.22312         4.22128
| 81>    C        2.05102        -2.39715         1.67419
| 82>    C        0.88067        -1.69245         2.07035
| 83>    C        0.33581        -2.29611         3.29624
| 84>    O       -0.63928        -1.90379         3.91043
| 85>    C        0.40413        -0.62537         1.36310
| 86>    C        1.10943        -0.18399         0.22195
| 87>    C        2.29193        -0.87408        -0.17321
| 88>    C        2.73515        -2.00161         0.55489
| 89>    C        3.01318        -0.39815        -1.28759
| 90>    C        2.59884         0.71493        -1.96650
| 91>    C        1.42360         1.38194        -1.58972
| 92>    C        0.68743         0.93147        -0.52836
| 93>    H        6.48449        -2.43102         0.75776
| 94>    H        6.57687         1.90635        -1.70996
| 95>    H        8.04410         0.91174        -3.37631
| 96>    H        9.29170        -1.02613        -4.24243
| 97>    H        9.24305        -3.17615        -3.04278
| 98>    H        7.94729        -3.40297        -0.95298
| 99>    H        2.83533         0.56420         3.12771
|100>    H       -0.18037         7.03123        -1.94777
|101>    H       -2.07477         6.67883        -0.05484
|102>    H        1.09686         1.06070         4.26831
|103>    H       -1.53260         2.62539         3.95199
|104>    H       -3.25799         1.72250         5.61616
|105>    H       -4.70050        -5.82396        12.97637
|106>    H       -3.18580        -7.77116        11.87437
|107>    H        0.86423        -5.41413         7.15021
|108>    H       -0.72421        -3.41278         5.44038
|109>    H        1.83135        -5.02886         4.88563
|110>    H       -0.49711        -0.11826         1.67631
|111>    H        3.61646        -2.51933         0.21139
|112>    H        3.90626        -0.92695        -1.58911
|113>    H        3.17000         1.08345        -2.80501
|114>    H        1.10806         2.25411        -2.14153
|115>    H       -0.22600         1.43252        -0.23888
|116> *
|117>
|118>                          ****END OF INPUT****

CARTESIAN COORDINATES (ANGSTROEM)
---------------------------------
  C      5.036740    1.805750    0.745650
  C      5.119060    3.166700    0.654970
  C      5.914490    3.837930   -0.297440
  N      6.541960    4.424200   -1.058130
  C      4.511430    4.054760    1.570670
  N      4.135940    4.822170    2.337210
  C      5.845870    0.847700    0.003380
  C      5.823340   -0.402660    0.693290
  C      6.516080   -1.487820    0.232180
  C      7.259490   -1.371730   -0.962370
  C      7.278980   -0.128230   -1.660740
  C      6.558900    0.980010   -1.157380
  C      8.026080   -0.032270   -2.851810
  C      8.719570   -1.111110   -3.330750
  C      8.693560   -2.335960   -2.645980
  C      7.978650   -2.464710   -1.485900
  C      4.950970   -0.300220    1.868780
  O      4.718620   -1.129300    2.714960
  C      4.306860    1.053970    1.747910
  C      3.121550    1.284420    2.369140
  C      2.174990    2.284050    2.019560
  N      2.324570    3.065670    0.959960
  C      1.209480    3.813860    0.879860
  C      0.271120    3.489510    1.962170
  C     -0.947560    4.312990    1.853050
  O     -1.940050    4.279390    2.547280
  C     -0.665060    5.151090    0.674630
  C      0.653320    4.795650    0.097210
  N      0.905740    5.536160   -1.007270
  C     -0.133030    6.324920   -1.137310
  C     -1.153010    6.135740   -0.120620
  C      0.874250    2.501630    2.702550
  C      0.416690    1.778370    3.832530
  C     -0.830990    1.907460    4.358040
  C     -1.268200    1.065700    5.408150
  C     -0.584450    0.038350    6.055360
  C     -1.484260   -0.629250    6.930500
  C     -2.784320    0.053210    6.845370
  O     -3.842130   -0.138840    7.375660
  N     -2.538390    1.080920    5.916630
  C     -0.834470   -1.749040    7.397520
  O      0.446760   -1.762940    6.922440
  C      0.652970   -0.705130    6.058030
  O      1.696510   -0.553840    5.474540
  C     -1.289070   -2.874560    8.143110
  N     -2.172370   -2.783460    9.116450
  C     -2.270290   -4.022750    9.641330
  C     -1.375530   -4.968290    8.946270
  C     -1.493650   -6.323330    9.523610
  O     -0.921930   -7.334590    9.194590
  C     -2.486100   -6.119300   10.597980
  C     -2.929410   -4.702780   10.633880
  N     -3.851930   -4.518370   11.609480
  C     -4.012670   -5.694860   12.158710
  C     -3.195210   -6.743510   11.569610
  C     -0.764840   -4.257240    7.954370
  C      0.130140   -4.655060    6.911610
  C      0.082030   -4.090980    5.681080
  C      1.093620   -4.258900    4.702030
  C      1.231500   -3.437070    3.620930
  C      2.299060   -3.467540    2.633190
  C      3.371690   -4.316860    2.606630
  C      4.391360   -4.277470    1.635000
  N      5.255860   -4.320260    0.879930
  C      3.632850   -5.351790    3.530890
  N      3.919440   -6.223120    4.221280
  C      2.051020   -2.397150    1.674190
  C      0.880670   -1.692450    2.070350
  C      0.335810   -2.296110    3.296240
  O     -0.639280   -1.903790    3.910430
  C      0.404130   -0.625370    1.363100
  C      1.109430   -0.183990    0.221950
  C      2.291930   -0.874080   -0.173210
  C      2.735150   -2.001610    0.554890
  C      3.013180   -0.398150   -1.287590
  C      2.598840    0.714930   -1.966500
  C      1.423600    1.381940   -1.589720
  C      0.687430    0.931470   -0.528360
  H      6.484490   -2.431020    0.757760
  H      6.576870    1.906350   -1.709960
  H      8.044100    0.911740   -3.376310
  H      9.291700   -1.026130   -4.242430
  H      9.243050   -3.176150   -3.042780
  H      7.947290   -3.402970   -0.952980
  H      2.835330    0.564200    3.127710
  H     -0.180370    7.031230   -1.947770
  H     -2.074770    6.678830   -0.054840
  H      1.096860    1.060700    4.268310
  H     -1.532600    2.625390    3.951990
  H     -3.257990    1.722500    5.616160
  H     -4.700500   -5.823960   12.976370
  H     -3.185800   -7.771160   11.874370
  H      0.864230   -5.414130    7.150210
  H     -0.724210   -3.412780    5.440380
  H      1.831350   -5.028860    4.885630
  H     -0.497110   -0.118260    1.676310
  H      3.616460   -2.519330    0.211390
  H      3.906260   -0.926950   -1.589110
  H      3.170000    1.083450   -2.805010
  H      1.108060    2.254110   -2.141530
  H     -0.226000    1.432520   -0.238880

 Total Charge           Charge          ....    0
 Multiplicity           Mult            ....    1
 Number of Electrons    NEL             ....  514
 Basis Dimension        Dim             .... 1207

ORBITAL ENERGIES
----------------

  NO   OCC          E(Eh)            E(eV)
   0   2.0000     -19.290982      -524.9343
   1   2.0000     -19.237604      -523.4818
   2   2.0000     -19.230249      -523.2817
   3   2.0000     -19.225974      -523.1653
   4   2.0000     -19.217394      -522.9319
   5   2.0000     -19.216658      -522.9118
   6   2.0000     -19.214727      -522.8593
   7   2.0000     -14.476201      -393.9174
   8   2.0000     -14.434803      -392.7910
   9   2.0000     -14.428736      -392.6259
  10   2.0000     -14.425155      -392.5284
  11   2.0000     -14.422379      -392.4529
  12   2.0000     -14.420491      -392.4015
  13   2.0000     -14.418849      -392.3568
  14   2.0000     -14.417751      -392.3270
  15   2.0000     -14.410993      -392.1431
  16   2.0000     -10.416341      -283.4431
  17   2.0000     -10.404797      -283.1289
  18   2.0000     -10.397072      -282.9187
  19   2.0000     -10.379649      -282.4446
  20   2.0000     -10.375931      -282.3434
  21   2.0000     -10.375672      -282.3364
  22   2.0000     -10.371527      -282.2236
  23   2.0000     -10.371223      -282.2153
  24   2.0000     -10.363558      -282.0067
  25   2.0000     -10.355948      -281.7997
  26   2.0000     -10.355285      -281.7816
  27   2.0000     -10.353978      -281.7461
  28   2.0000     -10.349658      -281.6285
  29   2.0000     -10.349170      -281.6152
  30   2.0000     -10.346003      -281.5291
  31   2.0000     -10.344503      -281.4882
  32   2.0000     -10.343033      -281.4482
  33   2.0000     -10.338465      -281.3239
  34   2.0000     -10.333281      -281.1829
  35   2.0000     -10.332413      -281.1593
  36   2.0000     -10.327444      -281.0240
  37   2.0000     -10.327415      -281.0233
  38   2.0000     -10.327365      -281.0219
  39   2.0000     -10.325861      -280.9810
  40   2.0000     -10.324083      -280.9326
  41   2.0000     -10.322660      -280.8939
  42   2.0000     -10.320095      -280.8241
  43   2.0000     -10.318628      -280.7841
  44   2.0000     -10.318481      -280.7801
  45   2.0000     -10.317579      -280.7556
  46   2.0000     -10.313234      -280.6374
  47   2.0000     -10.313139      -280.6348
  48   2.0000     -10.312114      -280.6069
  49   2.0000     -10.311548      -280.5915
  50   2.0000     -10.310592      -280.5655
  51   2.0000     -10.307786      -280.4891
  52   2.0000     -10.307168      -280.4723
  53   2.0000     -10.305248      -280.4201
  54   2.0000     -10.304811      -280.4082
  55   2.0000     -10.304186      -280.3912
  56   2.0000     -10.303394      -280.3696
  57   2.0000     -10.303367      -280.3689
  58   2.0000     -10.303015      -280.3593
  59   2.0000     -10.302583      -280.3475
  60   2.0000     -10.301203      -280.3100
  61   2.0000     -10.301045      -280.3057
  62   2.0000     -10.300385      -280.2877
  63   2.0000     -10.298913      -280.2477
  64   2.0000     -10.295998      -280.1683
  65   2.0000     -10.295801      -280.1630
  66   2.0000     -10.295587      -280.1572
  67   2.0000     -10.294316      -280.1226
  68   2.0000     -10.292779      -280.0808
  69   2.0000     -10.292214      -280.0654
  70   2.0000     -10.291872      -280.0561
  71   2.0000     -10.291543      -280.0471
  72   2.0000     -10.290308      -280.0135
  73   2.0000     -10.290268      -280.0124
  74   2.0000     -10.288862      -279.9742
  75   2.0000     -10.288082      -279.9530
  76   2.0000     -10.287542      -279.9382
  77   2.0000     -10.287292      -279.9315
  78   2.0000      -1.224318       -33.3154
  79   2.0000      -1.155254       -31.4361
  80   2.0000      -1.151903       -31.3449
  81   2.0000      -1.145293       -31.1650
  82   2.0000      -1.139577       -31.0095
  83   2.0000      -1.130514       -30.7628
  84   2.0000      -1.126476       -30.6530
  85   2.0000      -1.102992       -30.0139
  86   2.0000      -1.085762       -29.5451
  87   2.0000      -1.083466       -29.4826
  88   2.0000      -1.081263       -29.4226
  89   2.0000      -1.066334       -29.0164
  90   2.0000      -1.025480       -27.9047
  91   2.0000      -1.022829       -27.8326
  92   2.0000      -1.005809       -27.3695
  93   2.0000      -1.004376       -27.3304
  94   2.0000      -0.999806       -27.2061
  95   2.0000      -0.998673       -27.1753
  96   2.0000      -0.978575       -26.6284
  97   2.0000      -0.976824       -26.5807
  98   2.0000      -0.960702       -26.1420
  99   2.0000      -0.946244       -25.7486
 100   2.0000      -0.943897       -25.6847
 101   2.0000      -0.939092       -25.5540
 102   2.0000      -0.929857       -25.3027
 103   2.0000      -0.926856       -25.2210
 104   2.0000      -0.925148       -25.1746
 105   2.0000      -0.914232       -24.8775
 106   2.0000      -0.903500       -24.5855
 107   2.0000      -0.891715       -24.2648
 108   2.0000      -0.888227       -24.1699
 109   2.0000      -0.886462       -24.1219
 110   2.0000      -0.884984       -24.0816
 111   2.0000      -0.882086       -24.0028
 112   2.0000      -0.873446       -23.7677
 113   2.0000      -0.871411       -23.7123
 114   2.0000      -0.852437       -23.1960
 115   2.0000      -0.838933       -22.8285
 116   2.0000      -0.834967       -22.7206
 117   2.0000      -0.832553       -22.6549
 118   2.0000      -0.821554       -22.3556
 119   2.0000      -0.813441       -22.1349
 120   2.0000      -0.797206       -21.6931
 121   2.0000      -0.779326       -21.2065
 122   2.0000      -0.776165       -21.1205
 123   2.0000      -0.772236       -21.0136
 124   2.0000      -0.767409       -20.8823
 125   2.0000      -0.765370       -20.8268
 126   2.0000      -0.761658       -20.7258
 127   2.0000      -0.759411       -20.6646
 128   2.0000      -0.736435       -20.0394
 129   2.0000      -0.733509       -19.9598
 130   2.0000      -0.724572       -19.7166
 131   2.0000      -0.714372       -19.4391
 132   2.0000      -0.711152       -19.3514
 133   2.0000      -0.707429       -19.2501
 134   2.0000      -0.704461       -19.1694
 135   2.0000      -0.702529       -19.1168
 136   2.0000      -0.696762       -18.9599
 137   2.0000      -0.686593       -18.6832
 138   2.0000      -0.684689       -18.6313
 139   2.0000      -0.680975       -18.5303
 140   2.0000      -0.670106       -18.2345
 141   2.0000      -0.667729       -18.1698
 142   2.0000      -0.660385       -17.9700
 143   2.0000      -0.652740       -17.7620
 144   2.0000      -0.649017       -17.6607
 145   2.0000      -0.641139       -17.4463
 146   2.0000      -0.636933       -17.3318
 147   2.0000      -0.633670       -17.2430
 148   2.0000      -0.626712       -17.0537
 149   2.0000      -0.625161       -17.0115
 150   2.0000      -0.613476       -16.6935
 151   2.0000      -0.612744       -16.6736
 152   2.0000      -0.610143       -16.6028
 153   2.0000      -0.605103       -16.4657
 154   2.0000      -0.604049       -16.4370
 155   2.0000      -0.602376       -16.3915
 156   2.0000      -0.599110       -16.3026
 157   2.0000      -0.598479       -16.2854
 158   2.0000      -0.593344       -16.1457
 159   2.0000      -0.584303       -15.8997
 160   2.0000      -0.580389       -15.7932
 161   2.0000      -0.576577       -15.6895
 162   2.0000      -0.574050       -15.6207
 163   2.0000      -0.571259       -15.5447
 164   2.0000      -0.563197       -15.3254
 165   2.0000      -0.561635       -15.2829
 166   2.0000      -0.558474       -15.1968
 167   2.0000      -0.554617       -15.0919
 168   2.0000      -0.553523       -15.0621
 169   2.0000      -0.551407       -15.0046
 170   2.0000      -0.549838       -14.9619
 171   2.0000      -0.549082       -14.9413
 172   2.0000      -0.546958       -14.8835
 173   2.0000      -0.545567       -14.8456
 174   2.0000      -0.544797       -14.8247
 175   2.0000      -0.538809       -14.6617
 176   2.0000      -0.536433       -14.5971
 177   2.0000      -0.534957       -14.5569
 178   2.0000      -0.532202       -14.4820
 179   2.0000      -0.531226       -14.4554
 180   2.0000      -0.527536       -14.3550
 181   2.0000      -0.527241       -14.3470
 182   2.0000      -0.524884       -14.2828
 183   2.0000      -0.523544       -14.2464
 184   2.0000      -0.521258       -14.1842
 185   2.0000      -0.520339       -14.1592
 186   2.0000      -0.516411       -14.0523
 187   2.0000      -0.515001       -14.0139
 188   2.0000      -0.513806       -13.9814
 189   2.0000      -0.509929       -13.8759
 190   2.0000      -0.505799       -13.7635
 191   2.0000      -0.504564       -13.7299
 192   2.0000      -0.500171       -13.6103
 193   2.0000      -0.499508       -13.5923
 194   2.0000      -0.498422       -13.5627
 195   2.0000      -0.496862       -13.5203
 196   2.0000      -0.494792       -13.4640
 197   2.0000      -0.492473       -13.4009
 198   2.0000      -0.489610       -13.3230
 199   2.0000      -0.487554       -13.2670
 200   2.0000      -0.483493       -13.1565
 201   2.0000      -0.482496       -13.1294
 202   2.0000      -0.480918       -13.0864
 203   2.0000      -0.477459       -12.9923
 204   2.0000      -0.475017       -12.9259
 205   2.0000      -0.473573       -12.8866
 206   2.0000      -0.470527       -12.8037
 207   2.0000      -0.469408       -12.7733
 208   2.0000      -0.466675       -12.6989
 209   2.0000      -0.460351       -12.5268
 210   2.0000      -0.456584       -12.4243
 211   2.0000      -0.456184       -12.4134
 212   2.0000      -0.450066       -12.2469
 213   2.0000      -0.449054       -12.2194
 214   2.0000      -0.448183       -12.1957
 215   2.0000      -0.446891       -12.1605
 216   2.0000      -0.444652       -12.0996
 217   2.0000      -0.441562       -12.0155
 218   2.0000      -0.440119       -11.9763
 219   2.0000      -0.437966       -11.9177
 220   2.0000      -0.437157       -11.8956
 221   2.0000      -0.432543       -11.7701
 222   2.0000      -0.429944       -11.6994
 223   2.0000      -0.427589       -11.6353
 224   2.0000      -0.424683       -11.5562
 225   2.0000      -0.422145       -11.4871
 226   2.0000      -0.417878       -11.3710
 227   2.0000      -0.411970       -11.2103
 228   2.0000      -0.410575       -11.1723
 229   2.0000      -0.409007       -11.1296
 230   2.0000      -0.394768       -10.7422
 231   2.0000      -0.384434       -10.4610
 232   2.0000      -0.382251       -10.4016
 233   2.0000      -0.379554       -10.3282
 234   2.0000      -0.377813       -10.2808
 235   2.0000      -0.376598       -10.2478
 236   2.0000      -0.374516       -10.1911
 237   2.0000      -0.369595       -10.0572
 238   2.0000      -0.366215        -9.9652
 239   2.0000      -0.358554        -9.7567
 240   2.0000      -0.358350        -9.7512
 241   2.0000      -0.355758        -9.6807
 242   2.0000      -0.353070        -9.6075
 243   2.0000      -0.351583        -9.5671
 244   2.0000      -0.348440        -9.4815
 245   2.0000      -0.346102        -9.4179
 246   2.0000      -0.343680        -9.3520
 247   2.0000      -0.338696        -9.2164
 248   2.0000      -0.333755        -9.0819
 249   2.0000      -0.333346        -9.0708
 250   2.0000      -0.325131        -8.8473
 251   2.0000      -0.323528        -8.8036
 252   2.0000      -0.317971        -8.6524
 253   2.0000      -0.301801        -8.2124
 254   2.0000      -0.296669        -8.0728
 255   2.0000      -0.288162        -7.8413
 256   2.0000      -0.269736        -7.3399
 257   0.0000      -0.148020        -4.0278
 258   0.0000      -0.128198        -3.4885
 259   0.0000      -0.106717        -2.9039
 260   0.0000      -0.090094        -2.4516
 261   0.0000      -0.076167        -2.0726

MULLIKEN ATOMIC CHARGES
-----------------------
   0 C :    0.277478
   1 C :   -0.265767
   2 C :   -0.190141
   3 N :    0.164409
   4 C :   -0.181522
   5 N :    0.163963
   6 C :    0.058354
   7 C :   -0.024231
   8 C :   -0.054763
   9 C :    0.069055
  10 C :    0.104987
  11 C :   -0.103130
  12 C :   -0.024306
  13 C :    0.040334
  14 C :    0.036197
  15 C :   -0.007841
  16 C :    0.153674
  17 O :   -0.130249
  18 C :   -0.052810
  19 C :   -0.018011
  20 C :    0.052978
  21 N :   -0.053070
  22 C :    0.073021
  23 C :   -0.150982
  24 C :    0.223181
  25 O :   -0.135627
  26 C :   -0.011652
  27 C :   -0.015942
  28 N :   -0.052307
  29 C :    0.099632
  30 C :   -0.090938
  31 C :    0.066448
  32 C :   -0.024659
  33 C :    0.028134
  34 C :    0.115866
  35 C :   -0.123480
  36 C :    0.026468
  37 C :    0.155653
  38 O :   -0.101837
  39 N :   -0.114396
  40 C :    0.036604
  41 O :   -0.241244
  42 C :    0.262649
  43 O :   -0.177184
  44 C :   -0.017939
  45 N :   -0.005167
  46 C :    0.070336
  47 C :   -0.115038
  48 C :    0.209085
  49 O :   -0.113011
  50 C :   -0.049028
  51 C :   -0.004990
  52 N :   -0.044727
  53 C :    0.094927
  54 C :   -0.088108
  55 C :    0.018677
  56 C :    0.009079
  57 C :    0.019707
  58 C :   -0.035607
  59 C :   -0.051413
  60 C :    0.346546
  61 C :   -0.345906
  62 C :   -0.138556
  63 N :    0.118124
  64 C :   -0.202677
  65 N :    0.156297
  66 C :    0.062962
  67 C :    0.013887
  68 C :    0.163333
  69 O :   -0.179135
  70 C :   -0.119021
  71 C :    0.101602
  72 C :    0.071819
  73 C :   -0.069920
  74 C :   -0.008933
  75 C :    0.032913
  76 C :    0.054788
  77 C :   -0.020023
  78 H :   -0.004444
  79 H :   -0.007191
  80 H :   -0.011591
  81 H :   -0.002743
  82 H :   -0.002165
  83 H :    0.000096
  84 H :    0.033822
  85 H :    0.022089
  86 H :    0.003995
  87 H :    0.009011
  88 H :   -0.016948
  89 H :    0.141387
  90 H :    0.015728
  91 H :   -0.000511
  92 H :    0.035633
  93 H :    0.042450
  94 H :    0.020805
  95 H :   -0.016879
  96 H :   -0.016870
  97 H :   -0.011136
  98 H :   -0.004324
  99 H :   -0.001175
 100 H :   -0.026915
Sum of atomic charges:   -0.0000000

LOEWDIN ATOMIC CHARGES
----------------------
   0 C :    0.060232
   1 C :   -0.092851
   2 C :   -0.014461
   3 N :   -0.038134
   4 C :   -0.014831
   5 N :   -0.047822
   6 C :   -0.018744
   7 C :   -0.070434
   8 C :    0.045429
   9 C :   -0.012314
  10 C :   -0.003911
  11 C :    0.008339
  12 C :   -0.011045
  13 C :   -0.007471
  14 C :   -0.012663
  15 C :    0.001677
  16 C :    0.087342
  17 O :   -0.123892
  18 C :   -0.003920
  19 C :    0.023284
  20 C :    0.071098
  21 N :   -0.064238
  22 C :    0.047846
  23 C :   -0.028338
  24 C :    0.070484
  25 O :   -0.135727
  26 C :   -0.038189
  27 C :    0.036502
  28 N :   -0.092902
  29 C :    0.089567
  30 C :   -0.024462
  31 C :   -0.027712
  32 C :    0.035886
  33 C :   -0.018959
  34 C :    0.101542
  35 C :   -0.131794
  36 C :   -0.055179
  37 C :    0.090253
  38 O :   -0.124935
  39 N :    0.033495
  40 C :    0.067488
  41 O :   -0.028811
  42 C :    0.099420
  43 O :   -0.168834
  44 C :    0.046634
  45 N :   -0.071219
  46 C :    0.040703
  47 C :   -0.027413
  48 C :    0.063978
  49 O :   -0.127507
  50 C :   -0.040345
  51 C :    0.037977
  52 N :   -0.091504
  53 C :    0.084543
  54 C :   -0.031007
  55 C :   -0.028962
  56 C :    0.033344
  57 C :   -0.015237
  58 C :    0.081429
  59 C :   -0.081882
  60 C :    0.085365
  61 C :   -0.129720
  62 C :    0.007757
  63 N :   -0.068837
  64 C :   -0.019850
  65 N :   -0.045865
  66 C :   -0.017735
  67 C :   -0.051698
  68 C :    0.094564
  69 O :   -0.154907
  70 C :    0.020978
  71 C :   -0.013809
  72 C :   -0.012302
  73 C :    0.019274
  74 C :   -0.008681
  75 C :   -0.009311
  76 C :   -0.002915
  77 C :   -0.016919
  78 H :    0.038842
  79 H :    0.038014
  80 H :    0.033809
  81 H :    0.033954
  82 H :    0.034040
  83 H :    0.039603
  84 H :    0.052006
  85 H :    0.028921
  86 H :    0.038564
  87 H :    0.036908
  88 H :    0.033613
  89 H :    0.098212
  90 H :    0.026094
  91 H :    0.036352
  92 H :    0.047094
  93 H :    0.030047
  94 H :    0.045848
  95 H :    0.035588
  96 H :    0.036478
  97 H :    0.034122
  98 H :    0.034053
  99 H :    0.034429
 100 H :    0.027178

  Mayer bond orders larger than 0.100000
B(  0-C ,  1-C ) :   1.7038 B(  0-C ,  6-C ) :   0.9955 B(  0-C , 18-C ) :   1.0136
B(  1-C ,  2-C ) :   1.1432 B(  1-C ,  4-C ) :   1.1520 B(  2-C ,  3-N ) :   2.9829
B(  4-C ,  5-N ) :   2.9797 B(  6-C ,  7-C ) :   1.1978 B(  6-C , 11-C ) :   1.4564
B(  7-C ,  8-C ) :   1.4446 B(  7-C , 16-C ) :   0.9433 B(  8-C ,  9-C ) :   1.2032
B(  8-C , 78-H ) :   1.0047 B(  9-C , 10-C ) :   1.2434 B(  9-C , 15-C ) :   1.2487
B( 10-C , 11-C ) :   1.1982 B( 10-C , 12-C ) :   1.2420 B( 11-C , 79-H ) :   0.9952
B( 12-C , 13-C ) :   1.4867 B( 12-C , 80-H ) :   0.9982 B( 13-C , 14-C ) :   1.2582
B( 13-C , 81-H ) :   0.9887 B( 14-C , 15-C ) :   1.4818 B( 14-C , 82-H ) :   0.9897
B( 15-C , 83-H ) :   0.9995 B( 16-C , 17-O ) :   2.2267 B( 16-C , 18-C ) :   0.9132
B( 18-C , 19-C ) :   1.6845 B( 19-C , 20-C ) :   1.0878 B( 19-C , 84-H ) :   0.9411
B( 20-C , 21-N ) :   1.5491 B( 20-C , 22-C ) :   0.1192 B( 20-C , 31-C ) :   1.0140
B( 21-N , 22-C ) :   1.3030 B( 22-C , 23-C ) :   1.0642 B( 22-C , 27-C ) :   1.4180
B( 23-C , 24-C ) :   0.8892 B( 23-C , 31-C ) :   1.5245 B( 24-C , 25-O ) :   2.1924
B( 24-C , 26-C ) :   0.9265 B( 26-C , 27-C ) :   1.0595 B( 26-C , 30-C ) :   1.6087
B( 27-C , 28-N ) :   1.3057 B( 28-N , 29-C ) :   1.6489 B( 29-C , 30-C ) :   1.0612
B( 29-C , 85-H ) :   0.9888 B( 30-C , 86-H ) :   1.0111 B( 31-C , 32-C ) :   1.1226
B( 32-C , 33-C ) :   1.5951 B( 32-C , 87-H ) :   0.9443 B( 33-C , 34-C ) :   1.1380
B( 33-C , 88-H ) :   0.9535 B( 34-C , 35-C ) :   1.3228 B( 34-C , 39-N ) :   1.2207
B( 35-C , 36-C ) :   1.2004 B( 35-C , 42-C ) :   1.0209 B( 36-C , 37-C ) :   0.8836
B( 36-C , 40-C ) :   1.4969 B( 37-C , 38-O ) :   2.2958 B( 37-C , 39-N ) :   1.0346
B( 39-N , 89-H ) :   0.9161 B( 40-C , 41-O ) :   1.1356 B( 40-C , 44-C ) :   1.0450
B( 41-O , 42-C ) :   1.0329 B( 42-C , 43-O ) :   2.0653 B( 43-O , 87-H ) :   0.1037
B( 44-C , 45-N ) :   1.6580 B( 44-C , 46-C ) :   0.1302 B( 44-C , 55-C ) :   1.0329
B( 45-N , 46-C ) :   1.3268 B( 46-C , 47-C ) :   1.0478 B( 46-C , 51-C ) :   1.4184
B( 47-C , 48-C ) :   0.8813 B( 47-C , 55-C ) :   1.5865 B( 48-C , 49-O ) :   2.3153
B( 48-C , 50-C ) :   0.8859 B( 50-C , 51-C ) :   1.0408 B( 50-C , 54-C ) :   1.6308
B( 51-C , 52-N ) :   1.3123 B( 52-N , 53-C ) :   1.6593 B( 53-C , 54-C ) :   1.0600
B( 53-C , 90-H ) :   0.9889 B( 54-C , 91-H ) :   1.0089 B( 55-C , 56-C ) :   1.0629
B( 56-C , 57-C ) :   1.6319 B( 56-C , 92-H ) :   0.9700 B( 57-C , 58-C ) :   1.1609
B( 57-C , 93-H ) :   0.9557 B( 58-C , 59-C ) :   1.5745 B( 58-C , 94-H ) :   0.9587
B( 59-C , 60-C ) :   1.0534 B( 59-C , 68-C ) :   0.9508 B( 60-C , 61-C ) :   1.6391
B( 60-C , 66-C ) :   0.9840 B( 61-C , 62-C ) :   1.1673 B( 61-C , 64-C ) :   1.1420
B( 62-C , 63-N ) :   2.8793 B( 64-C , 65-N ) :   2.9645 B( 66-C , 67-C ) :   1.2350
B( 66-C , 73-C ) :   1.4436 B( 67-C , 68-C ) :   0.9513 B( 67-C , 70-C ) :   1.4454
B( 68-C , 69-O ) :   2.1220 B( 70-C , 71-C ) :   1.1752 B( 70-C , 95-H ) :   1.0111
B( 71-C , 72-C ) :   1.2678 B( 71-C , 77-C ) :   1.2385 B( 72-C , 73-C ) :   1.2136
B( 72-C , 74-C ) :   1.2437 B( 73-C , 96-H ) :   0.9844 B( 74-C , 75-C ) :   1.4823
B( 74-C , 97-H ) :   0.9893 B( 75-C , 76-C ) :   1.2569 B( 75-C , 98-H ) :   0.9909
B( 76-C , 77-C ) :   1.4763 B( 76-C , 99-H ) :   0.9899 B( 77-C ,100-H ) :   0.9916

-----------------------------------------------------------------------------
         ABSORPTION SPECTRUM VIA TRANSITION ELECTRIC DIPOLE MOMENTS
-----------------------------------------------------------------------------
State   Energy  Wavelength   fosc         T2         TX        TY        TZ
        (cm-1)    (nm)                  (au**2)     (au)      (au)      (au)
-----------------------------------------------------------------------------
   0   12106.8    826.0   0.181704012   4.94096  -0.02194  -1.66276   1.47503
   1   14599.0    685.0   0.007057143   0.15914  -0.24712  -0.27042  -0.15795
   2   14773.9    676.9   0.340589845   7.58950   0.59554   2.07821  -1.70759
   3   16976.4    589.1   0.039985370   0.77541   0.87215  -0.11703  -0.03272
   4   17522.4    570.7   0.163660916   3.07488  -0.46546  -1.06968   1.30920
   5   18619.6    537.1   0.055448821   0.98039   0.24669  -0.88366   0.37240
   6   19604.4    510.1   0.121574634   2.04157   0.09695   0.72923  -1.22491
   7   20357.7    491.2   0.016090367   0.26020   0.43002  -0.06786  -0.26587
   8   20701.0    483.1   0.016882802   0.26849  -0.51209  -0.03181  -0.07244
   9   20895.5    478.6   0.006768402   0.10664   0.17807   0.18529  -0.20149
  10   21658.2    461.7   0.008751152   0.13302   0.29174  -0.16477   0.14408
  11   21943.4    455.7   0.037784974   0.56688  -0.63077   0.31541   0.26369
  12   22961.3    435.5   0.152119240   2.18103   1.05064  -0.25954  -1.00490
  13   23385.4    427.6   0.233664767   3.28946   0.81916  -1.49213   0.62607
  14   23650.3    422.8   0.306292521   4.26360   0.71225   0.67940  -1.81514
  15   23806.1    420.1   0.246419520   3.40771  -0.43906  -0.94808   1.52187
  16   24119.9    414.6   0.082921072   1.13179   0.73877  -0.16810  -0.74683
  17   24359.9    410.5   0.079116621   1.06922  -0.82715   0.61500   0.08262
  18   24794.1    403.3   0.176645933   2.34547   1.26522  -0.85925   0.07981
  19   24956.2    400.7   0.002446024   0.03227  -0.16265   0.05887   0.04843
  20   25083.2    398.7   0.035049002   0.46001  -0.39360   0.41496  -0.36456
  21   25862.5    386.7   0.192087529   2.44514   0.69827   0.50285  -1.30564
  22   25998.4    384.6   0.022624342   0.28649   0.07389   0.18054  -0.49843
  23   26257.3    380.8   0.007519629   0.09428  -0.14798  -0.13142   0.23476
  24   26298.3    380.3   0.020521941   0.25690  -0.36166   0.13687   0.32767
  25   26401.5    378.8   0.033768282   0.42107  -0.57860  -0.05459  -0.28863
  26   26877.9    372.1   0.041040039   0.50268  -0.40263  -0.32878   0.48214
  27   27299.3    366.3   0.006016337   0.07255   0.04949   0.26402  -0.01993
  28   27556.7    362.9   0.091000524   1.08716  -0.69919  -0.25793   0.72922
  29   27866.6    358.9   0.063111890   0.74559  -0.42090  -0.01351   0.75383
  30   27929.7    358.0   0.076469736   0.90136   0.33656   0.26827  -0.84624
  31   28121.9    355.6   0.052995867   0.62040   0.57359   0.26356  -0.47110
  32   28431.7    351.7   0.050599631   0.58590   0.67688  -0.07200  -0.35006
  33   28591.8    349.8   0.082133975   0.94571  -0.83539   0.39145   0.30755
  34   28954.9    345.4   0.237669926   2.70226   1.15994   0.05408  -1.16356
  35   29242.3    342.0   0.133306060   1.50077   0.73358  -0.17058  -0.96619
  36   29463.8    339.4   0.000552821   0.00618   0.01126   0.06346  -0.04498
  37   29602.9    337.8   0.090386185   1.00518  -0.26986  -0.70121   0.66383
  38   29858.7    334.9   0.037107852   0.40914   0.23474  -0.59285  -0.05062
  39   30032.7    333.0   0.255121518   2.79658   1.02643   0.65969  -1.14360
  40   30073.2    332.5   0.046496683   0.50900   0.17534  -0.33565   0.60464
  41   30387.6    329.1   0.032519346   0.35231   0.09401  -0.17408  -0.55961
  42   30423.1    328.7   0.003775268   0.04085   0.17324   0.05423   0.08888
  43   30639.7    326.4   0.053794634   0.57800   0.55206  -0.00470  -0.52270
  44   30935.1    323.3   0.172725464   1.83815   0.39115   0.16602  -1.28747
  45   31154.9    321.0   0.152730818   1.61390  -0.46623   1.08520  -0.46783
  46   31271.4    319.8   0.163664935   1.72299  -0.16071   1.08417  -0.72232
  47   31621.8    316.2   0.002944077   0.03065   0.15295   0.07908  -0.03165
  48   31831.0    314.2   0.097851401   1.01203  -0.46334   0.48981   0.74662
  49   31927.6    313.2   0.039315080   0.40539  -0.50540   0.38683   0.01777
  50   32060.2    311.9   0.402598418   4.13411   0.50186  -1.66581   1.05229
  51   32151.8    311.0   0.001200105   0.01229   0.03885   0.10364  -0.00617
  52   32200.0    310.6   0.058421147   0.59730  -0.30078   0.60057  -0.38229
  53   32294.6    309.6   0.089409532   0.91144   0.25278  -0.84374   0.36830
  54   32634.0    306.4   0.079896270   0.80599  -0.11069  -0.61494   0.64467
  55   33049.2    302.6   0.007166064   0.07138  -0.16906   0.20173  -0.04591
  56   33115.3    302.0   0.033738069   0.33540  -0.37413  -0.10904   0.42841
  57   33195.0    301.3   0.003611136   0.03581   0.15456  -0.02709   0.10578
  58   33677.8    296.9   0.135307016   1.32267   0.07660  -1.13276   0.18346
  59   33789.6    295.9   0.032701650   0.31861   0.18664   0.46109  -0.26678
  60   33950.0    294.6   0.011294707   0.10952   0.17972  -0.27771   0.01010
  61   33993.1    294.2   0.033271521   0.32222  -0.37191   0.35751   0.23684
  62   34162.4    292.7   0.029667764   0.28590   0.03723   0.16756  -0.50640
  63   34307.4    291.5   0.002317910   0.02224  -0.06852  -0.01768  -0.13128
  64   34328.7    291.3   0.008569055   0.08218  -0.18555   0.07012   0.20696
  65   34449.6    290.3   0.015078427   0.14409   0.06161   0.32954  -0.17806
  66   34529.8    289.6   0.113343847   1.08063   0.29815   0.43279  -0.89690
  67   34723.0    288.0   0.026279890   0.24916  -0.01474  -0.49308  -0.07627
  68   34868.8    286.8   0.018996757   0.17936  -0.28870   0.30949   0.01503
  69   34923.9    286.3   0.102441695   0.96567   0.41361  -0.67229   0.58534
  70   34971.9    285.9   0.017628562   0.16595   0.39397  -0.10337   0.00728
  71   35174.9    284.3   0.081146744   0.75947  -0.29939   0.31196  -0.75665
  72   35329.8    283.0   0.052938113   0.49329   0.16517   0.19008  -0.65565
  73   35647.3    280.5   0.296350721   2.73688   0.37617  -1.54126   0.46894
  74   35975.7    278.0   0.023203798   0.21234  -0.36508  -0.03122   0.27943
  75   36120.6    276.9   0.090373072   0.82368  -0.26429   0.86351  -0.09044
  76   36163.9    276.5   0.079481474   0.72355  -0.41377  -0.45171   0.59017
  77   36353.1    275.1   0.129745159   1.17497   0.35571  -1.02016  -0.08777
  78   36390.3    274.8   0.038105576   0.34473   0.27653  -0.24647  -0.45554
  79   36422.0    274.6   0.098649898   0.89168  -0.56349  -0.49771   0.57135
  80   36602.8    273.2   0.085294635   0.76715  -0.12440  -0.62088   0.60513
  81   36788.8    271.8   0.066346605   0.59372  -0.63344  -0.08362   0.43068
  82   36969.4    270.5   0.017643371   0.15711   0.28146  -0.23916   0.14385
  83   37155.9    269.1   0.032622367   0.28904   0.08124  -0.43791   0.30114
  84   37195.3    268.9   0.031224541   0.27637  -0.30527   0.39661  -0.16087
  85   37408.2    267.3   0.121821312   1.07209  -0.83496   0.58932   0.16624
  86   37526.1    266.5   0.063810853   0.55981   0.26985  -0.69191  -0.09081
  87   37712.4    265.2   0.052546427   0.45871   0.00442   0.66830  -0.10980
  88   37869.4    264.1   0.011664720   0.10141   0.20633  -0.24223  -0.01257
  89   37872.3    264.0   0.036422690   0.31661  -0.50246   0.24358   0.06935
  90   37919.1    263.7   0.014746357   0.12803   0.14441   0.26732  -0.18898
  91   37981.3    263.3   0.009964559   0.08637  -0.20924   0.20048  -0.04897
  92   38160.2    262.1   0.006478933   0.05589  -0.16210   0.16942   0.03029
  93   38186.2    261.9   0.030811410   0.26563   0.35083  -0.35312  -0.13361
  94   38324.7    260.9   0.027269231   0.23424  -0.34329   0.22067   0.26019
  95   38484.0    259.8   0.004613201   0.03946   0.08818  -0.12970   0.12192
  96   38649.0    258.7   0.022359931   0.19046   0.22868  -0.36060  -0.09018
  97   38661.5    258.7   0.004022849   0.03426  -0.02783  -0.16597   0.07704
  98   38790.7    257.8   0.072464254   0.61500  -0.24129   0.72702  -0.16795
  99   38899.9    257.1   0.062479169   0.52876   0.60689  -0.19803  -0.34819
 100   38998.6    256.4   0.022055148   0.18618   0.10669   0.33448  -0.25085
 101   39064.8    256.0   0.012018627   0.10128  -0.06444   0.21625  -0.22443
 102   39373.2    254.0   0.003097657   0.02590   0.11842  -0.01789  -0.10750
 103   39444.4    253.5   0.120484495   1.00559   0.80744  -0.12455  -0.58148
 104   39558.7    252.8   0.008716383   0.07254  -0.24113   0.11132   0.04477
 105   39623.6    252.4   0.012245442   0.10174  -0.19378   0.20872   0.14361
 106   39783.0    251.4   0.036073775   0.29852   0.17737  -0.02532  -0.51615
 107   40037.6    249.8   0.052344679   0.43041  -0.34468   0.14689   0.53854
 108   40216.3    248.7   0.013178353   0.10788   0.23131   0.03974  -0.22977
 109   40319.3    248.0   0.136422243   1.11391  -0.72739   0.00901   0.76467

FINAL SINGLE POINT ENERGY     -3391.298607981496

DIPOLE MOMENT
-------------
                                X             Y             Z
Electronic contribution:    -12.56950       0.90489      28.59021
Nuclear contribution   :     11.44705       0.00526     -31.43150
                        -----------------------------------------
Total Dipole Moment    :     -1.12245       0.91015      -2.84129
                        -----------------------------------------
Magnitude (a.u.)       :      3.18767
Magnitude (Debye)      :      8.10241

Rotational constants in cm-1:     0.001507     0.000599     0.000463
Rotational constants in MHz :    45.185741    17.963337    13.879105

                             ****ORCA TERMINATED NORMALLY****
TOTAL RUN TIME: 0 days 0 hours 20 minutes 36 seconds 107 msec
