                         Program Version 4.2.0 -  RELEASE  -
|  1> # ORCA input file
|  2> # SCF done       -210.406561877707          0.000776021508
|  3> ! CAM-B3LYP def2-SVP def2/J RIJCOSX Grid4 TightSCF
|  4> %maxcore 5000
|  5> %tddft
|  6>     Mode sTDDFT
|  7>     Ethresh 5.0
|  8>     maxcore 5000
|  9> end
| 10>
| 11> %pal
| 12>   nprocs 6
| 13>   end
| 14> * xyz 0 1
| 15>    C       -1.09384         4.79472        -8.01023
| 16>    C       -1.68805         3.88241        -7.17733
| 17>    C       -2.58647         2.88916        -7.61765
| 18>    N       -3.32732         2.06866        -7.92628
| 19>    C       -1.39403         3.77240        -5.80395
| 20>    N       -1.14954         3.62298        -4.69239
| 21>    C       -1.16574         4.77449        -9.46758
| 22>    C       -0.06578         5.51885        -9.98629
| 23>    C        0.14816         5.64075       -11.32886
| 24>    C       -0.74915         5.02252       -12.22875
| 25>    C       -1.86003         4.29167       -11.71663
| 26>    C       -2.05351         4.17661       -10.32065
| 27>    C       -2.75116         3.68565       -12.62526
| 28>    C       -2.55466         3.79223       -13.97519
| 29>    C       -1.46021         4.51108       -14.47854
| 30>    C       -0.57672         5.11284       -13.62397
| 31>    C        0.70632         6.08899        -8.86892
| 32>    O        1.73185         6.72840        -8.91552
| 33>    C       -0.08032         5.76181        -7.64316
| 34>    C        0.18922         6.43049        -6.49157
| 35>    C       -0.62082         6.58139        -5.33831
| 36>    S        0.10211         7.03510        -3.82242
| 37>    C       -1.42645         7.07335        -3.01666
| 38>    C       -2.44435         6.78432        -3.91418
| 39>    C       -1.99081         6.50064        -5.20834
| 40>    C       -3.90848         6.83708        -3.62076
| 41>    F       -4.39505         5.69570        -3.09624
| 42>    F       -4.24483         7.81810        -2.76745
| 43>    F       -4.62383         7.05516        -4.73747
| 44>    C       -1.46179         7.36987        -1.60275
| 45>    C       -0.51693         8.21731        -1.07534
| 46>    C       -0.51123         8.49303         0.30594
| 47>    C        0.33863         9.27796         1.06867
| 48>    C        1.49163        10.07860         0.56530
| 49>    C        1.47742        11.53069         1.07786
| 50>    N        2.03753        12.40272         0.06281
| 51>    C        2.82103         9.37236         0.89410
| 52>    N        2.93701         8.17544         0.08386
| 53>    C       -0.09339         9.13771         2.44171
| 54>    C        0.40590         9.62226         3.59270
| 55>    C       -0.21257         9.31938         4.91172
| 56>    C       -1.43967         8.45669         4.84491
| 57>    C       -1.91820         7.96748         3.68736
| 58>    C       -1.27468         8.25814         2.46058
| 59>    C       -1.51121         7.86414         1.16039
| 60>    C       -2.46252         6.98979         0.58424
| 61>    C       -2.43471         6.74885        -0.75016
| 62>    C       -0.54960        10.57400         5.67413
| 63>    C       -0.77309        11.75427         5.09004
| 64>    C       -1.10088        12.96457         5.78826
| 65>    S       -1.29702        14.43659         4.89556
| 66>    C       -1.55364        15.36621         6.34010
| 67>    C       -1.52884        14.53477         7.44470
| 68>    C       -1.27702        13.18991         7.13305
| 69>    C       -1.88254        14.89186         8.85444
| 70>    F       -2.28243        16.15619         9.03908
| 71>    F       -2.91439        14.12444         9.27606
| 72>    F       -0.89151        14.66087         9.72290
| 73>    C       -1.76900        16.77565         6.21274
| 74>    C       -1.20657        17.72239         7.00165
| 75>    C       -1.46779        19.15256         6.99669
| 76>    C       -2.48709        19.78710         6.33941
| 77>    C       -2.71775        21.17850         6.39273
| 78>    N       -2.95109        22.30211         6.38765
| 79>    C       -3.44854        19.14564         5.52997
| 80>    N       -4.26350        18.68886         4.86297
| 81>    C       -0.49344        19.78167         7.87782
| 82>    C        0.34255        18.77209         8.43709
| 83>    C       -0.06019        17.45695         7.92289
| 84>    O        0.47682        16.39066         8.12381
| 85>    C        1.34793        19.06865         9.31238
| 86>    C        1.56532        20.41471         9.68041
| 87>    C        0.73789        21.43209         9.12163
| 88>    C       -0.29219        21.09508         8.21451
| 89>    C        0.96689        22.77294         9.49284
| 90>    C        1.96257        23.09478        10.37445
| 91>    C        2.77547        22.09225        10.92479
| 92>    C        2.58089        20.78079        10.58555
| 93>    H        0.99194         6.20251       -11.70111
| 94>    H       -2.90791         3.62561        -9.95954
| 95>    H       -3.59060         3.13072       -12.23284
| 96>    H       -3.24172         3.32245       -14.66301
| 97>    H       -1.32073         4.58579       -15.54660
| 98>    H        0.26788         5.66771       -14.00562
| 99>    H        1.12847         6.97510        -6.48613
|100>    H       -2.65532         6.29883        -6.02976
|101>    H        0.22153         8.67536        -1.71692
|102>    H        1.42193        10.13201        -0.52432
|103>    H        2.00802        11.59389         2.04373
|104>    H        0.44218        11.84513         1.23988
|105>    H        3.00560        12.16281        -0.12085
|106>    H        2.00419        13.37110         0.35985
|107>    H        2.86824         9.17777         1.98049
|108>    H        3.65730        10.02677         0.63041
|109>    H        2.17420         7.53787         0.28718
|110>    H        3.80938         7.69449         0.27020
|111>    H        1.28407        10.25157         3.61996
|112>    H        0.54285         8.77984         5.50745
|113>    H       -1.92293         8.24838         5.78671
|114>    H       -2.79839         7.34144         3.67919
|115>    H       -3.19130         6.50349         1.21475
|116>    H       -3.12580         6.04360        -1.17953
|117>    H       -0.64587        10.46086         6.74368
|118>    H       -0.69708        11.84456         4.01452
|119>    H       -1.23293        12.42277         7.88405
|120>    H       -2.38852        17.07094         5.37514
|121>    H        1.96468        18.28298         9.72265
|122>    H       -0.89757        21.88845         7.80579
|123>    H        0.33766        23.54108         9.06789
|124>    H        2.12949        24.12439        10.65299
|125>    H        3.55697        22.36462        11.61770
|126>    H        3.20359        20.00456        11.00518
|127> *
|128>
|129>                          ****END OF INPUT****

CARTESIAN COORDINATES (ANGSTROEM)
---------------------------------
  C     -1.093840    4.794720   -8.010230
  C     -1.688050    3.882410   -7.177330
  C     -2.586470    2.889160   -7.617650
  N     -3.327320    2.068660   -7.926280
  C     -1.394030    3.772400   -5.803950
  N     -1.149540    3.622980   -4.692390
  C     -1.165740    4.774490   -9.467580
  C     -0.065780    5.518850   -9.986290
  C      0.148160    5.640750  -11.328860
  C     -0.749150    5.022520  -12.228750
  C     -1.860030    4.291670  -11.716630
  C     -2.053510    4.176610  -10.320650
  C     -2.751160    3.685650  -12.625260
  C     -2.554660    3.792230  -13.975190
  C     -1.460210    4.511080  -14.478540
  C     -0.576720    5.112840  -13.623970
  C      0.706320    6.088990   -8.868920
  O      1.731850    6.728400   -8.915520
  C     -0.080320    5.761810   -7.643160
  C      0.189220    6.430490   -6.491570
  C     -0.620820    6.581390   -5.338310
  S      0.102110    7.035100   -3.822420
  C     -1.426450    7.073350   -3.016660
  C     -2.444350    6.784320   -3.914180
  C     -1.990810    6.500640   -5.208340
  C     -3.908480    6.837080   -3.620760
  F     -4.395050    5.695700   -3.096240
  F     -4.244830    7.818100   -2.767450
  F     -4.623830    7.055160   -4.737470
  C     -1.461790    7.369870   -1.602750
  C     -0.516930    8.217310   -1.075340
  C     -0.511230    8.493030    0.305940
  C      0.338630    9.277960    1.068670
  C      1.491630   10.078600    0.565300
  C      1.477420   11.530690    1.077860
  N      2.037530   12.402720    0.062810
  C      2.821030    9.372360    0.894100
  N      2.937010    8.175440    0.083860
  C     -0.093390    9.137710    2.441710
  C      0.405900    9.622260    3.592700
  C     -0.212570    9.319380    4.911720
  C     -1.439670    8.456690    4.844910
  C     -1.918200    7.967480    3.687360
  C     -1.274680    8.258140    2.460580
  C     -1.511210    7.864140    1.160390
  C     -2.462520    6.989790    0.584240
  C     -2.434710    6.748850   -0.750160
  C     -0.549600   10.574000    5.674130
  C     -0.773090   11.754270    5.090040
  C     -1.100880   12.964570    5.788260
  S     -1.297020   14.436590    4.895560
  C     -1.553640   15.366210    6.340100
  C     -1.528840   14.534770    7.444700
  C     -1.277020   13.189910    7.133050
  C     -1.882540   14.891860    8.854440
  F     -2.282430   16.156190    9.039080
  F     -2.914390   14.124440    9.276060
  F     -0.891510   14.660870    9.722900
  C     -1.769000   16.775650    6.212740
  C     -1.206570   17.722390    7.001650
  C     -1.467790   19.152560    6.996690
  C     -2.487090   19.787100    6.339410
  C     -2.717750   21.178500    6.392730
  N     -2.951090   22.302110    6.387650
  C     -3.448540   19.145640    5.529970
  N     -4.263500   18.688860    4.862970
  C     -0.493440   19.781670    7.877820
  C      0.342550   18.772090    8.437090
  C     -0.060190   17.456950    7.922890
  O      0.476820   16.390660    8.123810
  C      1.347930   19.068650    9.312380
  C      1.565320   20.414710    9.680410
  C      0.737890   21.432090    9.121630
  C     -0.292190   21.095080    8.214510
  C      0.966890   22.772940    9.492840
  C      1.962570   23.094780   10.374450
  C      2.775470   22.092250   10.924790
  C      2.580890   20.780790   10.585550
  H      0.991940    6.202510  -11.701110
  H     -2.907910    3.625610   -9.959540
  H     -3.590600    3.130720  -12.232840
  H     -3.241720    3.322450  -14.663010
  H     -1.320730    4.585790  -15.546600
  H      0.267880    5.667710  -14.005620
  H      1.128470    6.975100   -6.486130
  H     -2.655320    6.298830   -6.029760
  H      0.221530    8.675360   -1.716920
  H      1.421930   10.132010   -0.524320
  H      2.008020   11.593890    2.043730
  H      0.442180   11.845130    1.239880
  H      3.005600   12.162810   -0.120850
  H      2.004190   13.371100    0.359850
  H      2.868240    9.177770    1.980490
  H      3.657300   10.026770    0.630410
  H      2.174200    7.537870    0.287180
  H      3.809380    7.694490    0.270200
  H      1.284070   10.251570    3.619960
  H      0.542850    8.779840    5.507450
  H     -1.922930    8.248380    5.786710
  H     -2.798390    7.341440    3.679190
  H     -3.191300    6.503490    1.214750
  H     -3.125800    6.043600   -1.179530
  H     -0.645870   10.460860    6.743680
  H     -0.697080   11.844560    4.014520
  H     -1.232930   12.422770    7.884050
  H     -2.388520   17.070940    5.375140
  H      1.964680   18.282980    9.722650
  H     -0.897570   21.888450    7.805790
  H      0.337660   23.541080    9.067890
  H      2.129490   24.124390   10.652990
  H      3.556970   22.364620   11.617700
  H      3.203590   20.004560   11.005180

 Total Charge           Charge          ....    0
 Multiplicity           Mult            ....    1
 Number of Electrons    NEL             ....  550
 Basis Dimension        Dim             .... 1270

ORBITAL ENERGIES
----------------

  NO   OCC          E(Eh)            E(eV)
   0   2.0000     -88.978078     -2421.2166
   1   2.0000     -88.970957     -2421.0228
   2   2.0000     -24.803758      -674.9446
   3   2.0000     -24.794973      -674.7055
   4   2.0000     -24.793970      -674.6782
   5   2.0000     -24.792939      -674.6502
   6   2.0000     -24.791964      -674.6236
   7   2.0000     -24.791097      -674.6000
   8   2.0000     -19.218598      -522.9646
   9   2.0000     -19.210926      -522.7559
  10   2.0000     -14.419367      -392.3709
  11   2.0000     -14.418456      -392.3461
  12   2.0000     -14.412078      -392.1726
  13   2.0000     -14.411218      -392.1492
  14   2.0000     -14.381518      -391.3410
  15   2.0000     -14.378335      -391.2544
  16   2.0000     -10.519290      -286.2444
  17   2.0000     -10.515414      -286.1390
  18   2.0000     -10.370289      -282.1899
  19   2.0000     -10.362318      -281.9730
  20   2.0000     -10.347065      -281.5579
  21   2.0000     -10.344226      -281.4807
  22   2.0000     -10.339748      -281.3589
  23   2.0000     -10.338606      -281.3278
  24   2.0000     -10.328451      -281.0514
  25   2.0000     -10.328153      -281.0433
  26   2.0000     -10.326383      -280.9952
  27   2.0000     -10.325390      -280.9682
  28   2.0000     -10.321523      -280.8629
  29   2.0000     -10.320834      -280.8442
  30   2.0000     -10.319667      -280.8124
  31   2.0000     -10.314683      -280.6768
  32   2.0000     -10.314454      -280.6706
  33   2.0000     -10.312391      -280.6144
  34   2.0000     -10.311320      -280.5853
  35   2.0000     -10.308370      -280.5050
  36   2.0000     -10.306521      -280.4547
  37   2.0000     -10.306043      -280.4417
  38   2.0000     -10.305430      -280.4250
  39   2.0000     -10.301628      -280.3215
  40   2.0000     -10.301082      -280.3067
  41   2.0000     -10.300842      -280.3002
  42   2.0000     -10.300724      -280.2970
  43   2.0000     -10.300103      -280.2801
  44   2.0000     -10.299974      -280.2766
  45   2.0000     -10.299016      -280.2505
  46   2.0000     -10.298666      -280.2410
  47   2.0000     -10.297807      -280.2176
  48   2.0000     -10.295351      -280.1507
  49   2.0000     -10.295236      -280.1476
  50   2.0000     -10.295013      -280.1415
  51   2.0000     -10.294639      -280.1314
  52   2.0000     -10.294403      -280.1250
  53   2.0000     -10.294072      -280.1159
  54   2.0000     -10.292441      -280.0715
  55   2.0000     -10.291896      -280.0567
  56   2.0000     -10.289596      -279.9941
  57   2.0000     -10.289074      -279.9799
  58   2.0000     -10.288863      -279.9742
  59   2.0000     -10.288620      -279.9676
  60   2.0000     -10.288351      -279.9603
  61   2.0000     -10.287909      -279.9482
  62   2.0000     -10.286519      -279.9104
  63   2.0000     -10.284221      -279.8479
  64   2.0000     -10.283778      -279.8358
  65   2.0000     -10.283533      -279.8292
  66   2.0000     -10.282996      -279.8145
  67   2.0000     -10.282357      -279.7971
  68   2.0000     -10.279146      -279.7098
  69   2.0000     -10.278160      -279.6830
  70   2.0000     -10.276817      -279.6464
  71   2.0000     -10.271788      -279.5096
  72   2.0000     -10.270469      -279.4737
  73   2.0000     -10.270373      -279.4710
  74   2.0000     -10.268098      -279.4091
  75   2.0000     -10.267996      -279.4064
  76   2.0000     -10.267404      -279.3903
  77   2.0000     -10.266207      -279.3577
  78   2.0000      -8.074029      -219.7055
  79   2.0000      -8.066530      -219.5015
  80   2.0000      -6.043182      -164.4433
  81   2.0000      -6.039094      -164.3321
  82   2.0000      -6.036255      -164.2548
  83   2.0000      -6.035720      -164.2403
  84   2.0000      -6.031507      -164.1256
  85   2.0000      -6.028825      -164.0527
  86   2.0000      -1.387691       -37.7610
  87   2.0000      -1.383498       -37.6469
  88   2.0000      -1.293200       -35.1898
  89   2.0000      -1.285924       -34.9918
  90   2.0000      -1.283401       -34.9231
  91   2.0000      -1.282533       -34.8995
  92   2.0000      -1.135248       -30.8917
  93   2.0000      -1.126270       -30.6474
  94   2.0000      -1.021904       -27.8074
  95   2.0000      -1.016497       -27.6603
  96   2.0000      -1.011318       -27.5194
  97   2.0000      -1.006052       -27.3761
  98   2.0000      -1.001618       -27.2554
  99   2.0000      -0.997244       -27.1364
 100   2.0000      -0.995086       -27.0777
 101   2.0000      -0.990553       -26.9543
 102   2.0000      -0.989032       -26.9129
 103   2.0000      -0.974551       -26.5189
 104   2.0000      -0.969828       -26.3904
 105   2.0000      -0.968632       -26.3578
 106   2.0000      -0.955088       -25.9893
 107   2.0000      -0.952913       -25.9301
 108   2.0000      -0.930955       -25.3326
 109   2.0000      -0.926719       -25.2173
 110   2.0000      -0.920734       -25.0544
 111   2.0000      -0.912616       -24.8336
 112   2.0000      -0.903184       -24.5769
 113   2.0000      -0.895418       -24.3656
 114   2.0000      -0.884642       -24.0723
 115   2.0000      -0.882392       -24.0111
 116   2.0000      -0.879968       -23.9451
 117   2.0000      -0.879191       -23.9240
 118   2.0000      -0.878064       -23.8933
 119   2.0000      -0.871420       -23.7125
 120   2.0000      -0.859746       -23.3949
 121   2.0000      -0.844314       -22.9750
 122   2.0000      -0.840080       -22.8598
 123   2.0000      -0.834565       -22.7097
 124   2.0000      -0.831562       -22.6279
 125   2.0000      -0.825742       -22.4696
 126   2.0000      -0.823505       -22.4087
 127   2.0000      -0.806210       -21.9381
 128   2.0000      -0.793164       -21.5831
 129   2.0000      -0.791104       -21.5270
 130   2.0000      -0.774549       -21.0766
 131   2.0000      -0.765441       -20.8287
 132   2.0000      -0.765082       -20.8189
 133   2.0000      -0.761379       -20.7182
 134   2.0000      -0.756997       -20.5989
 135   2.0000      -0.741062       -20.1653
 136   2.0000      -0.726531       -19.7699
 137   2.0000      -0.721838       -19.6422
 138   2.0000      -0.717725       -19.5303
 139   2.0000      -0.710125       -19.3235
 140   2.0000      -0.705934       -19.2094
 141   2.0000      -0.701517       -19.0893
 142   2.0000      -0.699456       -19.0332
 143   2.0000      -0.697711       -18.9857
 144   2.0000      -0.693506       -18.8713
 145   2.0000      -0.693198       -18.8629
 146   2.0000      -0.685090       -18.6422
 147   2.0000      -0.683008       -18.5856
 148   2.0000      -0.679685       -18.4952
 149   2.0000      -0.673224       -18.3194
 150   2.0000      -0.669115       -18.2075
 151   2.0000      -0.668211       -18.1829
 152   2.0000      -0.665864       -18.1191
 153   2.0000      -0.663804       -18.0630
 154   2.0000      -0.661281       -17.9944
 155   2.0000      -0.650548       -17.7023
 156   2.0000      -0.647966       -17.6320
 157   2.0000      -0.640387       -17.4258
 158   2.0000      -0.635640       -17.2966
 159   2.0000      -0.634798       -17.2737
 160   2.0000      -0.629147       -17.1200
 161   2.0000      -0.619454       -16.8562
 162   2.0000      -0.610766       -16.6198
 163   2.0000      -0.608443       -16.5566
 164   2.0000      -0.604892       -16.4599
 165   2.0000      -0.604114       -16.4388
 166   2.0000      -0.599339       -16.3088
 167   2.0000      -0.587417       -15.9844
 168   2.0000      -0.584934       -15.9169
 169   2.0000      -0.581730       -15.8297
 170   2.0000      -0.579747       -15.7757
 171   2.0000      -0.568780       -15.4773
 172   2.0000      -0.564988       -15.3741
 173   2.0000      -0.562335       -15.3019
 174   2.0000      -0.560663       -15.2564
 175   2.0000      -0.555917       -15.1273
 176   2.0000      -0.552582       -15.0365
 177   2.0000      -0.551597       -15.0097
 178   2.0000      -0.550315       -14.9748
 179   2.0000      -0.548222       -14.9179
 180   2.0000      -0.545882       -14.8542
 181   2.0000      -0.543928       -14.8010
 182   2.0000      -0.543063       -14.7775
 183   2.0000      -0.542898       -14.7730
 184   2.0000      -0.541191       -14.7266
 185   2.0000      -0.539214       -14.6727
 186   2.0000      -0.537265       -14.6197
 187   2.0000      -0.533596       -14.5199
 188   2.0000      -0.529880       -14.4188
 189   2.0000      -0.528395       -14.3784
 190   2.0000      -0.526205       -14.3188
 191   2.0000      -0.523127       -14.2350
 192   2.0000      -0.521471       -14.1899
 193   2.0000      -0.518119       -14.0987
 194   2.0000      -0.515996       -14.0410
 195   2.0000      -0.515657       -14.0317
 196   2.0000      -0.514286       -13.9944
 197   2.0000      -0.513104       -13.9623
 198   2.0000      -0.512207       -13.9379
 199   2.0000      -0.509913       -13.8754
 200   2.0000      -0.509293       -13.8586
 201   2.0000      -0.508662       -13.8414
 202   2.0000      -0.506517       -13.7830
 203   2.0000      -0.506235       -13.7753
 204   2.0000      -0.504716       -13.7340
 205   2.0000      -0.498975       -13.5778
 206   2.0000      -0.497969       -13.5504
 207   2.0000      -0.496710       -13.5162
 208   2.0000      -0.495113       -13.4727
 209   2.0000      -0.494333       -13.4515
 210   2.0000      -0.493065       -13.4170
 211   2.0000      -0.492373       -13.3982
 212   2.0000      -0.490368       -13.3436
 213   2.0000      -0.488405       -13.2902
 214   2.0000      -0.485981       -13.2242
 215   2.0000      -0.481540       -13.1034
 216   2.0000      -0.480656       -13.0793
 217   2.0000      -0.480321       -13.0702
 218   2.0000      -0.479456       -13.0466
 219   2.0000      -0.475259       -12.9325
 220   2.0000      -0.472885       -12.8678
 221   2.0000      -0.470379       -12.7997
 222   2.0000      -0.468212       -12.7407
 223   2.0000      -0.463388       -12.6094
 224   2.0000      -0.462465       -12.5843
 225   2.0000      -0.457091       -12.4381
 226   2.0000      -0.451932       -12.2977
 227   2.0000      -0.448817       -12.2129
 228   2.0000      -0.447432       -12.1752
 229   2.0000      -0.446025       -12.1370
 230   2.0000      -0.444043       -12.0830
 231   2.0000      -0.442619       -12.0443
 232   2.0000      -0.441069       -12.0021
 233   2.0000      -0.440542       -11.9878
 234   2.0000      -0.437401       -11.9023
 235   2.0000      -0.436820       -11.8865
 236   2.0000      -0.436588       -11.8802
 237   2.0000      -0.434836       -11.8325
 238   2.0000      -0.431513       -11.7421
 239   2.0000      -0.429996       -11.7008
 240   2.0000      -0.429473       -11.6865
 241   2.0000      -0.427895       -11.6436
 242   2.0000      -0.423807       -11.5324
 243   2.0000      -0.422930       -11.5085
 244   2.0000      -0.422067       -11.4850
 245   2.0000      -0.419183       -11.4066
 246   2.0000      -0.414444       -11.2776
 247   2.0000      -0.413147       -11.2423
 248   2.0000      -0.411792       -11.2054
 249   2.0000      -0.411006       -11.1841
 250   2.0000      -0.405003       -11.0207
 251   2.0000      -0.397433       -10.8147
 252   2.0000      -0.396948       -10.8015
 253   2.0000      -0.395683       -10.7671
 254   2.0000      -0.390624       -10.6294
 255   2.0000      -0.378836       -10.3087
 256   2.0000      -0.375671       -10.2225
 257   2.0000      -0.371769       -10.1163
 258   2.0000      -0.360785        -9.8175
 259   2.0000      -0.350822        -9.5463
 260   2.0000      -0.344574        -9.3763
 261   2.0000      -0.339594        -9.2408
 262   2.0000      -0.336720        -9.1626
 263   2.0000      -0.334854        -9.1118
 264   2.0000      -0.332183        -9.0392
 265   2.0000      -0.322321        -8.7708
 266   2.0000      -0.319649        -8.6981
 267   2.0000      -0.313099        -8.5198
 268   2.0000      -0.307958        -8.3800
 269   2.0000      -0.300621        -8.1803
 270   2.0000      -0.298351        -8.1185
 271   2.0000      -0.293085        -7.9753
 272   2.0000      -0.282487        -7.6869
 273   2.0000      -0.278447        -7.5769
 274   2.0000      -0.228451        -6.2165
 275   0.0000      -0.098064        -2.6685
 276   0.0000      -0.092829        -2.5260
 277   0.0000      -0.073046        -1.9877
 278   0.0000      -0.060968        -1.6590
 279   0.0000      -0.051685        -1.4064

MULLIKEN ATOMIC CHARGES
-----------------------
   0 C :    0.267252
   1 C :   -0.335198
   2 C :   -0.172320
   3 N :    0.150959
   4 C :   -0.201285
   5 N :    0.174418
   6 C :    0.032755
   7 C :    0.015645
   8 C :   -0.083585
   9 C :    0.095569
  10 C :    0.093774
  11 C :   -0.080851
  12 C :   -0.018047
  13 C :    0.036299
  14 C :    0.034198
  15 C :   -0.014989
  16 C :    0.136123
  17 O :   -0.143877
  18 C :   -0.134571
  19 C :    0.098323
  20 C :   -0.117499
  21 S :    0.186502
  22 C :   -0.083412
  23 C :   -0.077884
  24 C :    0.021156
  25 C :    0.517493
  26 F :   -0.158144
  27 F :   -0.156805
  28 F :   -0.160517
  29 C :    0.087988
  30 C :   -0.091692
  31 C :    0.043644
  32 C :   -0.075327
  33 C :   -0.037445
  34 C :    0.121865
  35 N :   -0.209014
  36 C :    0.166626
  37 N :   -0.229151
  38 C :    0.103400
  39 C :   -0.167918
  40 C :    0.172584
  41 C :   -0.031850
  42 C :    0.020945
  43 C :    0.014025
  44 C :    0.040281
  45 C :   -0.009003
  46 C :    0.003602
  47 C :   -0.100413
  48 C :    0.107175
  49 C :   -0.052870
  50 S :    0.163670
  51 C :   -0.130903
  52 C :    0.010441
  53 C :   -0.041864
  54 C :    0.522633
  55 F :   -0.155170
  56 F :   -0.174798
  57 F :   -0.154813
  58 C :   -0.022251
  59 C :   -0.061737
  60 C :    0.308283
  61 C :   -0.337324
  62 C :   -0.182431
  63 N :    0.152808
  64 C :   -0.199308
  65 N :    0.163136
  66 C :    0.054546
  67 C :   -0.014343
  68 C :    0.141404
  69 O :   -0.143405
  70 C :   -0.072157
  71 C :    0.096775
  72 C :    0.094639
  73 C :   -0.081257
  74 C :   -0.018408
  75 C :    0.037164
  76 C :    0.035974
  77 C :   -0.013735
  78 H :   -0.012199
  79 H :   -0.005286
  80 H :   -0.010684
  81 H :   -0.004851
  82 H :   -0.004779
  83 H :   -0.017481
  84 H :    0.025015
  85 H :    0.012118
  86 H :   -0.012977
  87 H :   -0.005588
  88 H :   -0.019796
  89 H :    0.005316
  90 H :    0.088403
  91 H :    0.091284
  92 H :   -0.026639
  93 H :   -0.017184
  94 H :    0.099897
  95 H :    0.092512
  96 H :   -0.002665
  97 H :    0.040715
  98 H :   -0.011976
  99 H :   -0.030305
 100 H :   -0.031308
 101 H :   -0.012880
 102 H :    0.008233
 103 H :    0.001011
 104 H :   -0.000045
 105 H :    0.037711
 106 H :   -0.011582
 107 H :   -0.008238
 108 H :   -0.008154
 109 H :   -0.003949
 110 H :   -0.003721
 111 H :   -0.016435
Sum of atomic charges:   -0.0000000

LOEWDIN ATOMIC CHARGES
----------------------
   0 C :    0.066204
   1 C :   -0.139051
   2 C :   -0.019389
   3 N :   -0.051958
   4 C :   -0.019222
   5 N :   -0.042080
   6 C :   -0.023067
   7 C :   -0.057058
   8 C :    0.032332
   9 C :   -0.009220
  10 C :   -0.005478
  11 C :    0.015992
  12 C :   -0.006308
  13 C :   -0.013225
  14 C :   -0.013627
  15 C :   -0.009379
  16 C :    0.083394
  17 O :   -0.144073
  18 C :   -0.091326
  19 C :    0.051776
  20 C :   -0.190088
  21 S :    0.497170
  22 C :   -0.112496
  23 C :   -0.123575
  24 C :   -0.001685
  25 C :    0.171760
  26 F :   -0.061267
  27 F :   -0.054618
  28 F :   -0.058902
  29 C :   -0.051234
  30 C :   -0.002591
  31 C :   -0.022391
  32 C :   -0.032875
  33 C :   -0.039287
  34 C :    0.025257
  35 N :   -0.114167
  36 C :    0.027824
  37 N :   -0.119170
  38 C :   -0.016188
  39 C :    0.059488
  40 C :   -0.031185
  41 C :   -0.028843
  42 C :   -0.015581
  43 C :   -0.035560
  44 C :   -0.028320
  45 C :   -0.006006
  46 C :   -0.021106
  47 C :    0.014128
  48 C :   -0.050476
  49 C :   -0.151759
  50 S :    0.473159
  51 C :   -0.169273
  52 C :   -0.082496
  53 C :   -0.037626
  54 C :    0.169646
  55 F :   -0.047441
  56 F :   -0.072055
  57 F :   -0.050227
  58 C :    0.039511
  59 C :   -0.075072
  60 C :    0.074114
  61 C :   -0.131517
  62 C :   -0.017000
  63 N :   -0.048921
  64 C :   -0.021880
  65 N :   -0.045493
  66 C :   -0.024949
  67 C :   -0.055145
  68 C :    0.079184
  69 O :   -0.135649
  70 C :    0.035390
  71 C :   -0.007722
  72 C :   -0.005243
  73 C :    0.020533
  74 C :   -0.004868
  75 C :   -0.011902
  76 C :   -0.011157
  77 C :   -0.008752
  78 H :    0.039212
  79 H :    0.038763
  80 H :    0.034332
  81 H :    0.033082
  82 H :    0.032669
  83 H :    0.031745
  84 H :    0.046941
  85 H :    0.037426
  86 H :    0.023667
  87 H :    0.032775
  88 H :   -0.005173
  89 H :    0.018656
  90 H :    0.049916
  91 H :    0.055158
  92 H :   -0.004744
  93 H :    0.010495
  94 H :    0.053009
  95 H :    0.055629
  96 H :    0.026747
  97 H :    0.063032
  98 H :    0.024846
  99 H :    0.032367
 100 H :    0.030035
 101 H :    0.025745
 102 H :    0.028052
 103 H :    0.031257
 104 H :    0.035622
 105 H :    0.046635
 106 H :    0.039895
 107 H :    0.039204
 108 H :    0.035150
 109 H :    0.033643
 110 H :    0.033272
 111 H :    0.032295

  Mayer bond orders larger than 0.100000
B(  0-C ,  1-C ) :   1.6539 B(  0-C ,  6-C ) :   0.9990 B(  0-C , 18-C ) :   1.0329
B(  1-C ,  2-C ) :   1.1283 B(  1-C ,  4-C ) :   1.1646 B(  2-C ,  3-N ) :   2.9874
B(  4-C ,  5-N ) :   3.0067 B(  6-C ,  7-C ) :   1.2149 B(  6-C , 11-C ) :   1.4585
B(  7-C ,  8-C ) :   1.4753 B(  7-C , 16-C ) :   0.9199 B(  8-C ,  9-C ) :   1.1843
B(  8-C , 78-H ) :   1.0158 B(  9-C , 10-C ) :   1.2562 B(  9-C , 15-C ) :   1.2455
B( 10-C , 11-C ) :   1.2044 B( 10-C , 12-C ) :   1.2421 B( 11-C , 79-H ) :   0.9933
B( 12-C , 13-C ) :   1.4904 B( 12-C , 80-H ) :   0.9969 B( 13-C , 14-C ) :   1.2604
B( 13-C , 81-H ) :   0.9886 B( 14-C , 15-C ) :   1.4886 B( 14-C , 82-H ) :   0.9891
B( 15-C , 83-H ) :   0.9973 B( 16-C , 17-O ) :   2.2694 B( 16-C , 18-C ) :   0.9380
B( 18-C , 19-C ) :   1.6872 B( 19-C , 20-C ) :   1.1080 B( 19-C , 84-H ) :   0.9298
B( 20-C , 21-S ) :   1.1067 B( 20-C , 24-C ) :   1.4515 B( 21-S , 22-C ) :   1.2016
B( 22-C , 23-C ) :   1.4991 B( 22-C , 29-C ) :   1.0420 B( 23-C , 24-C ) :   1.3079
B( 23-C , 25-C ) :   0.9531 B( 24-C , 85-H ) :   0.9966 B( 25-C , 26-F ) :   1.1452
B( 25-C , 27-F ) :   1.1612 B( 25-C , 28-F ) :   1.1614 B( 29-C , 30-C ) :   1.5111
B( 29-C , 46-C ) :   1.1282 B( 30-C , 31-C ) :   1.1489 B( 30-C , 86-H ) :   0.9855
B( 31-C , 32-C ) :   1.5011 B( 31-C , 44-C ) :   1.1109 B( 32-C , 33-C ) :   1.0489
B( 32-C , 38-C ) :   1.0750 B( 33-C , 34-C ) :   1.0315 B( 33-C , 36-C ) :   1.0328
B( 33-C , 87-H ) :   0.8753 B( 34-C , 35-N ) :   1.1057 B( 34-C , 88-H ) :   0.9236
B( 34-C , 89-H ) :   0.9467 B( 35-N , 90-H ) :   0.9697 B( 35-N , 91-H ) :   0.9670
B( 36-C , 37-N ) :   1.0930 B( 36-C , 92-H ) :   0.9288 B( 36-C , 93-H ) :   0.9338
B( 37-N , 94-H ) :   0.9672 B( 37-N , 95-H ) :   0.9661 B( 38-C , 39-C ) :   1.6441
B( 38-C , 43-C ) :   1.0599 B( 39-C , 40-C ) :   0.9722 B( 39-C , 96-H ) :   0.9714
B( 40-C , 41-C ) :   0.9849 B( 40-C , 47-C ) :   0.9633 B( 40-C , 97-H ) :   0.8497
B( 41-C , 42-C ) :   1.7367 B( 41-C , 98-H ) :   0.9672 B( 42-C , 43-C ) :   1.1274
B( 42-C , 99-H ) :   0.9881 B( 43-C , 44-C ) :   1.4459 B( 44-C , 45-C ) :   1.1345
B( 45-C , 46-C ) :   1.6272 B( 45-C ,100-H ) :   0.9931 B( 46-C ,101-H ) :   0.9718
B( 47-C , 48-C ) :   1.8581 B( 47-C ,102-H ) :   0.9696 B( 48-C , 49-C ) :   1.0683
B( 48-C ,103-H ) :   0.9431 B( 49-C , 50-S ) :   1.1487 B( 49-C , 53-C ) :   1.4968
B( 50-S , 51-C ) :   1.1330 B( 51-C , 52-C ) :   1.5305 B( 51-C , 58-C ) :   1.0737
B( 52-C , 53-C ) :   1.2767 B( 52-C , 54-C ) :   0.9530 B( 53-C ,104-H ) :   1.0011
B( 54-C , 55-F ) :   1.1405 B( 54-C , 56-F ) :   1.1598 B( 54-C , 57-F ) :   1.1791
B( 58-C , 59-C ) :   1.6938 B( 58-C ,105-H ) :   0.9323 B( 59-C , 60-C ) :   1.0545
B( 59-C , 68-C ) :   0.9214 B( 60-C , 61-C ) :   1.6511 B( 60-C , 66-C ) :   0.9976
B( 61-C , 62-C ) :   1.1426 B( 61-C , 64-C ) :   1.1415 B( 62-C , 63-N ) :   2.9661
B( 64-C , 65-N ) :   2.9823 B( 66-C , 67-C ) :   1.2109 B( 66-C , 73-C ) :   1.4445
B( 67-C , 68-C ) :   0.9449 B( 67-C , 70-C ) :   1.4736 B( 68-C , 69-O ) :   2.2293
B( 70-C , 71-C ) :   1.1820 B( 70-C ,106-H ) :   1.0154 B( 71-C , 72-C ) :   1.2534
B( 71-C , 77-C ) :   1.2423 B( 72-C , 73-C ) :   1.2113 B( 72-C , 74-C ) :   1.2388
B( 73-C ,107-H ) :   0.9890 B( 74-C , 75-C ) :   1.4924 B( 74-C ,108-H ) :   0.9969
B( 75-C , 76-C ) :   1.2574 B( 75-C ,109-H ) :   0.9888 B( 76-C , 77-C ) :   1.4900
B( 76-C ,110-H ) :   0.9893 B( 77-C ,111-H ) :   0.9976

-----------------------------------------------------------------------------
         ABSORPTION SPECTRUM VIA TRANSITION ELECTRIC DIPOLE MOMENTS
-----------------------------------------------------------------------------
State   Energy  Wavelength   fosc         T2         TX        TY        TZ
        (cm-1)    (nm)                  (au**2)     (au)      (au)      (au)
-----------------------------------------------------------------------------
   0   13835.3    722.8   0.050021818   1.19027   0.73920   0.77276   0.21609
   1   17708.3    564.7   0.459873362   8.54942   0.23224  -1.46140  -2.52187
   2   17904.8    558.5   0.041392536   0.76108  -0.05289  -0.37312   0.78680
   3   22331.2    447.8   0.642493473   9.47177   0.06482  -2.95579  -0.85490
   4   23407.1    427.2   0.485731428   6.83161   0.34583   1.16110   2.31600
   5   26382.7    379.0   0.053154917   0.66329  -0.54651  -0.46552  -0.38458
   6   26560.3    376.5   0.060203545   0.74622   0.15224  -0.41337  -0.74308
   7   26829.4    372.7   0.015923329   0.19539  -0.19026  -0.03415  -0.39752
   8   27268.0    366.7   0.387497948   4.67835  -0.18947  -0.42056  -2.11319
   9   27625.1    362.0   0.024543362   0.29249  -0.48414   0.23292   0.06201
  10   28055.6    356.4   0.139564236   1.63768   0.07667  -1.25004  -0.26308
  11   28532.7    350.5   0.029467822   0.34000  -0.16220  -0.37418  -0.41675
  12   28786.5    347.4   0.138669298   1.58587  -0.14400   0.16071   1.24069
  13   28966.1    345.2   0.039976412   0.45435   0.33041  -0.46308   0.36157
  14   29068.3    344.0   0.007291030   0.08257  -0.13414   0.07597  -0.24251
  15   29820.9    335.3   0.050275165   0.55502  -0.13459  -0.00580   0.73272
  16   30021.2    333.1   0.070405497   0.77207   0.09187   0.02436   0.87352
  17   30530.2    327.5   0.004296330   0.04633   0.03931  -0.20179   0.06376
  18   30640.9    326.4   0.400708430   4.30529   0.95093   1.34343   1.26341
  19   31508.6    317.4   0.031983004   0.33417   0.00312   0.11327   0.56686
  20   31802.2    314.4   0.166046495   1.71889  -0.29314  -0.27297  -1.24838
  21   33295.0    300.3   0.399249150   3.94767  -0.20432   0.00693   1.97633
  22   33408.5    299.3   0.005592788   0.05511   0.23059   0.04231   0.01224
  23   33514.1    298.4   0.729757433   7.16846  -2.02197  -0.83742  -1.54234
  24   33661.2    297.1   0.423644847   4.14332  -0.36274  -0.49180   1.94162
  25   34446.0    290.3   0.184453000   1.76288  -0.13171   0.09123  -1.31803
  26   34648.6    288.6   0.099145471   0.94203  -0.04520  -0.09165   0.96519
  27   34760.1    287.7   0.093755533   0.88796  -0.35006  -0.00644  -0.87485
  28   35041.7    285.4   0.022824617   0.21443   0.00381  -0.07032   0.45768
  29   35059.4    285.2   0.030225644   0.28382  -0.43323  -0.30856   0.03033
  30   35432.6    282.2   0.017404622   0.16171  -0.12879  -0.08005   0.37244
  31   35520.0    281.5   0.002971556   0.02754   0.06893  -0.04118  -0.14524
  32   35926.0    278.3   0.000703818   0.00645  -0.06439  -0.04726  -0.00834
  33   36187.6    276.3   0.011681405   0.10627  -0.23498  -0.09307  -0.20590
  34   37311.2    268.0   0.022645884   0.19981   0.06277   0.08726  -0.43389
  35   37408.2    267.3   0.017416917   0.15328   0.24970   0.30101  -0.01789
  36   37519.5    266.5   0.013610075   0.11942   0.23407   0.24875  -0.05250
  37   37624.8    265.8   0.256837513   2.24729  -0.71881  -0.94678  -0.91336
  38   37719.7    265.1   0.003233664   0.02822  -0.00780  -0.16779  -0.00284
  39   38077.8    262.6   0.002123060   0.01836  -0.08189   0.01089  -0.10738
  40   38599.9    259.1   0.025124165   0.21428   0.18075  -0.19033  -0.38129
  41   38780.1    257.9   0.003506727   0.02977   0.10820  -0.05274  -0.12361
  42   39213.8    255.0   0.066849632   0.56122  -0.34036   0.46357   0.48009
  43   39379.5    253.9   0.170862112   1.42840  -0.72001   0.24323   0.92240
  44   39694.6    251.9   0.611034527   5.06769   0.42071  -2.21036  -0.07079
  45   40041.9    249.7   0.164273167   1.35060   0.13698  -1.14464  -0.14707

FINAL SINGLE POINT ENERGY     -4252.864828061308

DIPOLE MOMENT
-------------
                                X             Y             Z
Electronic contribution:    -45.82034       4.42502      16.02736
Nuclear contribution   :     49.09313      -3.60005     -14.96206
                        -----------------------------------------
Total Dipole Moment    :      3.27279       0.82496       1.06530
                        -----------------------------------------
Magnitude (a.u.)       :      3.53930
Magnitude (Debye)      :      8.99618

Rotational constants in cm-1:     0.001815     0.000185     0.000179
Rotational constants in MHz :    54.398926     5.533298     5.372874

                             ****ORCA TERMINATED NORMALLY****
TOTAL RUN TIME: 0 days 0 hours 12 minutes 18 seconds 453 msec
