                         Program Version 4.2.0 -  RELEASE  -
|  1> # ORCA input file
|  2> # SCF done       -160.096940760170          0.000929641000
|  3> ! CAM-B3LYP def2-SVP def2/J RIJCOSX Grid4 TightSCF
|  4> %maxcore 5000
|  5> %tddft
|  6>     Mode sTDDFT
|  7>     Ethresh 5.0
|  8>     maxcore 5000
|  9> end
| 10>
| 11> %pal
| 12>   nprocs 6
| 13>   end
| 14> * xyz 0 1
| 15>    C       -3.47620        -0.83001        -2.26612
| 16>    C       -3.58772         0.28133        -3.05911
| 17>    C       -3.26890         1.56211        -2.58794
| 18>    C       -2.82059         1.79863        -1.30006
| 19>    C       -2.69800         0.66300        -0.45321
| 20>    C       -3.02967        -0.64844        -0.94817
| 21>    N       -2.85584        -1.59084        -0.01890
| 22>    S       -2.33298        -0.89876         1.33016
| 23>    N       -2.29666         0.62352         0.81610
| 24>    C       -2.48335         3.11499        -0.83476
| 25>    C       -1.98090         3.47357         0.39770
| 26>    C       -1.74505         4.84781         0.49232
| 27>    C       -2.07961         5.54062        -0.68333
| 28>    S       -2.67908         4.50544        -1.89796
| 29>    C       -1.78540         6.91488        -0.49788
| 30>    C       -1.25641         7.09017         0.79098
| 31>    C       -1.22760         5.79613         1.46112
| 32>    C       -0.81055         5.53901         2.73469
| 33>    C       -0.32873         6.55680         3.58372
| 34>    N        0.06207         7.38371         4.27611
| 35>    C       -0.83839         4.24493         3.29628
| 36>    N       -0.85587         3.20200         3.77229
| 37>    C       -0.91064         8.41250         1.06239
| 38>    C       -1.18067         9.25196        -0.00459
| 39>    S       -1.87654         8.38000        -1.36893
| 40>    C       -0.94563        10.65409        -0.09325
| 41>    C       -1.38070        11.41504        -1.15128
| 42>    C       -1.15967        12.78247        -1.29605
| 43>    C       -0.39391        13.53465        -0.29836
| 44>    C        0.11403        12.99537         0.83073
| 45>    S       -0.04653        11.34111         1.25676
| 46>    C       -0.35802        14.86977        -0.78546
| 47>    C       -1.06486        14.96262        -1.98696
| 48>    C       -1.02658        16.27572        -2.50944
| 49>    C       -0.32160        17.11780        -1.70926
| 50>    S        0.32863        16.36529        -0.29437
| 51>    C       -1.58961        13.65890        -2.31444
| 52>    C       -2.42166        13.27797        -3.38846
| 53>    C       -3.02420        14.11261        -4.27853
| 54>    C       -3.91753        13.67913        -5.28541
| 55>    C       -4.29457        12.38721        -5.63033
| 56>    C       -5.25315        12.36822        -6.63664
| 57>    C       -5.62099        13.65090        -7.07806
| 58>    S       -4.76612        14.88076        -6.25287
| 59>    C       -6.62329        13.51422        -8.06853
| 60>    C       -6.88703        12.14531        -8.25848
| 61>    C       -6.03419        11.37999        -7.37336
| 62>    C       -5.97226        10.02269        -7.23810
| 63>    C       -6.77409         9.14642        -7.99864
| 64>    N       -7.41706         8.41698        -8.60686
| 65>    C       -5.10046         9.40246        -6.32017
| 66>    N       -4.39346         8.89666        -5.57128
| 67>    C       -7.89026        11.91107        -9.20327
| 68>    C       -8.39578        13.07842        -9.73068
| 69>    S       -7.60634        14.50280        -9.05080
| 70>    C       -9.44351        13.22848       -10.70005
| 71>    C       -9.88723        14.46821       -11.12679
| 72>    C      -10.91786        14.62633       -12.06299
| 73>    C      -11.55912        13.55291       -12.62253
| 74>    C      -11.14846        12.27042       -12.22793
| 75>    C      -10.09040        12.09541       -11.26626
| 76>    N       -9.85099        10.80778       -11.02602
| 77>    S      -10.84903         9.91422       -11.91412
| 78>    N      -11.63764        11.10226       -12.64970
| 79>    H       -3.71660        -1.81928        -2.61854
| 80>    H       -3.92824         0.17946        -4.07849
| 81>    H       -3.37522         2.40012        -3.26207
| 82>    H       -1.79945         2.75117         1.17218
| 83>    H       -0.48671         8.76105         1.98696
| 84>    H       -1.93488        10.89456        -1.92149
| 85>    H        0.65895        13.57517         1.55882
| 86>    H       -1.47621        16.59892        -3.43002
| 87>    H       -0.13343        18.16246        -1.86294
| 88>    H       -2.62662        12.21951        -3.46810
| 89>    H       -2.87162        15.17820        -4.20655
| 90>    H       -3.88592        11.51044        -5.16397
| 91>    H       -8.25419        10.94553        -9.50290
| 92>    H       -9.42100        15.35380       -10.71862
| 93>    H      -11.20810        15.62784       -12.34310
| 94>    H      -12.35368        13.66332       -13.34165
| 95> *
| 96>
| 97>                          ****END OF INPUT****

CARTESIAN COORDINATES (ANGSTROEM)
---------------------------------
  C     -3.476200   -0.830010   -2.266120
  C     -3.587720    0.281330   -3.059110
  C     -3.268900    1.562110   -2.587940
  C     -2.820590    1.798630   -1.300060
  C     -2.698000    0.663000   -0.453210
  C     -3.029670   -0.648440   -0.948170
  N     -2.855840   -1.590840   -0.018900
  S     -2.332980   -0.898760    1.330160
  N     -2.296660    0.623520    0.816100
  C     -2.483350    3.114990   -0.834760
  C     -1.980900    3.473570    0.397700
  C     -1.745050    4.847810    0.492320
  C     -2.079610    5.540620   -0.683330
  S     -2.679080    4.505440   -1.897960
  C     -1.785400    6.914880   -0.497880
  C     -1.256410    7.090170    0.790980
  C     -1.227600    5.796130    1.461120
  C     -0.810550    5.539010    2.734690
  C     -0.328730    6.556800    3.583720
  N      0.062070    7.383710    4.276110
  C     -0.838390    4.244930    3.296280
  N     -0.855870    3.202000    3.772290
  C     -0.910640    8.412500    1.062390
  C     -1.180670    9.251960   -0.004590
  S     -1.876540    8.380000   -1.368930
  C     -0.945630   10.654090   -0.093250
  C     -1.380700   11.415040   -1.151280
  C     -1.159670   12.782470   -1.296050
  C     -0.393910   13.534650   -0.298360
  C      0.114030   12.995370    0.830730
  S     -0.046530   11.341110    1.256760
  C     -0.358020   14.869770   -0.785460
  C     -1.064860   14.962620   -1.986960
  C     -1.026580   16.275720   -2.509440
  C     -0.321600   17.117800   -1.709260
  S      0.328630   16.365290   -0.294370
  C     -1.589610   13.658900   -2.314440
  C     -2.421660   13.277970   -3.388460
  C     -3.024200   14.112610   -4.278530
  C     -3.917530   13.679130   -5.285410
  C     -4.294570   12.387210   -5.630330
  C     -5.253150   12.368220   -6.636640
  C     -5.620990   13.650900   -7.078060
  S     -4.766120   14.880760   -6.252870
  C     -6.623290   13.514220   -8.068530
  C     -6.887030   12.145310   -8.258480
  C     -6.034190   11.379990   -7.373360
  C     -5.972260   10.022690   -7.238100
  C     -6.774090    9.146420   -7.998640
  N     -7.417060    8.416980   -8.606860
  C     -5.100460    9.402460   -6.320170
  N     -4.393460    8.896660   -5.571280
  C     -7.890260   11.911070   -9.203270
  C     -8.395780   13.078420   -9.730680
  S     -7.606340   14.502800   -9.050800
  C     -9.443510   13.228480  -10.700050
  C     -9.887230   14.468210  -11.126790
  C    -10.917860   14.626330  -12.062990
  C    -11.559120   13.552910  -12.622530
  C    -11.148460   12.270420  -12.227930
  C    -10.090400   12.095410  -11.266260
  N     -9.850990   10.807780  -11.026020
  S    -10.849030    9.914220  -11.914120
  N    -11.637640   11.102260  -12.649700
  H     -3.716600   -1.819280   -2.618540
  H     -3.928240    0.179460   -4.078490
  H     -3.375220    2.400120   -3.262070
  H     -1.799450    2.751170    1.172180
  H     -0.486710    8.761050    1.986960
  H     -1.934880   10.894560   -1.921490
  H      0.658950   13.575170    1.558820
  H     -1.476210   16.598920   -3.430020
  H     -0.133430   18.162460   -1.862940
  H     -2.626620   12.219510   -3.468100
  H     -2.871620   15.178200   -4.206550
  H     -3.885920   11.510440   -5.163970
  H     -8.254190   10.945530   -9.502900
  H     -9.421000   15.353800  -10.718620
  H    -11.208100   15.627840  -12.343100
  H    -12.353680   13.663320  -13.341650

 Total Charge           Charge          ....    0
 Multiplicity           Mult            ....    1
 Number of Electrons    NEL             ....  488
 Basis Dimension        Dim             .... 1008

ORBITAL ENERGIES
----------------

  NO   OCC          E(Eh)            E(eV)
   0   2.0000     -89.020642     -2422.3748
   1   2.0000     -89.019588     -2422.3461
   2   2.0000     -88.986184     -2421.4372
   3   2.0000     -88.980637     -2421.2862
   4   2.0000     -88.978240     -2421.2210
   5   2.0000     -88.978021     -2421.2150
   6   2.0000     -88.977161     -2421.1916
   7   2.0000     -88.958412     -2420.6815
   8   2.0000     -14.435342      -392.8056
   9   2.0000     -14.434402      -392.7800
  10   2.0000     -14.433499      -392.7555
  11   2.0000     -14.432316      -392.7233
  12   2.0000     -14.425409      -392.5353
  13   2.0000     -14.425074      -392.5262
  14   2.0000     -14.422790      -392.4641
  15   2.0000     -14.420886      -392.4123
  16   2.0000     -10.358242      -281.8621
  17   2.0000     -10.354699      -281.7657
  18   2.0000     -10.345378      -281.5120
  19   2.0000     -10.342719      -281.4397
  20   2.0000     -10.330397      -281.1044
  21   2.0000     -10.329317      -281.0750
  22   2.0000     -10.327397      -281.0227
  23   2.0000     -10.326554      -280.9998
  24   2.0000     -10.325955      -280.9835
  25   2.0000     -10.325093      -280.9601
  26   2.0000     -10.324345      -280.9397
  27   2.0000     -10.324109      -280.9333
  28   2.0000     -10.322913      -280.9007
  29   2.0000     -10.322029      -280.8767
  30   2.0000     -10.321377      -280.8590
  31   2.0000     -10.320620      -280.8384
  32   2.0000     -10.318170      -280.7717
  33   2.0000     -10.316997      -280.7398
  34   2.0000     -10.316691      -280.7314
  35   2.0000     -10.313859      -280.6544
  36   2.0000     -10.313849      -280.6541
  37   2.0000     -10.309337      -280.5313
  38   2.0000     -10.304226      -280.3923
  39   2.0000     -10.302743      -280.3519
  40   2.0000     -10.299118      -280.2533
  41   2.0000     -10.299008      -280.2502
  42   2.0000     -10.298482      -280.2360
  43   2.0000     -10.297930      -280.2209
  44   2.0000     -10.297617      -280.2124
  45   2.0000     -10.293858      -280.1101
  46   2.0000     -10.292802      -280.0814
  47   2.0000     -10.288932      -279.9761
  48   2.0000     -10.288705      -279.9699
  49   2.0000     -10.288019      -279.9512
  50   2.0000     -10.287339      -279.9327
  51   2.0000     -10.287245      -279.9302
  52   2.0000     -10.287062      -279.9252
  53   2.0000     -10.286865      -279.9198
  54   2.0000     -10.286186      -279.9013
  55   2.0000     -10.285096      -279.8717
  56   2.0000     -10.283403      -279.8256
  57   2.0000     -10.282513      -279.8014
  58   2.0000     -10.282504      -279.8012
  59   2.0000     -10.281427      -279.7719
  60   2.0000     -10.280777      -279.7542
  61   2.0000     -10.277254      -279.6583
  62   2.0000     -10.277145      -279.6553
  63   2.0000     -10.276439      -279.6361
  64   2.0000      -8.112504      -220.7525
  65   2.0000      -8.111383      -220.7220
  66   2.0000      -8.080468      -219.8807
  67   2.0000      -8.075192      -219.7371
  68   2.0000      -8.072659      -219.6682
  69   2.0000      -8.072579      -219.6660
  70   2.0000      -8.072364      -219.6602
  71   2.0000      -8.053844      -219.1562
  72   2.0000      -6.083653      -165.5446
  73   2.0000      -6.082553      -165.5147
  74   2.0000      -6.075878      -165.3330
  75   2.0000      -6.075013      -165.3095
  76   2.0000      -6.074753      -165.3024
  77   2.0000      -6.073914      -165.2796
  78   2.0000      -6.049750      -164.6221
  79   2.0000      -6.045627      -164.5099
  80   2.0000      -6.044404      -164.4766
  81   2.0000      -6.042724      -164.4309
  82   2.0000      -6.042034      -164.4121
  83   2.0000      -6.041867      -164.4076
  84   2.0000      -6.041823      -164.4064
  85   2.0000      -6.040231      -164.3630
  86   2.0000      -6.037746      -164.2954
  87   2.0000      -6.037677      -164.2936
  88   2.0000      -6.037633      -164.2923
  89   2.0000      -6.037411      -164.2863
  90   2.0000      -6.035112      -164.2237
  91   2.0000      -6.035048      -164.2220
  92   2.0000      -6.034105      -164.1963
  93   2.0000      -6.023253      -163.9011
  94   2.0000      -6.019014      -163.7857
  95   2.0000      -6.015939      -163.7020
  96   2.0000      -1.120771       -30.4977
  97   2.0000      -1.119571       -30.4651
  98   2.0000      -1.038300       -28.2536
  99   2.0000      -1.033200       -28.1148
 100   2.0000      -1.016145       -27.6507
 101   2.0000      -1.014146       -27.5963
 102   2.0000      -1.008449       -27.4413
 103   2.0000      -1.001382       -27.2490
 104   2.0000      -1.000253       -27.2183
 105   2.0000      -0.995551       -27.0903
 106   2.0000      -0.988427       -26.8965
 107   2.0000      -0.977196       -26.5909
 108   2.0000      -0.972333       -26.4585
 109   2.0000      -0.970290       -26.4029
 110   2.0000      -0.959673       -26.1140
 111   2.0000      -0.959504       -26.1094
 112   2.0000      -0.946851       -25.7651
 113   2.0000      -0.944727       -25.7073
 114   2.0000      -0.929821       -25.3017
 115   2.0000      -0.911583       -24.8054
 116   2.0000      -0.905461       -24.6388
 117   2.0000      -0.888644       -24.1812
 118   2.0000      -0.878165       -23.8961
 119   2.0000      -0.866297       -23.5732
 120   2.0000      -0.862162       -23.4606
 121   2.0000      -0.858355       -23.3570
 122   2.0000      -0.856827       -23.3154
 123   2.0000      -0.853535       -23.2259
 124   2.0000      -0.848208       -23.0809
 125   2.0000      -0.843819       -22.9615
 126   2.0000      -0.840761       -22.8783
 127   2.0000      -0.834983       -22.7210
 128   2.0000      -0.816801       -22.2263
 129   2.0000      -0.802783       -21.8448
 130   2.0000      -0.782525       -21.2936
 131   2.0000      -0.773041       -21.0355
 132   2.0000      -0.767915       -20.8960
 133   2.0000      -0.765309       -20.8251
 134   2.0000      -0.747039       -20.3280
 135   2.0000      -0.740563       -20.1518
 136   2.0000      -0.728364       -19.8198
 137   2.0000      -0.725598       -19.7445
 138   2.0000      -0.706770       -19.2322
 139   2.0000      -0.705530       -19.1984
 140   2.0000      -0.700617       -19.0648
 141   2.0000      -0.698202       -18.9990
 142   2.0000      -0.694953       -18.9106
 143   2.0000      -0.682470       -18.5709
 144   2.0000      -0.677983       -18.4489
 145   2.0000      -0.671817       -18.2811
 146   2.0000      -0.663428       -18.0528
 147   2.0000      -0.654707       -17.8155
 148   2.0000      -0.652354       -17.7514
 149   2.0000      -0.639904       -17.4127
 150   2.0000      -0.632591       -17.2137
 151   2.0000      -0.628462       -17.1013
 152   2.0000      -0.622490       -16.9388
 153   2.0000      -0.617787       -16.8108
 154   2.0000      -0.611228       -16.6324
 155   2.0000      -0.608751       -16.5649
 156   2.0000      -0.603576       -16.4242
 157   2.0000      -0.595890       -16.2150
 158   2.0000      -0.593222       -16.1424
 159   2.0000      -0.585626       -15.9357
 160   2.0000      -0.583660       -15.8822
 161   2.0000      -0.577052       -15.7024
 162   2.0000      -0.571040       -15.5388
 163   2.0000      -0.567388       -15.4394
 164   2.0000      -0.563184       -15.3250
 165   2.0000      -0.560723       -15.2580
 166   2.0000      -0.553031       -15.0487
 167   2.0000      -0.549809       -14.9611
 168   2.0000      -0.545862       -14.8537
 169   2.0000      -0.544293       -14.8110
 170   2.0000      -0.539964       -14.6932
 171   2.0000      -0.535755       -14.5786
 172   2.0000      -0.535375       -14.5683
 173   2.0000      -0.533667       -14.5218
 174   2.0000      -0.522213       -14.2101
 175   2.0000      -0.517653       -14.0861
 176   2.0000      -0.514411       -13.9978
 177   2.0000      -0.510393       -13.8885
 178   2.0000      -0.503738       -13.7074
 179   2.0000      -0.499102       -13.5813
 180   2.0000      -0.497544       -13.5389
 181   2.0000      -0.496417       -13.5082
 182   2.0000      -0.493975       -13.4417
 183   2.0000      -0.489340       -13.3156
 184   2.0000      -0.487132       -13.2555
 185   2.0000      -0.485823       -13.2199
 186   2.0000      -0.480494       -13.0749
 187   2.0000      -0.478718       -13.0266
 188   2.0000      -0.474138       -12.9020
 189   2.0000      -0.472198       -12.8492
 190   2.0000      -0.470661       -12.8073
 191   2.0000      -0.469396       -12.7729
 192   2.0000      -0.464167       -12.6306
 193   2.0000      -0.462899       -12.5961
 194   2.0000      -0.461570       -12.5600
 195   2.0000      -0.459306       -12.4983
 196   2.0000      -0.458387       -12.4733
 197   2.0000      -0.456856       -12.4317
 198   2.0000      -0.455938       -12.4067
 199   2.0000      -0.452723       -12.3192
 200   2.0000      -0.451370       -12.2824
 201   2.0000      -0.450037       -12.2461
 202   2.0000      -0.447545       -12.1783
 203   2.0000      -0.446275       -12.1438
 204   2.0000      -0.443136       -12.0583
 205   2.0000      -0.441518       -12.0143
 206   2.0000      -0.435635       -11.8542
 207   2.0000      -0.434734       -11.8297
 208   2.0000      -0.434059       -11.8114
 209   2.0000      -0.433666       -11.8007
 210   2.0000      -0.431529       -11.7425
 211   2.0000      -0.430182       -11.7058
 212   2.0000      -0.429478       -11.6867
 213   2.0000      -0.428389       -11.6571
 214   2.0000      -0.425162       -11.5692
 215   2.0000      -0.421742       -11.4762
 216   2.0000      -0.419487       -11.4148
 217   2.0000      -0.418489       -11.3877
 218   2.0000      -0.417616       -11.3639
 219   2.0000      -0.413007       -11.2385
 220   2.0000      -0.412112       -11.2141
 221   2.0000      -0.403751       -10.9866
 222   2.0000      -0.399052       -10.8588
 223   2.0000      -0.392474       -10.6798
 224   2.0000      -0.391860       -10.6630
 225   2.0000      -0.390513       -10.6264
 226   2.0000      -0.380767       -10.3612
 227   2.0000      -0.363585        -9.8936
 228   2.0000      -0.362449        -9.8627
 229   2.0000      -0.358421        -9.7531
 230   2.0000      -0.352217        -9.5843
 231   2.0000      -0.342314        -9.3148
 232   2.0000      -0.338030        -9.1983
 233   2.0000      -0.333007        -9.0616
 234   2.0000      -0.331640        -9.0244
 235   2.0000      -0.329963        -8.9788
 236   2.0000      -0.318321        -8.6620
 237   2.0000      -0.313818        -8.5394
 238   2.0000      -0.312887        -8.5141
 239   2.0000      -0.304833        -8.2949
 240   2.0000      -0.283449        -7.7130
 241   2.0000      -0.267839        -7.2883
 242   2.0000      -0.249952        -6.8016
 243   2.0000      -0.216990        -5.9046
 244   0.0000      -0.101211        -2.7541
 245   0.0000      -0.096051        -2.6137
 246   0.0000      -0.067045        -1.8244
 247   0.0000      -0.060869        -1.6563
 248   0.0000      -0.055006        -1.4968

MULLIKEN ATOMIC CHARGES
-----------------------
   0 C :   -0.027460
   1 C :    0.044330
   2 C :   -0.079162
   3 C :    0.162868
   4 C :   -0.016859
   5 C :    0.058096
   6 N :   -0.267953
   7 S :    0.519130
   8 N :   -0.286924
   9 C :   -0.120885
  10 C :   -0.047508
  11 C :    0.018546
  12 C :   -0.086108
  13 S :    0.167939
  14 C :   -0.094606
  15 C :    0.015239
  16 C :    0.309052
  17 C :   -0.306271
  18 C :   -0.188391
  19 N :    0.167809
  20 C :   -0.185339
  21 N :    0.176469
  22 C :   -0.056024
  23 C :   -0.068335
  24 S :    0.181687
  25 C :   -0.017255
  26 C :   -0.092916
  27 C :    0.057144
  28 C :    0.061747
  29 C :   -0.120978
  30 S :    0.133702
  31 C :   -0.113384
  32 C :    0.051441
  33 C :   -0.006652
  34 C :   -0.067773
  35 S :    0.130382
  36 C :    0.091772
  37 C :   -0.015750
  38 C :    0.035162
  39 C :   -0.070386
  40 C :   -0.046860
  41 C :    0.012337
  42 C :   -0.110743
  43 S :    0.174347
  44 C :   -0.086247
  45 C :    0.011799
  46 C :    0.311664
  47 C :   -0.311622
  48 C :   -0.187861
  49 N :    0.175104
  50 C :   -0.179549
  51 N :    0.149047
  52 C :   -0.042587
  53 C :   -0.125746
  54 S :    0.150745
  55 C :    0.165098
  56 C :   -0.079011
  57 C :    0.041524
  58 C :   -0.028318
  59 C :    0.054982
  60 C :   -0.020514
  61 N :   -0.281109
  62 S :    0.514396
  63 N :   -0.267146
  64 H :   -0.016533
  65 H :   -0.002490
  66 H :   -0.005468
  67 H :    0.020734
  68 H :    0.018410
  69 H :   -0.005006
  70 H :    0.038124
  71 H :   -0.014254
  72 H :    0.025573
  73 H :   -0.035354
  74 H :   -0.046393
  75 H :    0.000161
  76 H :    0.018060
  77 H :   -0.011737
  78 H :   -0.005853
  79 H :   -0.017302
Sum of atomic charges:    0.0000000

LOEWDIN ATOMIC CHARGES
----------------------
   0 C :   -0.020319
   1 C :   -0.012824
   2 C :   -0.026253
   3 C :   -0.038787
   4 C :   -0.042429
   5 C :   -0.051309
   6 N :   -0.284192
   7 S :    0.652052
   8 N :   -0.282900
   9 C :   -0.159695
  10 C :   -0.019324
  11 C :   -0.074314
  12 C :   -0.177203
  13 S :    0.477243
  14 C :   -0.177278
  15 C :   -0.068238
  16 C :    0.083253
  17 C :   -0.102465
  18 C :   -0.015598
  19 N :   -0.037156
  20 C :   -0.017850
  21 N :   -0.029884
  22 C :   -0.039926
  23 C :   -0.182351
  24 S :    0.484646
  25 C :   -0.177674
  26 C :   -0.033696
  27 C :   -0.016789
  28 C :   -0.050249
  29 C :   -0.138506
  30 S :    0.461479
  31 C :   -0.200105
  32 C :   -0.038005
  33 C :   -0.067157
  34 C :   -0.166451
  35 S :    0.425886
  36 C :   -0.051551
  37 C :   -0.003911
  38 C :   -0.066689
  39 C :   -0.151993
  40 C :   -0.040075
  41 C :   -0.061703
  42 C :   -0.200301
  43 S :    0.463961
  44 C :   -0.166826
  45 C :   -0.084628
  46 C :    0.087002
  47 C :   -0.109364
  48 C :   -0.018118
  49 N :   -0.034458
  50 C :   -0.011318
  51 N :   -0.050305
  52 C :   -0.017079
  53 C :   -0.166781
  54 S :    0.463775
  55 C :   -0.036573
  56 C :   -0.031611
  57 C :   -0.013368
  58 C :   -0.024622
  59 C :   -0.051387
  60 C :   -0.043007
  61 N :   -0.281644
  62 S :    0.648899
  63 N :   -0.285180
  64 H :    0.037971
  65 H :    0.035225
  66 H :    0.023701
  67 H :    0.038883
  68 H :    0.034575
  69 H :    0.027130
  70 H :    0.037579
  71 H :    0.027778
  72 H :    0.023537
  73 H :    0.027429
  74 H :    0.023544
  75 H :    0.034990
  76 H :    0.038193
  77 H :    0.021605
  78 H :    0.033798
  79 H :    0.037280

  Mayer bond orders larger than 0.100000
B(  0-C ,  1-C ) :   1.4902 B(  0-C ,  3-C ) :   0.1081 B(  0-C ,  5-C ) :   1.2077
B(  0-C , 64-H ) :   1.0208 B(  1-C ,  2-C ) :   1.2270 B(  1-C , 65-H ) :   0.9817
B(  2-C ,  3-C ) :   1.4856 B(  2-C , 66-H ) :   0.9875 B(  3-C ,  4-C ) :   1.1888
B(  3-C ,  9-C ) :   1.1003 B(  4-C ,  5-C ) :   1.1663 B(  4-C ,  8-N ) :   1.5256
B(  5-C ,  6-N ) :   1.5059 B(  6-N ,  7-S ) :   1.2840 B(  6-N ,  8-N ) :   0.1494
B(  7-S ,  8-N ) :   1.2565 B(  9-C , 10-C ) :   1.5035 B(  9-C , 13-S ) :   1.0882
B( 10-C , 11-C ) :   1.2302 B( 10-C , 67-H ) :   0.9817 B( 11-C , 12-C ) :   1.4413
B( 11-C , 16-C ) :   1.0022 B( 12-C , 13-S ) :   1.1304 B( 12-C , 14-C ) :   1.1783
B( 14-C , 15-C ) :   1.4479 B( 14-C , 24-S ) :   1.1262 B( 15-C , 16-C ) :   0.9917
B( 15-C , 22-C ) :   1.3031 B( 16-C , 17-C ) :   1.7080 B( 17-C , 18-C ) :   1.1340
B( 17-C , 20-C ) :   1.1366 B( 18-C , 19-N ) :   2.9887 B( 20-C , 21-N ) :   2.9902
B( 22-C , 23-C ) :   1.4563 B( 22-C , 68-H ) :   0.9797 B( 23-C , 24-S ) :   1.1048
B( 23-C , 25-C ) :   1.1604 B( 25-C , 26-C ) :   1.5296 B( 25-C , 30-S ) :   1.0567
B( 26-C , 27-C ) :   1.2498 B( 26-C , 69-H ) :   0.9594 B( 27-C , 28-C ) :   1.0522
B( 27-C , 36-C ) :   1.3709 B( 28-C , 29-C ) :   1.6133 B( 28-C , 31-C ) :   1.1746
B( 29-C , 30-S ) :   1.1358 B( 29-C , 70-H ) :   0.9402 B( 31-C , 32-C ) :   1.4546
B( 31-C , 35-S ) :   1.0799 B( 32-C , 33-C ) :   1.2148 B( 32-C , 36-C ) :   1.0697
B( 33-C , 34-C ) :   1.5848 B( 33-C , 71-H ) :   0.9991 B( 34-C , 35-S ) :   1.1574
B( 34-C , 72-H ) :   0.9650 B( 36-C , 37-C ) :   1.1948 B( 37-C , 38-C ) :   1.6273
B( 37-C , 73-H ) :   0.9568 B( 38-C , 39-C ) :   1.1323 B( 38-C , 74-H ) :   0.9643
B( 39-C , 40-C ) :   1.4342 B( 39-C , 43-S ) :   1.1116 B( 40-C , 41-C ) :   1.3114
B( 40-C , 75-H ) :   0.9881 B( 41-C , 42-C ) :   1.4366 B( 41-C , 46-C ) :   0.9899
B( 42-C , 43-S ) :   1.1023 B( 42-C , 44-C ) :   1.1953 B( 44-C , 45-C ) :   1.4339
B( 44-C , 54-S ) :   1.1328 B( 45-C , 46-C ) :   1.0116 B( 45-C , 52-C ) :   1.2280
B( 46-C , 47-C ) :   1.6996 B( 47-C , 48-C ) :   1.1371 B( 47-C , 50-C ) :   1.1372
B( 48-C , 49-N ) :   2.9927 B( 50-C , 51-N ) :   2.9773 B( 52-C , 53-C ) :   1.5075
B( 52-C , 76-H ) :   0.9816 B( 53-C , 54-S ) :   1.0735 B( 53-C , 55-C ) :   1.1064
B( 55-C , 56-C ) :   1.4849 B( 55-C , 58-C ) :   0.1070 B( 55-C , 60-C ) :   1.1872
B( 56-C , 57-C ) :   1.2279 B( 56-C , 77-H ) :   0.9865 B( 57-C , 58-C ) :   1.4883
B( 57-C , 78-H ) :   0.9827 B( 58-C , 59-C ) :   1.2078 B( 58-C , 79-H ) :   1.0211
B( 59-C , 60-C ) :   1.1667 B( 59-C , 63-N ) :   1.5076 B( 60-C , 61-N ) :   1.5296
B( 61-N , 62-S ) :   1.2569 B( 61-N , 63-N ) :   0.1496 B( 62-S , 63-N ) :   1.2822

-----------------------------------------------------------------------------
         ABSORPTION SPECTRUM VIA TRANSITION ELECTRIC DIPOLE MOMENTS
-----------------------------------------------------------------------------
State   Energy  Wavelength   fosc         T2         TX        TY        TZ
        (cm-1)    (nm)                  (au**2)     (au)      (au)      (au)
-----------------------------------------------------------------------------
   0    9568.6   1045.1   0.194755282   6.70066   1.49867  -0.82056   1.94457
   1   10830.1    923.4   0.121712021   3.69978   0.22538   1.90457  -0.14695
   2   16597.9    602.5   0.079704065   1.58089  -0.73340   0.08256  -1.01794
   3   17808.2    561.5   0.729310573  13.48241   1.42559  -2.38079   2.40457
   4   19160.8    521.9   0.197357228   3.39090  -0.89287   0.97828  -1.27931
   5   21572.7    463.5   0.362487702   5.53177  -1.67826  -0.01077  -1.64775
   6   22252.2    449.4   0.542426012   8.02496  -1.17799  -2.43406  -0.84419
   7   24023.0    416.3   0.136691162   1.87322   0.67786   0.53576   1.06145
   8   24286.0    411.8   0.170251878   2.30787  -0.74959  -0.73575  -1.09757
   9   24576.0    406.9   0.011062796   0.14819   0.04916   0.21361  -0.31646
  10   26165.9    382.2   0.326576586   4.10890   1.04907   1.37070   1.06279
  11   26973.8    370.7   0.032378878   0.39518   0.17095   0.60384   0.03655
  12   28016.7    356.9   0.127666590   1.50016   0.85304  -0.34557   0.80812
  13   28523.2    350.6   0.183582935   2.11890  -0.68509  -1.18214  -0.50210
  14   28805.8    347.2   0.110902805   1.26747  -0.15244  -1.08730  -0.24902
  15   29607.5    337.8   0.094437414   1.05007   0.41529  -0.72995   0.58718
  16   30043.9    332.8   0.045108028   0.49428   0.10560   0.69408   0.03711
  17   30469.2    328.2   0.323992955   3.50067   0.96767   1.46580   0.64475
  18   31136.6    321.2   0.101321845   1.07129  -0.32119   0.49435  -0.85073
  19   31430.5    318.2   0.694494806   7.27433  -1.07637   0.05003  -2.47250
  20   31766.3    314.8   0.425045551   4.40499  -0.54139   1.97519  -0.45882
  21   32639.4    306.4   0.250723549   2.52889   0.83524  -0.69632   1.16034
  22   32855.0    304.4   0.140945663   1.41230   0.76847   0.68141   0.59787
  23   33358.3    299.8   0.032972056   0.32540   0.04377   0.56830  -0.02269
  24   34190.8    292.5   0.791491474   7.62102  -0.37840  -2.68844   0.50010
  25   34716.5    288.0   0.112018118   1.06225  -0.24024  -1.00218  -0.01305
  26   35196.8    284.1   0.003763772   0.03520   0.11060   0.13474  -0.06940
  27   35324.9    283.1   0.004478810   0.04174  -0.02510  -0.05736   0.19447
  28   35420.3    282.3   0.092533293   0.86005   0.53086   0.11116   0.75225
  29   35759.9    279.6   0.036607099   0.33701  -0.22810   0.53299   0.03002
  30   36096.2    277.0   0.073113211   0.66682  -0.13411   0.80211  -0.07385
  31   36326.8    275.3   0.005921834   0.05367   0.13332   0.18754   0.02685
  32   36375.0    274.9   0.077245525   0.69911  -0.17462   0.61306  -0.54109
  33   36810.3    271.7   0.152654990   1.36526  -0.31109  -0.96339  -0.58341
  34   37437.4    267.1   0.076594052   0.67354   0.39826  -0.47896   0.53435
  35   37837.9    264.3   0.048279353   0.42006   0.40902   0.50212   0.02523
  36   38153.7    262.1   0.036629250   0.31606   0.14744   0.28537   0.46140
  37   38284.8    261.2   0.050972266   0.43831  -0.11918  -0.64621   0.08072
  38   38459.1    260.0   0.012374581   0.10593   0.01763  -0.25568   0.20061
  39   39005.7    256.4   0.027391511   0.23119  -0.28138  -0.01314  -0.38967
  40   39046.7    256.1   0.006498853   0.05479   0.05024  -0.09022   0.21007
  41   39203.3    255.1   0.018524997   0.15556  -0.08584   0.33577  -0.18829
  42   39261.8    254.7   0.017312654   0.14517  -0.25171   0.02648  -0.28480
  43   39509.8    253.1   0.016158744   0.13464   0.05680  -0.30171   0.20097
  44   39582.2    252.6   0.006791386   0.05649  -0.13900  -0.16095  -0.10610
  45   40063.6    249.6   0.074627178   0.61323  -0.22750  -0.73630  -0.13905
  46   40318.9    248.0   0.007667007   0.06260  -0.08571   0.19043  -0.13781

FINAL SINGLE POINT ENERGY     -5458.252927530318

DIPOLE MOMENT
-------------
                                X             Y             Z
Electronic contribution:      3.30945     -13.57885      10.65231
Nuclear contribution   :     -3.52366      15.92304     -12.11403
                        -----------------------------------------
Total Dipole Moment    :     -0.21421       2.34419      -1.46172
                        -----------------------------------------
Magnitude (a.u.)       :      2.77087
Magnitude (Debye)      :      7.04299

Rotational constants in cm-1:     0.000932     0.000408     0.000287
Rotational constants in MHz :    27.951013    12.238291     8.598826

                             ****ORCA TERMINATED NORMALLY****
TOTAL RUN TIME: 0 days 0 hours 7 minutes 46 seconds 338 msec
