                         Program Version 4.2.0 -  RELEASE  -
|  1> # ORCA input file
|  2> # SCF done       -176.889498424928          0.000446168247
|  3> ! CAM-B3LYP def2-SVP def2/J RIJCOSX Grid4 TightSCF
|  4> %maxcore 5000
|  5> %tddft
|  6>     Mode sTDDFT
|  7>     Ethresh 5.0
|  8>     maxcore 5000
|  9> end
| 10>
| 11> %pal
| 12>   nprocs 6
| 13>   end
| 14> * xyz 0 1
| 15>    C       -2.83483        -1.20391        -1.25139
| 16>    C       -2.91822        -1.76334        -2.46739
| 17>    C       -3.41002        -0.98636        -3.57769
| 18>    C       -3.52411        -1.50015        -4.85324
| 19>    C       -4.00791        -0.72130        -5.91824
| 20>    N       -4.40534        -0.07120        -6.77764
| 21>    C       -3.16567        -2.82483        -5.15481
| 22>    N       -2.87057        -3.90855        -5.39438
| 23>    C       -3.77242         0.35772        -3.26158
| 24>    C       -3.65107         0.83564        -1.99226
| 25>    O       -3.18385         0.06564        -0.97292
| 26>    C       -3.99371         2.17192        -1.59719
| 27>    C       -3.89885         2.70525        -0.32665
| 28>    C       -4.31263         4.03733        -0.29322
| 29>    C       -4.72262         4.51073        -1.55169
| 30>    S       -4.60146         3.32388        -2.77022
| 31>    C       -5.11665         5.86755        -1.41858
| 32>    C       -4.95925         6.24894        -0.07563
| 33>    C       -4.45309         5.11098         0.67806
| 34>    C       -4.17216         5.05829         2.01064
| 35>    C       -4.36663         6.15995         2.87222
| 36>    N       -4.53069         7.04213         3.58510
| 37>    C       -3.67521         3.88769         2.62363
| 38>    N       -3.27261         2.93711         3.12212
| 39>    C       -5.31620         7.57639         0.16125
| 40>    C       -5.73131         8.20492        -0.99767
| 41>    S       -5.71003         7.13626        -2.39144
| 42>    C       -6.21791         9.52684        -1.20804
| 43>    O       -6.98790         9.72247        -2.28998
| 44>    C       -7.41912        11.00527        -2.28917
| 45>    C       -6.90027        11.67122        -1.17153
| 46>    C       -6.09545        10.71883        -0.49071
| 47>    C       -5.16308        10.92623         0.65063
| 48>    F       -4.12533        10.07531         0.61837
| 49>    F       -4.61256        12.14944         0.66038
| 50>    F       -5.74680        10.76606         1.85554
| 51>    O       -7.22262        12.94547        -0.93665
| 52>    C       -7.06074        13.51462         0.35287
| 53>    C       -8.25015        11.52093        -3.31198
| 54>    C       -8.65196        10.80033        -4.38836
| 55>    C       -9.46694        11.29798        -5.43632
| 56>    C      -10.05356        12.54759        -5.57504
| 57>    C      -10.76405        12.66305        -6.76669
| 58>    C      -10.72204        11.49515        -7.54886
| 59>    S       -9.81398        10.25524        -6.80691
| 60>    C      -11.45226        11.72487        -8.74191
| 61>    C      -11.95889        13.03760        -8.71342
| 62>    C      -11.54945        13.66827        -7.47084
| 63>    C      -11.83752        14.93288        -7.04944
| 64>    C      -12.61197        15.82332        -7.82319
| 65>    N      -13.24222        16.54773        -8.44968
| 66>    C      -11.38134        15.43242        -5.81130
| 67>    N      -11.01188        15.83808        -4.80456
| 68>    C      -12.68353        13.36150        -9.86061
| 69>    C      -12.72705        12.30901       -10.75363
| 70>    S      -11.86723        10.89416       -10.17196
| 71>    C      -13.36883        12.29938       -12.03584
| 72>    C      -13.36825        11.23500       -12.88596
| 73>    C      -14.02081        11.30728       -14.15303
| 74>    C      -14.03464        10.24843       -15.03810
| 75>    C      -14.67652        10.33203       -16.28492
| 76>    N      -15.20243        10.40745       -17.30325
| 77>    C      -13.40408         9.02948       -14.73649
| 78>    N      -12.88519         8.03848       -14.47559
| 79>    C      -14.66071        12.56694       -14.43974
| 80>    C      -14.60944        13.55762       -13.53737
| 81>    O      -13.98811        13.47047       -12.34697
| 82>    H       -2.47804        -1.71858        -0.37211
| 83>    H       -2.62209        -2.78716        -2.62444
| 84>    H       -4.14797         1.00072        -4.04279
| 85>    H       -3.54478         2.13959         0.51564
| 86>    H       -5.29594         8.04752         1.12566
| 87>    H       -7.81346        14.29941         0.41942
| 88>    H       -6.06986        13.95888         0.46305
| 89>    H       -7.23061        12.78221         1.14400
| 90>    H       -8.53811        12.55170        -3.17820
| 91>    H       -8.32246         9.77438        -4.47934
| 92>    H       -9.96057        13.32479        -4.83986
| 93>    H      -13.15687        14.30679       -10.05368
| 94>    H      -12.86570        10.32300       -12.60230
| 95>    H      -15.17451        12.70131       -15.37704
| 96>    H      -15.06273        14.52731       -13.67748
| 97> *
| 98>
| 99>                          ****END OF INPUT****

CARTESIAN COORDINATES (ANGSTROEM)
---------------------------------
  C     -2.834830   -1.203910   -1.251390
  C     -2.918220   -1.763340   -2.467390
  C     -3.410020   -0.986360   -3.577690
  C     -3.524110   -1.500150   -4.853240
  C     -4.007910   -0.721300   -5.918240
  N     -4.405340   -0.071200   -6.777640
  C     -3.165670   -2.824830   -5.154810
  N     -2.870570   -3.908550   -5.394380
  C     -3.772420    0.357720   -3.261580
  C     -3.651070    0.835640   -1.992260
  O     -3.183850    0.065640   -0.972920
  C     -3.993710    2.171920   -1.597190
  C     -3.898850    2.705250   -0.326650
  C     -4.312630    4.037330   -0.293220
  C     -4.722620    4.510730   -1.551690
  S     -4.601460    3.323880   -2.770220
  C     -5.116650    5.867550   -1.418580
  C     -4.959250    6.248940   -0.075630
  C     -4.453090    5.110980    0.678060
  C     -4.172160    5.058290    2.010640
  C     -4.366630    6.159950    2.872220
  N     -4.530690    7.042130    3.585100
  C     -3.675210    3.887690    2.623630
  N     -3.272610    2.937110    3.122120
  C     -5.316200    7.576390    0.161250
  C     -5.731310    8.204920   -0.997670
  S     -5.710030    7.136260   -2.391440
  C     -6.217910    9.526840   -1.208040
  O     -6.987900    9.722470   -2.289980
  C     -7.419120   11.005270   -2.289170
  C     -6.900270   11.671220   -1.171530
  C     -6.095450   10.718830   -0.490710
  C     -5.163080   10.926230    0.650630
  F     -4.125330   10.075310    0.618370
  F     -4.612560   12.149440    0.660380
  F     -5.746800   10.766060    1.855540
  O     -7.222620   12.945470   -0.936650
  C     -7.060740   13.514620    0.352870
  C     -8.250150   11.520930   -3.311980
  C     -8.651960   10.800330   -4.388360
  C     -9.466940   11.297980   -5.436320
  C    -10.053560   12.547590   -5.575040
  C    -10.764050   12.663050   -6.766690
  C    -10.722040   11.495150   -7.548860
  S     -9.813980   10.255240   -6.806910
  C    -11.452260   11.724870   -8.741910
  C    -11.958890   13.037600   -8.713420
  C    -11.549450   13.668270   -7.470840
  C    -11.837520   14.932880   -7.049440
  C    -12.611970   15.823320   -7.823190
  N    -13.242220   16.547730   -8.449680
  C    -11.381340   15.432420   -5.811300
  N    -11.011880   15.838080   -4.804560
  C    -12.683530   13.361500   -9.860610
  C    -12.727050   12.309010  -10.753630
  S    -11.867230   10.894160  -10.171960
  C    -13.368830   12.299380  -12.035840
  C    -13.368250   11.235000  -12.885960
  C    -14.020810   11.307280  -14.153030
  C    -14.034640   10.248430  -15.038100
  C    -14.676520   10.332030  -16.284920
  N    -15.202430   10.407450  -17.303250
  C    -13.404080    9.029480  -14.736490
  N    -12.885190    8.038480  -14.475590
  C    -14.660710   12.566940  -14.439740
  C    -14.609440   13.557620  -13.537370
  O    -13.988110   13.470470  -12.346970
  H     -2.478040   -1.718580   -0.372110
  H     -2.622090   -2.787160   -2.624440
  H     -4.147970    1.000720   -4.042790
  H     -3.544780    2.139590    0.515640
  H     -5.295940    8.047520    1.125660
  H     -7.813460   14.299410    0.419420
  H     -6.069860   13.958880    0.463050
  H     -7.230610   12.782210    1.144000
  H     -8.538110   12.551700   -3.178200
  H     -8.322460    9.774380   -4.479340
  H     -9.960570   13.324790   -4.839860
  H    -13.156870   14.306790  -10.053680
  H    -12.865700   10.323000  -12.602300
  H    -15.174510   12.701310  -15.377040
  H    -15.062730   14.527310  -13.677480

 Total Charge           Charge          ....    0
 Multiplicity           Mult            ....    1
 Number of Electrons    NEL             ....  482
 Basis Dimension        Dim             .... 1029

ORBITAL ENERGIES
----------------

  NO   OCC          E(Eh)            E(eV)
   0   2.0000     -89.014885     -2422.2182
   1   2.0000     -89.010561     -2422.1005
   2   2.0000     -89.007310     -2422.0120
   3   2.0000     -88.999190     -2421.7911
   4   2.0000     -24.822685      -675.4596
   5   2.0000     -24.820993      -675.4136
   6   2.0000     -24.818931      -675.3575
   7   2.0000     -19.335132      -526.1357
   8   2.0000     -19.331533      -526.0377
   9   2.0000     -19.329682      -525.9874
  10   2.0000     -19.280666      -524.6536
  11   2.0000     -14.446164      -393.1001
  12   2.0000     -14.444951      -393.0671
  13   2.0000     -14.441215      -392.9654
  14   2.0000     -14.440999      -392.9596
  15   2.0000     -14.404147      -391.9568
  16   2.0000     -14.402250      -391.9051
  17   2.0000     -14.399104      -391.8195
  18   2.0000     -14.397725      -391.7820
  19   2.0000     -10.546326      -286.9801
  20   2.0000     -10.401612      -283.0422
  21   2.0000     -10.395705      -282.8815
  22   2.0000     -10.387652      -282.6624
  23   2.0000     -10.384542      -282.5777
  24   2.0000     -10.382963      -282.5348
  25   2.0000     -10.379564      -282.4423
  26   2.0000     -10.376236      -282.3517
  27   2.0000     -10.375026      -282.3188
  28   2.0000     -10.369465      -282.1675
  29   2.0000     -10.363514      -282.0055
  30   2.0000     -10.358043      -281.8567
  31   2.0000     -10.353810      -281.7415
  32   2.0000     -10.352205      -281.6978
  33   2.0000     -10.351691      -281.6838
  34   2.0000     -10.349472      -281.6234
  35   2.0000     -10.346813      -281.5511
  36   2.0000     -10.345953      -281.5277
  37   2.0000     -10.345868      -281.5254
  38   2.0000     -10.344352      -281.4841
  39   2.0000     -10.342880      -281.4441
  40   2.0000     -10.341456      -281.4053
  41   2.0000     -10.341007      -281.3931
  42   2.0000     -10.340701      -281.3848
  43   2.0000     -10.339178      -281.3433
  44   2.0000     -10.338182      -281.3162
  45   2.0000     -10.336072      -281.2588
  46   2.0000     -10.326977      -281.0113
  47   2.0000     -10.325773      -280.9786
  48   2.0000     -10.325687      -280.9762
  49   2.0000     -10.324382      -280.9407
  50   2.0000     -10.324207      -280.9360
  51   2.0000     -10.323271      -280.9105
  52   2.0000     -10.320470      -280.8343
  53   2.0000     -10.320138      -280.8252
  54   2.0000     -10.317148      -280.7439
  55   2.0000     -10.316565      -280.7280
  56   2.0000     -10.315283      -280.6931
  57   2.0000     -10.314291      -280.6661
  58   2.0000     -10.309857      -280.5455
  59   2.0000     -10.309226      -280.5283
  60   2.0000     -10.309113      -280.5252
  61   2.0000     -10.308940      -280.5205
  62   2.0000     -10.307605      -280.4842
  63   2.0000     -10.305765      -280.4341
  64   2.0000     -10.305758      -280.4339
  65   2.0000     -10.302728      -280.3515
  66   2.0000     -10.301503      -280.3181
  67   2.0000      -8.109137      -220.6608
  68   2.0000      -8.105012      -220.5486
  69   2.0000      -8.101648      -220.4571
  70   2.0000      -8.093905      -220.2463
  71   2.0000      -6.078437      -165.4027
  72   2.0000      -6.074310      -165.2904
  73   2.0000      -6.074224      -165.2880
  74   2.0000      -6.071469      -165.2131
  75   2.0000      -6.070959      -165.1992
  76   2.0000      -6.070006      -165.1732
  77   2.0000      -6.067369      -165.1015
  78   2.0000      -6.066737      -165.0843
  79   2.0000      -6.063942      -165.0082
  80   2.0000      -6.063076      -164.9847
  81   2.0000      -6.058949      -164.8724
  82   2.0000      -6.056373      -164.8023
  83   2.0000      -1.412090       -38.4249
  84   2.0000      -1.314067       -35.7576
  85   2.0000      -1.311120       -35.6774
  86   2.0000      -1.253476       -34.1088
  87   2.0000      -1.245047       -33.8795
  88   2.0000      -1.239485       -33.7281
  89   2.0000      -1.184026       -32.2190
  90   2.0000      -1.065487       -28.9934
  91   2.0000      -1.057216       -28.7683
  92   2.0000      -1.038123       -28.2488
  93   2.0000      -1.033147       -28.1133
  94   2.0000      -1.023629       -27.8544
  95   2.0000      -1.021048       -27.7841
  96   2.0000      -1.018760       -27.7219
  97   2.0000      -1.012058       -27.5395
  98   2.0000      -1.004421       -27.3317
  99   2.0000      -0.999446       -27.1963
 100   2.0000      -0.982608       -26.7381
 101   2.0000      -0.982127       -26.7250
 102   2.0000      -0.977691       -26.6043
 103   2.0000      -0.974449       -26.5161
 104   2.0000      -0.966337       -26.2954
 105   2.0000      -0.961033       -26.1510
 106   2.0000      -0.951574       -25.8936
 107   2.0000      -0.945740       -25.7349
 108   2.0000      -0.942075       -25.6352
 109   2.0000      -0.935253       -25.4495
 110   2.0000      -0.918419       -24.9914
 111   2.0000      -0.908220       -24.7139
 112   2.0000      -0.892002       -24.2726
 113   2.0000      -0.884587       -24.0708
 114   2.0000      -0.884454       -24.0672
 115   2.0000      -0.878694       -23.9105
 116   2.0000      -0.875557       -23.8251
 117   2.0000      -0.871436       -23.7130
 118   2.0000      -0.865518       -23.5519
 119   2.0000      -0.844940       -22.9920
 120   2.0000      -0.827608       -22.5204
 121   2.0000      -0.812390       -22.1063
 122   2.0000      -0.810895       -22.0656
 123   2.0000      -0.800530       -21.7835
 124   2.0000      -0.796294       -21.6683
 125   2.0000      -0.793852       -21.6018
 126   2.0000      -0.782441       -21.2913
 127   2.0000      -0.774274       -21.0691
 128   2.0000      -0.762260       -20.7421
 129   2.0000      -0.748794       -20.3757
 130   2.0000      -0.737776       -20.0759
 131   2.0000      -0.723747       -19.6941
 132   2.0000      -0.718842       -19.5607
 133   2.0000      -0.715300       -19.4643
 134   2.0000      -0.712114       -19.3776
 135   2.0000      -0.700380       -19.0583
 136   2.0000      -0.697767       -18.9872
 137   2.0000      -0.694783       -18.9060
 138   2.0000      -0.694066       -18.8865
 139   2.0000      -0.685621       -18.6567
 140   2.0000      -0.681356       -18.5406
 141   2.0000      -0.680282       -18.5114
 142   2.0000      -0.676076       -18.3970
 143   2.0000      -0.659039       -17.9334
 144   2.0000      -0.653723       -17.7887
 145   2.0000      -0.647782       -17.6271
 146   2.0000      -0.643545       -17.5118
 147   2.0000      -0.639303       -17.3963
 148   2.0000      -0.635102       -17.2820
 149   2.0000      -0.627888       -17.0857
 150   2.0000      -0.624806       -17.0018
 151   2.0000      -0.619308       -16.8522
 152   2.0000      -0.609375       -16.5819
 153   2.0000      -0.606764       -16.5109
 154   2.0000      -0.604704       -16.4548
 155   2.0000      -0.601956       -16.3801
 156   2.0000      -0.599278       -16.3072
 157   2.0000      -0.595773       -16.2118
 158   2.0000      -0.594144       -16.1675
 159   2.0000      -0.590184       -16.0597
 160   2.0000      -0.588002       -16.0003
 161   2.0000      -0.579501       -15.7690
 162   2.0000      -0.576831       -15.6964
 163   2.0000      -0.572902       -15.5895
 164   2.0000      -0.569509       -15.4971
 165   2.0000      -0.568624       -15.4730
 166   2.0000      -0.566118       -15.4049
 167   2.0000      -0.563046       -15.3213
 168   2.0000      -0.562912       -15.3176
 169   2.0000      -0.558146       -15.1879
 170   2.0000      -0.557140       -15.1606
 171   2.0000      -0.556669       -15.1477
 172   2.0000      -0.540817       -14.7164
 173   2.0000      -0.529995       -14.4219
 174   2.0000      -0.528388       -14.3782
 175   2.0000      -0.527220       -14.3464
 176   2.0000      -0.521872       -14.2009
 177   2.0000      -0.520972       -14.1764
 178   2.0000      -0.517316       -14.0769
 179   2.0000      -0.515980       -14.0405
 180   2.0000      -0.515807       -14.0358
 181   2.0000      -0.510558       -13.8930
 182   2.0000      -0.507200       -13.8016
 183   2.0000      -0.503358       -13.6971
 184   2.0000      -0.501032       -13.6338
 185   2.0000      -0.500007       -13.6059
 186   2.0000      -0.498400       -13.5621
 187   2.0000      -0.495999       -13.4968
 188   2.0000      -0.495770       -13.4906
 189   2.0000      -0.494667       -13.4606
 190   2.0000      -0.490466       -13.3463
 191   2.0000      -0.487768       -13.2729
 192   2.0000      -0.482485       -13.1291
 193   2.0000      -0.482181       -13.1208
 194   2.0000      -0.479327       -13.0431
 195   2.0000      -0.475711       -12.9448
 196   2.0000      -0.473345       -12.8804
 197   2.0000      -0.472254       -12.8507
 198   2.0000      -0.471925       -12.8417
 199   2.0000      -0.468842       -12.7578
 200   2.0000      -0.467889       -12.7319
 201   2.0000      -0.462957       -12.5977
 202   2.0000      -0.460193       -12.5225
 203   2.0000      -0.459080       -12.4922
 204   2.0000      -0.455028       -12.3819
 205   2.0000      -0.454270       -12.3613
 206   2.0000      -0.452635       -12.3168
 207   2.0000      -0.451215       -12.2782
 208   2.0000      -0.449076       -12.2200
 209   2.0000      -0.447824       -12.1859
 210   2.0000      -0.441779       -12.0214
 211   2.0000      -0.441598       -12.0165
 212   2.0000      -0.437955       -11.9174
 213   2.0000      -0.436971       -11.8906
 214   2.0000      -0.433578       -11.7982
 215   2.0000      -0.433399       -11.7934
 216   2.0000      -0.432439       -11.7672
 217   2.0000      -0.429164       -11.6781
 218   2.0000      -0.422849       -11.5063
 219   2.0000      -0.420666       -11.4469
 220   2.0000      -0.418470       -11.3871
 221   2.0000      -0.418097       -11.3770
 222   2.0000      -0.416009       -11.3202
 223   2.0000      -0.415978       -11.3193
 224   2.0000      -0.413289       -11.2462
 225   2.0000      -0.412543       -11.2259
 226   2.0000      -0.406446       -11.0600
 227   2.0000      -0.404845       -11.0164
 228   2.0000      -0.400233       -10.8909
 229   2.0000      -0.390536       -10.6270
 230   2.0000      -0.370016       -10.0686
 231   2.0000      -0.363826        -9.9002
 232   2.0000      -0.363111        -9.8807
 233   2.0000      -0.360201        -9.8016
 234   2.0000      -0.340625        -9.2689
 235   2.0000      -0.334675        -9.1070
 236   2.0000      -0.322366        -8.7720
 237   2.0000      -0.303463        -8.2576
 238   2.0000      -0.287118        -7.8129
 239   2.0000      -0.278848        -7.5878
 240   2.0000      -0.249620        -6.7925
 241   0.0000      -0.125356        -3.4111
 242   0.0000      -0.116941        -3.1821
 243   0.0000      -0.081874        -2.2279
 244   0.0000      -0.072134        -1.9629
 245   0.0000      -0.056464        -1.5365

MULLIKEN ATOMIC CHARGES
-----------------------
   0 C :    0.192863
   1 C :   -0.068271
   2 C :    0.240760
   3 C :   -0.332990
   4 C :   -0.175235
   5 N :    0.127842
   6 C :   -0.179500
   7 N :    0.135072
   8 C :   -0.162057
   9 C :    0.241316
  10 O :   -0.209839
  11 C :   -0.092163
  12 C :   -0.031121
  13 C :    0.016865
  14 C :   -0.086561
  15 S :    0.212633
  16 C :   -0.094641
  17 C :   -0.001578
  18 C :    0.301420
  19 C :   -0.291363
  20 C :   -0.189559
  21 N :    0.185898
  22 C :   -0.189441
  23 N :    0.181184
  24 C :   -0.011048
  25 C :   -0.131453
  26 S :    0.226940
  27 C :    0.168343
  28 O :   -0.202069
  29 C :    0.099546
  30 C :    0.150248
  31 C :   -0.191803
  32 C :    0.528761
  33 F :   -0.154565
  34 F :   -0.155559
  35 F :   -0.160433
  36 O :   -0.292304
  37 C :    0.170949
  38 C :   -0.027578
  39 C :    0.039540
  40 C :   -0.066972
  41 C :   -0.044251
  42 C :    0.020211
  43 C :   -0.112870
  44 S :    0.198837
  45 C :   -0.082016
  46 C :    0.008743
  47 C :    0.302755
  48 C :   -0.294482
  49 C :   -0.189369
  50 N :    0.176604
  51 C :   -0.185853
  52 N :    0.175892
  53 C :   -0.027275
  54 C :   -0.096794
  55 S :    0.206899
  56 C :    0.241859
  57 C :   -0.167738
  58 C :    0.243778
  59 C :   -0.337325
  60 C :   -0.181172
  61 N :    0.130388
  62 C :   -0.173707
  63 N :    0.126599
  64 C :   -0.068257
  65 C :    0.192509
  66 O :   -0.210311
  67 H :    0.043823
  68 H :    0.039682
  69 H :    0.031544
  70 H :    0.020904
  71 H :    0.017183
  72 H :    0.046310
  73 H :    0.047790
  74 H :    0.033086
  75 H :    0.016362
  76 H :   -0.010863
  77 H :    0.008863
  78 H :    0.018090
  79 H :    0.030551
  80 H :    0.038707
  81 H :    0.042232
Sum of atomic charges:   -0.0000000

LOEWDIN ATOMIC CHARGES
----------------------
   0 C :    0.104352
   1 C :   -0.050443
   2 C :    0.056029
   3 C :   -0.174854
   4 C :   -0.028947
   5 N :   -0.068240
   6 C :   -0.031008
   7 N :   -0.064513
   8 C :   -0.061890
   9 C :    0.075379
  10 O :    0.004037
  11 C :   -0.191763
  12 C :   -0.002761
  13 C :   -0.070444
  14 C :   -0.164545
  15 S :    0.503907
  16 C :   -0.184598
  17 C :   -0.062391
  18 C :    0.077479
  19 C :   -0.092517
  20 C :   -0.019318
  21 N :   -0.019709
  22 C :   -0.016747
  23 N :   -0.025356
  24 C :   -0.014051
  25 C :   -0.182902
  26 S :    0.500807
  27 C :    0.039648
  28 O :    0.022615
  29 C :   -0.005678
  30 C :    0.035684
  31 C :   -0.157819
  32 C :    0.170132
  33 F :   -0.046781
  34 F :   -0.048028
  35 F :   -0.062708
  36 O :   -0.085961
  37 C :    0.082131
  38 C :   -0.015989
  39 C :   -0.053283
  40 C :   -0.150864
  41 C :   -0.032623
  42 C :   -0.055607
  43 C :   -0.200698
  44 S :    0.482575
  45 C :   -0.156032
  46 C :   -0.079330
  47 C :    0.081120
  48 C :   -0.099013
  49 C :   -0.017131
  50 N :   -0.028942
  51 C :   -0.015735
  52 N :   -0.031100
  53 C :   -0.001253
  54 C :   -0.198301
  55 S :    0.499519
  56 C :    0.076871
  57 C :   -0.066174
  58 C :    0.056628
  59 C :   -0.177743
  60 C :   -0.030932
  61 N :   -0.067845
  62 C :   -0.029002
  63 N :   -0.070220
  64 C :   -0.051618
  65 C :    0.103382
  66 O :    0.003381
  67 H :    0.042641
  68 H :    0.054064
  69 H :    0.040284
  70 H :    0.046072
  71 H :    0.039351
  72 H :    0.032235
  73 H :    0.021652
  74 H :    0.018134
  75 H :    0.044476
  76 H :    0.028967
  77 H :    0.039381
  78 H :    0.045193
  79 H :    0.039848
  80 H :    0.053525
  81 H :    0.041908

  Mayer bond orders larger than 0.100000
B(  0-C ,  1-C ) :   1.6877 B(  0-C , 10-O ) :   1.1047 B(  0-C , 67-H ) :   0.9750
B(  1-C ,  2-C ) :   1.1259 B(  1-C , 68-H ) :   0.9607 B(  2-C ,  3-C ) :   1.5772
B(  2-C ,  8-C ) :   1.1488 B(  3-C ,  4-C ) :   1.1328 B(  3-C ,  6-C ) :   1.1274
B(  4-C ,  5-N ) :   3.0056 B(  6-C ,  7-N ) :   3.0165 B(  8-C ,  9-C ) :   1.5475
B(  8-C , 69-H ) :   0.9569 B(  9-C , 10-O ) :   1.1538 B(  9-C , 11-C ) :   1.1052
B( 11-C , 12-C ) :   1.4449 B( 11-C , 15-S ) :   1.1061 B( 12-C , 13-C ) :   1.2696
B( 12-C , 70-H ) :   1.0058 B( 13-C , 14-C ) :   1.4356 B( 13-C , 18-C ) :   0.9951
B( 14-C , 15-S ) :   1.1432 B( 14-C , 16-C ) :   1.1900 B( 16-C , 17-C ) :   1.4375
B( 16-C , 26-S ) :   1.1224 B( 17-C , 18-C ) :   0.9920 B( 17-C , 24-C ) :   1.3131
B( 18-C , 19-C ) :   1.7208 B( 19-C , 20-C ) :   1.1353 B( 19-C , 22-C ) :   1.1344
B( 20-C , 21-N ) :   2.9890 B( 22-C , 23-N ) :   2.9941 B( 24-C , 25-C ) :   1.4797
B( 24-C , 71-H ) :   0.9792 B( 25-C , 26-S ) :   1.1029 B( 25-C , 27-C ) :   1.0913
B( 27-C , 28-O ) :   1.2064 B( 27-C , 29-C ) :   0.1252 B( 27-C , 31-C ) :   1.4672
B( 28-O , 29-C ) :   1.0975 B( 29-C , 30-C ) :   1.3848 B( 29-C , 38-C ) :   1.1909
B( 30-C , 31-C ) :   1.2173 B( 30-C , 36-O ) :   1.2479 B( 31-C , 32-C ) :   0.9424
B( 32-C , 33-F ) :   1.1585 B( 32-C , 34-F ) :   1.1574 B( 32-C , 35-F ) :   1.1484
B( 36-O , 37-C ) :   0.9135 B( 37-C , 72-H ) :   0.9777 B( 37-C , 73-H ) :   0.9744
B( 37-C , 74-H ) :   0.9637 B( 38-C , 39-C ) :   1.6321 B( 38-C , 75-H ) :   0.9591
B( 39-C , 40-C ) :   1.1137 B( 39-C , 76-H ) :   0.9689 B( 40-C , 41-C ) :   1.4444
B( 40-C , 44-S ) :   1.1171 B( 41-C , 42-C ) :   1.3091 B( 41-C , 77-H ) :   0.9896
B( 42-C , 43-C ) :   1.4304 B( 42-C , 47-C ) :   0.9944 B( 43-C , 44-S ) :   1.1109
B( 43-C , 45-C ) :   1.2021 B( 45-C , 46-C ) :   1.4260 B( 45-C , 55-S ) :   1.1477
B( 46-C , 47-C ) :   0.9984 B( 46-C , 53-C ) :   1.2712 B( 47-C , 48-C ) :   1.7170
B( 48-C , 49-C ) :   1.1301 B( 48-C , 51-C ) :   1.1361 B( 49-C , 50-N ) :   2.9963
B( 51-C , 52-N ) :   2.9895 B( 53-C , 54-C ) :   1.4434 B( 53-C , 78-H ) :   1.0057
B( 54-C , 55-S ) :   1.0961 B( 54-C , 56-C ) :   1.1117 B( 56-C , 57-C ) :   1.5389
B( 56-C , 66-O ) :   1.1552 B( 57-C , 58-C ) :   1.1516 B( 57-C , 79-H ) :   0.9585
B( 58-C , 59-C ) :   1.5717 B( 58-C , 64-C ) :   1.1265 B( 59-C , 60-C ) :   1.1288
B( 59-C , 62-C ) :   1.1334 B( 60-C , 61-N ) :   3.0149 B( 62-C , 63-N ) :   3.0057
B( 64-C , 65-C ) :   1.6870 B( 64-C , 80-H ) :   0.9604 B( 65-C , 66-O ) :   1.1048
B( 65-C , 81-H ) :   0.9751

-----------------------------------------------------------------------------
         ABSORPTION SPECTRUM VIA TRANSITION ELECTRIC DIPOLE MOMENTS
-----------------------------------------------------------------------------
State   Energy  Wavelength   fosc         T2         TX        TY        TZ
        (cm-1)    (nm)                  (au**2)     (au)      (au)      (au)
-----------------------------------------------------------------------------
   0   11535.8    866.9   0.294353428   8.40035   1.61480  -1.35997   1.98576
   1   12590.1    794.3   0.114496538   2.99391   0.48017  -1.64458  -0.24231
   2   19211.3    520.5   0.153442612   2.62946   0.84203  -0.42375   1.31942
   3   20941.1    477.5   0.545102346   8.56946   1.65467  -1.64945   1.76375
   4   21924.7    456.1   0.687731712  10.32668   1.80698  -1.67488   2.06307
   5   23727.2    421.5   0.186264155   2.58439   0.66003   0.07714   1.46383
   6   24990.5    400.2   0.195891833   2.58058   0.26049  -1.45364  -0.63219
   7   25778.9    387.9   1.268412998  16.19837   0.56878   2.50087   3.10170
   8   27239.7    367.1   0.000338978   0.00410   0.02118  -0.04398   0.04140
   9   28417.7    351.9   0.152054094   1.76151   0.45826  -0.10285   1.24134
  10   28848.0    346.6   0.094001283   1.07274  -0.06814  -0.66346  -0.79241
  11   30234.1    330.8   0.501194069   5.45738  -0.32042   1.91286   1.30218
  12   30968.0    322.9   0.420645342   4.47176   0.36141   0.12344   2.07988
  13   31368.1    318.8   0.150198664   1.57635  -0.24150   1.05567  -0.63528
  14   31462.5    317.8   0.343803160   3.59743  -0.47532   1.70616   0.67863
  15   31652.8    315.9   0.097829622   1.01750  -0.15023  -0.21207  -0.97466
  16   32664.8    306.1   0.151143358   1.52330  -0.24873  -0.13518  -1.20131
  17   32909.7    303.9   0.039432402   0.39446  -0.14935   0.37504   0.48115
  18   33516.4    298.4   0.156065142   1.53294  -0.68786   0.78249  -0.66895
  19   33754.7    296.3   0.363360145   3.54388  -0.23201  -1.38653  -1.25204
  20   33947.5    294.6   0.219796774   2.13152  -0.14382  -1.17780  -0.85066
  21   34499.3    289.9   0.034212189   0.32647  -0.36084   0.38875  -0.21246
  22   35450.4    282.1   0.043334191   0.40243  -0.10841  -0.48641  -0.39253
  23   35962.3    278.1   0.055081887   0.50424   0.02730  -0.45303  -0.54613
  24   36314.2    275.4   0.004230436   0.03835   0.12230  -0.15241   0.01287
  25   36571.9    273.4   0.003032932   0.02730  -0.10811   0.09871  -0.07663
  26   36826.9    271.5   0.294290243   2.63079  -0.52306  -0.30436  -1.50485
  27   37340.5    267.8   0.295267667   2.60323   0.46701  -1.53342   0.18370
  28   37858.6    264.1   0.012671374   0.11019   0.08551  -0.31050   0.08041
  29   38788.1    257.8   0.025394693   0.21554   0.09307  -0.42546   0.16082
  30   39028.9    256.2   0.029064592   0.24516   0.10426  -0.15018   0.46015
  31   39431.8    253.6   0.046297329   0.38653   0.14619  -0.50918   0.32542
  32   39654.0    252.2   0.040835095   0.33902  -0.07386  -0.25125  -0.52004
  33   39920.6    250.5   0.124294132   1.02501   0.07540   0.55941   0.84047
  34   40021.5    249.9   0.172878969   1.42208   0.12578  -0.95033  -0.70931

FINAL SINGLE POINT ENERGY     -4465.083422950609

DIPOLE MOMENT
-------------
                                X             Y             Z
Electronic contribution:     12.86357      -0.43672      15.85340
Nuclear contribution   :    -12.19121       3.15250     -11.63905
                        -----------------------------------------
Total Dipole Moment    :      0.67236       2.71577       4.21435
                        -----------------------------------------
Magnitude (a.u.)       :      5.05848
Magnitude (Debye)      :     12.85763

Rotational constants in cm-1:     0.000985     0.000338     0.000253
Rotational constants in MHz :    29.522403    10.118071     7.592619

                             ****ORCA TERMINATED NORMALLY****
TOTAL RUN TIME: 0 days 0 hours 9 minutes 49 seconds 758 msec
