                         Program Version 4.2.0 -  RELEASE  -
|  1> # ORCA input file
|  2> # SCF done       -198.990657839304          0.000703426148
|  3> ! CAM-B3LYP def2-SVP def2/J RIJCOSX Grid4 TightSCF
|  4> %maxcore 5000
|  5> %tddft
|  6>     Mode sTDDFT
|  7>     Ethresh 5.0
|  8>     maxcore 5000
|  9> end
| 10>
| 11> %pal
| 12>   nprocs 6
| 13>   end
| 14> * xyz 0 1
| 15>    C       -4.55679        -0.63220        -6.49816
| 16>    C       -3.63938        -1.01300        -5.56610
| 17>    C       -3.25140         0.07174        -4.75703
| 18>    C       -3.90154         1.26064        -5.11110
| 19>    S       -4.97487         1.04701        -6.42114
| 20>    C       -3.45666         2.29700        -4.24392
| 21>    C       -2.52519         1.75715        -3.34425
| 22>    C       -2.36440         0.33730        -3.63969
| 23>    C       -1.55199        -0.54951        -2.99675
| 24>    C       -0.73014        -0.16939        -1.91449
| 25>    N       -0.05933         0.13633        -1.03651
| 26>    C       -1.47922        -1.90825        -3.37015
| 27>    N       -1.41741        -3.01339        -3.66907
| 28>    C       -2.03211         2.69656        -2.43940
| 29>    C       -2.58474         3.95026        -2.64519
| 30>    S       -3.72618         3.95987        -3.98172
| 31>    C       -2.34067         5.13709        -1.90835
| 32>    C       -1.50501         5.29421        -0.81262
| 33>    C       -1.53577         6.59591        -0.31944
| 34>    C       -2.39825         7.44192        -1.04577
| 35>    S       -3.16514         6.62866        -2.33647
| 36>    C       -2.39045         8.72521        -0.45875
| 37>    C       -1.51761         8.69473         0.65207
| 38>    C       -0.94676         7.36248         0.76790
| 39>    C       -0.05187         6.92655         1.69993
| 40>    C        0.44729         7.76890         2.71619
| 41>    N        0.85783         8.44309         3.54788
| 42>    C        0.43614         5.60256         1.71070
| 43>    N        0.83773         4.52876         1.72269
| 44>    C       -1.46165         9.90582         1.32357
| 45>    C       -2.28144        10.86501         0.73614
| 46>    S       -3.12280        10.25581        -0.68173
| 47>    C       -2.49555        12.18913         1.18690
| 48>    C       -3.35094        13.06987         0.48246
| 49>    C       -3.64444        14.41343         0.91978
| 50>    N       -4.51005        15.15248         0.21235
| 51>    C       -5.05896        14.66108        -0.87221
| 52>    C       -4.73590        13.34379        -1.32883
| 53>    N       -3.90636        12.59864        -0.63854
| 54>    C       -5.30751        12.82240        -2.51469
| 55>    N       -5.77982        12.42033        -3.47774
| 56>    C       -6.00349        15.43817        -1.59040
| 57>    N       -6.78381        16.01631        -2.19680
| 58>    C       -3.06656        14.94005         2.10259
| 59>    C       -2.21133        14.05831         2.80346
| 60>    C       -1.91755        12.71778         2.36363
| 61>    N       -1.08504        12.10050         3.20143
| 62>    S       -0.70792        13.08552         4.40847
| 63>    N       -1.58094        14.35258         3.94019
| 64>    C       -3.32509        16.24021         2.60860
| 65>    C       -4.02023        17.28337         2.00629
| 66>    C       -4.10443        18.39759         2.82778
| 67>    C       -3.47788        18.20643         4.07885
| 68>    S       -2.74847        16.66860         4.21659
| 69>    C       -3.66410        19.37492         4.84907
| 70>    C       -4.40090        20.30989         4.09571
| 71>    C       -4.68172        19.73206         2.79012
| 72>    C       -5.32328        20.32286         1.74245
| 73>    C       -5.83991        21.63356         1.82255
| 74>    N       -6.25909        22.69838         1.89021
| 75>    C       -5.48665        19.67138         0.50035
| 76>    N       -5.60272        19.15398        -0.51572
| 77>    C       -4.65811        21.48979         4.78980
| 78>    C       -4.12836        21.46270         6.07042
| 79>    S       -3.28960        19.95636         6.41099
| 80>    C       -4.21801        22.47073         7.06421
| 81>    C       -4.84056        23.70410         6.96486
| 82>    C       -4.74760        24.42991         8.15218
| 83>    C       -4.05100        23.74765         9.16043
| 84>    S       -3.50662        22.21406         8.65071
| 85>    C       -4.02128        24.56593        10.32384
| 86>    C       -4.69839        25.76017        10.04760
| 87>    C       -5.17703        25.72162         8.67818
| 88>    C       -5.88053        26.68556         8.01822
| 89>    C       -6.24495        27.90230         8.63282
| 90>    N       -6.54339        28.89201         9.12900
| 91>    C       -6.29177        26.53216         6.67708
| 92>    N       -6.62732        26.40960         5.58777
| 93>    C       -4.72084        26.63205        11.15280
| 94>    C       -4.07372        26.09229        12.22274
| 95>    S       -3.42054        24.51631        11.92107
| 96>    H       -5.02680        -1.24222        -7.24337
| 97>    H       -3.26716        -2.01647        -5.47020
| 98>    H       -1.31257         2.48937        -1.66925
| 99>    H       -0.91666         4.49483        -0.40182
|100>    H       -0.87643        10.11825         2.19935
|101>    H       -4.43742        17.19982         1.02035
|102>    H       -5.20617        22.32609         4.39733
|103>    H       -5.33285        24.04493         6.07309
|104>    H       -5.18605        27.60063        11.16316
|105>    H       -3.93392        26.52614        13.19256
|106> *
|107>
|108>                          ****END OF INPUT****

CARTESIAN COORDINATES (ANGSTROEM)
---------------------------------
  C     -4.556790   -0.632200   -6.498160
  C     -3.639380   -1.013000   -5.566100
  C     -3.251400    0.071740   -4.757030
  C     -3.901540    1.260640   -5.111100
  S     -4.974870    1.047010   -6.421140
  C     -3.456660    2.297000   -4.243920
  C     -2.525190    1.757150   -3.344250
  C     -2.364400    0.337300   -3.639690
  C     -1.551990   -0.549510   -2.996750
  C     -0.730140   -0.169390   -1.914490
  N     -0.059330    0.136330   -1.036510
  C     -1.479220   -1.908250   -3.370150
  N     -1.417410   -3.013390   -3.669070
  C     -2.032110    2.696560   -2.439400
  C     -2.584740    3.950260   -2.645190
  S     -3.726180    3.959870   -3.981720
  C     -2.340670    5.137090   -1.908350
  C     -1.505010    5.294210   -0.812620
  C     -1.535770    6.595910   -0.319440
  C     -2.398250    7.441920   -1.045770
  S     -3.165140    6.628660   -2.336470
  C     -2.390450    8.725210   -0.458750
  C     -1.517610    8.694730    0.652070
  C     -0.946760    7.362480    0.767900
  C     -0.051870    6.926550    1.699930
  C      0.447290    7.768900    2.716190
  N      0.857830    8.443090    3.547880
  C      0.436140    5.602560    1.710700
  N      0.837730    4.528760    1.722690
  C     -1.461650    9.905820    1.323570
  C     -2.281440   10.865010    0.736140
  S     -3.122800   10.255810   -0.681730
  C     -2.495550   12.189130    1.186900
  C     -3.350940   13.069870    0.482460
  C     -3.644440   14.413430    0.919780
  N     -4.510050   15.152480    0.212350
  C     -5.058960   14.661080   -0.872210
  C     -4.735900   13.343790   -1.328830
  N     -3.906360   12.598640   -0.638540
  C     -5.307510   12.822400   -2.514690
  N     -5.779820   12.420330   -3.477740
  C     -6.003490   15.438170   -1.590400
  N     -6.783810   16.016310   -2.196800
  C     -3.066560   14.940050    2.102590
  C     -2.211330   14.058310    2.803460
  C     -1.917550   12.717780    2.363630
  N     -1.085040   12.100500    3.201430
  S     -0.707920   13.085520    4.408470
  N     -1.580940   14.352580    3.940190
  C     -3.325090   16.240210    2.608600
  C     -4.020230   17.283370    2.006290
  C     -4.104430   18.397590    2.827780
  C     -3.477880   18.206430    4.078850
  S     -2.748470   16.668600    4.216590
  C     -3.664100   19.374920    4.849070
  C     -4.400900   20.309890    4.095710
  C     -4.681720   19.732060    2.790120
  C     -5.323280   20.322860    1.742450
  C     -5.839910   21.633560    1.822550
  N     -6.259090   22.698380    1.890210
  C     -5.486650   19.671380    0.500350
  N     -5.602720   19.153980   -0.515720
  C     -4.658110   21.489790    4.789800
  C     -4.128360   21.462700    6.070420
  S     -3.289600   19.956360    6.410990
  C     -4.218010   22.470730    7.064210
  C     -4.840560   23.704100    6.964860
  C     -4.747600   24.429910    8.152180
  C     -4.051000   23.747650    9.160430
  S     -3.506620   22.214060    8.650710
  C     -4.021280   24.565930   10.323840
  C     -4.698390   25.760170   10.047600
  C     -5.177030   25.721620    8.678180
  C     -5.880530   26.685560    8.018220
  C     -6.244950   27.902300    8.632820
  N     -6.543390   28.892010    9.129000
  C     -6.291770   26.532160    6.677080
  N     -6.627320   26.409600    5.587770
  C     -4.720840   26.632050   11.152800
  C     -4.073720   26.092290   12.222740
  S     -3.420540   24.516310   11.921070
  H     -5.026800   -1.242220   -7.243370
  H     -3.267160   -2.016470   -5.470200
  H     -1.312570    2.489370   -1.669250
  H     -0.916660    4.494830   -0.401820
  H     -0.876430   10.118250    2.199350
  H     -4.437420   17.199820    1.020350
  H     -5.206170   22.326090    4.397330
  H     -5.332850   24.044930    6.073090
  H     -5.186050   27.600630   11.163160
  H     -3.933920   26.526140   13.192560

 Total Charge           Charge          ....    0
 Multiplicity           Mult            ....    1
 Number of Electrons    NEL             ....  600
 Basis Dimension        Dim             .... 1220

ORBITAL ENERGIES
----------------

  NO   OCC          E(Eh)            E(eV)
   0   2.0000     -89.058361     -2423.4012
   1   2.0000     -88.996111     -2421.7073
   2   2.0000     -88.995940     -2421.7026
   3   2.0000     -88.995872     -2421.7008
   4   2.0000     -88.995802     -2421.6989
   5   2.0000     -88.990410     -2421.5522
   6   2.0000     -88.990142     -2421.5449
   7   2.0000     -88.987964     -2421.4856
   8   2.0000     -88.987864     -2421.4829
   9   2.0000     -14.476734      -393.9319
  10   2.0000     -14.470839      -393.7716
  11   2.0000     -14.467729      -393.6869
  12   2.0000     -14.467552      -393.6821
  13   2.0000     -14.438988      -392.9048
  14   2.0000     -14.432500      -392.7283
  15   2.0000     -14.431611      -392.7041
  16   2.0000     -14.431409      -392.6986
  17   2.0000     -14.430797      -392.6820
  18   2.0000     -14.430647      -392.6779
  19   2.0000     -14.430327      -392.6692
  20   2.0000     -14.430172      -392.6649
  21   2.0000     -14.429655      -392.6509
  22   2.0000     -14.428530      -392.6203
  23   2.0000     -10.392978      -282.8073
  24   2.0000     -10.390587      -282.7423
  25   2.0000     -10.366994      -282.1002
  26   2.0000     -10.365802      -282.0678
  27   2.0000     -10.365631      -282.0631
  28   2.0000     -10.365592      -282.0621
  29   2.0000     -10.359922      -281.9078
  30   2.0000     -10.358071      -281.8574
  31   2.0000     -10.356526      -281.8154
  32   2.0000     -10.355403      -281.7848
  33   2.0000     -10.354130      -281.7502
  34   2.0000     -10.352914      -281.7171
  35   2.0000     -10.352788      -281.7137
  36   2.0000     -10.352033      -281.6931
  37   2.0000     -10.337790      -281.3056
  38   2.0000     -10.337067      -281.2859
  39   2.0000     -10.335589      -281.2457
  40   2.0000     -10.335370      -281.2397
  41   2.0000     -10.335011      -281.2300
  42   2.0000     -10.334783      -281.2237
  43   2.0000     -10.333988      -281.2021
  44   2.0000     -10.333889      -281.1994
  45   2.0000     -10.332823      -281.1704
  46   2.0000     -10.332508      -281.1618
  47   2.0000     -10.332366      -281.1580
  48   2.0000     -10.332094      -281.1506
  49   2.0000     -10.331484      -281.1340
  50   2.0000     -10.331404      -281.1318
  51   2.0000     -10.331398      -281.1316
  52   2.0000     -10.330923      -281.1187
  53   2.0000     -10.330812      -281.1157
  54   2.0000     -10.330380      -281.1039
  55   2.0000     -10.330347      -281.1030
  56   2.0000     -10.330089      -281.0960
  57   2.0000     -10.329523      -281.0806
  58   2.0000     -10.329473      -281.0793
  59   2.0000     -10.328068      -281.0410
  60   2.0000     -10.328027      -281.0399
  61   2.0000     -10.327102      -281.0147
  62   2.0000     -10.323851      -280.9263
  63   2.0000     -10.314490      -280.6715
  64   2.0000     -10.314214      -280.6640
  65   2.0000     -10.310865      -280.5729
  66   2.0000     -10.309747      -280.5425
  67   2.0000     -10.306705      -280.4597
  68   2.0000     -10.306609      -280.4571
  69   2.0000     -10.306608      -280.4570
  70   2.0000     -10.306228      -280.4467
  71   2.0000     -10.306148      -280.4446
  72   2.0000     -10.305939      -280.4389
  73   2.0000     -10.302527      -280.3460
  74   2.0000     -10.302207      -280.3373
  75   2.0000     -10.302051      -280.3331
  76   2.0000     -10.302016      -280.3321
  77   2.0000     -10.301832      -280.3271
  78   2.0000     -10.299896      -280.2744
  79   2.0000     -10.299706      -280.2693
  80   2.0000     -10.299625      -280.2671
  81   2.0000      -8.149377      -221.7558
  82   2.0000      -8.090853      -220.1633
  83   2.0000      -8.090740      -220.1602
  84   2.0000      -8.090684      -220.1587
  85   2.0000      -8.090607      -220.1566
  86   2.0000      -8.085452      -220.0163
  87   2.0000      -8.085152      -220.0082
  88   2.0000      -8.081263      -219.9023
  89   2.0000      -8.080319      -219.8767
  90   2.0000      -6.120501      -166.5473
  91   2.0000      -6.112672      -166.3343
  92   2.0000      -6.112094      -166.3185
  93   2.0000      -6.060151      -164.9051
  94   2.0000      -6.060045      -164.9022
  95   2.0000      -6.059982      -164.9005
  96   2.0000      -6.059905      -164.8984
  97   2.0000      -6.055968      -164.7913
  98   2.0000      -6.055885      -164.7890
  99   2.0000      -6.055759      -164.7856
 100   2.0000      -6.055707      -164.7842
 101   2.0000      -6.054731      -164.7576
 102   2.0000      -6.054393      -164.7484
 103   2.0000      -6.053143      -164.7144
 104   2.0000      -6.052979      -164.7099
 105   2.0000      -6.052927      -164.7085
 106   2.0000      -6.052905      -164.7079
 107   2.0000      -6.050725      -164.6486
 108   2.0000      -6.050254      -164.6358
 109   2.0000      -6.049970      -164.6281
 110   2.0000      -6.049948      -164.6275
 111   2.0000      -6.048039      -164.5755
 112   2.0000      -6.047762      -164.5680
 113   2.0000      -6.046109      -164.5230
 114   2.0000      -6.045067      -164.4946
 115   2.0000      -6.043629      -164.4555
 116   2.0000      -6.042693      -164.4300
 117   2.0000      -1.156072       -31.4583
 118   2.0000      -1.133321       -30.8392
 119   2.0000      -1.060814       -28.8662
 120   2.0000      -1.048448       -28.5297
 121   2.0000      -1.048209       -28.5232
 122   2.0000      -1.044703       -28.4278
 123   2.0000      -1.044505       -28.4224
 124   2.0000      -1.024340       -27.8737
 125   2.0000      -1.022950       -27.8359
 126   2.0000      -1.022823       -27.8324
 127   2.0000      -1.021909       -27.8076
 128   2.0000      -1.021097       -27.7855
 129   2.0000      -1.016216       -27.6527
 130   2.0000      -1.009693       -27.4751
 131   2.0000      -1.008525       -27.4434
 132   2.0000      -1.008111       -27.4321
 133   2.0000      -1.007936       -27.4273
 134   2.0000      -1.007332       -27.4109
 135   2.0000      -1.006284       -27.3824
 136   2.0000      -1.003781       -27.3143
 137   2.0000      -0.996704       -27.1217
 138   2.0000      -0.990102       -26.9421
 139   2.0000      -0.982357       -26.7313
 140   2.0000      -0.963285       -26.2123
 141   2.0000      -0.960332       -26.1320
 142   2.0000      -0.955362       -25.9967
 143   2.0000      -0.954080       -25.9618
 144   2.0000      -0.925001       -25.1705
 145   2.0000      -0.921178       -25.0665
 146   2.0000      -0.918031       -24.9809
 147   2.0000      -0.910418       -24.7737
 148   2.0000      -0.903102       -24.5747
 149   2.0000      -0.890395       -24.2289
 150   2.0000      -0.877604       -23.8808
 151   2.0000      -0.877114       -23.8675
 152   2.0000      -0.866325       -23.5739
 153   2.0000      -0.863545       -23.4983
 154   2.0000      -0.859812       -23.3967
 155   2.0000      -0.859375       -23.3848
 156   2.0000      -0.852953       -23.2100
 157   2.0000      -0.852920       -23.2091
 158   2.0000      -0.848628       -23.0924
 159   2.0000      -0.833651       -22.6848
 160   2.0000      -0.829272       -22.5656
 161   2.0000      -0.813084       -22.1251
 162   2.0000      -0.800497       -21.7826
 163   2.0000      -0.783783       -21.3278
 164   2.0000      -0.782702       -21.2984
 165   2.0000      -0.776571       -21.1316
 166   2.0000      -0.774638       -21.0790
 167   2.0000      -0.771317       -20.9886
 168   2.0000      -0.757745       -20.6193
 169   2.0000      -0.745255       -20.2794
 170   2.0000      -0.734238       -19.9796
 171   2.0000      -0.721355       -19.6291
 172   2.0000      -0.711457       -19.3597
 173   2.0000      -0.707269       -19.2458
 174   2.0000      -0.704763       -19.1776
 175   2.0000      -0.704677       -19.1752
 176   2.0000      -0.700746       -19.0683
 177   2.0000      -0.693695       -18.8764
 178   2.0000      -0.686521       -18.6812
 179   2.0000      -0.685730       -18.6597
 180   2.0000      -0.682942       -18.5838
 181   2.0000      -0.678074       -18.4513
 182   2.0000      -0.673361       -18.3231
 183   2.0000      -0.667215       -18.1558
 184   2.0000      -0.661073       -17.9887
 185   2.0000      -0.656693       -17.8695
 186   2.0000      -0.640931       -17.4406
 187   2.0000      -0.637481       -17.3467
 188   2.0000      -0.634491       -17.2654
 189   2.0000      -0.632908       -17.2223
 190   2.0000      -0.630527       -17.1575
 191   2.0000      -0.629369       -17.1260
 192   2.0000      -0.620740       -16.8912
 193   2.0000      -0.619915       -16.8688
 194   2.0000      -0.618755       -16.8372
 195   2.0000      -0.614877       -16.7317
 196   2.0000      -0.612598       -16.6696
 197   2.0000      -0.607670       -16.5356
 198   2.0000      -0.597231       -16.2515
 199   2.0000      -0.592448       -16.1213
 200   2.0000      -0.584929       -15.9167
 201   2.0000      -0.579406       -15.7664
 202   2.0000      -0.570045       -15.5117
 203   2.0000      -0.562904       -15.3174
 204   2.0000      -0.558361       -15.1938
 205   2.0000      -0.555563       -15.1176
 206   2.0000      -0.552869       -15.0443
 207   2.0000      -0.551452       -15.0058
 208   2.0000      -0.550919       -14.9913
 209   2.0000      -0.546718       -14.8770
 210   2.0000      -0.546213       -14.8632
 211   2.0000      -0.541782       -14.7427
 212   2.0000      -0.529900       -14.4193
 213   2.0000      -0.525450       -14.2982
 214   2.0000      -0.522353       -14.2139
 215   2.0000      -0.519549       -14.1377
 216   2.0000      -0.511446       -13.9172
 217   2.0000      -0.510832       -13.9004
 218   2.0000      -0.509898       -13.8750
 219   2.0000      -0.505117       -13.7449
 220   2.0000      -0.503562       -13.7026
 221   2.0000      -0.502185       -13.6651
 222   2.0000      -0.501646       -13.6505
 223   2.0000      -0.501165       -13.6374
 224   2.0000      -0.500432       -13.6175
 225   2.0000      -0.499720       -13.5981
 226   2.0000      -0.499637       -13.5958
 227   2.0000      -0.497308       -13.5324
 228   2.0000      -0.494955       -13.4684
 229   2.0000      -0.493454       -13.4276
 230   2.0000      -0.492172       -13.3927
 231   2.0000      -0.489010       -13.3066
 232   2.0000      -0.486592       -13.2408
 233   2.0000      -0.477997       -13.0070
 234   2.0000      -0.477368       -12.9899
 235   2.0000      -0.475809       -12.9474
 236   2.0000      -0.473209       -12.8767
 237   2.0000      -0.471253       -12.8235
 238   2.0000      -0.470461       -12.8019
 239   2.0000      -0.468294       -12.7429
 240   2.0000      -0.467071       -12.7097
 241   2.0000      -0.466536       -12.6951
 242   2.0000      -0.463013       -12.5992
 243   2.0000      -0.462787       -12.5931
 244   2.0000      -0.461218       -12.5504
 245   2.0000      -0.461068       -12.5463
 246   2.0000      -0.460775       -12.5383
 247   2.0000      -0.459332       -12.4991
 248   2.0000      -0.457519       -12.4497
 249   2.0000      -0.457235       -12.4420
 250   2.0000      -0.456219       -12.4144
 251   2.0000      -0.454380       -12.3643
 252   2.0000      -0.453869       -12.3504
 253   2.0000      -0.451649       -12.2900
 254   2.0000      -0.448837       -12.2135
 255   2.0000      -0.447978       -12.1901
 256   2.0000      -0.447740       -12.1836
 257   2.0000      -0.441980       -12.0269
 258   2.0000      -0.440966       -11.9993
 259   2.0000      -0.440559       -11.9882
 260   2.0000      -0.440467       -11.9857
 261   2.0000      -0.440061       -11.9747
 262   2.0000      -0.439947       -11.9716
 263   2.0000      -0.439211       -11.9515
 264   2.0000      -0.438934       -11.9440
 265   2.0000      -0.438877       -11.9424
 266   2.0000      -0.437624       -11.9084
 267   2.0000      -0.433696       -11.8015
 268   2.0000      -0.432365       -11.7653
 269   2.0000      -0.428851       -11.6696
 270   2.0000      -0.427363       -11.6291
 271   2.0000      -0.426903       -11.6166
 272   2.0000      -0.426199       -11.5975
 273   2.0000      -0.425886       -11.5890
 274   2.0000      -0.420031       -11.4296
 275   2.0000      -0.417314       -11.3557
 276   2.0000      -0.416916       -11.3449
 277   2.0000      -0.407617       -11.0918
 278   2.0000      -0.406299       -11.0560
 279   2.0000      -0.404078       -10.9955
 280   2.0000      -0.393781       -10.7153
 281   2.0000      -0.391724       -10.6594
 282   2.0000      -0.384609       -10.4657
 283   2.0000      -0.371459       -10.1079
 284   2.0000      -0.362179        -9.8554
 285   2.0000      -0.360894        -9.8204
 286   2.0000      -0.358791        -9.7632
 287   2.0000      -0.353988        -9.6325
 288   2.0000      -0.353879        -9.6295
 289   2.0000      -0.348368        -9.4796
 290   2.0000      -0.348241        -9.4761
 291   2.0000      -0.333038        -9.0624
 292   2.0000      -0.325325        -8.8526
 293   2.0000      -0.324625        -8.8335
 294   2.0000      -0.322018        -8.7625
 295   2.0000      -0.321463        -8.7475
 296   2.0000      -0.309088        -8.4107
 297   2.0000      -0.282287        -7.6814
 298   2.0000      -0.258403        -7.0315
 299   2.0000      -0.234206        -6.3731
 300   0.0000      -0.139199        -3.7878
 301   0.0000      -0.109196        -2.9714
 302   0.0000      -0.106259        -2.8915
 303   0.0000      -0.100522        -2.7354
 304   0.0000      -0.099393        -2.7046

MULLIKEN ATOMIC CHARGES
-----------------------
   0 C :   -0.081167
   1 C :    0.037833
   2 C :   -0.029196
   3 C :   -0.119501
   4 S :    0.184710
   5 C :   -0.099206
   6 C :    0.014008
   7 C :    0.298424
   8 C :   -0.291572
   9 C :   -0.189879
  10 N :    0.176955
  11 C :   -0.190345
  12 N :    0.175268
  13 C :   -0.051731
  14 C :   -0.059125
  15 S :    0.183831
  16 C :   -0.045434
  17 C :   -0.057982
  18 C :    0.020949
  19 C :   -0.109623
  20 S :    0.190628
  21 C :   -0.054846
  22 C :    0.033799
  23 C :    0.308182
  24 C :   -0.299687
  25 C :   -0.186389
  26 N :    0.170525
  27 C :   -0.193660
  28 N :    0.181808
  29 C :   -0.064593
  30 C :   -0.177201
  31 S :    0.206002
  32 C :    0.184370
  33 C :   -0.056947
  34 C :   -0.074542
  35 N :    0.053141
  36 C :   -0.119588
  37 C :   -0.099841
  38 N :   -0.018166
  39 C :   -0.237137
  40 N :    0.252671
  41 C :   -0.222239
  42 N :    0.252353
  43 C :    0.203894
  44 C :   -0.023019
  45 C :   -0.006505
  46 N :   -0.276735
  47 S :    0.573664
  48 N :   -0.337433
  49 C :   -0.187041
  50 C :   -0.051981
  51 C :    0.033719
  52 C :   -0.065923
  53 S :    0.203455
  54 C :   -0.107725
  55 C :    0.023874
  56 C :    0.307291
  57 C :   -0.296610
  58 C :   -0.192515
  59 N :    0.183207
  60 C :   -0.190226
  61 N :    0.185353
  62 C :   -0.062589
  63 C :   -0.044123
  64 S :    0.180040
  65 C :   -0.055114
  66 C :   -0.053728
  67 C :    0.016925
  68 C :   -0.102822
  69 S :    0.179185
  70 C :   -0.116893
  71 C :   -0.030812
  72 C :    0.299268
  73 C :   -0.297305
  74 C :   -0.189615
  75 N :    0.176490
  76 C :   -0.190033
  77 N :    0.181409
  78 C :    0.038140
  79 C :   -0.079885
  80 S :    0.181245
  81 H :    0.037975
  82 H :    0.013032
  83 H :    0.013939
  84 H :    0.013917
  85 H :    0.019167
  86 H :    0.020365
  87 H :    0.013830
  88 H :    0.013895
  89 H :    0.012745
  90 H :    0.036754
Sum of atomic charges:    0.0000000

LOEWDIN ATOMIC CHARGES
----------------------
   0 C :   -0.176107
   1 C :   -0.033501
   2 C :   -0.075001
   3 C :   -0.185665
   4 S :    0.479474
   5 C :   -0.178883
   6 C :   -0.067560
   7 C :    0.081348
   8 C :   -0.099865
   9 C :   -0.018898
  10 N :   -0.027448
  11 C :   -0.016732
  12 N :   -0.030710
  13 C :   -0.021749
  14 C :   -0.186274
  15 S :    0.467961
  16 C :   -0.172719
  17 C :   -0.028455
  18 C :   -0.056722
  19 C :   -0.186126
  20 S :    0.469853
  21 C :   -0.172473
  22 C :   -0.077491
  23 C :    0.080391
  24 C :   -0.100316
  25 C :   -0.015396
  26 N :   -0.033256
  27 C :   -0.019866
  28 N :   -0.026558
  29 C :   -0.005820
  30 C :   -0.169852
  31 S :    0.508718
  32 C :   -0.039335
  33 C :   -0.015219
  34 C :   -0.006207
  35 N :    0.009753
  36 C :   -0.021303
  37 C :   -0.022885
  38 N :   -0.020300
  39 C :   -0.039062
  40 N :   -0.000531
  41 C :   -0.040521
  42 N :    0.010124
  43 C :   -0.045533
  44 C :   -0.045498
  45 C :   -0.038478
  46 N :   -0.267119
  47 S :    0.690394
  48 N :   -0.303368
  49 C :   -0.166536
  50 C :   -0.007255
  51 C :   -0.074359
  52 C :   -0.176213
  53 S :    0.506660
  54 C :   -0.185749
  55 C :   -0.057261
  56 C :    0.077790
  57 C :   -0.096124
  58 C :   -0.019070
  59 N :   -0.025487
  60 C :   -0.018671
  61 N :   -0.021711
  62 C :   -0.027860
  63 C :   -0.174417
  64 S :    0.461828
  65 C :   -0.185253
  66 C :   -0.022285
  67 C :   -0.067045
  68 C :   -0.180384
  69 S :    0.464258
  70 C :   -0.185164
  71 C :   -0.075408
  72 C :    0.081153
  73 C :   -0.099360
  74 C :   -0.016557
  75 N :   -0.030597
  76 C :   -0.019274
  77 N :   -0.026114
  78 C :   -0.033403
  79 C :   -0.176449
  80 S :    0.476755
  81 H :    0.028407
  82 H :    0.043056
  83 H :    0.042837
  84 H :    0.043000
  85 H :    0.038130
  86 H :    0.037720
  87 H :    0.043134
  88 H :    0.042928
  89 H :    0.043079
  90 H :    0.028060

  Mayer bond orders larger than 0.100000
B(  0-C ,  1-C ) :   1.5477 B(  0-C ,  4-S ) :   1.1508 B(  0-C , 81-H ) :   0.9640
B(  1-C ,  2-C ) :   1.2786 B(  1-C , 82-H ) :   0.9958 B(  2-C ,  3-C ) :   1.4539
B(  2-C ,  7-C ) :   1.0168 B(  3-C ,  4-S ) :   1.1358 B(  3-C ,  5-C ) :   1.1876
B(  5-C ,  6-C ) :   1.4544 B(  5-C , 15-S ) :   1.1276 B(  6-C ,  7-C ) :   0.9887
B(  6-C , 13-C ) :   1.2906 B(  7-C ,  8-C ) :   1.7145 B(  8-C ,  9-C ) :   1.1303
B(  8-C , 11-C ) :   1.1301 B(  9-C , 10-N ) :   2.9910 B( 11-C , 12-N ) :   3.0017
B( 13-C , 14-C ) :   1.4830 B( 13-C , 83-H ) :   0.9942 B( 14-C , 15-S ) :   1.0975
B( 14-C , 16-C ) :   1.1293 B( 16-C , 17-C ) :   1.4706 B( 16-C , 20-S ) :   1.1054
B( 17-C , 18-C ) :   1.2993 B( 17-C , 84-H ) :   0.9938 B( 18-C , 19-C ) :   1.4219
B( 18-C , 23-C ) :   0.9895 B( 19-C , 20-S ) :   1.1129 B( 19-C , 21-C ) :   1.2156
B( 21-C , 22-C ) :   1.3875 B( 21-C , 31-S ) :   1.0875 B( 22-C , 23-C ) :   0.9906
B( 22-C , 29-C ) :   1.2888 B( 23-C , 24-C ) :   1.7121 B( 24-C , 25-C ) :   1.1401
B( 24-C , 27-C ) :   1.1314 B( 25-C , 26-N ) :   2.9853 B( 27-C , 28-N ) :   2.9931
B( 29-C , 30-C ) :   1.3988 B( 29-C , 85-H ) :   0.9846 B( 30-C , 31-S ) :   1.0767
B( 30-C , 32-C ) :   1.2264 B( 32-C , 33-C ) :   1.2435 B( 32-C , 43-C ) :   0.1199
B( 32-C , 45-C ) :   1.1950 B( 33-C , 34-C ) :   1.1003 B( 33-C , 38-N ) :   1.4019
B( 34-C , 35-N ) :   1.4564 B( 34-C , 43-C ) :   1.2567 B( 35-N , 36-C ) :   1.7226
B( 36-C , 37-C ) :   1.2165 B( 36-C , 41-C ) :   1.1600 B( 37-C , 38-N ) :   1.6842
B( 37-C , 39-C ) :   1.1623 B( 39-C , 40-N ) :   3.0427 B( 41-C , 42-N ) :   3.0309
B( 43-C , 44-C ) :   1.1838 B( 43-C , 49-C ) :   1.2022 B( 44-C , 45-C ) :   1.1071
B( 44-C , 48-N ) :   1.4767 B( 45-C , 46-N ) :   1.5222 B( 46-N , 47-S ) :   1.2853
B( 46-N , 48-N ) :   0.1478 B( 47-S , 48-N ) :   1.2669 B( 49-C , 50-C ) :   1.3996
B( 49-C , 53-S ) :   1.0893 B( 50-C , 51-C ) :   1.2845 B( 50-C , 86-H ) :   0.9852
B( 51-C , 52-C ) :   1.3911 B( 51-C , 56-C ) :   0.9940 B( 52-C , 53-S ) :   1.1048
B( 52-C , 54-C ) :   1.2081 B( 54-C , 55-C ) :   1.4286 B( 54-C , 64-S ) :   1.1099
B( 55-C , 56-C ) :   0.9881 B( 55-C , 62-C ) :   1.2957 B( 56-C , 57-C ) :   1.7168
B( 57-C , 58-C ) :   1.1350 B( 57-C , 60-C ) :   1.1339 B( 58-C , 59-N ) :   2.9915
B( 60-C , 61-N ) :   2.9916 B( 62-C , 63-C ) :   1.4778 B( 62-C , 87-H ) :   0.9934
B( 63-C , 64-S ) :   1.1009 B( 63-C , 65-C ) :   1.1265 B( 65-C , 66-C ) :   1.4870
B( 65-C , 69-S ) :   1.0966 B( 66-C , 67-C ) :   1.2894 B( 66-C , 88-H ) :   0.9934
B( 67-C , 68-C ) :   1.4562 B( 67-C , 72-C ) :   0.9890 B( 68-C , 69-S ) :   1.1251
B( 68-C , 70-C ) :   1.1867 B( 70-C , 71-C ) :   1.4561 B( 70-C , 80-S ) :   1.1348
B( 71-C , 72-C ) :   1.0183 B( 71-C , 78-C ) :   1.2769 B( 72-C , 73-C ) :   1.7132
B( 73-C , 74-C ) :   1.1303 B( 73-C , 76-C ) :   1.1344 B( 74-C , 75-N ) :   3.0020
B( 76-C , 77-N ) :   2.9915 B( 78-C , 79-C ) :   1.5487 B( 78-C , 89-H ) :   0.9959
B( 79-C , 80-S ) :   1.1502 B( 79-C , 90-H ) :   0.9641

-----------------------------------------------------------------------------
         ABSORPTION SPECTRUM VIA TRANSITION ELECTRIC DIPOLE MOMENTS
-----------------------------------------------------------------------------
State   Energy  Wavelength   fosc         T2         TX        TY        TZ
        (cm-1)    (nm)                  (au**2)     (au)      (au)      (au)
-----------------------------------------------------------------------------
   0    6413.4   1559.2   0.711380581  36.51634   0.74334  -5.50018  -2.38993
   1   11544.4    866.2   0.008016851   0.22862  -0.23158   0.04978   0.41534
   2   12123.2    824.9   0.076585466   2.07972   0.09540   1.04851   0.98552
   3   13805.7    724.3   0.013446473   0.32065   0.24107   0.50971   0.05220
   4   13856.8    721.7   0.083204645   1.97678   0.15821   0.92393   1.04791
   5   14290.6    699.8   0.004111887   0.09473  -0.00780  -0.21348   0.22157
   6   18933.5    528.2   0.159541923   2.77409  -0.09445  -1.30060  -1.03615
   7   20816.3    480.4   0.260420987   4.11858  -0.04916   1.72539   1.06733
   8   20903.8    478.4   0.052824230   0.83192   0.26168  -0.87035  -0.07712
   9   22304.6    448.3   0.138675132   2.04682  -0.16289  -0.94578  -1.06104
  10   22629.3    441.9   0.033027734   0.48049   0.08662  -0.68566  -0.05343
  11   22734.3    439.9   0.026575606   0.38484  -0.07961   0.53212   0.30878
  12   23288.1    429.4   0.071060754   1.00455   0.29426  -0.95084  -0.11771
  13   24093.1    415.1   0.003292852   0.04499  -0.12811   0.13850   0.09695
  14   24617.8    406.2   0.045670411   0.61075   0.33567   0.16915   0.68517
  15   24961.7    400.6   0.030585351   0.40338  -0.30859  -0.48928  -0.26222
  16   25650.1    389.9   0.002083765   0.02674   0.01845  -0.12580  -0.10286
  17   26265.8    380.7   1.493018016  18.71331   0.33829  -3.81636  -2.00855
  18   26582.7    376.2   0.039633909   0.49084  -0.07902  -0.49634  -0.48810
  19   26717.3    374.3   0.677729624   8.35103  -0.14913   2.50648   1.43050
  20   28097.2    355.9   0.048360144   0.56663   0.41176   0.17502  -0.60535
  21   28693.6    348.5   0.000328584   0.00377   0.03378  -0.04003  -0.03204
  22   28867.8    346.4   0.023918097   0.27276  -0.23003  -0.01704  -0.46857
  23   28895.7    346.1   0.004469106   0.05092   0.13759  -0.06788  -0.16547
  24   30038.9    332.9   0.029940265   0.32813   0.11334  -0.55851  -0.05790
  25   30452.5    328.4   0.112021936   1.21103  -0.09574   0.96936   0.51207
  26   30553.3    327.3   0.001911207   0.02059  -0.08698   0.06779  -0.09183
  27   30873.3    323.9   0.049587972   0.52877   0.04449  -0.72515   0.03080
  28   30930.7    323.3   0.212049855   2.25696  -0.95983  -0.11248  -1.15023
  29   31021.2    322.4   0.006696224   0.07106   0.07363  -0.24694  -0.06830
  30   31364.9    318.8   0.172321758   1.80872  -0.83515   0.17051  -1.04028
  31   31518.0    317.3   0.449014988   4.69005  -1.23799   0.98165  -1.48114
  32   31744.8    315.0   0.078950232   0.81876  -0.23650   0.02862  -0.87293
  33   32148.7    311.1   0.104268786   1.06774  -0.63592   0.23096  -0.78103
  34   32464.8    308.0   0.020263826   0.20549  -0.30175  -0.12758  -0.31330
  35   32609.3    306.7   0.043628495   0.44046  -0.33616  -0.09780  -0.56382
  36   32932.3    303.7   0.739708651   7.39460   1.62318  -1.59969   1.48354
  37   32996.3    303.1   0.487155502   4.86047  -1.46356   0.96086  -1.33986
  38   33041.0    302.7   0.576832650   5.74741   1.23216  -1.45050   1.45782
  39   33717.5    296.6   0.094637224   0.92402   0.70712   0.26316   0.59561
  40   33776.0    296.1   0.627798869   6.11911  -1.08125   0.01553  -2.22481
  41   34275.6    291.8   0.002821432   0.02710  -0.13735  -0.02135  -0.08820
  42   34542.1    289.5   0.461405758   4.39755   0.36161  -1.98266  -0.57952
  43   34984.3    285.8   0.018282495   0.17204  -0.40289  -0.06972  -0.06972
  44   35132.2    284.6   0.014459619   0.13550   0.19277  -0.24380  -0.19722
  45   35289.4    283.4   0.149159152   1.39149  -0.13952  -0.78743  -0.86717
  46   35354.4    282.9   0.005635417   0.05248   0.02580  -0.16978  -0.15160
  47   35570.6    281.1   0.055403366   0.51277   0.37792   0.10392   0.59929
  48   35627.8    280.7   0.048379995   0.44705  -0.24489  -0.14301  -0.60550
  49   35791.8    279.4   0.015570678   0.14322   0.18639  -0.20890   0.25463
  50   35999.9    277.8   0.158687277   1.45117  -0.32553   1.13730   0.22745
  51   36279.3    275.6   0.033128389   0.30062  -0.13526   0.00509  -0.53132
  52   36601.8    273.2   0.201982664   1.81672  -0.83900   0.48859  -0.93492
  53   36720.6    272.3   0.036479022   0.32705  -0.01914  -0.44745  -0.35562
  54   36917.4    270.9   0.397388069   3.54372   1.06379   0.09973   1.54988
  55   37127.5    269.3   0.010378906   0.09203   0.12048  -0.15998   0.22787
  56   37452.3    267.0   0.061107072   0.53714  -0.38956   0.03675  -0.61971
  57   37521.1    266.5   0.005214775   0.04575   0.17381  -0.12405  -0.01244
  58   37848.7    264.2   0.006293757   0.05474   0.17268  -0.05536   0.14785
  59   38181.0    261.9   0.039502423   0.34061   0.33498  -0.41569   0.23579
  60   38260.5    261.4   0.014868716   0.12794  -0.21019   0.10720  -0.26883
  61   38452.4    260.1   0.004292600   0.03675  -0.12828   0.11751  -0.08054
  62   38829.3    257.5   0.001867261   0.01583  -0.00060   0.00520  -0.12571
  63   39197.9    255.1   0.013673692   0.11484  -0.16306   0.03813  -0.29462
  64   39663.7    252.1   0.135457810   1.12431  -0.60499   0.40308  -0.77190
  65   39848.1    251.0   0.008605827   0.07110  -0.02707  -0.13499   0.22835
  66   40266.3    248.3   0.001919501   0.01569   0.05004   0.11482   0.00245

FINAL SINGLE POINT ENERGY     -6561.266272928058

DIPOLE MOMENT
-------------
                                X             Y             Z
Electronic contribution:      2.59601       0.85931      -1.52815
Nuclear contribution   :     -1.81271      -1.63972       3.73489
                        -----------------------------------------
Total Dipole Moment    :      0.78330      -0.78042       2.20674
                        -----------------------------------------
Magnitude (a.u.)       :      2.46826
Magnitude (Debye)      :      6.27382

Rotational constants in cm-1:     0.001984     0.000149     0.000140
Rotational constants in MHz :    59.487704     4.464115     4.194470

                             ****ORCA TERMINATED NORMALLY****
TOTAL RUN TIME: 0 days 0 hours 10 minutes 19 seconds 308 msec
