                         Program Version 4.2.0 -  RELEASE  -
|  1> # ORCA input file
|  2> # SCF done       -159.947023173213          0.000457842178
|  3> ! CAM-B3LYP def2-SVP def2/J RIJCOSX Grid4 TightSCF
|  4> %maxcore 5000
|  5> %tddft
|  6>     Mode sTDDFT
|  7>     Ethresh 5.0
|  8>     maxcore 5000
|  9> end
| 10>
| 11> %pal
| 12>   nprocs 6
| 13>   end
| 14> * xyz 0 1
| 15>    C       -2.69603        -0.99519         4.93341
| 16>    C       -2.87313         0.23753         5.48062
| 17>    C       -2.37237         1.25108         4.63912
| 18>    C       -1.82181         0.73876         3.45700
| 19>    S       -1.91836        -0.96382         3.38239
| 20>    C       -1.34828         1.82401         2.66917
| 21>    C       -1.59822         3.01656         3.35942
| 22>    C       -2.25745         2.69470         4.62182
| 23>    C       -2.68411         3.57545         5.57373
| 24>    C       -2.53577         4.97182         5.44637
| 25>    N       -2.43130         6.11123         5.36318
| 26>    C       -3.31593         3.14709         6.75989
| 27>    N       -3.83035         2.80731         7.72715
| 28>    C       -1.16690         4.14637         2.66899
| 29>    C       -0.58762         3.83021         1.45048
| 30>    S       -0.58559         2.09560         1.16465
| 31>    C       -0.08474         4.77027         0.51392
| 32>    S       -0.22999         6.45924         0.89702
| 33>    C        0.48278         6.93140        -0.62541
| 34>    C        0.79988         5.81102        -1.37830
| 35>    C        0.50437         4.59785        -0.72689
| 36>    C        0.80067         3.25416        -1.31486
| 37>    C        1.72331         3.36095        -2.53665
| 38>    C        3.07845         3.63394        -2.11349
| 39>    N        4.14603         3.85734        -1.77359
| 40>    C        1.23897         4.49273        -3.46605
| 41>    C       -0.14034         4.25614        -3.82892
| 42>    N       -1.23338         4.06873        -4.10355
| 43>    C        1.37143         5.85105        -2.76230
| 44>    C        0.64847         8.33054        -0.86795
| 45>    C        0.14803         9.25724         0.01445
| 46>    C        0.26715        10.63949        -0.09577
| 47>    C        0.96318        11.25942        -1.22970
| 48>    C        1.54543        10.55155        -2.21967
| 49>    S        1.54941         8.83472        -2.29746
| 50>    C        0.86627        12.65768        -1.00090
| 51>    C        0.17042        12.90109         0.18850
| 52>    C        0.06058        14.28516         0.45294
| 53>    C        0.65658        15.03221        -0.51235
| 54>    S        1.37682        14.10106        -1.78139
| 55>    C       -0.20943        11.63900         0.76876
| 56>    C       -0.90034        11.36963         1.97815
| 57>    C       -1.39943        12.24857         2.87130
| 58>    C       -2.05099        11.78573         4.07540
| 59>    N       -2.13470        10.46366         4.27679
| 60>    C       -2.71232        10.05627         5.38892
| 61>    C       -3.22088        10.94259         6.32721
| 62>    C       -3.10181        12.30706         6.03398
| 63>    N       -2.51625        12.71286         4.90699
| 64>    C       -3.60814        13.31444         6.94649
| 65>    C       -3.55737        14.62349         6.65725
| 66>    C       -4.03062        15.70412         7.48445
| 67>    C       -3.99247        17.01614         7.00909
| 68>    C       -4.43910        18.13725         7.75553
| 69>    N       -4.31996        19.33195         7.10544
| 70>    C       -3.82352        19.18678         5.94285
| 71>    S       -3.42157        17.55626         5.45781
| 72>    C       -4.94584        17.97379         9.03848
| 73>    C       -4.98816        16.68548         9.52752
| 74>    C       -4.54755        15.55469         8.78501
| 75>    N       -4.67594        14.37622         9.45862
| 76>    C       -5.16826        14.53577        10.62231
| 77>    S       -5.56009        16.17142        11.08906
| 78>    H       -2.97575        -1.94455         5.34388
| 79>    H       -3.33760         0.40571         6.43499
| 80>    H       -1.26228         5.15929         3.01705
| 81>    H       -0.13534         2.76940        -1.61368
| 82>    H        1.27314         2.61691        -0.56085
| 83>    H        1.72532         2.40578        -3.07597
| 84>    H        1.83383         4.50289        -4.38750
| 85>    H        0.85539         6.61021        -3.35564
| 86>    H        2.42998         6.12746        -2.71856
| 87>    H       -0.38858         8.86962         0.86999
| 88>    H        2.06016        11.01088        -3.04865
| 89>    H       -0.42848        14.71812         1.30545
| 90>    H        0.72441        16.10131        -0.56660
| 91>    H       -1.03814        10.32513         2.22497
| 92>    H       -1.33942        13.31756         2.75135
| 93>    H       -2.76340         8.98319         5.52731
| 94>    H       -3.68818        10.60358         7.23730
| 95>    H       -4.03416        12.96636         7.87509
| 96>    H       -3.12849        14.91537         5.70633
| 97>    H       -3.64762        20.00111         5.26712
| 98>    H       -5.28331        18.82231         9.60848
| 99>    H       -5.34529        13.72817        11.30567
|100> *
|101>
|102>                          ****END OF INPUT****

CARTESIAN COORDINATES (ANGSTROEM)
---------------------------------
  C     -2.696030   -0.995190    4.933410
  C     -2.873130    0.237530    5.480620
  C     -2.372370    1.251080    4.639120
  C     -1.821810    0.738760    3.457000
  S     -1.918360   -0.963820    3.382390
  C     -1.348280    1.824010    2.669170
  C     -1.598220    3.016560    3.359420
  C     -2.257450    2.694700    4.621820
  C     -2.684110    3.575450    5.573730
  C     -2.535770    4.971820    5.446370
  N     -2.431300    6.111230    5.363180
  C     -3.315930    3.147090    6.759890
  N     -3.830350    2.807310    7.727150
  C     -1.166900    4.146370    2.668990
  C     -0.587620    3.830210    1.450480
  S     -0.585590    2.095600    1.164650
  C     -0.084740    4.770270    0.513920
  S     -0.229990    6.459240    0.897020
  C      0.482780    6.931400   -0.625410
  C      0.799880    5.811020   -1.378300
  C      0.504370    4.597850   -0.726890
  C      0.800670    3.254160   -1.314860
  C      1.723310    3.360950   -2.536650
  C      3.078450    3.633940   -2.113490
  N      4.146030    3.857340   -1.773590
  C      1.238970    4.492730   -3.466050
  C     -0.140340    4.256140   -3.828920
  N     -1.233380    4.068730   -4.103550
  C      1.371430    5.851050   -2.762300
  C      0.648470    8.330540   -0.867950
  C      0.148030    9.257240    0.014450
  C      0.267150   10.639490   -0.095770
  C      0.963180   11.259420   -1.229700
  C      1.545430   10.551550   -2.219670
  S      1.549410    8.834720   -2.297460
  C      0.866270   12.657680   -1.000900
  C      0.170420   12.901090    0.188500
  C      0.060580   14.285160    0.452940
  C      0.656580   15.032210   -0.512350
  S      1.376820   14.101060   -1.781390
  C     -0.209430   11.639000    0.768760
  C     -0.900340   11.369630    1.978150
  C     -1.399430   12.248570    2.871300
  C     -2.050990   11.785730    4.075400
  N     -2.134700   10.463660    4.276790
  C     -2.712320   10.056270    5.388920
  C     -3.220880   10.942590    6.327210
  C     -3.101810   12.307060    6.033980
  N     -2.516250   12.712860    4.906990
  C     -3.608140   13.314440    6.946490
  C     -3.557370   14.623490    6.657250
  C     -4.030620   15.704120    7.484450
  C     -3.992470   17.016140    7.009090
  C     -4.439100   18.137250    7.755530
  N     -4.319960   19.331950    7.105440
  C     -3.823520   19.186780    5.942850
  S     -3.421570   17.556260    5.457810
  C     -4.945840   17.973790    9.038480
  C     -4.988160   16.685480    9.527520
  C     -4.547550   15.554690    8.785010
  N     -4.675940   14.376220    9.458620
  C     -5.168260   14.535770   10.622310
  S     -5.560090   16.171420   11.089060
  H     -2.975750   -1.944550    5.343880
  H     -3.337600    0.405710    6.434990
  H     -1.262280    5.159290    3.017050
  H     -0.135340    2.769400   -1.613680
  H      1.273140    2.616910   -0.560850
  H      1.725320    2.405780   -3.075970
  H      1.833830    4.502890   -4.387500
  H      0.855390    6.610210   -3.355640
  H      2.429980    6.127460   -2.718560
  H     -0.388580    8.869620    0.869990
  H      2.060160   11.010880   -3.048650
  H     -0.428480   14.718120    1.305450
  H      0.724410   16.101310   -0.566600
  H     -1.038140   10.325130    2.224970
  H     -1.339420   13.317560    2.751350
  H     -2.763400    8.983190    5.527310
  H     -3.688180   10.603580    7.237300
  H     -4.034160   12.966360    7.875090
  H     -3.128490   14.915370    5.706330
  H     -3.647620   20.001110    5.267120
  H     -5.283310   18.822310    9.608480
  H     -5.345290   13.728170   11.305670

 Total Charge           Charge          ....    0
 Multiplicity           Mult            ....    1
 Number of Electrons    NEL             ....  478
 Basis Dimension        Dim             .... 1020

ORBITAL ENERGIES
----------------

  NO   OCC          E(Eh)            E(eV)
   0   2.0000     -88.992620     -2421.6123
   1   2.0000     -88.986378     -2421.4424
   2   2.0000     -88.974654     -2421.1234
   3   2.0000     -88.965296     -2420.8688
   4   2.0000     -88.957580     -2420.6588
   5   2.0000     -88.953884     -2420.5583
   6   2.0000     -88.951004     -2420.4799
   7   2.0000     -14.431786      -392.7089
   8   2.0000     -14.428348      -392.6153
   9   2.0000     -14.419460      -392.3735
  10   2.0000     -14.418618      -392.3506
  11   2.0000     -14.410698      -392.1350
  12   2.0000     -14.405218      -391.9859
  13   2.0000     -14.384292      -391.4165
  14   2.0000     -14.383480      -391.3944
  15   2.0000     -10.362694      -281.9832
  16   2.0000     -10.350632      -281.6550
  17   2.0000     -10.346950      -281.5548
  18   2.0000     -10.345464      -281.5144
  19   2.0000     -10.335357      -281.2394
  20   2.0000     -10.332061      -281.1497
  21   2.0000     -10.330419      -281.1050
  22   2.0000     -10.329351      -281.0759
  23   2.0000     -10.329306      -281.0747
  24   2.0000     -10.328732      -281.0591
  25   2.0000     -10.327360      -281.0218
  26   2.0000     -10.325602      -280.9739
  27   2.0000     -10.324068      -280.9322
  28   2.0000     -10.319108      -280.7972
  29   2.0000     -10.318702      -280.7862
  30   2.0000     -10.318649      -280.7847
  31   2.0000     -10.317815      -280.7620
  32   2.0000     -10.316980      -280.7393
  33   2.0000     -10.309895      -280.5465
  34   2.0000     -10.309618      -280.5390
  35   2.0000     -10.306805      -280.4624
  36   2.0000     -10.305120      -280.4166
  37   2.0000     -10.304579      -280.4018
  38   2.0000     -10.304487      -280.3993
  39   2.0000     -10.304406      -280.3971
  40   2.0000     -10.301997      -280.3316
  41   2.0000     -10.301593      -280.3206
  42   2.0000     -10.299001      -280.2501
  43   2.0000     -10.298226      -280.2290
  44   2.0000     -10.297635      -280.2129
  45   2.0000     -10.297229      -280.2019
  46   2.0000     -10.296329      -280.1774
  47   2.0000     -10.296200      -280.1739
  48   2.0000     -10.293859      -280.1101
  49   2.0000     -10.291188      -280.0375
  50   2.0000     -10.290677      -280.0236
  51   2.0000     -10.288846      -279.9737
  52   2.0000     -10.281563      -279.7756
  53   2.0000     -10.281485      -279.7734
  54   2.0000     -10.278878      -279.7025
  55   2.0000     -10.268697      -279.4255
  56   2.0000     -10.268131      -279.4100
  57   2.0000     -10.267380      -279.3896
  58   2.0000     -10.266263      -279.3592
  59   2.0000     -10.260496      -279.2023
  60   2.0000     -10.260178      -279.1936
  61   2.0000     -10.255784      -279.0741
  62   2.0000     -10.247992      -278.8620
  63   2.0000      -8.086387      -220.0418
  64   2.0000      -8.081420      -219.9066
  65   2.0000      -8.069365      -219.5786
  66   2.0000      -8.060228      -219.3300
  67   2.0000      -8.054179      -219.1653
  68   2.0000      -8.050085      -219.0540
  69   2.0000      -8.046468      -218.9555
  70   2.0000      -6.055757      -164.7855
  71   2.0000      -6.051438      -164.6680
  72   2.0000      -6.050675      -164.6472
  73   2.0000      -6.048795      -164.5961
  74   2.0000      -6.046234      -164.5264
  75   2.0000      -6.044021      -164.4662
  76   2.0000      -6.039091      -164.3320
  77   2.0000      -6.034387      -164.2040
  78   2.0000      -6.031208      -164.1175
  79   2.0000      -6.029711      -164.0768
  80   2.0000      -6.025632      -163.9658
  81   2.0000      -6.023453      -163.9065
  82   2.0000      -6.021920      -163.8648
  83   2.0000      -6.019535      -163.7999
  84   2.0000      -6.019400      -163.7962
  85   2.0000      -6.015919      -163.7015
  86   2.0000      -6.015893      -163.7008
  87   2.0000      -6.015393      -163.6872
  88   2.0000      -6.011857      -163.5910
  89   2.0000      -6.011647      -163.5852
  90   2.0000      -6.008502      -163.4997
  91   2.0000      -1.067307       -29.0429
  92   2.0000      -1.059155       -28.8211
  93   2.0000      -1.057716       -28.7819
  94   2.0000      -1.042278       -28.3618
  95   2.0000      -1.025633       -27.9089
  96   2.0000      -1.020936       -27.7811
  97   2.0000      -1.007874       -27.4256
  98   2.0000      -1.006614       -27.3914
  99   2.0000      -1.003931       -27.3184
 100   2.0000      -0.999255       -27.1911
 101   2.0000      -0.989630       -26.9292
 102   2.0000      -0.968057       -26.3422
 103   2.0000      -0.959811       -26.1178
 104   2.0000      -0.958041       -26.0696
 105   2.0000      -0.952873       -25.9290
 106   2.0000      -0.942985       -25.6599
 107   2.0000      -0.923470       -25.1289
 108   2.0000      -0.914317       -24.8798
 109   2.0000      -0.911690       -24.8083
 110   2.0000      -0.897477       -24.4216
 111   2.0000      -0.889499       -24.2045
 112   2.0000      -0.885341       -24.0913
 113   2.0000      -0.879756       -23.9394
 114   2.0000      -0.873749       -23.7759
 115   2.0000      -0.861940       -23.4546
 116   2.0000      -0.856340       -23.3022
 117   2.0000      -0.849751       -23.1229
 118   2.0000      -0.845210       -22.9993
 119   2.0000      -0.838402       -22.8141
 120   2.0000      -0.826213       -22.4824
 121   2.0000      -0.819287       -22.2939
 122   2.0000      -0.806130       -21.9359
 123   2.0000      -0.801404       -21.8073
 124   2.0000      -0.788483       -21.4557
 125   2.0000      -0.782231       -21.2856
 126   2.0000      -0.774742       -21.0818
 127   2.0000      -0.758867       -20.6498
 128   2.0000      -0.757571       -20.6145
 129   2.0000      -0.744544       -20.2601
 130   2.0000      -0.733847       -19.9690
 131   2.0000      -0.728568       -19.8254
 132   2.0000      -0.723573       -19.6894
 133   2.0000      -0.701904       -19.0998
 134   2.0000      -0.699650       -19.0384
 135   2.0000      -0.689591       -18.7647
 136   2.0000      -0.681655       -18.5488
 137   2.0000      -0.677624       -18.4391
 138   2.0000      -0.676116       -18.3981
 139   2.0000      -0.665420       -18.1070
 140   2.0000      -0.648837       -17.6558
 141   2.0000      -0.646872       -17.6023
 142   2.0000      -0.645711       -17.5707
 143   2.0000      -0.644606       -17.5406
 144   2.0000      -0.632264       -17.2048
 145   2.0000      -0.631943       -17.1960
 146   2.0000      -0.618678       -16.8351
 147   2.0000      -0.615957       -16.7611
 148   2.0000      -0.614377       -16.7180
 149   2.0000      -0.608627       -16.5616
 150   2.0000      -0.605356       -16.4726
 151   2.0000      -0.602136       -16.3849
 152   2.0000      -0.592387       -16.1197
 153   2.0000      -0.587904       -15.9977
 154   2.0000      -0.577046       -15.7022
 155   2.0000      -0.567636       -15.4462
 156   2.0000      -0.566489       -15.4150
 157   2.0000      -0.563564       -15.3353
 158   2.0000      -0.556634       -15.1468
 159   2.0000      -0.550762       -14.9870
 160   2.0000      -0.547929       -14.9099
 161   2.0000      -0.545033       -14.8311
 162   2.0000      -0.541441       -14.7334
 163   2.0000      -0.535860       -14.5815
 164   2.0000      -0.532634       -14.4937
 165   2.0000      -0.530188       -14.4271
 166   2.0000      -0.529218       -14.4008
 167   2.0000      -0.526438       -14.3251
 168   2.0000      -0.525155       -14.2902
 169   2.0000      -0.523631       -14.2487
 170   2.0000      -0.518195       -14.1008
 171   2.0000      -0.515792       -14.0354
 172   2.0000      -0.509859       -13.8740
 173   2.0000      -0.504430       -13.7262
 174   2.0000      -0.502041       -13.6612
 175   2.0000      -0.501435       -13.6447
 176   2.0000      -0.499848       -13.6016
 177   2.0000      -0.498462       -13.5638
 178   2.0000      -0.493338       -13.4244
 179   2.0000      -0.492156       -13.3923
 180   2.0000      -0.491500       -13.3744
 181   2.0000      -0.489881       -13.3303
 182   2.0000      -0.485395       -13.2083
 183   2.0000      -0.481807       -13.1106
 184   2.0000      -0.480804       -13.0833
 185   2.0000      -0.472421       -12.8552
 186   2.0000      -0.471408       -12.8277
 187   2.0000      -0.465408       -12.6644
 188   2.0000      -0.464879       -12.6500
 189   2.0000      -0.463331       -12.6079
 190   2.0000      -0.458668       -12.4810
 191   2.0000      -0.457595       -12.4518
 192   2.0000      -0.455123       -12.3845
 193   2.0000      -0.450573       -12.2607
 194   2.0000      -0.449594       -12.2341
 195   2.0000      -0.448581       -12.2065
 196   2.0000      -0.445154       -12.1133
 197   2.0000      -0.444471       -12.0947
 198   2.0000      -0.443944       -12.0803
 199   2.0000      -0.441246       -12.0069
 200   2.0000      -0.439726       -11.9655
 201   2.0000      -0.439232       -11.9521
 202   2.0000      -0.438009       -11.9188
 203   2.0000      -0.435826       -11.8594
 204   2.0000      -0.434839       -11.8326
 205   2.0000      -0.427103       -11.6221
 206   2.0000      -0.425290       -11.5727
 207   2.0000      -0.424542       -11.5524
 208   2.0000      -0.423809       -11.5324
 209   2.0000      -0.419111       -11.4046
 210   2.0000      -0.413783       -11.2596
 211   2.0000      -0.410315       -11.1652
 212   2.0000      -0.408878       -11.1261
 213   2.0000      -0.408380       -11.1126
 214   2.0000      -0.406118       -11.0510
 215   2.0000      -0.402287       -10.9468
 216   2.0000      -0.400051       -10.8859
 217   2.0000      -0.399973       -10.8838
 218   2.0000      -0.396343       -10.7851
 219   2.0000      -0.386072       -10.5055
 220   2.0000      -0.370518       -10.0823
 221   2.0000      -0.366947        -9.9851
 222   2.0000      -0.355424        -9.6716
 223   2.0000      -0.353088        -9.6080
 224   2.0000      -0.346516        -9.4292
 225   2.0000      -0.343241        -9.3401
 226   2.0000      -0.342474        -9.3192
 227   2.0000      -0.338593        -9.2136
 228   2.0000      -0.325801        -8.8655
 229   2.0000      -0.322738        -8.7821
 230   2.0000      -0.321301        -8.7430
 231   2.0000      -0.317488        -8.6393
 232   2.0000      -0.302900        -8.2423
 233   2.0000      -0.300868        -8.1870
 234   2.0000      -0.298570        -8.1245
 235   2.0000      -0.278892        -7.5890
 236   2.0000      -0.261250        -7.1090
 237   2.0000      -0.256971        -6.9925
 238   2.0000      -0.220789        -6.0080
 239   0.0000      -0.101971        -2.7748
 240   0.0000      -0.062967        -1.7134
 241   0.0000      -0.041249        -1.1224
 242   0.0000      -0.036001        -0.9796
 243   0.0000      -0.008648        -0.2353

MULLIKEN ATOMIC CHARGES
-----------------------
   0 C :   -0.081978
   1 C :    0.039573
   2 C :   -0.038021
   3 C :   -0.112783
   4 S :    0.179075
   5 C :   -0.093074
   6 C :    0.034520
   7 C :    0.303983
   8 C :   -0.299867
   9 C :   -0.190905
  10 N :    0.187143
  11 C :   -0.192409
  12 N :    0.175071
  13 C :   -0.074300
  14 C :   -0.068839
  15 S :    0.147591
  16 C :   -0.065695
  17 S :    0.102141
  18 C :   -0.071074
  19 C :   -0.099806
  20 C :   -0.077974
  21 C :    0.104667
  22 C :   -0.052370
  23 C :   -0.252475
  24 N :    0.152822
  25 C :   -0.055084
  26 C :   -0.250277
  27 N :    0.149635
  28 C :    0.117992
  29 C :   -0.039557
  30 C :   -0.088471
  31 C :    0.056311
  32 C :    0.067634
  33 C :   -0.112931
  34 S :    0.083551
  35 C :   -0.116104
  36 C :    0.054756
  37 C :   -0.001864
  38 C :   -0.067468
  39 S :    0.123106
  40 C :    0.122072
  41 C :   -0.000366
  42 C :    0.005015
  43 C :   -0.065783
  44 N :   -0.082163
  45 C :    0.077163
  46 C :   -0.059635
  47 C :    0.057859
  48 N :   -0.053579
  49 C :    0.002055
  50 C :   -0.049819
  51 C :    0.113609
  52 C :   -0.130789
  53 C :    0.080739
  54 N :   -0.062806
  55 C :    0.009572
  56 S :    0.093438
  57 C :   -0.091746
  58 C :   -0.025792
  59 C :   -0.006080
  60 N :   -0.058792
  61 C :    0.013502
  62 S :    0.093845
  63 H :    0.035252
  64 H :    0.011472
  65 H :    0.020402
  66 H :    0.056435
  67 H :    0.052301
  68 H :    0.052841
  69 H :    0.053371
  70 H :    0.053870
  71 H :    0.060013
  72 H :    0.015631
  73 H :    0.034549
  74 H :   -0.011286
  75 H :    0.025206
  76 H :   -0.011501
  77 H :   -0.046146
  78 H :    0.005378
  79 H :   -0.010830
  80 H :   -0.008562
  81 H :   -0.006092
  82 H :    0.041700
  83 H :   -0.024495
  84 H :    0.042730
Sum of atomic charges:   -0.0000000

LOEWDIN ATOMIC CHARGES
----------------------
   0 C :   -0.178929
   1 C :   -0.033100
   2 C :   -0.080889
   3 C :   -0.179935
   4 S :    0.474549
   5 C :   -0.190514
   6 C :   -0.064132
   7 C :    0.085655
   8 C :   -0.104772
   9 C :   -0.010198
  10 N :   -0.035279
  11 C :   -0.016527
  12 N :   -0.033571
  13 C :   -0.038634
  14 C :   -0.176455
  15 S :    0.484650
  16 C :   -0.179949
  17 S :    0.466267
  18 C :   -0.169762
  19 C :   -0.065033
  20 C :   -0.063396
  21 C :   -0.022338
  22 C :   -0.032317
  23 C :   -0.036997
  24 N :   -0.049051
  25 C :   -0.033013
  26 C :   -0.036449
  27 N :   -0.050236
  28 C :   -0.022666
  29 C :   -0.186688
  30 C :   -0.025715
  31 C :   -0.017658
  32 C :   -0.046415
  33 C :   -0.144381
  34 S :    0.455949
  35 C :   -0.203546
  36 C :   -0.031711
  37 C :   -0.061395
  38 C :   -0.165464
  39 S :    0.418436
  40 C :   -0.047332
  41 C :    0.010658
  42 C :   -0.053442
  43 C :    0.031231
  44 N :   -0.097276
  45 C :    0.051666
  46 C :   -0.074069
  47 C :    0.032662
  48 N :   -0.097064
  49 C :   -0.020293
  50 C :   -0.000644
  51 C :   -0.037895
  52 C :   -0.162786
  53 C :   -0.035507
  54 N :   -0.091029
  55 C :   -0.104434
  56 S :    0.389184
  57 C :   -0.032837
  58 C :   -0.169190
  59 C :   -0.026952
  60 N :   -0.081943
  61 C :   -0.101740
  62 S :    0.384860
  63 H :    0.027252
  64 H :    0.042503
  65 H :    0.035021
  66 H :    0.041062
  67 H :    0.033756
  68 H :    0.061966
  69 H :    0.062240
  70 H :    0.034165
  71 H :    0.041698
  72 H :    0.029049
  73 H :    0.036071
  74 H :    0.031565
  75 H :    0.023046
  76 H :    0.028972
  77 H :    0.023721
  78 H :    0.026208
  79 H :    0.031160
  80 H :    0.026306
  81 H :    0.022182
  82 H :    0.019653
  83 H :    0.037849
  84 H :    0.020332

  Mayer bond orders larger than 0.100000
B(  0-C ,  1-C ) :   1.5556 B(  0-C ,  4-S ) :   1.1427 B(  0-C , 63-H ) :   0.9645
B(  1-C ,  2-C ) :   1.2722 B(  1-C , 64-H ) :   0.9951 B(  2-C ,  3-C ) :   1.4510
B(  2-C ,  7-C ) :   1.0223 B(  3-C ,  4-S ) :   1.1384 B(  3-C ,  5-C ) :   1.1775
B(  5-C ,  6-C ) :   1.4580 B(  5-C , 15-S ) :   1.1139 B(  6-C ,  7-C ) :   0.9858
B(  6-C , 13-C ) :   1.3000 B(  7-C ,  8-C ) :   1.7056 B(  8-C ,  9-C ) :   1.1262
B(  8-C , 11-C ) :   1.1350 B(  9-C , 10-N ) :   3.0004 B( 11-C , 12-N ) :   3.0022
B( 13-C , 14-C ) :   1.4452 B( 13-C , 65-H ) :   0.9872 B( 14-C , 15-S ) :   1.1024
B( 14-C , 16-C ) :   1.1584 B( 16-C , 17-S ) :   1.1280 B( 16-C , 18-C ) :   0.1035
B( 16-C , 20-C ) :   1.5267 B( 17-S , 18-C ) :   1.1195 B( 18-C , 19-C ) :   1.5300
B( 18-C , 29-C ) :   1.1520 B( 19-C , 20-C ) :   1.3026 B( 19-C , 28-C ) :   1.0320
B( 20-C , 21-C ) :   1.0405 B( 21-C , 22-C ) :   1.0568 B( 21-C , 66-H ) :   0.8989
B( 21-C , 67-H ) :   0.9083 B( 22-C , 23-C ) :   1.1126 B( 22-C , 25-C ) :   1.0785
B( 22-C , 68-H ) :   0.8540 B( 23-C , 24-N ) :   3.1056 B( 25-C , 26-C ) :   1.1096
B( 25-C , 28-C ) :   1.0525 B( 25-C , 69-H ) :   0.8538 B( 26-C , 27-N ) :   3.1055
B( 28-C , 70-H ) :   0.9101 B( 28-C , 71-H ) :   0.9011 B( 29-C , 30-C ) :   1.5137
B( 29-C , 34-S ) :   1.0368 B( 30-C , 31-C ) :   1.2524 B( 30-C , 72-H ) :   0.9522
B( 31-C , 32-C ) :   1.0404 B( 31-C , 40-C ) :   1.3968 B( 32-C , 33-C ) :   1.6156
B( 32-C , 35-C ) :   1.1804 B( 33-C , 34-S ) :   1.1265 B( 33-C , 73-H ) :   0.9383
B( 35-C , 36-C ) :   1.4435 B( 35-C , 39-S ) :   1.0746 B( 36-C , 37-C ) :   1.2170
B( 36-C , 40-C ) :   1.0797 B( 37-C , 38-C ) :   1.5843 B( 37-C , 74-H ) :   1.0029
B( 38-C , 39-S ) :   1.1528 B( 38-C , 75-H ) :   0.9648 B( 40-C , 41-C ) :   1.1240
B( 41-C , 42-C ) :   1.6519 B( 41-C , 76-H ) :   0.9483 B( 42-C , 43-C ) :   1.0380
B( 42-C , 77-H ) :   0.9818 B( 43-C , 44-N ) :   1.4993 B( 43-C , 48-N ) :   1.5419
B( 44-N , 45-C ) :   1.5637 B( 45-C , 46-C ) :   1.3439 B( 45-C , 78-H ) :   0.9763
B( 46-C , 47-C ) :   1.3406 B( 46-C , 79-H ) :   0.9766 B( 47-C , 48-N ) :   1.5082
B( 47-C , 49-C ) :   1.0420 B( 49-C , 50-C ) :   1.7499 B( 49-C , 80-H ) :   0.9582
B( 50-C , 51-C ) :   1.0527 B( 50-C , 81-H ) :   0.9632 B( 51-C , 52-C ) :   1.3786
B( 51-C , 57-C ) :   0.1152 B( 51-C , 59-C ) :   1.3055 B( 52-C , 53-C ) :   1.2819
B( 52-C , 56-S ) :   1.0703 B( 53-C , 54-N ) :   1.2835 B( 53-C , 57-C ) :   1.3509
B( 54-N , 55-C ) :   1.7879 B( 54-N , 56-S ) :   0.1074 B( 55-C , 56-S ) :   1.1051
B( 55-C , 82-H ) :   0.9631 B( 57-C , 58-C ) :   1.3252 B( 57-C , 83-H ) :   1.0239
B( 58-C , 59-C ) :   1.2980 B( 58-C , 62-S ) :   1.0543 B( 59-C , 60-N ) :   1.3168
B( 60-N , 61-C ) :   1.7567 B( 60-N , 62-S ) :   0.1092 B( 61-C , 62-S ) :   1.1175
B( 61-C , 84-H ) :   0.9637

-----------------------------------------------------------------------------
         ABSORPTION SPECTRUM VIA TRANSITION ELECTRIC DIPOLE MOMENTS
-----------------------------------------------------------------------------
State   Energy  Wavelength   fosc         T2         TX        TY        TZ
        (cm-1)    (nm)                  (au**2)     (au)      (au)      (au)
-----------------------------------------------------------------------------
   0   11887.5    841.2   0.115662034   3.20313  -0.36790  -1.63094   0.63860
   1   17445.0    573.2   0.062451221   1.17854  -0.26229   0.94137   0.47284
   2   19080.3    524.1   0.689464918  11.89602  -0.29465   3.39010   0.56253
   3   21154.0    472.7   0.042870100   0.66717   0.12415   0.76800  -0.24885
   4   25273.9    395.7   0.037721392   0.49135  -0.27908  -0.43343   0.47497
   5   26138.8    382.6   0.011216761   0.14127  -0.08869   0.33575   0.14381
   6   26453.1    378.0   0.274112863   3.41137  -0.68402  -1.24712   1.17821
   7   27413.6    364.8   0.291234608   3.49745   0.72434   1.15252  -1.28237
   8   29679.1    336.9   1.436944586  15.93916  -1.90345   0.75356   3.42756
   9   30197.5    331.2   0.108996839   1.18828   0.18369   0.97531  -0.45089
  10   30852.8    324.1   0.293260744   3.12921   0.47477  -1.47297  -0.85684
  11   30905.0    323.6   0.001717140   0.01829  -0.03023   0.04304   0.12460
  12   31261.1    319.9   0.265900318   2.80021  -0.38317  -1.49579   0.64497
  13   31907.7    313.4   0.010915650   0.11262  -0.09521   0.24531   0.20828
  14   32058.6    311.9   0.540467508   5.55009   0.27437  -2.16909  -0.87741
  15   32295.0    309.6   0.004490659   0.04578   0.13805   0.11218   0.11890
  16   32740.3    305.4   0.073430358   0.73836   0.06399  -0.83232  -0.20372
  17   33567.0    297.9   0.018785306   0.18424   0.11739  -0.32738  -0.25156
  18   33626.9    297.4   0.212951303   2.08482  -0.42595   1.15907   0.74830
  19   34010.6    294.0   0.020564124   0.19905  -0.05910   0.11843   0.42607
  20   34027.8    293.9   0.332415724   3.21606   0.81078  -0.41608  -1.54453
  21   35124.5    284.7   0.061704256   0.57834  -0.29983   0.30076   0.63086
  22   35469.6    281.9   0.004798163   0.04453  -0.08936  -0.14095   0.12916
  23   35614.5    280.8   0.000263923   0.00244  -0.00583   0.04825   0.00879
  24   36190.3    276.3   0.037753487   0.34343   0.23210   0.24028  -0.48148
  25   36697.6    272.5   0.396606921   3.55794  -0.86654   0.66401   1.53822
  26   36836.0    271.5   0.012480352   0.11154  -0.15066   0.10301   0.27970
  27   37263.6    268.4   0.137579940   1.21547  -0.07039  -1.09906  -0.05084
  28   38393.3    260.5   0.058046404   0.49773  -0.01968   0.70459   0.02992
  29   38682.4    258.5   0.001496586   0.01274  -0.06940   0.00145   0.08898
  30   39491.5    253.2   0.004167380   0.03474   0.05126  -0.03138  -0.17643
  31   39743.4    251.6   0.310592225   2.57277   0.29939   1.16620  -1.05978
  32   40270.0    248.3   0.038909441   0.31809  -0.08937  -0.55451   0.05125

FINAL SINGLE POINT ENERGY     -5063.862585314046

DIPOLE MOMENT
-------------
                                X             Y             Z
Electronic contribution:     -3.07979      -7.03049       6.86321
Nuclear contribution   :      3.57826       5.42094      -7.95427
                        -----------------------------------------
Total Dipole Moment    :      0.49847      -1.60955      -1.09106
                        -----------------------------------------
Magnitude (a.u.)       :      2.00737
Magnitude (Debye)      :      5.10232

Rotational constants in cm-1:     0.001157     0.000446     0.000327
Rotational constants in MHz :    34.675888    13.373120     9.789238

                             ****ORCA TERMINATED NORMALLY****
TOTAL RUN TIME: 0 days 0 hours 10 minutes 41 seconds 772 msec
