                         Program Version 4.2.0 -  RELEASE  -
|  1> # ORCA input file
|  2> # SCF done       -172.858248050524          0.000724385664
|  3> ! CAM-B3LYP def2-SVP def2/J RIJCOSX Grid4 TightSCF
|  4> %maxcore 5000
|  5> %tddft
|  6>     Mode sTDDFT
|  7>     Ethresh 5.0
|  8>     maxcore 5000
|  9> end
| 10>
| 11> %pal
| 12>   nprocs 6
| 13>   end
| 14> * xyz 0 1
| 15>    C       -0.35699        -2.03649         1.32940
| 16>    C       -1.20070        -1.81338         0.28407
| 17>    C       -1.40307        -0.43587         0.07440
| 18>    C       -0.69197         0.35322         0.98535
| 19>    S        0.21368        -0.58571         2.08586
| 20>    C       -0.95300         1.72481         0.69991
| 21>    C       -1.82960         1.79155        -0.39096
| 22>    C       -2.14271         0.43535        -0.82183
| 23>    C       -2.95850         0.06833        -1.85162
| 24>    C       -3.62875         1.01136        -2.65946
| 25>    N       -4.18274         1.76556        -3.32186
| 26>    C       -3.18850        -1.28396        -2.18127
| 27>    N       -3.37835        -2.38153        -2.45382
| 28>    C       -2.14810         3.10146        -0.75425
| 29>    C       -1.52002         4.02933         0.05153
| 30>    S       -0.51858         3.26809         1.28086
| 31>    C       -1.61001         5.45370        -0.03688
| 32>    C       -0.92396         6.31406         0.81543
| 33>    N       -0.93669         7.63880         0.77330
| 34>    C       -1.65903         8.28260        -0.13179
| 35>    C       -2.43676         7.53350        -1.05735
| 36>    C       -2.40800         6.10080        -1.01729
| 37>    N       -3.18200         5.56867        -1.96259
| 38>    S       -3.86976         6.74930        -2.80677
| 39>    N       -3.22751         7.99518        -2.02087
| 40>    C       -1.63336         9.70992        -0.18675
| 41>    S       -2.54050        10.55146        -1.39910
| 42>    C       -1.97481        12.07902        -0.80357
| 43>    C       -1.10086        11.92870         0.25804
| 44>    C       -0.91962        10.58263         0.61948
| 45>    C       -0.04387        10.15063         1.74854
| 46>    C        0.33881        11.34662         2.63166
| 47>    C       -0.80785        11.77061         3.40197
| 48>    N       -1.72542        12.11854         3.98783
| 49>    C        0.81444        12.52481         1.75155
| 50>    C        1.88967        12.08711         0.89103
| 51>    N        2.73756        11.74643         0.20522
| 52>    C       -0.35862        13.05262         0.91226
| 53>    C       -2.40454        13.29495        -1.45259
| 54>    C       -2.76890        14.46833        -0.81055
| 55>    O       -2.84329        14.55891         0.55753
| 56>    C       -3.79284        13.71444         1.19048
| 57>    C       -3.11840        15.65609        -1.52764
| 58>    O       -3.53549        16.74759        -0.81845
| 59>    C       -2.58575        17.38975         0.01617
| 60>    C       -3.15446        15.73554        -2.91736
| 61>    C       -2.89063        14.51181        -3.58885
| 62>    C       -2.52771        13.32016        -2.86365
| 63>    N       -2.35862        12.35599        -3.74450
| 64>    O       -2.61374        12.89028        -4.93390
| 65>    N       -2.93646        14.18096        -4.86506
| 66>    C       -3.52624        16.95437        -3.59234
| 67>    S       -4.53206        18.09422        -2.74140
| 68>    C       -4.62414        19.14381        -4.11499
| 69>    C       -3.85696        18.65783        -5.15151
| 70>    C       -3.23496        17.42024        -4.85956
| 71>    C       -2.26965        16.86380        -5.85902
| 72>    C       -1.10120        17.82282        -6.01558
| 73>    S       -1.70791        19.48912        -6.47918
| 74>    O       -1.29075        20.41769        -5.46420
| 75>    O       -1.32057        19.76951        -7.83559
| 76>    C       -3.53800        19.35377        -6.41444
| 77>    C       -5.42821        20.33788        -4.02008
| 78>    C       -6.07910        20.91984        -5.02283
| 79>    H       -0.02401        -2.97905         1.71532
| 80>    H       -1.64874        -2.59673        -0.29935
| 81>    H       -2.79879         3.39166        -1.55866
| 82>    H       -0.29912         5.90034         1.59749
| 83>    H        0.86125         9.68678         1.34571
| 84>    H       -0.55542         9.38350         2.33331
| 85>    H        1.13194        11.05196         3.32886
| 86>    H        1.20065        13.33361         2.38460
| 87>    H        0.00430        13.74661         0.14824
| 88>    H       -1.02950        13.61609         1.56674
| 89>    H       -3.64166        13.84562         2.26014
| 90>    H       -3.64783        12.66426         0.93012
| 91>    H       -4.80796        14.01933         0.92100
| 92>    H       -3.12807        18.19680         0.50349
| 93>    H       -1.76922        17.80685        -0.58194
| 94>    H       -2.18295        16.70649         0.76488
| 95>    H       -2.77288        16.74449        -6.82163
| 96>    H       -1.90948        15.88239        -5.55965
| 97>    H       -0.42536        17.51851        -6.80894
| 98>    H       -0.55917        17.95736        -5.08386
| 99>    H       -3.83176        18.80916        -7.30843
|100>    H       -3.90944        20.37287        -6.44381
|101>    H       -5.52427        20.73603        -3.01797
|102>    H       -6.07595        20.52284        -6.02307
|103>    H       -6.66869        21.80520        -4.86085
|104> *
|105>
|106>                          ****END OF INPUT****

CARTESIAN COORDINATES (ANGSTROEM)
---------------------------------
  C     -0.356990   -2.036490    1.329400
  C     -1.200700   -1.813380    0.284070
  C     -1.403070   -0.435870    0.074400
  C     -0.691970    0.353220    0.985350
  S      0.213680   -0.585710    2.085860
  C     -0.953000    1.724810    0.699910
  C     -1.829600    1.791550   -0.390960
  C     -2.142710    0.435350   -0.821830
  C     -2.958500    0.068330   -1.851620
  C     -3.628750    1.011360   -2.659460
  N     -4.182740    1.765560   -3.321860
  C     -3.188500   -1.283960   -2.181270
  N     -3.378350   -2.381530   -2.453820
  C     -2.148100    3.101460   -0.754250
  C     -1.520020    4.029330    0.051530
  S     -0.518580    3.268090    1.280860
  C     -1.610010    5.453700   -0.036880
  C     -0.923960    6.314060    0.815430
  N     -0.936690    7.638800    0.773300
  C     -1.659030    8.282600   -0.131790
  C     -2.436760    7.533500   -1.057350
  C     -2.408000    6.100800   -1.017290
  N     -3.182000    5.568670   -1.962590
  S     -3.869760    6.749300   -2.806770
  N     -3.227510    7.995180   -2.020870
  C     -1.633360    9.709920   -0.186750
  S     -2.540500   10.551460   -1.399100
  C     -1.974810   12.079020   -0.803570
  C     -1.100860   11.928700    0.258040
  C     -0.919620   10.582630    0.619480
  C     -0.043870   10.150630    1.748540
  C      0.338810   11.346620    2.631660
  C     -0.807850   11.770610    3.401970
  N     -1.725420   12.118540    3.987830
  C      0.814440   12.524810    1.751550
  C      1.889670   12.087110    0.891030
  N      2.737560   11.746430    0.205220
  C     -0.358620   13.052620    0.912260
  C     -2.404540   13.294950   -1.452590
  C     -2.768900   14.468330   -0.810550
  O     -2.843290   14.558910    0.557530
  C     -3.792840   13.714440    1.190480
  C     -3.118400   15.656090   -1.527640
  O     -3.535490   16.747590   -0.818450
  C     -2.585750   17.389750    0.016170
  C     -3.154460   15.735540   -2.917360
  C     -2.890630   14.511810   -3.588850
  C     -2.527710   13.320160   -2.863650
  N     -2.358620   12.355990   -3.744500
  O     -2.613740   12.890280   -4.933900
  N     -2.936460   14.180960   -4.865060
  C     -3.526240   16.954370   -3.592340
  S     -4.532060   18.094220   -2.741400
  C     -4.624140   19.143810   -4.114990
  C     -3.856960   18.657830   -5.151510
  C     -3.234960   17.420240   -4.859560
  C     -2.269650   16.863800   -5.859020
  C     -1.101200   17.822820   -6.015580
  S     -1.707910   19.489120   -6.479180
  O     -1.290750   20.417690   -5.464200
  O     -1.320570   19.769510   -7.835590
  C     -3.538000   19.353770   -6.414440
  C     -5.428210   20.337880   -4.020080
  C     -6.079100   20.919840   -5.022830
  H     -0.024010   -2.979050    1.715320
  H     -1.648740   -2.596730   -0.299350
  H     -2.798790    3.391660   -1.558660
  H     -0.299120    5.900340    1.597490
  H      0.861250    9.686780    1.345710
  H     -0.555420    9.383500    2.333310
  H      1.131940   11.051960    3.328860
  H      1.200650   13.333610    2.384600
  H      0.004300   13.746610    0.148240
  H     -1.029500   13.616090    1.566740
  H     -3.641660   13.845620    2.260140
  H     -3.647830   12.664260    0.930120
  H     -4.807960   14.019330    0.921000
  H     -3.128070   18.196800    0.503490
  H     -1.769220   17.806850   -0.581940
  H     -2.182950   16.706490    0.764880
  H     -2.772880   16.744490   -6.821630
  H     -1.909480   15.882390   -5.559650
  H     -0.425360   17.518510   -6.808940
  H     -0.559170   17.957360   -5.083860
  H     -3.831760   18.809160   -7.308430
  H     -3.909440   20.372870   -6.443810
  H     -5.524270   20.736030   -3.017970
  H     -6.075950   20.522840   -6.023070
  H     -6.668690   21.805200   -4.860850

 Total Charge           Charge          ....    0
 Multiplicity           Mult            ....    1
 Number of Electrons    NEL             ....  488
 Basis Dimension        Dim             .... 1045

ORBITAL ENERGIES
----------------

  NO   OCC          E(Eh)            E(eV)
   0   2.0000     -89.118312     -2425.0326
   1   2.0000     -89.043381     -2422.9936
   2   2.0000     -88.987732     -2421.4793
   3   2.0000     -88.987080     -2421.4616
   4   2.0000     -88.964608     -2420.8501
   5   2.0000     -88.954896     -2420.5858
   6   2.0000     -19.359512      -526.7991
   7   2.0000     -19.263085      -524.1752
   8   2.0000     -19.259162      -524.0685
   9   2.0000     -19.172890      -521.7209
  10   2.0000     -19.172368      -521.7067
  11   2.0000     -14.485088      -394.1593
  12   2.0000     -14.484454      -394.1420
  13   2.0000     -14.459638      -393.4668
  14   2.0000     -14.454302      -393.3216
  15   2.0000     -14.426957      -392.5775
  16   2.0000     -14.426116      -392.5546
  17   2.0000     -14.425729      -392.5440
  18   2.0000     -14.419460      -392.3735
  19   2.0000     -14.414396      -392.2356
  20   2.0000     -10.366991      -282.1002
  21   2.0000     -10.362007      -281.9646
  22   2.0000     -10.360742      -281.9301
  23   2.0000     -10.348196      -281.5887
  24   2.0000     -10.345513      -281.5157
  25   2.0000     -10.342975      -281.4466
  26   2.0000     -10.340470      -281.3785
  27   2.0000     -10.339420      -281.3499
  28   2.0000     -10.338075      -281.3133
  29   2.0000     -10.336402      -281.2678
  30   2.0000     -10.334138      -281.2062
  31   2.0000     -10.330100      -281.0963
  32   2.0000     -10.328609      -281.0557
  33   2.0000     -10.328159      -281.0435
  34   2.0000     -10.327362      -281.0218
  35   2.0000     -10.326743      -281.0050
  36   2.0000     -10.326493      -280.9982
  37   2.0000     -10.325162      -280.9619
  38   2.0000     -10.321533      -280.8632
  39   2.0000     -10.320678      -280.8399
  40   2.0000     -10.318718      -280.7866
  41   2.0000     -10.318544      -280.7819
  42   2.0000     -10.315593      -280.7016
  43   2.0000     -10.313636      -280.6483
  44   2.0000     -10.313021      -280.6316
  45   2.0000     -10.311351      -280.5861
  46   2.0000     -10.310377      -280.5596
  47   2.0000     -10.308640      -280.5124
  48   2.0000     -10.301073      -280.3065
  49   2.0000     -10.299749      -280.2704
  50   2.0000     -10.298871      -280.2465
  51   2.0000     -10.298412      -280.2340
  52   2.0000     -10.297502      -280.2093
  53   2.0000     -10.296608      -280.1850
  54   2.0000     -10.296454      -280.1808
  55   2.0000     -10.294757      -280.1346
  56   2.0000     -10.294439      -280.1259
  57   2.0000     -10.293706      -280.1060
  58   2.0000     -10.292519      -280.0737
  59   2.0000     -10.288253      -279.9576
  60   2.0000     -10.286184      -279.9013
  61   2.0000     -10.284391      -279.8525
  62   2.0000     -10.283601      -279.8310
  63   2.0000     -10.273525      -279.5568
  64   2.0000      -8.185189      -222.7303
  65   2.0000      -8.134715      -221.3569
  66   2.0000      -8.082144      -219.9263
  67   2.0000      -8.081996      -219.9223
  68   2.0000      -8.058586      -219.2853
  69   2.0000      -8.049632      -219.0416
  70   2.0000      -6.153999      -167.4588
  71   2.0000      -6.153622      -167.4486
  72   2.0000      -6.153275      -167.4391
  73   2.0000      -6.105895      -166.1498
  74   2.0000      -6.098061      -165.9367
  75   2.0000      -6.097275      -165.9153
  76   2.0000      -6.051400      -164.6670
  77   2.0000      -6.051274      -164.6635
  78   2.0000      -6.047215      -164.5531
  79   2.0000      -6.046794      -164.5416
  80   2.0000      -6.044658      -164.4835
  81   2.0000      -6.044573      -164.4812
  82   2.0000      -6.027933      -164.0284
  83   2.0000      -6.023498      -163.9077
  84   2.0000      -6.020838      -163.8353
  85   2.0000      -6.019026      -163.7860
  86   2.0000      -6.014478      -163.6623
  87   2.0000      -6.011916      -163.5926
  88   2.0000      -1.314263       -35.7629
  89   2.0000      -1.179649       -32.0999
  90   2.0000      -1.177506       -32.0416
  91   2.0000      -1.152014       -31.3479
  92   2.0000      -1.144071       -31.1317
  93   2.0000      -1.060856       -28.8674
  94   2.0000      -1.058475       -28.8026
  95   2.0000      -1.040585       -28.3158
  96   2.0000      -1.023009       -27.8375
  97   2.0000      -1.019005       -27.7285
  98   2.0000      -1.018295       -27.7092
  99   2.0000      -1.012506       -27.5517
 100   2.0000      -1.004374       -27.3304
 101   2.0000      -1.003334       -27.3021
 102   2.0000      -1.001671       -27.2569
 103   2.0000      -0.994323       -27.0569
 104   2.0000      -0.990445       -26.9514
 105   2.0000      -0.988203       -26.8904
 106   2.0000      -0.955682       -26.0054
 107   2.0000      -0.954891       -25.9839
 108   2.0000      -0.924910       -25.1681
 109   2.0000      -0.924200       -25.1488
 110   2.0000      -0.918035       -24.9810
 111   2.0000      -0.913318       -24.8527
 112   2.0000      -0.902528       -24.5590
 113   2.0000      -0.894404       -24.3380
 114   2.0000      -0.878932       -23.9170
 115   2.0000      -0.874099       -23.7854
 116   2.0000      -0.861519       -23.4431
 117   2.0000      -0.860938       -23.4273
 118   2.0000      -0.858000       -23.3474
 119   2.0000      -0.849346       -23.1119
 120   2.0000      -0.837440       -22.7879
 121   2.0000      -0.821421       -22.3520
 122   2.0000      -0.817552       -22.2467
 123   2.0000      -0.806309       -21.9408
 124   2.0000      -0.795896       -21.6574
 125   2.0000      -0.785962       -21.3871
 126   2.0000      -0.777919       -21.1683
 127   2.0000      -0.771540       -20.9947
 128   2.0000      -0.758740       -20.6464
 129   2.0000      -0.753187       -20.4953
 130   2.0000      -0.743545       -20.2329
 131   2.0000      -0.739223       -20.1153
 132   2.0000      -0.736096       -20.0302
 133   2.0000      -0.733739       -19.9661
 134   2.0000      -0.723417       -19.6852
 135   2.0000      -0.711341       -19.3566
 136   2.0000      -0.699533       -19.0353
 137   2.0000      -0.693099       -18.8602
 138   2.0000      -0.683288       -18.5932
 139   2.0000      -0.678135       -18.4530
 140   2.0000      -0.667465       -18.1627
 141   2.0000      -0.660202       -17.9650
 142   2.0000      -0.654787       -17.8177
 143   2.0000      -0.649460       -17.6727
 144   2.0000      -0.643280       -17.5045
 145   2.0000      -0.633775       -17.2459
 146   2.0000      -0.629898       -17.1404
 147   2.0000      -0.628108       -17.0917
 148   2.0000      -0.622131       -16.9291
 149   2.0000      -0.614384       -16.7182
 150   2.0000      -0.612743       -16.6736
 151   2.0000      -0.611113       -16.6292
 152   2.0000      -0.608931       -16.5699
 153   2.0000      -0.603253       -16.4154
 154   2.0000      -0.601039       -16.3551
 155   2.0000      -0.591234       -16.0883
 156   2.0000      -0.582985       -15.8638
 157   2.0000      -0.580562       -15.7979
 158   2.0000      -0.578077       -15.7303
 159   2.0000      -0.576291       -15.6817
 160   2.0000      -0.570838       -15.5333
 161   2.0000      -0.570545       -15.5253
 162   2.0000      -0.565792       -15.3960
 163   2.0000      -0.558888       -15.2081
 164   2.0000      -0.554271       -15.0825
 165   2.0000      -0.551750       -15.0139
 166   2.0000      -0.546732       -14.8773
 167   2.0000      -0.542812       -14.7707
 168   2.0000      -0.542102       -14.7514
 169   2.0000      -0.540989       -14.7211
 170   2.0000      -0.536573       -14.6009
 171   2.0000      -0.532829       -14.4990
 172   2.0000      -0.527568       -14.3558
 173   2.0000      -0.527368       -14.3504
 174   2.0000      -0.523122       -14.2349
 175   2.0000      -0.519425       -14.1343
 176   2.0000      -0.516149       -14.0451
 177   2.0000      -0.513165       -13.9639
 178   2.0000      -0.507027       -13.7969
 179   2.0000      -0.505501       -13.7554
 180   2.0000      -0.503325       -13.6962
 181   2.0000      -0.502247       -13.6668
 182   2.0000      -0.498490       -13.5646
 183   2.0000      -0.496438       -13.5088
 184   2.0000      -0.491805       -13.3827
 185   2.0000      -0.491001       -13.3608
 186   2.0000      -0.489132       -13.3099
 187   2.0000      -0.488146       -13.2831
 188   2.0000      -0.484179       -13.1752
 189   2.0000      -0.482035       -13.1168
 190   2.0000      -0.480842       -13.0844
 191   2.0000      -0.470679       -12.8078
 192   2.0000      -0.470322       -12.7981
 193   2.0000      -0.467910       -12.7325
 194   2.0000      -0.463183       -12.6038
 195   2.0000      -0.460284       -12.5250
 196   2.0000      -0.458173       -12.4675
 197   2.0000      -0.455592       -12.3973
 198   2.0000      -0.454401       -12.3649
 199   2.0000      -0.453632       -12.3440
 200   2.0000      -0.451781       -12.2936
 201   2.0000      -0.450532       -12.2596
 202   2.0000      -0.446899       -12.1607
 203   2.0000      -0.442419       -12.0388
 204   2.0000      -0.441868       -12.0238
 205   2.0000      -0.440090       -11.9755
 206   2.0000      -0.437771       -11.9123
 207   2.0000      -0.436702       -11.8833
 208   2.0000      -0.436280       -11.8718
 209   2.0000      -0.435081       -11.8392
 210   2.0000      -0.434269       -11.8171
 211   2.0000      -0.432317       -11.7639
 212   2.0000      -0.431361       -11.7379
 213   2.0000      -0.423152       -11.5145
 214   2.0000      -0.421408       -11.4671
 215   2.0000      -0.418489       -11.3877
 216   2.0000      -0.415849       -11.3158
 217   2.0000      -0.410648       -11.1743
 218   2.0000      -0.408412       -11.1134
 219   2.0000      -0.407138       -11.0788
 220   2.0000      -0.405345       -11.0300
 221   2.0000      -0.401386       -10.9223
 222   2.0000      -0.396796       -10.7974
 223   2.0000      -0.388653       -10.5758
 224   2.0000      -0.381727       -10.3873
 225   2.0000      -0.381490       -10.3809
 226   2.0000      -0.379807       -10.3351
 227   2.0000      -0.375141       -10.2081
 228   2.0000      -0.370160       -10.0726
 229   2.0000      -0.365884        -9.9562
 230   2.0000      -0.364219        -9.9109
 231   2.0000      -0.350661        -9.5420
 232   2.0000      -0.349400        -9.5076
 233   2.0000      -0.348946        -9.4953
 234   2.0000      -0.344444        -9.3728
 235   2.0000      -0.342690        -9.3251
 236   2.0000      -0.341084        -9.2814
 237   2.0000      -0.327760        -8.9188
 238   2.0000      -0.319401        -8.6913
 239   2.0000      -0.318176        -8.6580
 240   2.0000      -0.306828        -8.3492
 241   2.0000      -0.299306        -8.1445
 242   2.0000      -0.268780        -7.3139
 243   2.0000      -0.250992        -6.8298
 244   0.0000      -0.103551        -2.8178
 245   0.0000      -0.091122        -2.4796
 246   0.0000      -0.069419        -1.8890
 247   0.0000      -0.017565        -0.4780
 248   0.0000      -0.012231        -0.3328

MULLIKEN ATOMIC CHARGES
-----------------------
   0 C :   -0.080364
   1 C :    0.037682
   2 C :   -0.030243
   3 C :   -0.119153
   4 S :    0.180267
   5 C :   -0.089130
   6 C :    0.021331
   7 C :    0.301406
   8 C :   -0.303431
   9 C :   -0.186821
  10 N :    0.175903
  11 C :   -0.191309
  12 N :    0.171706
  13 C :   -0.056296
  14 C :   -0.103993
  15 S :    0.163334
  16 C :    0.081173
  17 C :   -0.061981
  18 N :   -0.059291
  19 C :    0.021799
  20 C :   -0.016523
  21 C :    0.051783
  22 N :   -0.279539
  23 S :    0.554560
  24 N :   -0.285299
  25 C :   -0.133934
  26 S :    0.226471
  27 C :   -0.230098
  28 C :   -0.046879
  29 C :   -0.118888
  30 C :    0.192090
  31 C :   -0.054358
  32 C :   -0.242322
  33 N :    0.127571
  34 C :   -0.075258
  35 C :   -0.245533
  36 N :    0.144658
  37 C :    0.162475
  38 C :    0.074323
  39 C :    0.066028
  40 O :   -0.353582
  41 C :    0.182081
  42 C :    0.085314
  43 O :   -0.340298
  44 C :    0.192599
  45 C :    0.106077
  46 C :   -0.042478
  47 C :   -0.075876
  48 N :    0.059847
  49 O :   -0.097731
  50 N :    0.025496
  51 C :   -0.242742
  52 S :    0.165190
  53 C :   -0.120347
  54 C :   -0.086670
  55 C :   -0.062168
  56 C :    0.111282
  57 C :    0.034363
  58 S :    0.634694
  59 O :   -0.467955
  60 O :   -0.467484
  61 C :    0.116819
  62 C :    0.016953
  63 C :   -0.023313
  64 H :    0.035222
  65 H :    0.012367
  66 H :    0.021017
  67 H :    0.002510
  68 H :    0.046620
  69 H :    0.044339
  70 H :    0.049243
  71 H :    0.049769
  72 H :    0.034628
  73 H :    0.052183
  74 H :    0.053669
  75 H :    0.049077
  76 H :    0.027625
  77 H :    0.039345
  78 H :    0.020466
  79 H :    0.041181
  80 H :    0.020381
  81 H :    0.029942
  82 H :    0.058064
  83 H :    0.047579
  84 H :    0.047330
  85 H :    0.058283
  86 H :    0.004728
  87 H :    0.028018
  88 H :    0.032429
Sum of atomic charges:   -0.0000000

LOEWDIN ATOMIC CHARGES
----------------------
   0 C :   -0.176966
   1 C :   -0.034304
   2 C :   -0.074593
   3 C :   -0.185631
   4 S :    0.476599
   5 C :   -0.175297
   6 C :   -0.073680
   7 C :    0.082935
   8 C :   -0.103033
   9 C :   -0.017295
  10 N :   -0.032667
  11 C :   -0.016600
  12 N :   -0.034890
  13 C :   -0.019511
  14 C :   -0.165110
  15 S :    0.471461
  16 C :   -0.066899
  17 C :    0.004494
  18 N :   -0.065093
  19 C :    0.002373
  20 C :   -0.068630
  21 C :   -0.030671
  22 N :   -0.274986
  23 S :    0.678451
  24 N :   -0.280664
  25 C :   -0.186249
  26 S :    0.518013
  27 C :   -0.173892
  28 C :   -0.058070
  29 C :   -0.033107
  30 C :   -0.007590
  31 C :   -0.037157
  32 C :   -0.027286
  33 N :   -0.065103
  34 C :   -0.035512
  35 C :   -0.036053
  36 N :   -0.053757
  37 C :   -0.009541
  38 C :   -0.076032
  39 C :    0.045914
  40 O :   -0.113026
  41 C :    0.085699
  42 C :    0.040088
  43 O :   -0.119381
  44 C :    0.081139
  45 C :   -0.059356
  46 C :   -0.047447
  47 C :   -0.054999
  48 N :   -0.029441
  49 O :    0.073860
  50 N :   -0.023319
  51 C :   -0.181037
  52 S :    0.475833
  53 C :   -0.167054
  54 C :   -0.096732
  55 C :   -0.049836
  56 C :   -0.038330
  57 C :   -0.132094
  58 S :    1.158322
  59 O :   -0.523549
  60 O :   -0.526978
  61 C :   -0.130646
  62 C :   -0.037810
  63 C :   -0.034316
  64 H :    0.027412
  65 H :    0.042648
  66 H :    0.039055
  67 H :    0.016388
  68 H :    0.048165
  69 H :    0.044321
  70 H :    0.060598
  71 H :    0.059937
  72 H :    0.043358
  73 H :    0.039389
  74 H :    0.032489
  75 H :    0.019832
  76 H :    0.020084
  77 H :    0.028931
  78 H :    0.015890
  79 H :    0.015765
  80 H :    0.038048
  81 H :    0.032826
  82 H :    0.038536
  83 H :    0.035653
  84 H :    0.036612
  85 H :    0.044988
  86 H :    0.032290
  87 H :    0.023362
  88 H :    0.029466

  Mayer bond orders larger than 0.100000
B(  0-C ,  1-C ) :   1.5461 B(  0-C ,  4-S ) :   1.1512 B(  0-C , 64-H ) :   0.9649
B(  1-C ,  2-C ) :   1.2785 B(  1-C , 65-H ) :   0.9959 B(  2-C ,  3-C ) :   1.4600
B(  2-C ,  7-C ) :   1.0123 B(  3-C ,  4-S ) :   1.1336 B(  3-C ,  5-C ) :   1.1779
B(  5-C ,  6-C ) :   1.4606 B(  5-C , 15-S ) :   1.1278 B(  6-C ,  7-C ) :   0.9974
B(  6-C , 13-C ) :   1.2404 B(  7-C ,  8-C ) :   1.7094 B(  8-C ,  9-C ) :   1.1371
B(  8-C , 11-C ) :   1.1310 B(  9-C , 10-N ) :   2.9898 B( 11-C , 12-N ) :   3.0020
B( 13-C , 14-C ) :   1.4919 B( 13-C , 66-H ) :   0.9851 B( 14-C , 15-S ) :   1.0903
B( 14-C , 16-C ) :   1.1134 B( 16-C , 17-C ) :   1.4177 B( 16-C , 21-C ) :   1.2090
B( 17-C , 18-N ) :   1.4454 B( 17-C , 67-H ) :   0.9763 B( 18-N , 19-C ) :   1.6209
B( 19-C , 20-C ) :   1.1322 B( 19-C , 25-C ) :   1.1337 B( 20-C , 21-C ) :   1.1949
B( 20-C , 24-N ) :   1.5209 B( 21-C , 22-N ) :   1.5163 B( 22-N , 23-S ) :   1.2680
B( 22-N , 24-N ) :   0.1461 B( 23-S , 24-N ) :   1.2768 B( 25-C , 26-S ) :   1.1443
B( 25-C , 27-C ) :   0.1206 B( 25-C , 29-C ) :   1.4935 B( 26-S , 27-C ) :   1.1375
B( 27-C , 28-C ) :   1.5185 B( 27-C , 38-C ) :   1.0052 B( 28-C , 29-C ) :   1.3100
B( 28-C , 37-C ) :   1.0503 B( 29-C , 30-C ) :   1.0570 B( 30-C , 31-C ) :   1.0320
B( 30-C , 68-H ) :   0.8921 B( 30-C , 69-H ) :   0.8984 B( 31-C , 32-C ) :   1.1076
B( 31-C , 34-C ) :   1.0682 B( 31-C , 70-H ) :   0.8495 B( 32-C , 33-N ) :   3.0820
B( 34-C , 35-C ) :   1.1084 B( 34-C , 37-C ) :   1.0622 B( 34-C , 71-H ) :   0.8562
B( 35-C , 36-N ) :   3.1066 B( 37-C , 72-H ) :   0.9089 B( 37-C , 73-H ) :   0.8835
B( 38-C , 39-C ) :   1.4724 B( 38-C , 45-C ) :   0.1122 B( 38-C , 47-C ) :   1.1463
B( 39-C , 40-O ) :   1.1291 B( 39-C , 42-C ) :   1.1293 B( 40-O , 41-C ) :   0.9039
B( 41-C , 74-H ) :   0.9779 B( 41-C , 75-H ) :   0.9668 B( 41-C , 76-H ) :   0.9701
B( 42-C , 43-O ) :   1.1521 B( 42-C , 45-C ) :   1.4805 B( 43-O , 44-C ) :   0.9086
B( 44-C , 77-H ) :   0.9826 B( 44-C , 78-H ) :   0.9662 B( 44-C , 79-H ) :   0.9683
B( 45-C , 46-C ) :   1.1318 B( 45-C , 51-C ) :   1.0598 B( 46-C , 47-C ) :   1.1300
B( 46-C , 50-N ) :   1.5677 B( 47-C , 48-N ) :   1.6198 B( 48-N , 49-O ) :   1.0618
B( 48-N , 50-N ) :   0.1772 B( 49-O , 50-N ) :   1.0556 B( 51-C , 52-S ) :   1.1394
B( 51-C , 53-C ) :   0.1065 B( 51-C , 55-C ) :   1.5660 B( 52-S , 53-C ) :   1.1179
B( 53-C , 54-C ) :   1.5599 B( 53-C , 62-C ) :   1.0613 B( 54-C , 55-C ) :   1.2798
B( 54-C , 61-C ) :   1.0359 B( 55-C , 56-C ) :   1.0745 B( 56-C , 57-C ) :   1.0980
B( 56-C , 80-H ) :   0.8898 B( 56-C , 81-H ) :   0.8990 B( 57-C , 58-S ) :   0.8262
B( 57-C , 82-H ) :   0.9272 B( 57-C , 83-H ) :   0.9258 B( 58-S , 59-O ) :   1.7039
B( 58-S , 60-O ) :   1.7193 B( 58-S , 61-C ) :   0.8402 B( 61-C , 84-H ) :   0.9020
B( 61-C , 85-H ) :   0.9022 B( 62-C , 63-C ) :   1.9507 B( 62-C , 86-H ) :   0.9486
B( 63-C , 87-H ) :   0.9617 B( 63-C , 88-H ) :   0.9491

-----------------------------------------------------------------------------
         ABSORPTION SPECTRUM VIA TRANSITION ELECTRIC DIPOLE MOMENTS
-----------------------------------------------------------------------------
State   Energy  Wavelength   fosc         T2         TX        TY        TZ
        (cm-1)    (nm)                  (au**2)     (au)      (au)      (au)
-----------------------------------------------------------------------------
   0   14635.5    683.3   0.203079238   4.56809   0.23384  -2.10104   0.31470
   1   18259.6    547.7   1.062629280  19.15873   0.33848  -4.32032   0.61560
   2   23122.3    432.5   0.255455415   3.63713  -0.67803   1.35152  -1.16224
   3   24721.9    404.5   0.072167757   0.96103   0.42704  -0.66950   0.57483
   4   26562.6    376.5   0.015221013   0.18865  -0.02752  -0.41716  -0.11774
   5   28273.7    353.7   0.043904036   0.51121   0.39196  -0.08308   0.59218
   6   29624.7    337.6   0.001835076   0.02039  -0.00967   0.12037  -0.07622
   7   29928.0    334.1   0.018843659   0.20728   0.25170   0.15497   0.34628
   8   30533.4    327.5   0.012609296   0.13595  -0.27356  -0.17479  -0.17483
   9   31281.7    319.7   0.292324895   3.07646   0.83504   0.99606   1.17772
  10   31514.9    317.3   0.031247271   0.32642  -0.52227   0.23145   0.00870
  11   31937.7    313.1   0.287063639   2.95904  -1.02635   0.24089  -1.35927
  12   33130.6    301.8   0.069243234   0.68806  -0.32174  -0.66307  -0.38063
  13   33935.8    294.7   0.958550351   9.29893  -0.04267  -3.04837  -0.06755
  14   34393.7    290.8   0.182663746   1.74843  -0.75954   0.81299  -0.71454
  15   34642.8    288.7   0.104905155   0.99692  -0.44135   0.59325  -0.67096
  16   35097.2    284.9   0.018520922   0.17373  -0.01065   0.35212  -0.22276
  17   35879.4    278.7   0.046809256   0.42950   0.31771  -0.46737   0.33186
  18   36561.1    273.5   0.090385279   0.81387  -0.48925   0.45927  -0.60297
  19   36841.3    271.4   0.015262387   0.13638  -0.31130   0.08374   0.18019
  20   37234.3    268.6   0.019017294   0.16814   0.09357   0.19168   0.35021
  21   37379.0    267.5   0.022979168   0.20239   0.08187  -0.27117  -0.34950
  22   37544.6    266.3   0.043753574   0.38366  -0.09247  -0.24634  -0.56073
  23   38216.1    261.7   0.083714820   0.72116  -0.22432  -0.38280  -0.72409
  24   38558.1    259.3   0.285418490   2.43693   0.85489  -1.12157   0.66945
  25   39505.1    253.1   0.013789258   0.11491   0.17034  -0.25737   0.14020
  26   39888.9    250.7   0.000778129   0.00642  -0.03319   0.01989  -0.07018
  27   40012.2    249.9   0.001440532   0.01185   0.02566  -0.01605   0.10458
  28   40228.7    248.6   0.010024536   0.08204   0.04782  -0.25799   0.11485

FINAL SINGLE POINT ENERGY     -4945.560965412005

DIPOLE MOMENT
-------------
                                X             Y             Z
Electronic contribution:      0.51948     -76.55515      -0.38571
Nuclear contribution   :     -0.76461      75.48502       3.66919
                        -----------------------------------------
Total Dipole Moment    :     -0.24514      -1.07013       3.28349
                        -----------------------------------------
Magnitude (a.u.)       :      3.46216
Magnitude (Debye)      :      8.80011

Rotational constants in cm-1:     0.002436     0.000343     0.000319
Rotational constants in MHz :    73.040249    10.282554     9.557563

                             ****ORCA TERMINATED NORMALLY****
TOTAL RUN TIME: 0 days 0 hours 8 minutes 9 seconds 255 msec
