                         Program Version 4.2.0 -  RELEASE  -
|  1> # ORCA input file
|  2> # SCF done       -199.896158238385          0.000339452951
|  3> ! CAM-B3LYP def2-SVP def2/J RIJCOSX Grid4 TightSCF
|  4> %maxcore 5000
|  5> %tddft
|  6>     Mode sTDDFT
|  7>     Ethresh 5.0
|  8>     maxcore 5000
|  9> end
| 10>
| 11> %pal
| 12>   nprocs 6
| 13>   end
| 14> * xyz 0 1
| 15>    C       -3.96390         3.10667         2.17443
| 16>    C       -3.12888         2.14998         1.65373
| 17>    C       -2.07745         1.54122         2.36998
| 18>    N       -1.20701         1.00732         2.89515
| 19>    C       -3.17815         1.63781         0.34079
| 20>    N       -3.14221         1.16770        -0.70674
| 21>    C       -3.88656         3.64014         3.53112
| 22>    C       -4.87952         4.63765         3.68651
| 23>    C       -5.06014         5.32777         4.86028
| 24>    C       -4.22250         5.01686         5.93652
| 25>    C       -3.23460         4.01705         5.77331
| 26>    C       -3.05031         3.32122         4.58499
| 27>    S       -2.31230         3.78604         7.22795
| 28>    C       -3.25369         5.01888         8.02440
| 29>    C       -4.20933         5.57636         7.24361
| 30>   Br       -2.88682         5.45164         9.81217
| 31>    C       -5.63911         4.77396         2.42701
| 32>    O       -6.55266         5.54726         2.22276
| 33>    C       -5.05547         3.77780         1.49828
| 34>    C       -5.51105         3.52678         0.23012
| 35>    C       -6.58650         4.19168        -0.38713
| 36>    C       -7.01827         3.85345        -1.63648
| 37>    C       -8.10233         4.47554        -2.28409
| 38>    O       -8.78224         5.50001        -1.70830
| 39>    C       -9.77737         5.88124        -2.54422
| 40>    C       -9.74267         5.08595        -3.69039
| 41>    C       -8.67147         4.18946        -3.52970
| 42>    O       -8.26231         3.23899        -4.38460
| 43>    O      -10.54154         5.11011        -4.78753
| 44>    C      -10.64479         6.94387        -2.19469
| 45>    C      -10.50910         7.67561        -1.05625
| 46>    C      -11.36260         8.74449        -0.70672
| 47>    C      -11.17072         9.51962         0.39318
| 48>    C      -11.99033        10.60823         0.76019
| 49>    S      -13.44513        11.05552        -0.09243
| 50>    C      -13.75286        12.41886         0.95843
| 51>    C      -12.75577        12.50019         1.92037
| 52>    C      -11.78611        11.48840         1.81193
| 53>    S      -10.49486        11.48256         2.98044
| 54>    C      -11.05651        12.90693         3.88526
| 55>    O      -10.49296        13.34110         4.83753
| 56>    S      -12.54801        13.63402         3.22629
| 57>    C      -14.89150        13.22322         0.73378
| 58>    C      -15.17693        14.37847         1.38692
| 59>    C      -16.32886        15.15984         1.15210
| 60>    S      -17.63215        14.68592         0.09843
| 61>    C      -18.53754        16.14936         0.41157
| 62>    C      -17.83112        16.95761         1.29267
| 63>    C      -16.61026        16.39914         1.70782
| 64>    S      -15.63875        17.31723         2.82265
| 65>    C      -16.75628        18.69741         2.94438
| 66>    O      -16.54926        19.64959         3.62415
| 67>    S      -18.22739        18.51837         1.94690
| 68>    C      -19.77646        16.33924        -0.23479
| 69>    C      -20.58237        17.42676        -0.09188
| 70>    C      -21.83893        17.60666        -0.71277
| 71>    C      -22.40686        17.01008        -1.80229
| 72>    C      -21.91201        16.19052        -2.88551
| 73>    C      -20.64890        16.19748        -3.42263
| 74>    C      -20.26707        15.43615        -4.54573
| 75>    N      -19.89526        14.82346        -5.44259
| 76>    C      -19.59711        17.01160        -2.96079
| 77>    N      -18.70943        17.66038        -2.63062
| 78>    C      -23.06527        15.52491        -3.48854
| 79>    C      -24.24980        16.09407        -2.95820
| 80>    C      -23.88778        17.10717        -1.94897
| 81>    O      -24.62752        17.83667        -1.33044
| 82>    C      -25.50332        15.69722        -3.35537
| 83>    C      -25.59248        14.67988        -4.31138
| 84>    C      -24.40400        14.10632        -4.82344
| 85>    C      -23.13555        14.51546        -4.42920
| 86>    S      -24.74552        12.85542        -5.97945
| 87>    C      -26.45629        13.11848        -5.76580
| 88>    C      -26.75827        14.09201        -4.87432
| 89>   Br      -27.67984        12.08021        -6.73606
| 90>    H       -5.82561         6.08297         4.94653
| 91>    H       -2.28409         2.56784         4.51349
| 92>    H       -4.87839         6.34973         7.57409
| 93>    H       -5.02828         2.75186        -0.35123
| 94>    H       -7.08719         4.98161         0.15188
| 95>    H       -6.53875         3.06067        -2.19411
| 96>    H       -8.83107         3.25706        -5.16617
| 97>    H      -11.20602         5.80177        -4.69997
| 98>    H      -11.44247         7.17264        -2.88961
| 99>    H       -9.69588         7.43721        -0.38551
|100>    H      -12.20009         8.96234        -1.35855
|101>    H      -10.32823         9.32948         1.04554
|102>    H      -15.56881        12.87788        -0.03674
|103>    H      -14.49701        14.77224         2.12997
|104>    H      -20.09841        15.51258        -0.85421
|105>    H      -20.29094        18.19809         0.60726
|106>    H      -22.50987        18.29588        -0.20641
|107>    H      -26.38749        16.15521        -2.94083
|108>    H      -22.25947        14.04405        -4.84279
|109>    H      -27.76103        14.38427        -4.62144
|110> *
|111>
|112>                          ****END OF INPUT****

CARTESIAN COORDINATES (ANGSTROEM)
---------------------------------
  C     -3.963900    3.106670    2.174430
  C     -3.128880    2.149980    1.653730
  C     -2.077450    1.541220    2.369980
  N     -1.207010    1.007320    2.895150
  C     -3.178150    1.637810    0.340790
  N     -3.142210    1.167700   -0.706740
  C     -3.886560    3.640140    3.531120
  C     -4.879520    4.637650    3.686510
  C     -5.060140    5.327770    4.860280
  C     -4.222500    5.016860    5.936520
  C     -3.234600    4.017050    5.773310
  C     -3.050310    3.321220    4.584990
  S     -2.312300    3.786040    7.227950
  C     -3.253690    5.018880    8.024400
  C     -4.209330    5.576360    7.243610
  Br    -2.886820    5.451640    9.812170
  C     -5.639110    4.773960    2.427010
  O     -6.552660    5.547260    2.222760
  C     -5.055470    3.777800    1.498280
  C     -5.511050    3.526780    0.230120
  C     -6.586500    4.191680   -0.387130
  C     -7.018270    3.853450   -1.636480
  C     -8.102330    4.475540   -2.284090
  O     -8.782240    5.500010   -1.708300
  C     -9.777370    5.881240   -2.544220
  C     -9.742670    5.085950   -3.690390
  C     -8.671470    4.189460   -3.529700
  O     -8.262310    3.238990   -4.384600
  O    -10.541540    5.110110   -4.787530
  C    -10.644790    6.943870   -2.194690
  C    -10.509100    7.675610   -1.056250
  C    -11.362600    8.744490   -0.706720
  C    -11.170720    9.519620    0.393180
  C    -11.990330   10.608230    0.760190
  S    -13.445130   11.055520   -0.092430
  C    -13.752860   12.418860    0.958430
  C    -12.755770   12.500190    1.920370
  C    -11.786110   11.488400    1.811930
  S    -10.494860   11.482560    2.980440
  C    -11.056510   12.906930    3.885260
  O    -10.492960   13.341100    4.837530
  S    -12.548010   13.634020    3.226290
  C    -14.891500   13.223220    0.733780
  C    -15.176930   14.378470    1.386920
  C    -16.328860   15.159840    1.152100
  S    -17.632150   14.685920    0.098430
  C    -18.537540   16.149360    0.411570
  C    -17.831120   16.957610    1.292670
  C    -16.610260   16.399140    1.707820
  S    -15.638750   17.317230    2.822650
  C    -16.756280   18.697410    2.944380
  O    -16.549260   19.649590    3.624150
  S    -18.227390   18.518370    1.946900
  C    -19.776460   16.339240   -0.234790
  C    -20.582370   17.426760   -0.091880
  C    -21.838930   17.606660   -0.712770
  C    -22.406860   17.010080   -1.802290
  C    -21.912010   16.190520   -2.885510
  C    -20.648900   16.197480   -3.422630
  C    -20.267070   15.436150   -4.545730
  N    -19.895260   14.823460   -5.442590
  C    -19.597110   17.011600   -2.960790
  N    -18.709430   17.660380   -2.630620
  C    -23.065270   15.524910   -3.488540
  C    -24.249800   16.094070   -2.958200
  C    -23.887780   17.107170   -1.948970
  O    -24.627520   17.836670   -1.330440
  C    -25.503320   15.697220   -3.355370
  C    -25.592480   14.679880   -4.311380
  C    -24.404000   14.106320   -4.823440
  C    -23.135550   14.515460   -4.429200
  S    -24.745520   12.855420   -5.979450
  C    -26.456290   13.118480   -5.765800
  C    -26.758270   14.092010   -4.874320
  Br   -27.679840   12.080210   -6.736060
  H     -5.825610    6.082970    4.946530
  H     -2.284090    2.567840    4.513490
  H     -4.878390    6.349730    7.574090
  H     -5.028280    2.751860   -0.351230
  H     -7.087190    4.981610    0.151880
  H     -6.538750    3.060670   -2.194110
  H     -8.831070    3.257060   -5.166170
  H    -11.206020    5.801770   -4.699970
  H    -11.442470    7.172640   -2.889610
  H     -9.695880    7.437210   -0.385510
  H    -12.200090    8.962340   -1.358550
  H    -10.328230    9.329480    1.045540
  H    -15.568810   12.877880   -0.036740
  H    -14.497010   14.772240    2.129970
  H    -20.098410   15.512580   -0.854210
  H    -20.290940   18.198090    0.607260
  H    -22.509870   18.295880   -0.206410
  H    -26.387490   16.155210   -2.940830
  H    -22.259470   14.044050   -4.842790
  H    -27.761030   14.384270   -4.621440

 Total Charge           Charge          ....    0
 Multiplicity           Mult            ....    1
 Number of Electrons    NEL             ....  626
 Basis Dimension        Dim             .... 1218

ORBITAL ENERGIES
----------------

  NO   OCC          E(Eh)            E(eV)
   0   2.0000    -482.889664    -13140.0958
   1   2.0000    -482.881586    -13139.8760
   2   2.0000     -88.983744     -2421.3708
   3   2.0000     -88.981590     -2421.3122
   4   2.0000     -88.979996     -2421.2688
   5   2.0000     -88.978740     -2421.2346
   6   2.0000     -88.978190     -2421.2197
   7   2.0000     -88.976270     -2421.1674
   8   2.0000     -88.975684     -2421.1514
   9   2.0000     -88.970134     -2421.0004
  10   2.0000     -62.567330     -1702.5436
  11   2.0000     -62.559276     -1702.3244
  12   2.0000     -56.401286     -1534.7570
  13   2.0000     -56.398565     -1534.6830
  14   2.0000     -56.398533     -1534.6821
  15   2.0000     -56.393222     -1534.5376
  16   2.0000     -56.390516     -1534.4640
  17   2.0000     -56.390480     -1534.4630
  18   2.0000     -19.303275      -525.2688
  19   2.0000     -19.284947      -524.7701
  20   2.0000     -19.277780      -524.5751
  21   2.0000     -19.241573      -523.5898
  22   2.0000     -19.241352      -523.5838
  23   2.0000     -19.217984      -522.9479
  24   2.0000     -19.208399      -522.6871
  25   2.0000     -14.421231      -392.4216
  26   2.0000     -14.421142      -392.4192
  27   2.0000     -14.408237      -392.0681
  28   2.0000     -14.406394      -392.0179
  29   2.0000     -10.420556      -283.5577
  30   2.0000     -10.420553      -283.5577
  31   2.0000     -10.368572      -282.1432
  32   2.0000     -10.363107      -281.9945
  33   2.0000     -10.360214      -281.9157
  34   2.0000     -10.359012      -281.8831
  35   2.0000     -10.357330      -281.8373
  36   2.0000     -10.355090      -281.7763
  37   2.0000     -10.354046      -281.7479
  38   2.0000     -10.348430      -281.5951
  39   2.0000     -10.347697      -281.5751
  40   2.0000     -10.343905      -281.4720
  41   2.0000     -10.339223      -281.3446
  42   2.0000     -10.338077      -281.3134
  43   2.0000     -10.335455      -281.2420
  44   2.0000     -10.334927      -281.2276
  45   2.0000     -10.334574      -281.2181
  46   2.0000     -10.334100      -281.2052
  47   2.0000     -10.333583      -281.1911
  48   2.0000     -10.332699      -281.1670
  49   2.0000     -10.332580      -281.1638
  50   2.0000     -10.331842      -281.1437
  51   2.0000     -10.330338      -281.1028
  52   2.0000     -10.324250      -280.9371
  53   2.0000     -10.322005      -280.8760
  54   2.0000     -10.321648      -280.8663
  55   2.0000     -10.319499      -280.8079
  56   2.0000     -10.318784      -280.7884
  57   2.0000     -10.314792      -280.6798
  58   2.0000     -10.313489      -280.6443
  59   2.0000     -10.311730      -280.5964
  60   2.0000     -10.311713      -280.5960
  61   2.0000     -10.311093      -280.5791
  62   2.0000     -10.310591      -280.5655
  63   2.0000     -10.310072      -280.5513
  64   2.0000     -10.307567      -280.4832
  65   2.0000     -10.305774      -280.4344
  66   2.0000     -10.305560      -280.4285
  67   2.0000     -10.305173      -280.4180
  68   2.0000     -10.305124      -280.4167
  69   2.0000     -10.301760      -280.3251
  70   2.0000     -10.300997      -280.3044
  71   2.0000     -10.300732      -280.2972
  72   2.0000     -10.300724      -280.2969
  73   2.0000     -10.299871      -280.2737
  74   2.0000     -10.298947      -280.2486
  75   2.0000     -10.298814      -280.2450
  76   2.0000     -10.297952      -280.2215
  77   2.0000     -10.296763      -280.1892
  78   2.0000     -10.294796      -280.1356
  79   2.0000     -10.291951      -280.0582
  80   2.0000     -10.285660      -279.8870
  81   2.0000     -10.285042      -279.8702
  82   2.0000     -10.276370      -279.6343
  83   2.0000      -8.796732      -239.3713
  84   2.0000      -8.788690      -239.1524
  85   2.0000      -8.079072      -219.8427
  86   2.0000      -8.076883      -219.7832
  87   2.0000      -8.076019      -219.7596
  88   2.0000      -8.075172      -219.7366
  89   2.0000      -8.074566      -219.7201
  90   2.0000      -8.073070      -219.6794
  91   2.0000      -8.072629      -219.6674
  92   2.0000      -8.066205      -219.4926
  93   2.0000      -6.633024      -180.4938
  94   2.0000      -6.624954      -180.2742
  95   2.0000      -6.618470      -180.0977
  96   2.0000      -6.618266      -180.0922
  97   2.0000      -6.610430      -179.8789
  98   2.0000      -6.610256      -179.8742
  99   2.0000      -6.048379      -164.5848
 100   2.0000      -6.046212      -164.5258
 101   2.0000      -6.045682      -164.5114
 102   2.0000      -6.044873      -164.4894
 103   2.0000      -6.044532      -164.4801
 104   2.0000      -6.044265      -164.4728
 105   2.0000      -6.042687      -164.4299
 106   2.0000      -6.042349      -164.4207
 107   2.0000      -6.042238      -164.4177
 108   2.0000      -6.041439      -164.3959
 109   2.0000      -6.040869      -164.3804
 110   2.0000      -6.040829      -164.3793
 111   2.0000      -6.040323      -164.3655
 112   2.0000      -6.038862      -164.3258
 113   2.0000      -6.038632      -164.3195
 114   2.0000      -6.038406      -164.3134
 115   2.0000      -6.037253      -164.2820
 116   2.0000      -6.035905      -164.2453
 117   2.0000      -6.035831      -164.2433
 118   2.0000      -6.035212      -164.2265
 119   2.0000      -6.033683      -164.1849
 120   2.0000      -6.033231      -164.1726
 121   2.0000      -6.031621      -164.1288
 122   2.0000      -6.027394      -164.0137
 123   2.0000      -2.748928       -74.8021
 124   2.0000      -2.744773       -74.6891
 125   2.0000      -2.744674       -74.6864
 126   2.0000      -2.740869       -74.5828
 127   2.0000      -2.736756       -74.4709
 128   2.0000      -2.736587       -74.4663
 129   2.0000      -2.733079       -74.3709
 130   2.0000      -2.733064       -74.3704
 131   2.0000      -2.725065       -74.1528
 132   2.0000      -2.725061       -74.1527
 133   2.0000      -1.225998       -33.3611
 134   2.0000      -1.180408       -32.1205
 135   2.0000      -1.171463       -31.8771
 136   2.0000      -1.171158       -31.8688
 137   2.0000      -1.164303       -31.6823
 138   2.0000      -1.133575       -30.8461
 139   2.0000      -1.122526       -30.5455
 140   2.0000      -1.033723       -28.1290
 141   2.0000      -1.030225       -28.0338
 142   2.0000      -1.027702       -27.9652
 143   2.0000      -1.018370       -27.7113
 144   2.0000      -1.016076       -27.6488
 145   2.0000      -1.006360       -27.3845
 146   2.0000      -0.999928       -27.2094
 147   2.0000      -0.994131       -27.0517
 148   2.0000      -0.986382       -26.8408
 149   2.0000      -0.981758       -26.7150
 150   2.0000      -0.960596       -26.1392
 151   2.0000      -0.957367       -26.0513
 152   2.0000      -0.951807       -25.9000
 153   2.0000      -0.946003       -25.7421
 154   2.0000      -0.940728       -25.5985
 155   2.0000      -0.936739       -25.4900
 156   2.0000      -0.928653       -25.2699
 157   2.0000      -0.917971       -24.9793
 158   2.0000      -0.913200       -24.8494
 159   2.0000      -0.909491       -24.7485
 160   2.0000      -0.907012       -24.6810
 161   2.0000      -0.901806       -24.5394
 162   2.0000      -0.892416       -24.2839
 163   2.0000      -0.890553       -24.2332
 164   2.0000      -0.885342       -24.0914
 165   2.0000      -0.882968       -24.0268
 166   2.0000      -0.879702       -23.9379
 167   2.0000      -0.874868       -23.8064
 168   2.0000      -0.856070       -23.2949
 169   2.0000      -0.851766       -23.1777
 170   2.0000      -0.835122       -22.7248
 171   2.0000      -0.833026       -22.6678
 172   2.0000      -0.828648       -22.5487
 173   2.0000      -0.825875       -22.4732
 174   2.0000      -0.823012       -22.3953
 175   2.0000      -0.813525       -22.1372
 176   2.0000      -0.796401       -21.6712
 177   2.0000      -0.783775       -21.3276
 178   2.0000      -0.768562       -20.9136
 179   2.0000      -0.762276       -20.7426
 180   2.0000      -0.753134       -20.4938
 181   2.0000      -0.748339       -20.3633
 182   2.0000      -0.739151       -20.1133
 183   2.0000      -0.726432       -19.7672
 184   2.0000      -0.722808       -19.6686
 185   2.0000      -0.710394       -19.3308
 186   2.0000      -0.706518       -19.2253
 187   2.0000      -0.701512       -19.0891
 188   2.0000      -0.692823       -18.8527
 189   2.0000      -0.685806       -18.6617
 190   2.0000      -0.683817       -18.6076
 191   2.0000      -0.677782       -18.4434
 192   2.0000      -0.672511       -18.3000
 193   2.0000      -0.669904       -18.2290
 194   2.0000      -0.661101       -17.9895
 195   2.0000      -0.659403       -17.9433
 196   2.0000      -0.658048       -17.9064
 197   2.0000      -0.657608       -17.8944
 198   2.0000      -0.652057       -17.7434
 199   2.0000      -0.650279       -17.6950
 200   2.0000      -0.645871       -17.5750
 201   2.0000      -0.635761       -17.2999
 202   2.0000      -0.628026       -17.0895
 203   2.0000      -0.626896       -17.0587
 204   2.0000      -0.618546       -16.8315
 205   2.0000      -0.612664       -16.6714
 206   2.0000      -0.606720       -16.5097
 207   2.0000      -0.603072       -16.4104
 208   2.0000      -0.600607       -16.3434
 209   2.0000      -0.592988       -16.1360
 210   2.0000      -0.590998       -16.0819
 211   2.0000      -0.587122       -15.9764
 212   2.0000      -0.585794       -15.9403
 213   2.0000      -0.585363       -15.9285
 214   2.0000      -0.578087       -15.7306
 215   2.0000      -0.571297       -15.5458
 216   2.0000      -0.567003       -15.4289
 217   2.0000      -0.563097       -15.3227
 218   2.0000      -0.553474       -15.0608
 219   2.0000      -0.552848       -15.0438
 220   2.0000      -0.548934       -14.9372
 221   2.0000      -0.547016       -14.8851
 222   2.0000      -0.544837       -14.8258
 223   2.0000      -0.544095       -14.8056
 224   2.0000      -0.543921       -14.8009
 225   2.0000      -0.542846       -14.7716
 226   2.0000      -0.542436       -14.7604
 227   2.0000      -0.536982       -14.6120
 228   2.0000      -0.533078       -14.5058
 229   2.0000      -0.532263       -14.4836
 230   2.0000      -0.530610       -14.4386
 231   2.0000      -0.524697       -14.2777
 232   2.0000      -0.522681       -14.2229
 233   2.0000      -0.520414       -14.1612
 234   2.0000      -0.517325       -14.0771
 235   2.0000      -0.516466       -14.0538
 236   2.0000      -0.516019       -14.0416
 237   2.0000      -0.512643       -13.9497
 238   2.0000      -0.510654       -13.8956
 239   2.0000      -0.507480       -13.8092
 240   2.0000      -0.505489       -13.7550
 241   2.0000      -0.503122       -13.6906
 242   2.0000      -0.502679       -13.6786
 243   2.0000      -0.501788       -13.6543
 244   2.0000      -0.501100       -13.6356
 245   2.0000      -0.497392       -13.5347
 246   2.0000      -0.494810       -13.4645
 247   2.0000      -0.493605       -13.4317
 248   2.0000      -0.487739       -13.2721
 249   2.0000      -0.486882       -13.2487
 250   2.0000      -0.486018       -13.2252
 251   2.0000      -0.485388       -13.2081
 252   2.0000      -0.483880       -13.1670
 253   2.0000      -0.473038       -12.8720
 254   2.0000      -0.468668       -12.7531
 255   2.0000      -0.467309       -12.7161
 256   2.0000      -0.465846       -12.6763
 257   2.0000      -0.463239       -12.6054
 258   2.0000      -0.461618       -12.5613
 259   2.0000      -0.461382       -12.5548
 260   2.0000      -0.460208       -12.5229
 261   2.0000      -0.454994       -12.3810
 262   2.0000      -0.452017       -12.3000
 263   2.0000      -0.451499       -12.2859
 264   2.0000      -0.450867       -12.2687
 265   2.0000      -0.447941       -12.1891
 266   2.0000      -0.445393       -12.1198
 267   2.0000      -0.444349       -12.0914
 268   2.0000      -0.442851       -12.0506
 269   2.0000      -0.442189       -12.0326
 270   2.0000      -0.442114       -12.0305
 271   2.0000      -0.441645       -12.0178
 272   2.0000      -0.437005       -11.8915
 273   2.0000      -0.436188       -11.8693
 274   2.0000      -0.434835       -11.8324
 275   2.0000      -0.433399       -11.7934
 276   2.0000      -0.432819       -11.7776
 277   2.0000      -0.432150       -11.7594
 278   2.0000      -0.426975       -11.6186
 279   2.0000      -0.425592       -11.5809
 280   2.0000      -0.419216       -11.4074
 281   2.0000      -0.416041       -11.3211
 282   2.0000      -0.415356       -11.3024
 283   2.0000      -0.410280       -11.1643
 284   2.0000      -0.409384       -11.1399
 285   2.0000      -0.407411       -11.0862
 286   2.0000      -0.399912       -10.8822
 287   2.0000      -0.398695       -10.8491
 288   2.0000      -0.394294       -10.7293
 289   2.0000      -0.387564       -10.5462
 290   2.0000      -0.381771       -10.3885
 291   2.0000      -0.378951       -10.3118
 292   2.0000      -0.374002       -10.1771
 293   2.0000      -0.370930       -10.0935
 294   2.0000      -0.369468       -10.0537
 295   2.0000      -0.362925        -9.8757
 296   2.0000      -0.361129        -9.8268
 297   2.0000      -0.360992        -9.8231
 298   2.0000      -0.357152        -9.7186
 299   2.0000      -0.343424        -9.3450
 300   2.0000      -0.333824        -9.0838
 301   2.0000      -0.330314        -8.9883
 302   2.0000      -0.327896        -8.9225
 303   2.0000      -0.319763        -8.7012
 304   2.0000      -0.318148        -8.6572
 305   2.0000      -0.311700        -8.4818
 306   2.0000      -0.309659        -8.4263
 307   2.0000      -0.308097        -8.3837
 308   2.0000      -0.299079        -8.1384
 309   2.0000      -0.291659        -7.9364
 310   2.0000      -0.286711        -7.8018
 311   2.0000      -0.263574        -7.1722
 312   2.0000      -0.238060        -6.4779
 313   0.0000      -0.109958        -2.9921
 314   0.0000      -0.095157        -2.5894
 315   0.0000      -0.075673        -2.0592
 316   0.0000      -0.062855        -1.7104
 317   0.0000      -0.052603        -1.4314

MULLIKEN ATOMIC CHARGES
-----------------------
   0 C :    0.331736
   1 C :   -0.356994
   2 C :   -0.187900
   3 N :    0.143926
   4 C :   -0.192807
   5 N :    0.140714
   6 C :    0.013530
   7 C :   -0.011082
   8 C :   -0.078992
   9 C :    0.120000
  10 C :   -0.087669
  11 C :   -0.028023
  12 S :    0.183047
  13 C :   -0.122206
  14 C :    0.035487
  15 Br:    0.019915
  16 C :    0.142988
  17 O :   -0.160601
  18 C :   -0.067937
  19 C :   -0.037266
  20 C :   -0.005037
  21 C :    0.000834
  22 C :    0.080070
  23 O :   -0.214884
  24 C :    0.121384
  25 C :    0.074623
  26 C :    0.109015
  27 O :   -0.157964
  28 O :   -0.191715
  29 C :   -0.066264
  30 C :    0.027911
  31 C :    0.012048
  32 C :   -0.009789
  33 C :   -0.106276
  34 S :    0.139425
  35 C :   -0.144903
  36 C :   -0.001399
  37 C :   -0.015930
  38 S :    0.107534
  39 C :    0.081138
  40 O :   -0.144385
  41 S :    0.088149
  42 C :    0.042895
  43 C :   -0.024444
  44 C :   -0.100913
  45 S :    0.151519
  46 C :   -0.163937
  47 C :    0.021927
  48 C :   -0.030739
  49 S :    0.106292
  50 C :    0.083654
  51 O :   -0.141640
  52 S :    0.103096
  53 C :    0.084223
  54 C :   -0.002878
  55 C :    0.035101
  56 C :   -0.123817
  57 C :    0.270729
  58 C :   -0.341740
  59 C :   -0.177080
  60 N :    0.151574
  61 C :   -0.208090
  62 N :    0.175726
  63 C :   -0.002310
  64 C :    0.006422
  65 C :    0.129675
  66 O :   -0.142568
  67 C :   -0.067199
  68 C :    0.109967
  69 C :   -0.087611
  70 C :   -0.019863
  71 S :    0.183488
  72 C :   -0.126080
  73 C :    0.042745
  74 Br:    0.025444
  75 H :   -0.013742
  76 H :   -0.007207
  77 H :   -0.004577
  78 H :    0.007965
  79 H :    0.028838
  80 H :    0.025022
  81 H :    0.200173
  82 H :    0.194903
  83 H :   -0.025267
  84 H :    0.021340
  85 H :   -0.005898
  86 H :    0.005665
  87 H :   -0.005825
  88 H :    0.007507
  89 H :    0.003060
  90 H :    0.006521
  91 H :    0.031182
  92 H :   -0.008313
  93 H :   -0.005749
  94 H :   -0.002616
Sum of atomic charges:   -0.0000000

LOEWDIN ATOMIC CHARGES
----------------------
   0 C :    0.075865
   1 C :   -0.147850
   2 C :   -0.018423
   3 N :   -0.060785
   4 C :   -0.020392
   5 N :   -0.059373
   6 C :   -0.019893
   7 C :   -0.049714
   8 C :    0.018766
   9 C :   -0.033863
  10 C :   -0.144703
  11 C :   -0.011315
  12 S :    0.430193
  13 C :   -0.272817
  14 C :   -0.070895
  15 Br:    0.134066
  16 C :    0.083659
  17 O :   -0.153656
  18 C :   -0.105259
  19 C :    0.066296
  20 C :   -0.039059
  21 C :    0.021432
  22 C :   -0.005001
  23 O :    0.010758
  24 C :    0.006644
  25 C :   -0.021455
  26 C :    0.016269
  27 O :   -0.030292
  28 O :   -0.055911
  29 C :   -0.052205
  30 C :   -0.004142
  31 C :   -0.022005
  32 C :   -0.038482
  33 C :   -0.182437
  34 S :    0.445235
  35 C :   -0.185346
  36 C :   -0.207866
  37 C :   -0.211027
  38 S :    0.364411
  39 C :   -0.199099
  40 O :   -0.140183
  41 S :    0.366540
  42 C :   -0.034632
  43 C :   -0.049104
  44 C :   -0.172805
  45 S :    0.454066
  46 C :   -0.185540
  47 C :   -0.192067
  48 C :   -0.212431
  49 S :    0.364952
  50 C :   -0.197775
  51 O :   -0.137709
  52 S :    0.379958
  53 C :    0.016620
  54 C :   -0.049321
  55 C :    0.065607
  56 C :   -0.095083
  57 C :    0.065332
  58 C :   -0.146781
  59 C :   -0.021094
  60 N :   -0.055110
  61 C :   -0.019458
  62 N :   -0.040412
  63 C :   -0.019041
  64 C :   -0.052494
  65 C :    0.083152
  66 O :   -0.141295
  67 C :    0.023871
  68 C :   -0.033494
  69 C :   -0.143607
  70 C :   -0.013492
  71 S :    0.431345
  72 C :   -0.271587
  73 C :   -0.069403
  74 Br:    0.138011
  75 H :    0.039284
  76 H :    0.040657
  77 H :    0.038265
  78 H :    0.041007
  79 H :    0.033705
  80 H :    0.048553
  81 H :    0.109431
  82 H :    0.101499
  83 H :    0.026999
  84 H :    0.040367
  85 H :    0.022765
  86 H :    0.036433
  87 H :    0.028152
  88 H :    0.019753
  89 H :    0.034905
  90 H :    0.021777
  91 H :    0.049370
  92 H :    0.041914
  93 H :    0.040066
  94 H :    0.039238

  Mayer bond orders larger than 0.100000
B(  0-C ,  1-C ) :   1.6092 B(  0-C ,  6-C ) :   0.9962 B(  0-C , 18-C ) :   1.0855
B(  1-C ,  2-C ) :   1.1448 B(  1-C ,  4-C ) :   1.1486 B(  2-C ,  3-N ) :   2.9657
B(  4-C ,  5-N ) :   2.9606 B(  6-C ,  7-C ) :   1.2775 B(  6-C , 11-C ) :   1.4094
B(  7-C ,  8-C ) :   1.4232 B(  7-C , 16-C ) :   0.9399 B(  8-C ,  9-C ) :   1.2431
B(  8-C , 75-H ) :   1.0175 B(  9-C , 10-C ) :   1.3082 B(  9-C , 14-C ) :   1.1602
B( 10-C , 11-C ) :   1.3270 B( 10-C , 12-S ) :   1.0841 B( 11-C , 76-H ) :   0.9805
B( 12-S , 13-C ) :   1.0857 B( 13-C , 14-C ) :   1.6194 B( 13-C , 15-Br) :   1.0171
B( 14-C , 77-H ) :   1.0013 B( 16-C , 17-O ) :   2.1953 B( 16-C , 18-C ) :   0.9569
B( 18-C , 19-C ) :   1.4909 B( 19-C , 20-C ) :   1.1888 B( 19-C , 78-H ) :   0.9616
B( 20-C , 21-C ) :   1.4773 B( 20-C , 79-H ) :   0.9938 B( 21-C , 22-C ) :   1.1982
B( 21-C , 80-H ) :   0.9784 B( 22-C , 23-O ) :   1.1082 B( 22-C , 24-C ) :   0.1081
B( 22-C , 26-C ) :   1.3351 B( 23-O , 24-C ) :   1.1362 B( 24-C , 25-C ) :   1.2877
B( 24-C , 29-C ) :   1.1463 B( 25-C , 26-C ) :   1.2483 B( 25-C , 28-O ) :   1.2422
B( 26-C , 27-O ) :   1.2983 B( 27-O , 81-H ) :   0.9489 B( 28-O , 82-H ) :   0.9554
B( 29-C , 30-C ) :   1.6106 B( 29-C , 83-H ) :   0.9659 B( 30-C , 31-C ) :   1.1485
B( 30-C , 84-H ) :   0.9985 B( 31-C , 32-C ) :   1.6141 B( 31-C , 85-H ) :   0.9824
B( 32-C , 33-C ) :   1.1618 B( 32-C , 86-H ) :   0.9768 B( 33-C , 34-S ) :   1.1032
B( 33-C , 37-C ) :   1.5309 B( 34-S , 35-C ) :   1.1071 B( 35-C , 36-C ) :   1.5340
B( 35-C , 42-C ) :   1.1715 B( 36-C , 37-C ) :   1.2780 B( 36-C , 41-S ) :   1.0050
B( 37-C , 38-S ) :   0.9988 B( 38-S , 39-C ) :   0.9889 B( 38-S , 40-O ) :   0.1082
B( 39-C , 40-O ) :   2.1251 B( 39-C , 41-S ) :   0.9720 B( 40-O , 41-S ) :   0.1033
B( 42-C , 43-C ) :   1.6314 B( 42-C , 87-H ) :   0.9581 B( 43-C , 44-C ) :   1.1985
B( 43-C , 88-H ) :   0.9559 B( 44-C , 45-S ) :   1.1163 B( 44-C , 48-C ) :   1.5259
B( 45-S , 46-C ) :   1.1066 B( 46-C , 47-C ) :   1.5163 B( 46-C , 53-C ) :   1.2123
B( 47-C , 48-C ) :   1.2837 B( 47-C , 52-S ) :   1.0185 B( 48-C , 49-S ) :   1.0013
B( 49-S , 50-C ) :   0.9869 B( 49-S , 51-O ) :   0.1084 B( 50-C , 51-O ) :   2.1279
B( 50-C , 52-S ) :   0.9700 B( 51-O , 52-S ) :   0.1025 B( 53-C , 54-C ) :   1.5881
B( 53-C , 89-H ) :   0.9429 B( 54-C , 55-C ) :   1.2086 B( 54-C , 90-H ) :   0.9499
B( 55-C , 56-C ) :   1.6316 B( 55-C , 91-H ) :   0.9268 B( 56-C , 57-C ) :   1.0479
B( 56-C , 65-C ) :   0.9466 B( 57-C , 58-C ) :   1.6294 B( 57-C , 63-C ) :   1.0096
B( 58-C , 59-C ) :   1.1258 B( 58-C , 61-C ) :   1.1745 B( 59-C , 60-N ) :   2.9871
B( 61-C , 62-N ) :   2.9905 B( 63-C , 64-C ) :   1.2759 B( 63-C , 70-C ) :   1.4156
B( 64-C , 65-C ) :   0.9203 B( 64-C , 67-C ) :   1.4262 B( 65-C , 66-O ) :   2.2595
B( 67-C , 68-C ) :   1.2523 B( 67-C , 92-H ) :   1.0166 B( 68-C , 69-C ) :   1.3074
B( 68-C , 73-C ) :   1.1624 B( 69-C , 70-C ) :   1.3276 B( 69-C , 71-S ) :   1.0838
B( 70-C , 93-H ) :   0.9833 B( 71-S , 72-C ) :   1.0864 B( 72-C , 73-C ) :   1.6193
B( 72-C , 74-Br) :   1.0196 B( 73-C , 94-H ) :   1.0010

-----------------------------------------------------------------------------
         ABSORPTION SPECTRUM VIA TRANSITION ELECTRIC DIPOLE MOMENTS
-----------------------------------------------------------------------------
State   Energy  Wavelength   fosc         T2         TX        TY        TZ
        (cm-1)    (nm)                  (au**2)     (au)      (au)      (au)
-----------------------------------------------------------------------------
   0   14503.5    689.5   2.124999315  48.23502  -5.44392   4.06169  -1.44962
   1   17615.6    567.7   0.097568651   1.82343   0.36728  -1.27984  -0.22481
   2   21479.9    465.6   0.233703637   3.58186   0.77896   0.58926   1.62107
   3   22973.8    435.3   0.576687471   8.26388  -0.55547   1.87874   2.10373
   4   24814.6    403.0   0.070322180   0.93295  -0.15015  -0.43580  -0.84881
   5   25200.1    396.8   0.175298496   2.29008  -0.94742   0.02432  -1.17978
   6   26127.9    382.7   0.055076140   0.69396  -0.54751   0.03568   0.62683
   7   26804.9    373.1   0.188989212   2.32112   1.48522   0.00976   0.33933
   8   27173.6    368.0   0.083678768   1.01378   0.13950  -0.13394  -0.98812
   9   27535.1    363.2   0.560473363   6.70106  -0.91952  -1.60642  -1.80969
  10   28018.9    356.9   0.002503476   0.02941   0.02921   0.06789   0.15477
  11   28440.0    351.6   0.657498664   7.61099   1.21103   0.87467   2.31934
  12   28759.7    347.7   0.015950024   0.18258   0.33335  -0.13857   0.22860
  13   29329.2    341.0   0.009487740   0.10650   0.25202  -0.16588   0.12436
  14   29757.1    336.1   0.009507428   0.10518   0.28487   0.13018   0.08418
  15   29865.4    334.8   0.003565649   0.03930   0.05018   0.08804   0.17040
  16   30013.7    333.2   0.051446640   0.56430   0.54437  -0.50738   0.10261
  17   30592.7    326.9   0.096915634   1.04292  -0.41189  -0.15136  -0.92215
  18   31577.0    316.7   0.138584402   1.44484   0.05437  -0.52637  -1.07926
  19   32198.4    310.6   0.004896979   0.05007  -0.02240  -0.10521  -0.19621
  20   32677.3    306.0   0.449381307   4.52735   1.57778   1.00946   1.00943
  21   32743.7    305.4   0.332148591   3.33949  -0.63226  -0.91530  -1.44982
  22   32916.4    303.8   0.408049028   4.08108  -1.13668   0.44579   1.60945
  23   33140.3    301.7   0.153222131   1.52209   0.97006   0.63874   0.41604
  24   33429.6    299.1   0.098711347   0.97210   0.36676  -0.49581  -0.76926
  25   33835.8    295.5   0.076046156   0.73991  -0.24238   0.33447   0.75451
  26   34081.3    293.4   0.000653832   0.00632  -0.07285   0.03123   0.00576
  27   34623.9    288.8   0.011447697   0.10885   0.02521   0.30334   0.12727
  28   34798.7    287.4   0.021888868   0.20708   0.19051   0.24473   0.33300
  29   35067.9    285.2   0.017314033   0.16254  -0.16293  -0.36355   0.06185
  30   35339.3    283.0   0.039987474   0.37251   0.46822  -0.04514   0.38891
  31   35914.6    278.4   0.065758152   0.60277   0.08617  -0.40458  -0.65701
  32   36473.1    274.2   0.009304739   0.08399   0.16678  -0.09912  -0.21529
  33   36647.5    272.9   0.138758032   1.24649  -0.03355   0.76386   0.81356
  34   37295.2    268.1   0.083422182   0.73638  -0.51492   0.64587   0.23258
  35   37559.8    266.2   0.031935682   0.27992   0.37623   0.21110   0.30627
  36   37823.5    264.4   0.026449304   0.23021  -0.21371   0.13533   0.40771
  37   37878.9    264.0   0.005829857   0.05067  -0.05583   0.09241  -0.19751
  38   38278.7    261.2   0.132554290   1.14002   0.89007  -0.53383  -0.25062
  39   38537.8    259.5   0.045592614   0.38948  -0.55213   0.14011  -0.25495
  40   38771.1    257.9   0.019694333   0.16723   0.37900  -0.03970   0.14837
  41   38789.4    257.8   0.041123920   0.34903   0.39790   0.13934   0.41387
  42   39181.8    255.2   0.035215813   0.29589  -0.01547  -0.19913  -0.50596
  43   39391.8    253.9   0.155882000   1.30276   0.81306  -0.07771   0.79728
  44   39519.2    253.0   0.005942572   0.04950   0.11876  -0.18615  -0.02734
  45   39587.6    252.6   0.121931602   1.01399   0.76234  -0.60722   0.25321
  46   39729.9    251.7   0.010819720   0.08965  -0.04245  -0.25445   0.15202
  47   40283.8    248.2   0.074644111   0.61001   0.15552  -0.53318  -0.54913

FINAL SINGLE POINT ENERGY    -11144.231738176233

DIPOLE MOMENT
-------------
                                X             Y             Z
Electronic contribution:    -42.51263     -15.10973      36.58102
Nuclear contribution   :     38.47264      14.65850     -37.99632
                        -----------------------------------------
Total Dipole Moment    :     -4.03999      -0.45124      -1.41530
                        -----------------------------------------
Magnitude (a.u.)       :      4.30444
Magnitude (Debye)      :     10.94101

Rotational constants in cm-1:     0.000757     0.000135     0.000119
Rotational constants in MHz :    22.707448     4.052959     3.561224

                             ****ORCA TERMINATED NORMALLY****
TOTAL RUN TIME: 0 days 0 hours 10 minutes 6 seconds 191 msec
