                         Program Version 4.2.0 -  RELEASE  -
|  1> # ORCA input file
|  2> # SCF done       -181.878793008659          0.001897830451
|  3> ! CAM-B3LYP def2-SVP def2/J RIJCOSX Grid4 TightSCF
|  4> %maxcore 5000
|  5> %tddft
|  6>     Mode sTDDFT
|  7>     Ethresh 5.0
|  8>     maxcore 5000
|  9> end
| 10>
| 11> %pal
| 12>   nprocs 6
| 13>   end
| 14> * xyz 0 1
| 15>    C       -2.03553         0.40714        -0.00724
| 16>    C       -1.60529        -0.40079         1.00691
| 17>    C       -0.33814        -1.02425         1.03546
| 18>    N        0.68332        -1.54124         1.10343
| 19>    C       -2.38625        -0.73535         2.13471
| 20>    N       -2.99516        -1.04200         3.05708
| 21>    C       -1.29473         0.74554        -1.21460
| 22>    C       -2.13366         1.47772        -2.09092
| 23>    C       -1.69817         1.97212        -3.29729
| 24>    C       -0.36002         1.75981        -3.64263
| 25>    C        0.46649         1.00903        -2.77035
| 26>    C        0.02159         0.49195        -1.56215
| 27>    S        2.08128         0.86077        -3.39505
| 28>    C        1.64583         1.83427        -4.77523
| 29>    C        0.34838         2.22545        -4.78381
| 30>   Br        2.95092         2.26097        -6.04620
| 31>    C       -3.45619         1.65992        -1.46527
| 32>    O       -4.46864         2.06892        -1.97534
| 33>    C       -3.30919         1.11595        -0.07488
| 34>    C       -4.21165         1.33666         0.90365
| 35>    C       -5.23016         2.35702         0.75724
| 36>    C       -6.58138         2.44867         1.04936
| 37>    C       -7.52919         1.44989         1.56828
| 38>    O       -8.64585         1.72952         1.90921
| 39>    O       -7.08329         0.18330         1.64524
| 40>    C       -6.90931         3.79913         0.67733
| 41>    N       -5.81483         4.40574         0.25361
| 42>    O       -4.80202         3.53969         0.29221
| 43>    C       -8.15932         4.47922         0.65217
| 44>    C       -8.23662         5.71013         0.06952
| 45>    C       -9.39679         6.50623        -0.17994
| 46>    C       -9.15837         7.61889        -0.91922
| 47>    C       -7.79090         7.77905        -1.27028
| 48>    S       -6.81742         6.48411        -0.59526
| 49>    C       -7.17472         8.69440        -2.09249
| 50>    C       -7.71810         9.68110        -2.95462
| 51>    C       -6.80358        10.23399        -3.79416
| 52>    C       -5.48413         9.71675        -3.63719
| 53>    S       -5.43689         8.59215        -2.29882
| 54>    C       -4.40897         9.90389        -4.46464
| 55>    C       -3.20098         9.20215        -4.25720
| 56>    C       -2.18605         8.80999        -5.13846
| 57>    C       -2.13274         9.16526        -6.56188
| 58>    O       -2.70823        10.11969        -7.01191
| 59>    O       -1.40873         8.35922        -7.36014
| 60>    C       -1.35319         7.98075        -4.32900
| 61>    N       -1.81941         7.93357        -3.09621
| 62>    O       -2.94222         8.66771        -3.04955
| 63>    C       -0.15525         7.26141        -4.67948
| 64>    C        0.35609         6.17947        -4.05670
| 65>    C       -0.09950         5.38371        -2.92161
| 66>    C       -1.39339         5.15806        -2.53973
| 67>    C       -1.74490         4.43849        -1.38315
| 68>    N       -2.04498         3.85499        -0.44040
| 69>    C       -2.50702         5.52177        -3.33123
| 70>    N       -3.41213         5.65639        -4.02441
| 71>    C        1.07134         4.70226        -2.38781
| 72>    C        2.16505         4.88491        -3.27490
| 73>    C        1.75049         5.75073        -4.39091
| 74>    O        2.38494         6.07777        -5.36392
| 75>    C        3.38991         4.29213        -3.07568
| 76>    C        3.54031         3.46392        -1.95937
| 77>    C        2.44444         3.28766        -1.07695
| 78>    C        1.21445         3.90092        -1.26808
| 79>    S        2.82972         2.18573         0.20947
| 80>    C        4.43382         1.97422        -0.44694
| 81>    C        4.67118         2.69885        -1.56726
| 82>   Br        5.63284         0.81588         0.40427
| 83>    H       -2.36557         2.52317        -3.94236
| 84>    H        0.69290        -0.06386        -0.92916
| 85>    H       -0.09198         2.82214        -5.56231
| 86>    H       -4.13420         0.85851         1.87214
| 87>    H       -6.18545         0.06270         1.31112
| 88>    H       -9.02600         3.97423         1.04681
| 89>    H      -10.36498         6.20137         0.17683
| 90>    H       -9.91433         8.32009        -1.22651
| 91>    H       -8.76792         9.91508        -2.95869
| 92>    H       -7.02523        10.96809        -4.54818
| 93>    H       -4.48410        10.50280        -5.35795
| 94>    H       -1.07008         7.57523        -6.90941
| 95>    H        0.44715         7.66639        -5.48746
| 96>    H        4.19886         4.44665        -3.77260
| 97>    H        0.41622         3.74696        -0.56197
| 98>    H        5.60356         2.68763        -2.10136
| 99> *
|100>
|101>                          ****END OF INPUT****

CARTESIAN COORDINATES (ANGSTROEM)
---------------------------------
  C     -2.035530    0.407140   -0.007240
  C     -1.605290   -0.400790    1.006910
  C     -0.338140   -1.024250    1.035460
  N      0.683320   -1.541240    1.103430
  C     -2.386250   -0.735350    2.134710
  N     -2.995160   -1.042000    3.057080
  C     -1.294730    0.745540   -1.214600
  C     -2.133660    1.477720   -2.090920
  C     -1.698170    1.972120   -3.297290
  C     -0.360020    1.759810   -3.642630
  C      0.466490    1.009030   -2.770350
  C      0.021590    0.491950   -1.562150
  S      2.081280    0.860770   -3.395050
  C      1.645830    1.834270   -4.775230
  C      0.348380    2.225450   -4.783810
  Br     2.950920    2.260970   -6.046200
  C     -3.456190    1.659920   -1.465270
  O     -4.468640    2.068920   -1.975340
  C     -3.309190    1.115950   -0.074880
  C     -4.211650    1.336660    0.903650
  C     -5.230160    2.357020    0.757240
  C     -6.581380    2.448670    1.049360
  C     -7.529190    1.449890    1.568280
  O     -8.645850    1.729520    1.909210
  O     -7.083290    0.183300    1.645240
  C     -6.909310    3.799130    0.677330
  N     -5.814830    4.405740    0.253610
  O     -4.802020    3.539690    0.292210
  C     -8.159320    4.479220    0.652170
  C     -8.236620    5.710130    0.069520
  C     -9.396790    6.506230   -0.179940
  C     -9.158370    7.618890   -0.919220
  C     -7.790900    7.779050   -1.270280
  S     -6.817420    6.484110   -0.595260
  C     -7.174720    8.694400   -2.092490
  C     -7.718100    9.681100   -2.954620
  C     -6.803580   10.233990   -3.794160
  C     -5.484130    9.716750   -3.637190
  S     -5.436890    8.592150   -2.298820
  C     -4.408970    9.903890   -4.464640
  C     -3.200980    9.202150   -4.257200
  C     -2.186050    8.809990   -5.138460
  C     -2.132740    9.165260   -6.561880
  O     -2.708230   10.119690   -7.011910
  O     -1.408730    8.359220   -7.360140
  C     -1.353190    7.980750   -4.329000
  N     -1.819410    7.933570   -3.096210
  O     -2.942220    8.667710   -3.049550
  C     -0.155250    7.261410   -4.679480
  C      0.356090    6.179470   -4.056700
  C     -0.099500    5.383710   -2.921610
  C     -1.393390    5.158060   -2.539730
  C     -1.744900    4.438490   -1.383150
  N     -2.044980    3.854990   -0.440400
  C     -2.507020    5.521770   -3.331230
  N     -3.412130    5.656390   -4.024410
  C      1.071340    4.702260   -2.387810
  C      2.165050    4.884910   -3.274900
  C      1.750490    5.750730   -4.390910
  O      2.384940    6.077770   -5.363920
  C      3.389910    4.292130   -3.075680
  C      3.540310    3.463920   -1.959370
  C      2.444440    3.287660   -1.076950
  C      1.214450    3.900920   -1.268080
  S      2.829720    2.185730    0.209470
  C      4.433820    1.974220   -0.446940
  C      4.671180    2.698850   -1.567260
  Br     5.632840    0.815880    0.404270
  H     -2.365570    2.523170   -3.942360
  H      0.692900   -0.063860   -0.929160
  H     -0.091980    2.822140   -5.562310
  H     -4.134200    0.858510    1.872140
  H     -6.185450    0.062700    1.311120
  H     -9.026000    3.974230    1.046810
  H    -10.364980    6.201370    0.176830
  H     -9.914330    8.320090   -1.226510
  H     -8.767920    9.915080   -2.958690
  H     -7.025230   10.968090   -4.548180
  H     -4.484100   10.502800   -5.357950
  H     -1.070080    7.575230   -6.909410
  H      0.447150    7.666390   -5.487460
  H      4.198860    4.446650   -3.772600
  H      0.416220    3.746960   -0.561970
  H      5.603560    2.687630   -2.101360

 Total Charge           Charge          ....    0
 Multiplicity           Mult            ....    1
 Number of Electrons    NEL             ....  544
 Basis Dimension        Dim             .... 1084

ORBITAL ENERGIES
----------------

  NO   OCC          E(Eh)            E(eV)
   0   2.0000    -482.901353    -13140.4139
   1   2.0000    -482.895744    -13140.2612
   2   2.0000     -88.991476     -2421.5812
   3   2.0000     -88.991285     -2421.5760
   4   2.0000     -88.946069     -2420.3456
   5   2.0000     -88.941164     -2420.2121
   6   2.0000     -62.578806     -1702.8559
   7   2.0000     -62.573426     -1702.7095
   8   2.0000     -56.412776     -1535.0697
   9   2.0000     -56.410050     -1534.9955
  10   2.0000     -56.410008     -1534.9944
  11   2.0000     -56.407389     -1534.9231
  12   2.0000     -56.404640     -1534.8483
  13   2.0000     -56.404627     -1534.8479
  14   2.0000     -19.331325      -526.0321
  15   2.0000     -19.326725      -525.9069
  16   2.0000     -19.265414      -524.2386
  17   2.0000     -19.264193      -524.2053
  18   2.0000     -19.236670      -523.4564
  19   2.0000     -19.233311      -523.3650
  20   2.0000     -19.204104      -522.5702
  21   2.0000     -19.200484      -522.4717
  22   2.0000     -14.473126      -393.8338
  23   2.0000     -14.463332      -393.5673
  24   2.0000     -14.436794      -392.8451
  25   2.0000     -14.436303      -392.8318
  26   2.0000     -14.435593      -392.8125
  27   2.0000     -14.424133      -392.5006
  28   2.0000     -10.413628      -283.3692
  29   2.0000     -10.410950      -283.2963
  30   2.0000     -10.385948      -282.6160
  31   2.0000     -10.384521      -282.5772
  32   2.0000     -10.375843      -282.3410
  33   2.0000     -10.373437      -282.2756
  34   2.0000     -10.372428      -282.2481
  35   2.0000     -10.366905      -282.0978
  36   2.0000     -10.364926      -282.0440
  37   2.0000     -10.362876      -281.9882
  38   2.0000     -10.360939      -281.9355
  39   2.0000     -10.358068      -281.8574
  40   2.0000     -10.341689      -281.4117
  41   2.0000     -10.340998      -281.3929
  42   2.0000     -10.339836      -281.3612
  43   2.0000     -10.339551      -281.3535
  44   2.0000     -10.339355      -281.3481
  45   2.0000     -10.339058      -281.3401
  46   2.0000     -10.337989      -281.3110
  47   2.0000     -10.337171      -281.2887
  48   2.0000     -10.332561      -281.1633
  49   2.0000     -10.327637      -281.0293
  50   2.0000     -10.326482      -280.9979
  51   2.0000     -10.326209      -280.9904
  52   2.0000     -10.325759      -280.9782
  53   2.0000     -10.324866      -280.9539
  54   2.0000     -10.324811      -280.9524
  55   2.0000     -10.324166      -280.9348
  56   2.0000     -10.322491      -280.8893
  57   2.0000     -10.321858      -280.8720
  58   2.0000     -10.320903      -280.8461
  59   2.0000     -10.316282      -280.7203
  60   2.0000     -10.314814      -280.6804
  61   2.0000     -10.313450      -280.6432
  62   2.0000     -10.312096      -280.6064
  63   2.0000     -10.311785      -280.5979
  64   2.0000     -10.310420      -280.5608
  65   2.0000     -10.309874      -280.5459
  66   2.0000     -10.309619      -280.5390
  67   2.0000     -10.309397      -280.5330
  68   2.0000     -10.305261      -280.4204
  69   2.0000     -10.299766      -280.2709
  70   2.0000     -10.298666      -280.2410
  71   2.0000     -10.293660      -280.1047
  72   2.0000     -10.292802      -280.0814
  73   2.0000     -10.291595      -280.0485
  74   2.0000     -10.284329      -279.8508
  75   2.0000     -10.281659      -279.7782
  76   2.0000      -8.808155      -239.6821
  77   2.0000      -8.802865      -239.5381
  78   2.0000      -8.086857      -220.0546
  79   2.0000      -8.086667      -220.0494
  80   2.0000      -8.042176      -218.8387
  81   2.0000      -8.036189      -218.6758
  82   2.0000      -6.644459      -180.8049
  83   2.0000      -6.639252      -180.6632
  84   2.0000      -6.629955      -180.4102
  85   2.0000      -6.629605      -180.4007
  86   2.0000      -6.624601      -180.2645
  87   2.0000      -6.624299      -180.2563
  88   2.0000      -6.056538      -164.8068
  89   2.0000      -6.056430      -164.8039
  90   2.0000      -6.052220      -164.6893
  91   2.0000      -6.052112      -164.6863
  92   2.0000      -6.048196      -164.5798
  93   2.0000      -6.047903      -164.5718
  94   2.0000      -6.012002      -163.5949
  95   2.0000      -6.007639      -163.4762
  96   2.0000      -6.006172      -163.4362
  97   2.0000      -6.003008      -163.3502
  98   2.0000      -6.001511      -163.3094
  99   2.0000      -5.997026      -163.1874
 100   2.0000      -2.760316       -75.1120
 101   2.0000      -2.756313       -75.0031
 102   2.0000      -2.756033       -74.9955
 103   2.0000      -2.755126       -74.9708
 104   2.0000      -2.751006       -74.8587
 105   2.0000      -2.750792       -74.8529
 106   2.0000      -2.744514       -74.6820
 107   2.0000      -2.744485       -74.6812
 108   2.0000      -2.739143       -74.5359
 109   2.0000      -2.739122       -74.5353
 110   2.0000      -1.271540       -34.6004
 111   2.0000      -1.270983       -34.5852
 112   2.0000      -1.187215       -32.3058
 113   2.0000      -1.186467       -32.2854
 114   2.0000      -1.152445       -31.3596
 115   2.0000      -1.149991       -31.2929
 116   2.0000      -1.102594       -30.0031
 117   2.0000      -1.100355       -29.9422
 118   2.0000      -1.042950       -28.3801
 119   2.0000      -1.038709       -28.2647
 120   2.0000      -1.031316       -28.0635
 121   2.0000      -1.029408       -28.0116
 122   2.0000      -1.014738       -27.6124
 123   2.0000      -1.014496       -27.6058
 124   2.0000      -1.008585       -27.4450
 125   2.0000      -1.003993       -27.3200
 126   2.0000      -1.003549       -27.3080
 127   2.0000      -0.995210       -27.0810
 128   2.0000      -0.986467       -26.8431
 129   2.0000      -0.970881       -26.4190
 130   2.0000      -0.960257       -26.1299
 131   2.0000      -0.954757       -25.9803
 132   2.0000      -0.939705       -25.5707
 133   2.0000      -0.932073       -25.3630
 134   2.0000      -0.926768       -25.2186
 135   2.0000      -0.922931       -25.1142
 136   2.0000      -0.907690       -24.6995
 137   2.0000      -0.902566       -24.5601
 138   2.0000      -0.902003       -24.5448
 139   2.0000      -0.900753       -24.5107
 140   2.0000      -0.884885       -24.0789
 141   2.0000      -0.867869       -23.6159
 142   2.0000      -0.865762       -23.5586
 143   2.0000      -0.855584       -23.2816
 144   2.0000      -0.851556       -23.1720
 145   2.0000      -0.845492       -23.0070
 146   2.0000      -0.843821       -22.9615
 147   2.0000      -0.821646       -22.3581
 148   2.0000      -0.801320       -21.8050
 149   2.0000      -0.797130       -21.6910
 150   2.0000      -0.796542       -21.6750
 151   2.0000      -0.777109       -21.1462
 152   2.0000      -0.776513       -21.1300
 153   2.0000      -0.765925       -20.8419
 154   2.0000      -0.755643       -20.5621
 155   2.0000      -0.745735       -20.2925
 156   2.0000      -0.730831       -19.8869
 157   2.0000      -0.727517       -19.7967
 158   2.0000      -0.718038       -19.5388
 159   2.0000      -0.713926       -19.4269
 160   2.0000      -0.707638       -19.2558
 161   2.0000      -0.706197       -19.2166
 162   2.0000      -0.704508       -19.1706
 163   2.0000      -0.700923       -19.0731
 164   2.0000      -0.696700       -18.9582
 165   2.0000      -0.679444       -18.4886
 166   2.0000      -0.677104       -18.4249
 167   2.0000      -0.669701       -18.2235
 168   2.0000      -0.661989       -18.0136
 169   2.0000      -0.655837       -17.8462
 170   2.0000      -0.650752       -17.7079
 171   2.0000      -0.641678       -17.4609
 172   2.0000      -0.640219       -17.4213
 173   2.0000      -0.637442       -17.3457
 174   2.0000      -0.627240       -17.0681
 175   2.0000      -0.623434       -16.9645
 176   2.0000      -0.621724       -16.9180
 177   2.0000      -0.618099       -16.8193
 178   2.0000      -0.613695       -16.6995
 179   2.0000      -0.607179       -16.5222
 180   2.0000      -0.600825       -16.3493
 181   2.0000      -0.594596       -16.1798
 182   2.0000      -0.586014       -15.9462
 183   2.0000      -0.584871       -15.9152
 184   2.0000      -0.579428       -15.7670
 185   2.0000      -0.571729       -15.5575
 186   2.0000      -0.570235       -15.5169
 187   2.0000      -0.566698       -15.4206
 188   2.0000      -0.564361       -15.3570
 189   2.0000      -0.559084       -15.2135
 190   2.0000      -0.555828       -15.1248
 191   2.0000      -0.553730       -15.0677
 192   2.0000      -0.552731       -15.0406
 193   2.0000      -0.544957       -14.8290
 194   2.0000      -0.542295       -14.7566
 195   2.0000      -0.538398       -14.6505
 196   2.0000      -0.536082       -14.5875
 197   2.0000      -0.535741       -14.5783
 198   2.0000      -0.534086       -14.5332
 199   2.0000      -0.531522       -14.4634
 200   2.0000      -0.529310       -14.4033
 201   2.0000      -0.528356       -14.3773
 202   2.0000      -0.525332       -14.2950
 203   2.0000      -0.523637       -14.2489
 204   2.0000      -0.521668       -14.1953
 205   2.0000      -0.520295       -14.1579
 206   2.0000      -0.516742       -14.0613
 207   2.0000      -0.513802       -13.9813
 208   2.0000      -0.509917       -13.8755
 209   2.0000      -0.508428       -13.8350
 210   2.0000      -0.506020       -13.7695
 211   2.0000      -0.501202       -13.6384
 212   2.0000      -0.500936       -13.6312
 213   2.0000      -0.495753       -13.4901
 214   2.0000      -0.492070       -13.3899
 215   2.0000      -0.489244       -13.3130
 216   2.0000      -0.486247       -13.2315
 217   2.0000      -0.485372       -13.2076
 218   2.0000      -0.476980       -12.9793
 219   2.0000      -0.474281       -12.9058
 220   2.0000      -0.473589       -12.8870
 221   2.0000      -0.470757       -12.8100
 222   2.0000      -0.469167       -12.7667
 223   2.0000      -0.467451       -12.7200
 224   2.0000      -0.465732       -12.6732
 225   2.0000      -0.463097       -12.6015
 226   2.0000      -0.462857       -12.5950
 227   2.0000      -0.461363       -12.5543
 228   2.0000      -0.460402       -12.5282
 229   2.0000      -0.456825       -12.4308
 230   2.0000      -0.454254       -12.3609
 231   2.0000      -0.453124       -12.3301
 232   2.0000      -0.449764       -12.2387
 233   2.0000      -0.446972       -12.1627
 234   2.0000      -0.444934       -12.1073
 235   2.0000      -0.443340       -12.0639
 236   2.0000      -0.442664       -12.0455
 237   2.0000      -0.437043       -11.8926
 238   2.0000      -0.432851       -11.7785
 239   2.0000      -0.429859       -11.6970
 240   2.0000      -0.429428       -11.6853
 241   2.0000      -0.423052       -11.5118
 242   2.0000      -0.422440       -11.4952
 243   2.0000      -0.413353       -11.2479
 244   2.0000      -0.407805       -11.0969
 245   2.0000      -0.407131       -11.0786
 246   2.0000      -0.402553       -10.9540
 247   2.0000      -0.397871       -10.8266
 248   2.0000      -0.395715       -10.7680
 249   2.0000      -0.395440       -10.7605
 250   2.0000      -0.393247       -10.7008
 251   2.0000      -0.389276       -10.5927
 252   2.0000      -0.385846       -10.4994
 253   2.0000      -0.384579       -10.4649
 254   2.0000      -0.374958       -10.2031
 255   2.0000      -0.370103       -10.0710
 256   2.0000      -0.360367        -9.8061
 257   2.0000      -0.359060        -9.7705
 258   2.0000      -0.357315        -9.7230
 259   2.0000      -0.356443        -9.6993
 260   2.0000      -0.351350        -9.5607
 261   2.0000      -0.348462        -9.4821
 262   2.0000      -0.340830        -9.2745
 263   2.0000      -0.338533        -9.2119
 264   2.0000      -0.332873        -9.0579
 265   2.0000      -0.330879        -9.0037
 266   2.0000      -0.325403        -8.8547
 267   2.0000      -0.317973        -8.6525
 268   2.0000      -0.310443        -8.4476
 269   2.0000      -0.303594        -8.2612
 270   2.0000      -0.300096        -8.1660
 271   2.0000      -0.234935        -6.3929
 272   0.0000      -0.114222        -3.1081
 273   0.0000      -0.107907        -2.9363
 274   0.0000      -0.087619        -2.3842
 275   0.0000      -0.073906        -2.0111
 276   0.0000      -0.071488        -1.9453

MULLIKEN ATOMIC CHARGES
-----------------------
   0 C :    0.299905
   1 C :   -0.329781
   2 C :   -0.178849
   3 N :    0.163092
   4 C :   -0.192835
   5 N :    0.166934
   6 C :    0.038636
   7 C :   -0.017639
   8 C :   -0.069613
   9 C :    0.113738
  10 C :   -0.074802
  11 C :   -0.050160
  12 S :    0.183811
  13 C :   -0.122084
  14 C :    0.033952
  15 Br:    0.044127
  16 C :    0.136431
  17 O :   -0.111962
  18 C :   -0.014875
  19 C :   -0.128882
  20 C :    0.173999
  21 C :   -0.109908
  22 C :    0.167388
  23 O :   -0.165489
  24 O :   -0.151345
  25 C :    0.034173
  26 N :   -0.057248
  27 O :   -0.125560
  28 C :   -0.018973
  29 C :   -0.003772
  30 C :    0.047808
  31 C :    0.040845
  32 C :   -0.031205
  33 S :    0.131111
  34 C :   -0.064993
  35 C :    0.055774
  36 C :    0.028403
  37 C :   -0.000559
  38 S :    0.127413
  39 C :   -0.052918
  40 C :    0.170958
  41 C :   -0.097514
  42 C :    0.159512
  43 O :   -0.176293
  44 O :   -0.153936
  45 C :    0.010272
  46 N :   -0.010384
  47 O :   -0.181440
  48 C :   -0.050189
  49 C :   -0.070024
  50 C :    0.271853
  51 C :   -0.296233
  52 C :   -0.115748
  53 N :    0.114311
  54 C :   -0.187625
  55 N :    0.160986
  56 C :    0.019159
  57 C :    0.001488
  58 C :    0.119168
  59 O :   -0.128693
  60 C :   -0.081067
  61 C :    0.136566
  62 C :   -0.101054
  63 C :   -0.016379
  64 S :    0.186993
  65 C :   -0.126055
  66 C :    0.040657
  67 Br:    0.042026
  68 H :    0.005443
  69 H :   -0.006339
  70 H :    0.000566
  71 H :    0.060687
  72 H :    0.173348
  73 H :    0.008241
  74 H :   -0.001473
  75 H :   -0.010645
  76 H :   -0.005161
  77 H :   -0.000075
  78 H :    0.022357
  79 H :    0.175496
  80 H :    0.033857
  81 H :   -0.005802
  82 H :   -0.005071
  83 H :   -0.000829
Sum of atomic charges:   -0.0000000

LOEWDIN ATOMIC CHARGES
----------------------
   0 C :    0.075235
   1 C :   -0.121539
   2 C :   -0.017745
   3 N :   -0.038095
   4 C :   -0.020434
   5 N :   -0.035489
   6 C :   -0.020410
   7 C :   -0.045099
   8 C :    0.018209
   9 C :   -0.028970
  10 C :   -0.143177
  11 C :   -0.013803
  12 S :    0.448543
  13 C :   -0.266701
  14 C :   -0.074662
  15 Br:    0.158546
  16 C :    0.079665
  17 O :   -0.109979
  18 C :   -0.024979
  19 C :    0.005111
  20 C :    0.049616
  21 C :   -0.128046
  22 C :    0.085114
  23 O :   -0.151349
  24 O :   -0.023906
  25 C :   -0.009670
  26 N :   -0.055380
  27 O :    0.067781
  28 C :   -0.067821
  29 C :   -0.121154
  30 C :   -0.015990
  31 C :   -0.028445
  32 C :   -0.167510
  33 S :    0.436322
  34 C :   -0.181649
  35 C :   -0.009223
  36 C :   -0.036119
  37 C :   -0.105032
  38 S :    0.411253
  39 C :   -0.099067
  40 C :    0.087049
  41 C :   -0.150543
  42 C :    0.082196
  43 O :   -0.159628
  44 O :   -0.026593
  45 C :   -0.042749
  46 N :   -0.029702
  47 O :    0.040538
  48 C :    0.032184
  49 C :   -0.050648
  50 C :    0.068881
  51 C :   -0.112145
  52 C :    0.008237
  53 N :   -0.053805
  54 C :   -0.025070
  55 N :   -0.043909
  56 C :   -0.015726
  57 C :   -0.055511
  58 C :    0.081877
  59 O :   -0.129499
  60 C :    0.021804
  61 C :   -0.037007
  62 C :   -0.146098
  63 C :   -0.012935
  64 S :    0.438464
  65 C :   -0.269722
  66 C :   -0.070095
  67 Br:    0.150963
  68 H :    0.045037
  69 H :    0.037023
  70 H :    0.040127
  71 H :    0.050394
  72 H :    0.086169
  73 H :    0.042467
  74 H :    0.037413
  75 H :    0.032035
  76 H :    0.035272
  77 H :    0.037199
  78 H :    0.048388
  79 H :    0.086433
  80 H :    0.047154
  81 H :    0.040568
  82 H :    0.039159
  83 H :    0.040397

  Mayer bond orders larger than 0.100000
B(  0-C ,  1-C ) :   1.6662 B(  0-C ,  6-C ) :   1.0218 B(  0-C , 18-C ) :   1.0265
B(  1-C ,  2-C ) :   1.1335 B(  1-C ,  4-C ) :   1.1428 B(  2-C ,  3-N ) :   2.9738
B(  4-C ,  5-N ) :   2.9775 B(  6-C ,  7-C ) :   1.2786 B(  6-C , 11-C ) :   1.3837
B(  7-C ,  8-C ) :   1.4169 B(  7-C , 16-C ) :   0.9281 B(  8-C ,  9-C ) :   1.2561
B(  8-C , 68-H ) :   1.0146 B(  9-C , 10-C ) :   1.2956 B(  9-C , 14-C ) :   1.1593
B( 10-C , 11-C ) :   1.3328 B( 10-C , 12-S ) :   1.0877 B( 11-C , 69-H ) :   0.9820
B( 12-S , 13-C ) :   1.0888 B( 13-C , 14-C ) :   1.6014 B( 13-C , 15-Br) :   1.0326
B( 14-C , 70-H ) :   1.0070 B( 16-C , 17-O ) :   2.2772 B( 16-C , 18-C ) :   0.8992
B( 18-C , 19-C ) :   1.7631 B( 19-C , 20-C ) :   1.0168 B( 19-C , 71-H ) :   0.9215
B( 20-C , 21-C ) :   1.4537 B( 20-C , 27-O ) :   1.1758 B( 21-C , 22-C ) :   0.9204
B( 21-C , 25-C ) :   1.1685 B( 22-C , 23-O ) :   2.1653 B( 22-C , 24-O ) :   1.2455
B( 24-O , 72-H ) :   0.9558 B( 25-C , 26-N ) :   1.5741 B( 25-C , 28-C ) :   1.1485
B( 26-N , 27-O ) :   1.0347 B( 28-C , 29-C ) :   1.5786 B( 28-C , 73-H ) :   0.9677
B( 29-C , 30-C ) :   1.1049 B( 29-C , 33-S ) :   1.0758 B( 30-C , 31-C ) :   1.6340
B( 30-C , 74-H ) :   0.9987 B( 31-C , 32-C ) :   1.1499 B( 31-C , 75-H ) :   0.9953
B( 32-C , 33-S ) :   1.0103 B( 32-C , 34-C ) :   1.5540 B( 34-C , 35-C ) :   1.1671
B( 34-C , 38-S ) :   1.0266 B( 35-C , 36-C ) :   1.6130 B( 35-C , 76-H ) :   0.9942
B( 36-C , 37-C ) :   1.1304 B( 36-C , 77-H ) :   0.9993 B( 37-C , 38-S ) :   1.0837
B( 37-C , 39-C ) :   1.5269 B( 39-C , 40-C ) :   1.2035 B( 39-C , 78-H ) :   0.9603
B( 40-C , 41-C ) :   1.3900 B( 40-C , 47-O ) :   1.1343 B( 41-C , 42-C ) :   0.9311
B( 41-C , 45-C ) :   1.1921 B( 42-C , 43-O ) :   2.1560 B( 42-C , 44-O ) :   1.2374
B( 44-O , 79-H ) :   0.9547 B( 45-C , 46-N ) :   1.6096 B( 45-C , 48-C ) :   0.9968
B( 46-N , 47-O ) :   1.0114 B( 48-C , 49-C ) :   1.7765 B( 48-C , 80-H ) :   0.9339
B( 49-C , 50-C ) :   0.9939 B( 49-C , 58-C ) :   0.9213 B( 50-C , 51-C ) :   1.6935
B( 50-C , 56-C ) :   1.0382 B( 51-C , 52-C ) :   1.1562 B( 51-C , 54-C ) :   1.1421
B( 52-C , 53-N ) :   2.8604 B( 54-C , 55-N ) :   2.9741 B( 56-C , 57-C ) :   1.2726
B( 56-C , 63-C ) :   1.4010 B( 57-C , 58-C ) :   0.9232 B( 57-C , 60-C ) :   1.4076
B( 58-C , 59-O ) :   2.2775 B( 60-C , 61-C ) :   1.2507 B( 60-C , 81-H ) :   1.0186
B( 61-C , 62-C ) :   1.2905 B( 61-C , 66-C ) :   1.1627 B( 62-C , 63-C ) :   1.3325
B( 62-C , 64-S ) :   1.0876 B( 63-C , 82-H ) :   0.9823 B( 64-S , 65-C ) :   1.0820
B( 65-C , 66-C ) :   1.6138 B( 65-C , 67-Br) :   1.0306 B( 66-C , 83-H ) :   1.0021

-----------------------------------------------------------------------------
         ABSORPTION SPECTRUM VIA TRANSITION ELECTRIC DIPOLE MOMENTS
-----------------------------------------------------------------------------
State   Energy  Wavelength   fosc         T2         TX        TY        TZ
        (cm-1)    (nm)                  (au**2)     (au)      (au)      (au)
-----------------------------------------------------------------------------
   0   12042.0    830.4   0.008214641   0.22458   0.46696  -0.07670  -0.02530
   1   13853.3    721.9   0.010930996   0.25977   0.29833   0.35983  -0.20320
   2   16840.6    593.8   0.722941614  14.13255  -1.99343  -2.24697   2.26051
   3   22118.5    452.1   0.005257570   0.07825  -0.06204  -0.16188   0.21954
   4   22147.7    451.5   0.002366237   0.03517   0.00833  -0.08010   0.16937
   5   24094.6    415.0   0.070605915   0.96471  -0.55692   0.21193  -0.78079
   6   25545.4    391.5   0.032932654   0.42441  -0.37625  -0.11976   0.51818
   7   25629.8    390.2   0.030033384   0.38578  -0.25370  -0.43807   0.35987
   8   25925.8    385.7   0.303228129   3.85046   1.88203  -0.29298  -0.47179
   9   26193.9    381.8   0.068380664   0.85943  -0.67970   0.62756   0.05998
  10   27167.2    368.1   0.097140281   1.17714  -0.18720   0.79675  -0.71225
  11   27294.3    366.4   0.027836463   0.33575   0.52848  -0.05454  -0.23127
  12   27683.4    361.2   0.089859607   1.06861  -0.25396  -0.18882   0.98410
  13   27977.7    357.4   0.002852513   0.03357  -0.11263   0.01006  -0.14415
  14   28630.4    349.3   0.223780115   2.57318  -0.85939   1.27658  -0.45273
  15   28832.1    346.8   0.181001304   2.06672   1.09465  -0.91385  -0.18258
  16   29319.0    341.1   0.111517264   1.25218   0.13411   0.81777  -0.75196
  17   29478.6    339.2   0.210377791   2.34947  -1.32310   0.52515   0.56840
  18   29956.2    333.8   0.049346156   0.54230  -0.57062   0.44605  -0.13317
  19   30641.3    326.4   0.089862163   0.96548   0.16881  -0.75542   0.60525
  20   31128.2    321.3   0.196958645   2.08303  -0.82489   1.11101  -0.41017
  21   31604.1    316.4   0.101951904   1.06201  -0.94058  -0.02359   0.42043
  22   31905.8    313.4   0.124711070   1.28680  -0.86049   0.73872   0.02559
  23   32146.4    311.1   0.369668816   3.78579   1.56646  -1.14330   0.15769
  24   32336.1    309.3   0.017832411   0.18155  -0.08072  -0.41797  -0.01822
  25   32549.5    307.2   0.162050409   1.63901   1.14159  -0.03205  -0.57857
  26   32697.1    305.8   0.052754963   0.53117   0.58469   0.12762  -0.41596
  27   32759.6    305.3   0.131031536   1.31678  -0.85653  -0.35138   0.67799
  28   33193.1    301.3   0.414861119   4.11463  -0.87962   1.15070  -1.42013
  29   33435.6    299.1   0.092376630   0.90956  -0.06308  -0.57883   0.75534
  30   33589.6    297.7   0.083015676   0.81364   0.54192  -0.06249  -0.71837
  31   33753.9    296.3   0.004299497   0.04193  -0.17950   0.09803  -0.01033
  32   33866.6    295.3   0.016592691   0.16129  -0.29075  -0.07806   0.26583
  33   33956.6    294.5   0.048448475   0.46971  -0.39390  -0.00872   0.56078
  34   34077.7    293.4   0.076473930   0.73879   0.68392  -0.49429   0.16344
  35   34694.4    288.2   0.071201384   0.67562  -0.59876   0.22316   0.51702
  36   34900.5    286.5   0.008166698   0.07704  -0.26276  -0.08940   0.00132
  37   35118.1    284.8   0.050074506   0.46942  -0.56942  -0.20136   0.32348
  38   35263.7    283.6   0.013183477   0.12308   0.23972  -0.22429  -0.12372
  39   35444.5    282.1   0.032508658   0.30194   0.46545  -0.27566  -0.09649
  40   35699.4    280.1   0.086613124   0.79873   0.44119  -0.71143   0.31295
  41   35909.4    278.5   0.016819645   0.15420   0.36380   0.09679  -0.11172
  42   36164.6    276.5   0.000822738   0.00749  -0.06347   0.00426   0.05868
  43   36333.7    275.2   0.008989927   0.08146   0.19224  -0.03159  -0.20857
  44   36525.8    273.8   0.051932568   0.46808  -0.24430   0.49611  -0.40283
  45   36781.3    271.9   0.104434807   0.93475  -0.90992   0.13036   0.29966
  46   37053.3    269.9   0.009785552   0.08694   0.03004  -0.11569   0.26955
  47   37246.6    268.5   0.054984224   0.48599  -0.60968   0.25538  -0.22150
  48   37327.8    267.9   0.038501930   0.33957  -0.49631   0.27001   0.14262
  49   37744.0    264.9   0.005760729   0.05025  -0.09934   0.18032   0.08866
  50   37762.7    264.8   0.000544405   0.00475   0.06236   0.01038  -0.02739
  51   38166.0    262.0   0.063989713   0.55196   0.10813   0.64715  -0.34852
  52   38336.3    260.8   0.056972101   0.48925   0.00528   0.51549  -0.47274
  53   38534.9    259.5   0.019025916   0.16254   0.07536   0.20959  -0.33606
  54   38824.2    257.6   0.199505803   1.69172   0.55990  -0.89346   0.76155
  55   39147.9    255.4   0.012714552   0.10692  -0.19422  -0.22956   0.12847
  56   39356.5    254.1   0.123948052   1.03681   0.62474  -0.60987   0.52399
  57   39523.9    253.0   0.220105170   1.83335   1.10045  -0.75711   0.22168
  58   39856.5    250.9   0.039351814   0.32504  -0.51823   0.17762   0.15792
  59   39858.7    250.9   0.005323996   0.04397   0.14302   0.09687   0.11889
  60   40217.6    248.6   0.021651286   0.17723   0.29308  -0.08891  -0.28884

FINAL SINGLE POINT ENERGY     -9505.625050795728

DIPOLE MOMENT
-------------
                                X             Y             Z
Electronic contribution:    135.96360     -62.39616      -9.49978
Nuclear contribution   :   -134.09283      62.71420       8.62937
                        -----------------------------------------
Total Dipole Moment    :      1.87077       0.31804      -0.87041
                        -----------------------------------------
Magnitude (a.u.)       :      2.08771
Magnitude (Debye)      :      5.30654

Rotational constants in cm-1:     0.001146     0.000677     0.000478
Rotational constants in MHz :    34.366614    20.296217    14.318425

                             ****ORCA TERMINATED NORMALLY****
TOTAL RUN TIME: 0 days 0 hours 10 minutes 6 seconds 467 msec
