                         Program Version 4.2.0 -  RELEASE  -
|  1> # ORCA input file
|  2> # SCF done       -200.457038334213          0.000222704803
|  3> ! CAM-B3LYP def2-SVP def2/J RIJCOSX Grid4 TightSCF
|  4> %maxcore 5000
|  5> %tddft
|  6>     Mode sTDDFT
|  7>     Ethresh 5.0
|  8>     maxcore 5000
|  9> end
| 10>
| 11> %pal
| 12>   nprocs 6
| 13>   end
| 14> * xyz 0 1
| 15>    C       -5.54432         5.40507        -8.75505
| 16>    C       -5.89082         4.37017        -9.58573
| 17>    C       -5.59921         4.32811       -10.96535
| 18>    N       -5.38845         4.22555       -12.08889
| 19>    C       -6.60975         3.22351        -9.19011
| 20>    N       -7.20422         2.27468        -8.93239
| 21>    C       -4.86045         6.62777        -9.15781
| 22>    C       -4.80068         7.50411        -8.04165
| 23>    C       -4.19272         8.73505        -8.10566
| 24>    C       -3.61039         9.11273        -9.32023
| 25>    C       -3.67750         8.23201       -10.42647
| 26>    C       -4.29890         6.99072       -10.36528
| 27>    S       -2.90197         8.89862       -11.82445
| 28>    C       -2.51280        10.33756       -10.92447
| 29>    C       -2.92766        10.31772        -9.63538
| 30>   Br       -1.59714        11.73789       -11.76784
| 31>    C       -5.43730         6.84788        -6.89188
| 32>    O       -5.59754         7.32172        -5.76954
| 33>    C       -5.81919         5.51560        -7.33665
| 34>    C       -6.23025         4.48750        -6.51745
| 35>    C       -6.46727         4.46533        -5.14757
| 36>    S       -6.45411         5.84520        -4.07371
| 37>    C       -6.84993         4.87306        -2.70624
| 38>    C       -6.95053         3.50210        -3.03753
| 39>    C       -6.75284         3.28072        -4.42365
| 40>    C       -6.83636         1.96976        -4.92181
| 41>    C       -7.09655         0.93673        -4.06239
| 42>    C       -7.16955        -0.48248        -4.55961
| 43>    F       -6.92473        -0.58027        -5.87174
| 44>    F       -6.27334        -1.27811        -3.95210
| 45>    F       -8.37486        -1.03531        -4.35536
| 46>    C       -7.30514         1.14918        -2.66893
| 47>    O       -7.56170         0.04207        -1.95027
| 48>    C       -7.77480         0.15244        -0.56143
| 49>    C       -7.23433         2.43068        -2.17087
| 50>    N       -6.95828         5.26344        -1.40760
| 51>    C       -7.20595         6.41117        -0.70727
| 52>    S       -7.43254         6.11098         1.00313
| 53>    C       -7.76748         7.78650         1.26047
| 54>    N       -8.03674         8.20941         2.56556
| 55>    O       -8.27709         9.38918         2.74068
| 56>    O       -8.01156         7.35079         3.43229
| 57>    C       -7.70834         8.51466         0.10500
| 58>    C       -7.38337         7.75501        -1.03976
| 59>    C       -7.22951         8.40307        -2.32611
| 60>    C       -7.95248         9.48208        -2.66521
| 61>    C       -7.79366        10.29722        -3.84304
| 62>    C       -6.65155        10.59999        -4.47725
| 63>    C       -5.29649        10.12037        -4.08256
| 64>    C       -6.69412        11.54108        -5.65209
| 65>    N       -7.77572        11.22468        -6.55636
| 66>    C       -8.10165        11.99360        -7.60002
| 67>    C       -7.83325        13.32929        -7.72744
| 68>    C       -8.10585        14.07297        -8.88398
| 69>    C       -8.22666        13.63298       -10.18199
| 70>    C       -7.80153        12.43238       -10.84485
| 71>    C       -6.80112        11.56524       -10.45331
| 72>    C       -6.40407        10.42427       -11.16910
| 73>    N       -6.04102         9.44963       -11.65992
| 74>    C       -5.99401        11.72664        -9.31896
| 75>    N       -5.24898        11.79694        -8.44374
| 76>    C       -8.42681        12.41079       -12.16622
| 77>    C       -9.07210        13.65322       -12.38211
| 78>    C       -8.91880        14.48966       -11.17133
| 79>    O       -9.30628        15.62609       -11.00779
| 80>    C       -9.71621        13.95640       -13.55504
| 81>    C       -9.73192        12.98326       -14.56159
| 82>    C       -9.09507        11.74150       -14.33208
| 83>    C       -8.43660        11.43755       -13.14608
| 84>    S       -9.24092        10.68453       -15.70388
| 85>    C      -10.13826        11.91120       -16.55768
| 86>    C      -10.32272        13.05274       -15.85276
| 87>   Br      -10.74900        11.56869       -18.29770
| 88>    H       -4.15904         9.39289        -7.25181
| 89>    H       -4.32786         6.35596       -11.23460
| 90>    H       -2.77960        11.12383        -8.94072
| 91>    H       -6.34919         3.52375        -6.99251
| 92>    H       -6.70008         1.76220        -5.97141
| 93>    H       -6.89402         0.55720        -0.05379
| 94>    H       -7.95471        -0.86335        -0.21606
| 95>    H       -8.64957         0.77105        -0.33964
| 96>    H       -7.40398         2.60563        -1.11989
| 97>    H       -6.95881         4.46100        -0.78509
| 98>    H       -7.86637         9.57768         0.09367
| 99>    H       -6.50381         7.99748        -3.00888
|100>    H       -8.76417         9.79041        -2.01690
|101>    H       -8.70383        10.77794        -4.18354
|102>    H       -5.24693         9.92400        -3.01438
|103>    H       -4.54076        10.85697        -4.34731
|104>    H       -5.07157         9.19301        -4.61027
|105>    H       -5.75166        11.51049        -6.21765
|106>    H       -6.82202        12.56721        -5.28966
|107>    H       -8.04671        10.25259        -6.56977
|108>    H       -8.69992        11.50961        -8.36345
|109>    H       -7.43697        13.87110        -6.88162
|110>    H       -8.27359        15.13760        -8.75652
|111>    H      -10.18986        14.91502       -13.69671
|112>    H       -7.96839        10.47563       -13.01667
|113>    H      -10.85285        13.90960       -16.22643
|114> *
|115>
|116>                          ****END OF INPUT****

CARTESIAN COORDINATES (ANGSTROEM)
---------------------------------
  C     -5.544320    5.405070   -8.755050
  C     -5.890820    4.370170   -9.585730
  C     -5.599210    4.328110  -10.965350
  N     -5.388450    4.225550  -12.088890
  C     -6.609750    3.223510   -9.190110
  N     -7.204220    2.274680   -8.932390
  C     -4.860450    6.627770   -9.157810
  C     -4.800680    7.504110   -8.041650
  C     -4.192720    8.735050   -8.105660
  C     -3.610390    9.112730   -9.320230
  C     -3.677500    8.232010  -10.426470
  C     -4.298900    6.990720  -10.365280
  S     -2.901970    8.898620  -11.824450
  C     -2.512800   10.337560  -10.924470
  C     -2.927660   10.317720   -9.635380
  Br    -1.597140   11.737890  -11.767840
  C     -5.437300    6.847880   -6.891880
  O     -5.597540    7.321720   -5.769540
  C     -5.819190    5.515600   -7.336650
  C     -6.230250    4.487500   -6.517450
  C     -6.467270    4.465330   -5.147570
  S     -6.454110    5.845200   -4.073710
  C     -6.849930    4.873060   -2.706240
  C     -6.950530    3.502100   -3.037530
  C     -6.752840    3.280720   -4.423650
  C     -6.836360    1.969760   -4.921810
  C     -7.096550    0.936730   -4.062390
  C     -7.169550   -0.482480   -4.559610
  F     -6.924730   -0.580270   -5.871740
  F     -6.273340   -1.278110   -3.952100
  F     -8.374860   -1.035310   -4.355360
  C     -7.305140    1.149180   -2.668930
  O     -7.561700    0.042070   -1.950270
  C     -7.774800    0.152440   -0.561430
  C     -7.234330    2.430680   -2.170870
  N     -6.958280    5.263440   -1.407600
  C     -7.205950    6.411170   -0.707270
  S     -7.432540    6.110980    1.003130
  C     -7.767480    7.786500    1.260470
  N     -8.036740    8.209410    2.565560
  O     -8.277090    9.389180    2.740680
  O     -8.011560    7.350790    3.432290
  C     -7.708340    8.514660    0.105000
  C     -7.383370    7.755010   -1.039760
  C     -7.229510    8.403070   -2.326110
  C     -7.952480    9.482080   -2.665210
  C     -7.793660   10.297220   -3.843040
  C     -6.651550   10.599990   -4.477250
  C     -5.296490   10.120370   -4.082560
  C     -6.694120   11.541080   -5.652090
  N     -7.775720   11.224680   -6.556360
  C     -8.101650   11.993600   -7.600020
  C     -7.833250   13.329290   -7.727440
  C     -8.105850   14.072970   -8.883980
  C     -8.226660   13.632980  -10.181990
  C     -7.801530   12.432380  -10.844850
  C     -6.801120   11.565240  -10.453310
  C     -6.404070   10.424270  -11.169100
  N     -6.041020    9.449630  -11.659920
  C     -5.994010   11.726640   -9.318960
  N     -5.248980   11.796940   -8.443740
  C     -8.426810   12.410790  -12.166220
  C     -9.072100   13.653220  -12.382110
  C     -8.918800   14.489660  -11.171330
  O     -9.306280   15.626090  -11.007790
  C     -9.716210   13.956400  -13.555040
  C     -9.731920   12.983260  -14.561590
  C     -9.095070   11.741500  -14.332080
  C     -8.436600   11.437550  -13.146080
  S     -9.240920   10.684530  -15.703880
  C    -10.138260   11.911200  -16.557680
  C    -10.322720   13.052740  -15.852760
  Br   -10.749000   11.568690  -18.297700
  H     -4.159040    9.392890   -7.251810
  H     -4.327860    6.355960  -11.234600
  H     -2.779600   11.123830   -8.940720
  H     -6.349190    3.523750   -6.992510
  H     -6.700080    1.762200   -5.971410
  H     -6.894020    0.557200   -0.053790
  H     -7.954710   -0.863350   -0.216060
  H     -8.649570    0.771050   -0.339640
  H     -7.403980    2.605630   -1.119890
  H     -6.958810    4.461000   -0.785090
  H     -7.866370    9.577680    0.093670
  H     -6.503810    7.997480   -3.008880
  H     -8.764170    9.790410   -2.016900
  H     -8.703830   10.777940   -4.183540
  H     -5.246930    9.924000   -3.014380
  H     -4.540760   10.856970   -4.347310
  H     -5.071570    9.193010   -4.610270
  H     -5.751660   11.510490   -6.217650
  H     -6.822020   12.567210   -5.289660
  H     -8.046710   10.252590   -6.569770
  H     -8.699920   11.509610   -8.363450
  H     -7.436970   13.871100   -6.881620
  H     -8.273590   15.137600   -8.756520
  H    -10.189860   14.915020  -13.696710
  H     -7.968390   10.475630  -13.016670
  H    -10.852850   13.909600  -16.226430

 Total Charge           Charge          ....    0
 Multiplicity           Mult            ....    1
 Number of Electrons    NEL             ....  588
 Basis Dimension        Dim             .... 1204

ORBITAL ENERGIES
----------------

  NO   OCC          E(Eh)            E(eV)
   0   2.0000    -482.881809    -13139.8820
   1   2.0000    -482.875097    -13139.6994
   2   2.0000     -88.996139     -2421.7081
   3   2.0000     -88.996021     -2421.7049
   4   2.0000     -88.971200     -2421.0294
   5   2.0000     -88.962220     -2420.7851
   6   2.0000     -62.559515     -1702.3309
   7   2.0000     -62.552824     -1702.1489
   8   2.0000     -56.393461     -1534.5441
   9   2.0000     -56.390755     -1534.4704
  10   2.0000     -56.390719     -1534.4695
  11   2.0000     -56.386750     -1534.3615
  12   2.0000     -56.384077     -1534.2887
  13   2.0000     -56.384036     -1534.2876
  14   2.0000     -24.797364      -674.7706
  15   2.0000     -24.790544      -674.5850
  16   2.0000     -24.790045      -674.5714
  17   2.0000     -19.273578      -524.4607
  18   2.0000     -19.246645      -523.7278
  19   2.0000     -19.246159      -523.7146
  20   2.0000     -19.225867      -523.1624
  21   2.0000     -19.203603      -522.5566
  22   2.0000     -14.658333      -398.8735
  23   2.0000     -14.514096      -394.9486
  24   2.0000     -14.473172      -393.8350
  25   2.0000     -14.419621      -392.3778
  26   2.0000     -14.413150      -392.2018
  27   2.0000     -14.410892      -392.1403
  28   2.0000     -14.406317      -392.0158
  29   2.0000     -10.516545      -286.1698
  30   2.0000     -10.387458      -282.6571
  31   2.0000     -10.381450      -282.4936
  32   2.0000     -10.371120      -282.2125
  33   2.0000     -10.369515      -282.1689
  34   2.0000     -10.354745      -281.7669
  35   2.0000     -10.354386      -281.7572
  36   2.0000     -10.353744      -281.7397
  37   2.0000     -10.353383      -281.7299
  38   2.0000     -10.345724      -281.5215
  39   2.0000     -10.345652      -281.5195
  40   2.0000     -10.338693      -281.3301
  41   2.0000     -10.335284      -281.2374
  42   2.0000     -10.333680      -281.1937
  43   2.0000     -10.329864      -281.0899
  44   2.0000     -10.325822      -280.9799
  45   2.0000     -10.323619      -280.9199
  46   2.0000     -10.322522      -280.8901
  47   2.0000     -10.321732      -280.8686
  48   2.0000     -10.320334      -280.8306
  49   2.0000     -10.318417      -280.7784
  50   2.0000     -10.316889      -280.7368
  51   2.0000     -10.316136      -280.7163
  52   2.0000     -10.315921      -280.7105
  53   2.0000     -10.315565      -280.7008
  54   2.0000     -10.315159      -280.6897
  55   2.0000     -10.314628      -280.6753
  56   2.0000     -10.313585      -280.6469
  57   2.0000     -10.312458      -280.6163
  58   2.0000     -10.311667      -280.5947
  59   2.0000     -10.309868      -280.5458
  60   2.0000     -10.307272      -280.4751
  61   2.0000     -10.302212      -280.3374
  62   2.0000     -10.302123      -280.3350
  63   2.0000     -10.300943      -280.3029
  64   2.0000     -10.299105      -280.2529
  65   2.0000     -10.296922      -280.1935
  66   2.0000     -10.295571      -280.1567
  67   2.0000     -10.295182      -280.1462
  68   2.0000     -10.295144      -280.1451
  69   2.0000     -10.294706      -280.1332
  70   2.0000     -10.292354      -280.0692
  71   2.0000     -10.292350      -280.0691
  72   2.0000     -10.291077      -280.0345
  73   2.0000     -10.289603      -279.9943
  74   2.0000     -10.287126      -279.9269
  75   2.0000     -10.285508      -279.8829
  76   2.0000     -10.282738      -279.8075
  77   2.0000     -10.279454      -279.7182
  78   2.0000     -10.279171      -279.7105
  79   2.0000     -10.277689      -279.6701
  80   2.0000     -10.266895      -279.3764
  81   2.0000      -8.788936      -239.1591
  82   2.0000      -8.782260      -238.9775
  83   2.0000      -8.092073      -220.1965
  84   2.0000      -8.088022      -220.0863
  85   2.0000      -8.067129      -219.5177
  86   2.0000      -8.058030      -219.2701
  87   2.0000      -6.625207      -180.2810
  88   2.0000      -6.618467      -180.0976
  89   2.0000      -6.610683      -179.8858
  90   2.0000      -6.610493      -179.8806
  91   2.0000      -6.604056      -179.7055
  92   2.0000      -6.603842      -179.6997
  93   2.0000      -6.061856      -164.9515
  94   2.0000      -6.057765      -164.8402
  95   2.0000      -6.057469      -164.8321
  96   2.0000      -6.053213      -164.7163
  97   2.0000      -6.052698      -164.7023
  98   2.0000      -6.050308      -164.6372
  99   2.0000      -6.036811      -164.2700
 100   2.0000      -6.032545      -164.1539
 101   2.0000      -6.028383      -164.0406
 102   2.0000      -6.027711      -164.0224
 103   2.0000      -6.023447      -163.9063
 104   2.0000      -6.019267      -163.7926
 105   2.0000      -2.741101       -74.5892
 106   2.0000      -2.736996       -74.4775
 107   2.0000      -2.736860       -74.4737
 108   2.0000      -2.734381       -74.4063
 109   2.0000      -2.730301       -74.2953
 110   2.0000      -2.730165       -74.2916
 111   2.0000      -2.725306       -74.1594
 112   2.0000      -2.725300       -74.1592
 113   2.0000      -2.718707       -73.9798
 114   2.0000      -2.718694       -73.9794
 115   2.0000      -1.384302       -37.6688
 116   2.0000      -1.327264       -36.1167
 117   2.0000      -1.287571       -35.0366
 118   2.0000      -1.282797       -34.9067
 119   2.0000      -1.182517       -32.1779
 120   2.0000      -1.146666       -31.2024
 121   2.0000      -1.137786       -30.9607
 122   2.0000      -1.118527       -30.4367
 123   2.0000      -1.117086       -30.3974
 124   2.0000      -1.069688       -29.1077
 125   2.0000      -1.028497       -27.9868
 126   2.0000      -1.019905       -27.7530
 127   2.0000      -1.015714       -27.6390
 128   2.0000      -1.012218       -27.5439
 129   2.0000      -1.008122       -27.4324
 130   2.0000      -1.005107       -27.3504
 131   2.0000      -0.994785       -27.0695
 132   2.0000      -0.988930       -26.9102
 133   2.0000      -0.984553       -26.7910
 134   2.0000      -0.983204       -26.7544
 135   2.0000      -0.963882       -26.2285
 136   2.0000      -0.941036       -25.6069
 137   2.0000      -0.937014       -25.4974
 138   2.0000      -0.935842       -25.4656
 139   2.0000      -0.921997       -25.0888
 140   2.0000      -0.914993       -24.8982
 141   2.0000      -0.904244       -24.6057
 142   2.0000      -0.903610       -24.5885
 143   2.0000      -0.901316       -24.5260
 144   2.0000      -0.890561       -24.2334
 145   2.0000      -0.887191       -24.1417
 146   2.0000      -0.881073       -23.9752
 147   2.0000      -0.876511       -23.8511
 148   2.0000      -0.875740       -23.8301
 149   2.0000      -0.871072       -23.7031
 150   2.0000      -0.859192       -23.3798
 151   2.0000      -0.853990       -23.2383
 152   2.0000      -0.828936       -22.5565
 153   2.0000      -0.825772       -22.4704
 154   2.0000      -0.821412       -22.3518
 155   2.0000      -0.819721       -22.3057
 156   2.0000      -0.816910       -22.2293
 157   2.0000      -0.798164       -21.7192
 158   2.0000      -0.796465       -21.6729
 159   2.0000      -0.788897       -21.4670
 160   2.0000      -0.783942       -21.3322
 161   2.0000      -0.765110       -20.8197
 162   2.0000      -0.762311       -20.7435
 163   2.0000      -0.755766       -20.5654
 164   2.0000      -0.748841       -20.3770
 165   2.0000      -0.733979       -19.9726
 166   2.0000      -0.727219       -19.7886
 167   2.0000      -0.716586       -19.4993
 168   2.0000      -0.711094       -19.3498
 169   2.0000      -0.702994       -19.1294
 170   2.0000      -0.690679       -18.7943
 171   2.0000      -0.688894       -18.7458
 172   2.0000      -0.687368       -18.7042
 173   2.0000      -0.682165       -18.5627
 174   2.0000      -0.677809       -18.4441
 175   2.0000      -0.670022       -18.2322
 176   2.0000      -0.666101       -18.1255
 177   2.0000      -0.666029       -18.1236
 178   2.0000      -0.663419       -18.0526
 179   2.0000      -0.658648       -17.9227
 180   2.0000      -0.656370       -17.8607
 181   2.0000      -0.648797       -17.6547
 182   2.0000      -0.645277       -17.5589
 183   2.0000      -0.640347       -17.4247
 184   2.0000      -0.639378       -17.3984
 185   2.0000      -0.638331       -17.3699
 186   2.0000      -0.631644       -17.1879
 187   2.0000      -0.620246       -16.8778
 188   2.0000      -0.618430       -16.8283
 189   2.0000      -0.616123       -16.7656
 190   2.0000      -0.613293       -16.6886
 191   2.0000      -0.608934       -16.5699
 192   2.0000      -0.599547       -16.3145
 193   2.0000      -0.598026       -16.2731
 194   2.0000      -0.591630       -16.0991
 195   2.0000      -0.589182       -16.0325
 196   2.0000      -0.585374       -15.9288
 197   2.0000      -0.582564       -15.8524
 198   2.0000      -0.579585       -15.7713
 199   2.0000      -0.573237       -15.5986
 200   2.0000      -0.569027       -15.4840
 201   2.0000      -0.568443       -15.4681
 202   2.0000      -0.566959       -15.4277
 203   2.0000      -0.564441       -15.3592
 204   2.0000      -0.562266       -15.3000
 205   2.0000      -0.554453       -15.0874
 206   2.0000      -0.549527       -14.9534
 207   2.0000      -0.544034       -14.8039
 208   2.0000      -0.542250       -14.7554
 209   2.0000      -0.541788       -14.7428
 210   2.0000      -0.539867       -14.6905
 211   2.0000      -0.538577       -14.6554
 212   2.0000      -0.534613       -14.5475
 213   2.0000      -0.533709       -14.5229
 214   2.0000      -0.531922       -14.4743
 215   2.0000      -0.527740       -14.3605
 216   2.0000      -0.525565       -14.3014
 217   2.0000      -0.524571       -14.2743
 218   2.0000      -0.518745       -14.1158
 219   2.0000      -0.517546       -14.0831
 220   2.0000      -0.515470       -14.0266
 221   2.0000      -0.512189       -13.9374
 222   2.0000      -0.510851       -13.9009
 223   2.0000      -0.506950       -13.7948
 224   2.0000      -0.504584       -13.7304
 225   2.0000      -0.503114       -13.6904
 226   2.0000      -0.502602       -13.6765
 227   2.0000      -0.498088       -13.5537
 228   2.0000      -0.496627       -13.5139
 229   2.0000      -0.494837       -13.4652
 230   2.0000      -0.493265       -13.4224
 231   2.0000      -0.491949       -13.3866
 232   2.0000      -0.490901       -13.3581
 233   2.0000      -0.485312       -13.2060
 234   2.0000      -0.484319       -13.1790
 235   2.0000      -0.480808       -13.0834
 236   2.0000      -0.478099       -13.0097
 237   2.0000      -0.476633       -12.9698
 238   2.0000      -0.473903       -12.8956
 239   2.0000      -0.472304       -12.8520
 240   2.0000      -0.469083       -12.7644
 241   2.0000      -0.467211       -12.7135
 242   2.0000      -0.464211       -12.6318
 243   2.0000      -0.462192       -12.5769
 244   2.0000      -0.459261       -12.4971
 245   2.0000      -0.456827       -12.4309
 246   2.0000      -0.453470       -12.3395
 247   2.0000      -0.452496       -12.3131
 248   2.0000      -0.449352       -12.2275
 249   2.0000      -0.445803       -12.1309
 250   2.0000      -0.444594       -12.0980
 251   2.0000      -0.443256       -12.0616
 252   2.0000      -0.442130       -12.0310
 253   2.0000      -0.440542       -11.9878
 254   2.0000      -0.437292       -11.8993
 255   2.0000      -0.436759       -11.8848
 256   2.0000      -0.434348       -11.8192
 257   2.0000      -0.429876       -11.6975
 258   2.0000      -0.428490       -11.6598
 259   2.0000      -0.427851       -11.6424
 260   2.0000      -0.424621       -11.5545
 261   2.0000      -0.422137       -11.4869
 262   2.0000      -0.420895       -11.4531
 263   2.0000      -0.416714       -11.3394
 264   2.0000      -0.413538       -11.2529
 265   2.0000      -0.411626       -11.2009
 266   2.0000      -0.407347       -11.0845
 267   2.0000      -0.406406       -11.0589
 268   2.0000      -0.403063       -10.9679
 269   2.0000      -0.400780       -10.9058
 270   2.0000      -0.393733       -10.7140
 271   2.0000      -0.390089       -10.6149
 272   2.0000      -0.386147       -10.5076
 273   2.0000      -0.383749       -10.4424
 274   2.0000      -0.374794       -10.1986
 275   2.0000      -0.373158       -10.1541
 276   2.0000      -0.371241       -10.1020
 277   2.0000      -0.370382       -10.0786
 278   2.0000      -0.364741        -9.9251
 279   2.0000      -0.362854        -9.8738
 280   2.0000      -0.360020        -9.7967
 281   2.0000      -0.346622        -9.4321
 282   2.0000      -0.343533        -9.3480
 283   2.0000      -0.339545        -9.2395
 284   2.0000      -0.328465        -8.9380
 285   2.0000      -0.325265        -8.8509
 286   2.0000      -0.319330        -8.6894
 287   2.0000      -0.310559        -8.4507
 288   2.0000      -0.306804        -8.3486
 289   2.0000      -0.292690        -7.9645
 290   2.0000      -0.289963        -7.8903
 291   2.0000      -0.283237        -7.7073
 292   2.0000      -0.268796        -7.3143
 293   2.0000      -0.251183        -6.8350
 294   0.0000      -0.098906        -2.6914
 295   0.0000      -0.081130        -2.2077
 296   0.0000      -0.065042        -1.7699
 297   0.0000      -0.056961        -1.5500
 298   0.0000      -0.046567        -1.2672

MULLIKEN ATOMIC CHARGES
-----------------------
   0 C :    0.315596
   1 C :   -0.357653
   2 C :   -0.184724
   3 N :    0.149190
   4 C :   -0.198397
   5 N :    0.145955
   6 C :    0.007654
   7 C :    0.002796
   8 C :   -0.085893
   9 C :    0.109269
  10 C :   -0.079877
  11 C :   -0.006114
  12 S :    0.198597
  13 C :   -0.131347
  14 C :    0.051844
  15 Br:    0.012783
  16 C :    0.168514
  17 O :   -0.225494
  18 C :   -0.101751
  19 C :   -0.033440
  20 C :   -0.068047
  21 S :    0.160157
  22 C :   -0.057587
  23 C :    0.130988
  24 C :    0.137656
  25 C :   -0.055977
  26 C :   -0.156281
  27 C :    0.544568
  28 F :   -0.148004
  29 F :   -0.163485
  30 F :   -0.159823
  31 C :    0.242852
  32 O :   -0.286920
  33 C :    0.176884
  34 C :   -0.181488
  35 N :    0.011529
  36 C :   -0.117104
  37 S :    0.138778
  38 C :    0.011628
  39 N :    0.277079
  40 O :   -0.245597
  41 O :   -0.263967
  42 C :   -0.010901
  43 C :    0.114340
  44 C :   -0.068497
  45 C :    0.001466
  46 C :   -0.000258
  47 C :   -0.238120
  48 C :    0.074522
  49 C :    0.210580
  50 N :   -0.124908
  51 C :    0.080394
  52 C :   -0.065444
  53 C :    0.061150
  54 C :   -0.162206
  55 C :    0.296408
  56 C :   -0.389796
  57 C :   -0.174270
  58 N :    0.135317
  59 C :   -0.152940
  60 N :    0.115779
  61 C :   -0.009880
  62 C :    0.006926
  63 C :    0.130055
  64 O :   -0.152769
  65 C :   -0.076426
  66 C :    0.113947
  67 C :   -0.093005
  68 C :   -0.023282
  69 S :    0.183667
  70 C :   -0.126222
  71 C :    0.041976
  72 Br:    0.020594
  73 H :   -0.028330
  74 H :   -0.007194
  75 H :    0.000380
  76 H :   -0.005316
  77 H :    0.015269
  78 H :    0.026262
  79 H :    0.054295
  80 H :    0.029890
  81 H :   -0.047496
  82 H :    0.145670
  83 H :    0.016968
  84 H :    0.036815
  85 H :    0.000353
  86 H :   -0.016181
  87 H :    0.024927
  88 H :    0.013733
  89 H :    0.065418
  90 H :    0.041228
  91 H :    0.045598
  92 H :    0.142802
  93 H :    0.041340
  94 H :   -0.001039
  95 H :    0.025169
  96 H :   -0.012780
  97 H :   -0.006471
  98 H :   -0.004855
Sum of atomic charges:   -0.0000000

LOEWDIN ATOMIC CHARGES
----------------------
   0 C :    0.078687
   1 C :   -0.152533
   2 C :   -0.019863
   3 N :   -0.056220
   4 C :   -0.020248
   5 N :   -0.063949
   6 C :   -0.022183
   7 C :   -0.059540
   8 C :    0.018425
   9 C :   -0.033632
  10 C :   -0.135545
  11 C :    0.001434
  12 S :    0.448100
  13 C :   -0.276799
  14 C :   -0.066416
  15 Br:    0.129251
  16 C :    0.090547
  17 O :   -0.200308
  18 C :   -0.125131
  19 C :    0.046514
  20 C :   -0.202456
  21 S :    0.551836
  22 C :   -0.117559
  23 C :   -0.066328
  24 C :   -0.020969
  25 C :    0.022191
  26 C :   -0.079396
  27 C :    0.167714
  28 F :   -0.048817
  29 F :   -0.061896
  30 F :   -0.058738
  31 C :    0.067296
  32 O :   -0.082165
  33 C :    0.082218
  34 C :   -0.088619
  35 N :    0.032047
  36 C :   -0.098672
  37 S :    0.442208
  38 C :   -0.208663
  39 N :    0.273866
  40 O :   -0.211861
  41 O :   -0.230279
  42 C :    0.006317
  43 C :   -0.092919
  44 C :   -0.040918
  45 C :   -0.020009
  46 C :   -0.063486
  47 C :   -0.015484
  48 C :   -0.058894
  49 C :    0.044273
  50 N :    0.049931
  51 C :    0.099545
  52 C :   -0.127776
  53 C :    0.084521
  54 C :   -0.139444
  55 C :    0.075531
  56 C :   -0.181543
  57 C :   -0.018937
  58 N :   -0.077198
  59 C :    0.011804
  60 N :   -0.078934
  61 C :   -0.021356
  62 C :   -0.050132
  63 C :    0.079580
  64 O :   -0.155365
  65 C :    0.019660
  66 C :   -0.034538
  67 C :   -0.146340
  68 C :   -0.014432
  69 S :    0.430608
  70 C :   -0.273362
  71 C :   -0.070644
  72 Br:    0.134290
  73 H :    0.035927
  74 H :    0.041860
  75 H :    0.036918
  76 H :    0.048235
  77 H :    0.043313
  78 H :    0.017409
  79 H :    0.037699
  80 H :    0.018374
  81 H :    0.021641
  82 H :    0.089349
  83 H :    0.046710
  84 H :    0.015795
  85 H :    0.029192
  86 H :    0.024422
  87 H :    0.033558
  88 H :    0.029404
  89 H :    0.038707
  90 H :    0.028043
  91 H :    0.041102
  92 H :    0.089880
  93 H :    0.038737
  94 H :    0.032055
  95 H :    0.045255
  96 H :    0.040258
  97 H :    0.040062
  98 H :    0.038196

  Mayer bond orders larger than 0.100000
B(  0-C ,  1-C ) :   1.6121 B(  0-C ,  6-C ) :   1.0018 B(  0-C , 18-C ) :   1.0843
B(  1-C ,  2-C ) :   1.1433 B(  1-C ,  4-C ) :   1.1504 B(  2-C ,  3-N ) :   2.9725
B(  4-C ,  5-N ) :   2.9814 B(  6-C ,  7-C ) :   1.2589 B(  6-C , 11-C ) :   1.4303
B(  7-C ,  8-C ) :   1.4002 B(  7-C , 16-C ) :   0.9659 B(  8-C ,  9-C ) :   1.2518
B(  8-C , 73-H ) :   1.0231 B(  9-C , 10-C ) :   1.3092 B(  9-C , 14-C ) :   1.1714
B( 10-C , 11-C ) :   1.3112 B( 10-C , 12-S ) :   1.0968 B( 11-C , 74-H ) :   0.9794
B( 12-S , 13-C ) :   1.0920 B( 13-C , 14-C ) :   1.6060 B( 13-C , 15-Br) :   1.0143
B( 14-C , 75-H ) :   0.9960 B( 16-C , 17-O ) :   1.9916 B( 16-C , 18-C ) :   1.0291
B( 18-C , 19-C ) :   1.4426 B( 19-C , 20-C ) :   1.3617 B( 19-C , 76-H ) :   0.9356
B( 20-C , 21-S ) :   1.0663 B( 20-C , 24-C ) :   1.2138 B( 21-S , 22-C ) :   1.1589
B( 22-C , 23-C ) :   1.2277 B( 22-C , 35-N ) :   1.2133 B( 23-C , 24-C ) :   1.3039
B( 23-C , 34-C ) :   1.1340 B( 24-C , 25-C ) :   1.2057 B( 25-C , 26-C ) :   1.5751
B( 25-C , 77-H ) :   0.9849 B( 26-C , 27-C ) :   0.9260 B( 26-C , 31-C ) :   1.2293
B( 27-C , 28-F ) :   1.1640 B( 27-C , 29-F ) :   1.1664 B( 27-C , 30-F ) :   1.1728
B( 31-C , 32-O ) :   1.2251 B( 31-C , 34-C ) :   1.4770 B( 32-O , 33-C ) :   0.9506
B( 33-C , 78-H ) :   0.9678 B( 33-C , 79-H ) :   0.9775 B( 33-C , 80-H ) :   0.9680
B( 34-C , 81-H ) :   0.9743 B( 35-N , 36-C ) :   1.1523 B( 35-N , 82-H ) :   0.8856
B( 36-C , 37-S ) :   1.1325 B( 36-C , 43-C ) :   1.4078 B( 37-S , 38-C ) :   1.0832
B( 38-C , 39-N ) :   0.9698 B( 38-C , 42-C ) :   1.4841 B( 39-N , 40-O ) :   1.5364
B( 39-N , 41-O ) :   1.5087 B( 40-O , 41-O ) :   0.2606 B( 42-C , 43-C ) :   1.2327
B( 42-C , 83-H ) :   1.0026 B( 43-C , 44-C ) :   1.0358 B( 44-C , 45-C ) :   1.7840
B( 44-C , 84-H ) :   0.9622 B( 45-C , 46-C ) :   1.0867 B( 45-C , 85-H ) :   0.9601
B( 46-C , 47-C ) :   1.8301 B( 46-C , 86-H ) :   0.9517 B( 47-C , 48-C ) :   1.1032
B( 47-C , 49-C ) :   1.0122 B( 48-C , 87-H ) :   0.9382 B( 48-C , 88-H ) :   0.9412
B( 48-C , 89-H ) :   0.9136 B( 49-C , 50-N ) :   0.9802 B( 49-C , 90-H ) :   0.9195
B( 49-C , 91-H ) :   0.9186 B( 50-N , 51-C ) :   1.3669 B( 50-N , 92-H ) :   0.9256
B( 51-C , 52-C ) :   1.4730 B( 51-C , 93-H ) :   0.9592 B( 52-C , 53-C ) :   1.2959
B( 52-C , 94-H ) :   0.9500 B( 53-C , 54-C ) :   1.5053 B( 53-C , 95-H ) :   0.9383
B( 54-C , 55-C ) :   1.1121 B( 54-C , 63-C ) :   0.9646 B( 55-C , 56-C ) :   1.5377
B( 55-C , 61-C ) :   1.0099 B( 56-C , 57-C ) :   1.1480 B( 56-C , 59-C ) :   1.2169
B( 57-C , 58-N ) :   2.9267 B( 59-C , 60-N ) :   2.8520 B( 61-C , 62-C ) :   1.2807
B( 61-C , 68-C ) :   1.4162 B( 62-C , 63-C ) :   0.9111 B( 62-C , 65-C ) :   1.4348
B( 63-C , 64-O ) :   2.2627 B( 65-C , 66-C ) :   1.2401 B( 65-C , 96-H ) :   1.0164
B( 66-C , 67-C ) :   1.3170 B( 66-C , 71-C ) :   1.1646 B( 67-C , 68-C ) :   1.3230
B( 67-C , 69-S ) :   1.0829 B( 68-C , 97-H ) :   0.9821 B( 69-S , 70-C ) :   1.0883
B( 70-C , 71-C ) :   1.6171 B( 70-C , 72-Br) :   1.0171 B( 71-C , 98-H ) :   0.9999

-----------------------------------------------------------------------------
         ABSORPTION SPECTRUM VIA TRANSITION ELECTRIC DIPOLE MOMENTS
-----------------------------------------------------------------------------
State   Energy  Wavelength   fosc         T2         TX        TY        TZ
        (cm-1)    (nm)                  (au**2)     (au)      (au)      (au)
-----------------------------------------------------------------------------
   0   16513.3    605.6   0.864047519  17.22584  -1.04244   0.22704   4.01094
   1   21280.3    469.9   0.367028271   5.67803  -0.47681   0.41539   2.29742
   2   23307.3    429.1   0.006322960   0.08931  -0.04898   0.14266  -0.25799
   3   24816.6    403.0   0.112966403   1.49859   0.13579   0.78879  -0.92626
   4   25603.6    390.6   0.015883001   0.20422  -0.33034   0.28639   0.11437
   5   25656.9    389.8   0.013408079   0.17204  -0.34995  -0.10583   0.19591
   6   26416.0    378.6   0.362499175   4.51768   0.52976   2.01893  -0.40119
   7   26641.9    375.3   0.078863732   0.97451  -0.22784   0.09879   0.95543
   8   27797.5    359.7   0.053543392   0.63413  -0.65600  -0.25990  -0.36912
   9   28303.1    353.3   0.001706037   0.01984  -0.09278  -0.04807   0.09447
  10   28679.4    348.7   0.025677692   0.29476  -0.23323  -0.49019   0.00879
  11   29479.4    339.2   0.380520534   4.24947   0.15002   1.30226  -1.59094
  12   29692.0    336.8   0.412680776   4.57562   0.77514  -0.28027   1.97389
  13   30152.7    331.6   0.001917461   0.02094   0.07861   0.09502   0.07567
  14   30204.1    331.1   0.028548173   0.31116   0.13849  -0.12555  -0.52557
  15   30881.7    323.8   0.003819336   0.04072  -0.03135  -0.19731   0.02831
  16   30980.4    322.8   0.159740175   1.69747  -0.15553  -1.22003   0.42989
  17   31164.9    320.9   0.398813858   4.21289  -0.43714   1.48048  -1.35277
  18   31311.9    319.4   0.290253766   3.05172   1.14869   1.05952   0.78079
  19   31885.2    313.6   0.165075064   1.70439  -0.30762   0.95170  -0.83906
  20   31975.7    312.7   0.354719244   3.65208  -0.48377  -1.72589   0.66284
  21   32117.4    311.4   0.131394476   1.34683   0.04223   1.06685  -0.45483
  22   32346.5    309.2   0.192213406   1.95629  -0.82485  -0.81742  -0.77957
  23   33373.9    299.6   0.018605240   0.18353  -0.08178  -0.11671   0.40400
  24   33839.1    295.5   0.015490581   0.15070  -0.07729  -0.15266  -0.34846
  25   34009.9    294.0   0.165570835   1.60271  -0.41284  -0.51060   1.08239
  26   34152.3    292.8   0.158709111   1.52988  -0.17473   0.70812   0.99896
  27   34685.4    288.3   0.021696162   0.20593   0.26879  -0.18677   0.31432
  28   34903.3    286.5   0.250142664   2.35937   0.98233  -0.66075   0.97868
  29   35045.6    285.3   0.016155546   0.15176   0.19214   0.30524  -0.14722
  30   35513.4    281.6   0.013935776   0.12919  -0.06616   0.00110   0.35328
  31   35812.2    279.2   0.033772136   0.31046   0.00212   0.54964  -0.09138
  32   36026.4    277.6   0.035844649   0.32755   0.25554   0.37165   0.35232
  33   36924.8    270.8   0.006874454   0.06129  -0.11977  -0.20804  -0.06057
  34   37393.3    267.4   0.147531629   1.29888   0.37221   1.05257  -0.22898
  35   37417.8    267.3   0.001074061   0.00945  -0.00797  -0.09149  -0.03189
  36   37549.5    266.3   0.009467711   0.08301   0.14307   0.09780  -0.23016
  37   37731.8    265.0   0.250688775   2.18727  -0.29323   0.27860   1.42256
  38   38391.3    260.5   0.001985767   0.01703   0.07643   0.02319  -0.10319
  39   39019.0    256.3   0.031965332   0.26970  -0.01515   0.03910  -0.51763
  40   39758.0    251.5   0.034777115   0.28797  -0.04197  -0.52591   0.09813
  41   39947.9    250.3   0.027693432   0.22822   0.09807   0.44583   0.14085
  42   39977.4    250.1   0.217767094   1.79330  -0.36889  -0.53494  -1.17092
  43   40131.7    249.2   0.113650700   0.93231   0.26350   0.75210   0.54518
  44   40233.0    248.6   0.059812581   0.48942  -0.16055  -0.05075  -0.67902
  45   40302.9    248.1   0.044717969   0.36528   0.31633  -0.17139  -0.48563

FINAL SINGLE POINT ENERGY     -9792.336960014614

DIPOLE MOMENT
-------------
                                X             Y             Z
Electronic contribution:     15.96550      31.31136    -175.07757
Nuclear contribution   :    -16.39896     -30.32362     177.21309
                        -----------------------------------------
Total Dipole Moment    :     -0.43347       0.98774       2.13552
                        -----------------------------------------
Magnitude (a.u.)       :      2.39248
Magnitude (Debye)      :      6.08121

Rotational constants in cm-1:     0.000917     0.000328     0.000295
Rotational constants in MHz :    27.478808     9.823647     8.848394

                             ****ORCA TERMINATED NORMALLY****
TOTAL RUN TIME: 0 days 0 hours 11 minutes 2 seconds 703 msec
