                         Program Version 4.2.0 -  RELEASE  -
|  1> # ORCA input file
|  2> # SCF done       -149.914909241384          0.000691711228
|  3> ! CAM-B3LYP def2-SVP def2/J RIJCOSX Grid4 TightSCF
|  4> %maxcore 5000
|  5> %tddft
|  6>     Mode sTDDFT
|  7>     Ethresh 5.0
|  8>     maxcore 5000
|  9> end
| 10>
| 11> %pal
| 12>   nprocs 6
| 13>   end
| 14> * xyz 0 1
| 15>    C        0.33172         5.95590        -5.15621
| 16>    C       -0.60119         6.93170        -5.48139
| 17>    C       -1.54037         7.37216        -4.55898
| 18>    C       -1.56370         6.85417        -3.27164
| 19>    C       -0.63340         5.88808        -2.93938
| 20>    C        0.31170         5.42720        -3.87607
| 21>    C        1.11201         4.37525        -3.25463
| 22>    C        1.77703         3.38108        -3.91947
| 23>    C        1.95952         3.35569        -5.31700
| 24>    N        2.14823         3.30065        -6.44759
| 25>    C        2.26244         2.22166        -3.27746
| 26>    N        2.61496         1.24375        -2.79097
| 27>    C        0.81129         4.39296        -1.83719
| 28>    C       -0.43105         5.19819        -1.64952
| 29>    O       -1.08490         5.29250        -0.63779
| 30>    C        1.48458         3.93196        -0.75239
| 31>    C        2.83913         3.52958        -0.63774
| 32>    C        3.37055         2.79453         0.40473
| 33>    C        4.74495         2.61464         0.27140
| 34>    C        5.29309         3.24459        -0.85531
| 35>    S        4.08038         4.05369        -1.77155
| 36>    C        6.67173         3.08721        -0.97792
| 37>    C        7.18722         2.33227         0.05662
| 38>    S        5.96145         1.80874         1.19323
| 39>    C        8.55268         1.98910         0.24400
| 40>    C        9.13816         1.29198         1.28192
| 41>    F        8.44434         0.80347         2.31412
| 42>    C       10.52859         1.14976         1.15752
| 43>    F       11.27999         0.51006         2.05847
| 44>    C       11.04924         1.72744         0.01695
| 45>    S        9.76963         2.46077        -0.90662
| 46>    C       12.39827         1.77978        -0.42432
| 47>    C       12.84241         2.31438        -1.61699
| 48>    C       14.22706         2.21889        -1.73328
| 49>    C       14.85214         1.61278        -0.63400
| 50>    S       13.69941         1.14880         0.56453
| 51>    C       16.23546         1.51036        -0.75905
| 52>    C       16.69363         2.07000        -1.93665
| 53>    S       15.37461         2.67860        -2.93128
| 54>    C       18.04083         2.06808        -2.37840
| 55>    C       18.62594         2.80106        -3.35967
| 56>    C       18.19833         3.98172        -4.08373
| 57>    C       17.46714         5.01717        -3.56496
| 58>    C       17.15927         6.19300        -4.27768
| 59>    N       16.87351         7.16067        -4.82448
| 60>    C       17.03250         5.05135        -2.22327
| 61>    N       16.71609         5.12995        -1.12272
| 62>    C       18.93764         4.00705        -5.33865
| 63>    C       19.97561         3.04042        -5.27124
| 64>    C       19.88782         2.31541        -3.99043
| 65>    O       20.63270         1.46772        -3.55678
| 66>    C       20.87545         2.85871        -6.29413
| 67>    C       20.73646         3.65369        -7.43591
| 68>    C       19.68794         4.60402        -7.49731
| 69>    C       18.78386         4.79842        -6.45948
| 70>    S       19.70271         5.45933        -9.00641
| 71>    C       21.08557         4.56186        -9.53001
| 72>    C       21.52130         3.66017        -8.62359
| 73>    H        1.05710         5.63246        -5.88558
| 74>    H       -0.59426         7.35406        -6.47496
| 75>    H       -2.25742         8.12614        -4.84658
| 76>    H       -2.28401         7.18640        -2.54008
| 77>    H        0.92842         3.95288         0.18047
| 78>    H        2.77333         2.38894         1.20038
| 79>    H        7.27567         3.49277        -1.76861
| 80>    H       12.18595         2.74823        -2.34855
| 81>    H       16.88775         1.08020        -0.02165
| 82>    H       18.67504         1.31178        -1.92504
| 83>    H       21.66240         2.12482        -6.21555
| 84>    H       17.99612         5.52865        -6.54791
| 85>    H       21.49249         4.76823       -10.50082
| 86>    H       22.36671         3.01390        -8.77544
| 87> *
| 88>
| 89>                          ****END OF INPUT****

CARTESIAN COORDINATES (ANGSTROEM)
---------------------------------
  C      0.331720    5.955900   -5.156210
  C     -0.601190    6.931700   -5.481390
  C     -1.540370    7.372160   -4.558980
  C     -1.563700    6.854170   -3.271640
  C     -0.633400    5.888080   -2.939380
  C      0.311700    5.427200   -3.876070
  C      1.112010    4.375250   -3.254630
  C      1.777030    3.381080   -3.919470
  C      1.959520    3.355690   -5.317000
  N      2.148230    3.300650   -6.447590
  C      2.262440    2.221660   -3.277460
  N      2.614960    1.243750   -2.790970
  C      0.811290    4.392960   -1.837190
  C     -0.431050    5.198190   -1.649520
  O     -1.084900    5.292500   -0.637790
  C      1.484580    3.931960   -0.752390
  C      2.839130    3.529580   -0.637740
  C      3.370550    2.794530    0.404730
  C      4.744950    2.614640    0.271400
  C      5.293090    3.244590   -0.855310
  S      4.080380    4.053690   -1.771550
  C      6.671730    3.087210   -0.977920
  C      7.187220    2.332270    0.056620
  S      5.961450    1.808740    1.193230
  C      8.552680    1.989100    0.244000
  C      9.138160    1.291980    1.281920
  F      8.444340    0.803470    2.314120
  C     10.528590    1.149760    1.157520
  F     11.279990    0.510060    2.058470
  C     11.049240    1.727440    0.016950
  S      9.769630    2.460770   -0.906620
  C     12.398270    1.779780   -0.424320
  C     12.842410    2.314380   -1.616990
  C     14.227060    2.218890   -1.733280
  C     14.852140    1.612780   -0.634000
  S     13.699410    1.148800    0.564530
  C     16.235460    1.510360   -0.759050
  C     16.693630    2.070000   -1.936650
  S     15.374610    2.678600   -2.931280
  C     18.040830    2.068080   -2.378400
  C     18.625940    2.801060   -3.359670
  C     18.198330    3.981720   -4.083730
  C     17.467140    5.017170   -3.564960
  C     17.159270    6.193000   -4.277680
  N     16.873510    7.160670   -4.824480
  C     17.032500    5.051350   -2.223270
  N     16.716090    5.129950   -1.122720
  C     18.937640    4.007050   -5.338650
  C     19.975610    3.040420   -5.271240
  C     19.887820    2.315410   -3.990430
  O     20.632700    1.467720   -3.556780
  C     20.875450    2.858710   -6.294130
  C     20.736460    3.653690   -7.435910
  C     19.687940    4.604020   -7.497310
  C     18.783860    4.798420   -6.459480
  S     19.702710    5.459330   -9.006410
  C     21.085570    4.561860   -9.530010
  C     21.521300    3.660170   -8.623590
  H      1.057100    5.632460   -5.885580
  H     -0.594260    7.354060   -6.474960
  H     -2.257420    8.126140   -4.846580
  H     -2.284010    7.186400   -2.540080
  H      0.928420    3.952880    0.180470
  H      2.773330    2.388940    1.200380
  H      7.275670    3.492770   -1.768610
  H     12.185950    2.748230   -2.348550
  H     16.887750    1.080200   -0.021650
  H     18.675040    1.311780   -1.925040
  H     21.662400    2.124820   -6.215550
  H     17.996120    5.528650   -6.547910
  H     21.492490    4.768230  -10.500820
  H     22.366710    3.013900   -8.775440

 Total Charge           Charge          ....    0
 Multiplicity           Mult            ....    1
 Number of Electrons    NEL             ....  436
 Basis Dimension        Dim             ....  906

ORBITAL ENERGIES
----------------

  NO   OCC          E(Eh)            E(eV)
   0   2.0000     -88.988240     -2421.4931
   1   2.0000     -88.974794     -2421.1272
   2   2.0000     -88.974370     -2421.1157
   3   2.0000     -88.971494     -2421.0374
   4   2.0000     -88.970475     -2421.0097
   5   2.0000     -88.966265     -2420.8952
   6   2.0000     -24.814178      -675.2281
   7   2.0000     -24.813939      -675.2216
   8   2.0000     -19.216038      -522.8950
   9   2.0000     -19.213024      -522.8129
  10   2.0000     -14.416157      -392.2836
  11   2.0000     -14.414869      -392.2485
  12   2.0000     -14.412318      -392.1791
  13   2.0000     -14.410216      -392.1219
  14   2.0000     -10.386206      -282.6230
  15   2.0000     -10.385794      -282.6118
  16   2.0000     -10.367066      -282.1022
  17   2.0000     -10.364863      -282.0423
  18   2.0000     -10.344720      -281.4942
  19   2.0000     -10.341934      -281.4183
  20   2.0000     -10.341835      -281.4156
  21   2.0000     -10.340313      -281.3742
  22   2.0000     -10.337293      -281.2920
  23   2.0000     -10.337149      -281.2881
  24   2.0000     -10.336129      -281.2604
  25   2.0000     -10.335709      -281.2489
  26   2.0000     -10.321890      -280.8729
  27   2.0000     -10.321483      -280.8618
  28   2.0000     -10.321192      -280.8539
  29   2.0000     -10.320551      -280.8365
  30   2.0000     -10.320148      -280.8255
  31   2.0000     -10.319350      -280.8038
  32   2.0000     -10.318514      -280.7810
  33   2.0000     -10.318380      -280.7774
  34   2.0000     -10.317215      -280.7457
  35   2.0000     -10.314486      -280.6714
  36   2.0000     -10.313632      -280.6482
  37   2.0000     -10.313420      -280.6424
  38   2.0000     -10.312929      -280.6291
  39   2.0000     -10.312610      -280.6204
  40   2.0000     -10.307492      -280.4811
  41   2.0000     -10.306696      -280.4594
  42   2.0000     -10.306602      -280.4569
  43   2.0000     -10.306017      -280.4410
  44   2.0000     -10.303119      -280.3621
  45   2.0000     -10.301381      -280.3148
  46   2.0000     -10.301157      -280.3087
  47   2.0000     -10.300943      -280.3029
  48   2.0000     -10.298860      -280.2462
  49   2.0000     -10.297395      -280.2064
  50   2.0000     -10.296241      -280.1750
  51   2.0000     -10.295972      -280.1676
  52   2.0000     -10.295819      -280.1635
  53   2.0000     -10.295475      -280.1541
  54   2.0000     -10.294763      -280.1347
  55   2.0000     -10.292981      -280.0863
  56   2.0000     -10.290610      -280.0217
  57   2.0000     -10.288749      -279.9711
  58   2.0000      -8.083298      -219.9577
  59   2.0000      -8.069866      -219.5922
  60   2.0000      -8.069495      -219.5821
  61   2.0000      -8.066407      -219.4981
  62   2.0000      -8.065471      -219.4726
  63   2.0000      -8.062593      -219.3943
  64   2.0000      -6.052864      -164.7068
  65   2.0000      -6.049035      -164.6026
  66   2.0000      -6.044504      -164.4793
  67   2.0000      -6.039496      -164.3430
  68   2.0000      -6.039144      -164.3334
  69   2.0000      -6.035967      -164.2470
  70   2.0000      -6.035352      -164.2303
  71   2.0000      -6.035049      -164.2220
  72   2.0000      -6.034970      -164.2199
  73   2.0000      -6.032113      -164.1421
  74   2.0000      -6.031966      -164.1381
  75   2.0000      -6.031241      -164.1184
  76   2.0000      -6.031003      -164.1119
  77   2.0000      -6.030845      -164.1076
  78   2.0000      -6.027867      -164.0266
  79   2.0000      -6.027799      -164.0247
  80   2.0000      -6.026908      -164.0005
  81   2.0000      -6.024239      -163.9279
  82   2.0000      -1.333578       -36.2885
  83   2.0000      -1.322227       -35.9796
  84   2.0000      -1.131342       -30.7854
  85   2.0000      -1.128579       -30.7102
  86   2.0000      -1.031728       -28.0747
  87   2.0000      -1.025602       -27.9080
  88   2.0000      -1.019751       -27.7488
  89   2.0000      -1.017726       -27.6937
  90   2.0000      -1.012646       -27.5555
  91   2.0000      -1.006488       -27.3879
  92   2.0000      -0.996325       -27.1114
  93   2.0000      -0.992474       -27.0066
  94   2.0000      -0.991457       -26.9789
  95   2.0000      -0.984097       -26.7786
  96   2.0000      -0.969187       -26.3729
  97   2.0000      -0.960826       -26.1454
  98   2.0000      -0.946754       -25.7625
  99   2.0000      -0.928853       -25.2754
 100   2.0000      -0.905300       -24.6345
 101   2.0000      -0.902130       -24.5482
 102   2.0000      -0.891227       -24.2515
 103   2.0000      -0.881605       -23.9897
 104   2.0000      -0.881122       -23.9765
 105   2.0000      -0.878367       -23.9016
 106   2.0000      -0.875584       -23.8259
 107   2.0000      -0.861092       -23.4315
 108   2.0000      -0.859693       -23.3934
 109   2.0000      -0.855501       -23.2794
 110   2.0000      -0.824166       -22.4267
 111   2.0000      -0.822421       -22.3792
 112   2.0000      -0.817798       -22.2534
 113   2.0000      -0.814918       -22.1750
 114   2.0000      -0.805365       -21.9151
 115   2.0000      -0.785421       -21.3724
 116   2.0000      -0.770475       -20.9657
 117   2.0000      -0.762813       -20.7572
 118   2.0000      -0.753990       -20.5171
 119   2.0000      -0.735350       -20.0099
 120   2.0000      -0.722080       -19.6488
 121   2.0000      -0.708518       -19.2798
 122   2.0000      -0.703047       -19.1309
 123   2.0000      -0.694437       -18.8966
 124   2.0000      -0.687098       -18.6969
 125   2.0000      -0.682319       -18.5668
 126   2.0000      -0.679551       -18.4915
 127   2.0000      -0.676030       -18.3957
 128   2.0000      -0.662119       -18.0172
 129   2.0000      -0.661336       -17.9959
 130   2.0000      -0.657978       -17.9045
 131   2.0000      -0.652170       -17.7464
 132   2.0000      -0.650034       -17.6883
 133   2.0000      -0.641254       -17.4494
 134   2.0000      -0.630000       -17.1432
 135   2.0000      -0.624038       -16.9809
 136   2.0000      -0.618793       -16.8382
 137   2.0000      -0.611383       -16.6366
 138   2.0000      -0.606354       -16.4997
 139   2.0000      -0.598981       -16.2991
 140   2.0000      -0.596638       -16.2353
 141   2.0000      -0.591660       -16.0999
 142   2.0000      -0.589763       -16.0483
 143   2.0000      -0.587606       -15.9896
 144   2.0000      -0.581382       -15.8202
 145   2.0000      -0.576360       -15.6836
 146   2.0000      -0.568783       -15.4774
 147   2.0000      -0.562556       -15.3079
 148   2.0000      -0.552257       -15.0277
 149   2.0000      -0.548821       -14.9342
 150   2.0000      -0.544697       -14.8219
 151   2.0000      -0.538387       -14.6503
 152   2.0000      -0.536210       -14.5910
 153   2.0000      -0.534513       -14.5448
 154   2.0000      -0.531831       -14.4719
 155   2.0000      -0.530678       -14.4405
 156   2.0000      -0.526932       -14.3385
 157   2.0000      -0.524893       -14.2831
 158   2.0000      -0.522876       -14.2282
 159   2.0000      -0.522324       -14.2132
 160   2.0000      -0.519632       -14.1399
 161   2.0000      -0.512736       -13.9522
 162   2.0000      -0.509540       -13.8653
 163   2.0000      -0.504951       -13.7404
 164   2.0000      -0.501213       -13.6387
 165   2.0000      -0.500217       -13.6116
 166   2.0000      -0.496867       -13.5204
 167   2.0000      -0.495420       -13.4811
 168   2.0000      -0.492616       -13.4048
 169   2.0000      -0.490448       -13.3458
 170   2.0000      -0.485524       -13.2118
 171   2.0000      -0.483213       -13.1489
 172   2.0000      -0.481444       -13.1008
 173   2.0000      -0.478360       -13.0168
 174   2.0000      -0.473727       -12.8908
 175   2.0000      -0.466989       -12.7074
 176   2.0000      -0.465209       -12.6590
 177   2.0000      -0.461059       -12.5461
 178   2.0000      -0.458271       -12.4702
 179   2.0000      -0.453802       -12.3486
 180   2.0000      -0.452716       -12.3190
 181   2.0000      -0.450975       -12.2717
 182   2.0000      -0.447758       -12.1841
 183   2.0000      -0.446543       -12.1511
 184   2.0000      -0.445937       -12.1346
 185   2.0000      -0.442770       -12.0484
 186   2.0000      -0.440744       -11.9933
 187   2.0000      -0.439459       -11.9583
 188   2.0000      -0.436657       -11.8820
 189   2.0000      -0.431637       -11.7454
 190   2.0000      -0.431296       -11.7362
 191   2.0000      -0.427404       -11.6303
 192   2.0000      -0.425892       -11.5891
 193   2.0000      -0.421725       -11.4757
 194   2.0000      -0.420447       -11.4409
 195   2.0000      -0.419685       -11.4202
 196   2.0000      -0.418862       -11.3978
 197   2.0000      -0.412473       -11.2239
 198   2.0000      -0.408176       -11.1070
 199   2.0000      -0.404464       -11.0060
 200   2.0000      -0.395451       -10.7608
 201   2.0000      -0.379402       -10.3241
 202   2.0000      -0.377583       -10.2746
 203   2.0000      -0.377259       -10.2657
 204   2.0000      -0.369635       -10.0583
 205   2.0000      -0.353559        -9.6208
 206   2.0000      -0.344104        -9.3635
 207   2.0000      -0.339025        -9.2253
 208   2.0000      -0.337997        -9.1974
 209   2.0000      -0.335670        -9.1341
 210   2.0000      -0.325678        -8.8621
 211   2.0000      -0.314032        -8.5452
 212   2.0000      -0.312271        -8.4973
 213   2.0000      -0.307179        -8.3588
 214   2.0000      -0.306790        -8.3482
 215   2.0000      -0.294581        -8.0160
 216   2.0000      -0.282825        -7.6961
 217   2.0000      -0.251956        -6.8561
 218   0.0000      -0.099882        -2.7179
 219   0.0000      -0.088458        -2.4071
 220   0.0000      -0.063590        -1.7304
 221   0.0000      -0.056146        -1.5278
 222   0.0000      -0.041607        -1.1322

MULLIKEN ATOMIC CHARGES
-----------------------
   0 C :   -0.026874
   1 C :    0.043582
   2 C :    0.041185
   3 C :   -0.025795
   4 C :   -0.003113
   5 C :    0.015930
   6 C :    0.238517
   7 C :   -0.309390
   8 C :   -0.177536
   9 N :    0.155557
  10 C :   -0.208816
  11 N :    0.176601
  12 C :   -0.132030
  13 C :    0.139148
  14 O :   -0.141550
  15 C :    0.049257
  16 C :   -0.102047
  17 C :    0.013542
  18 C :   -0.013166
  19 C :    0.006056
  20 S :    0.158573
  21 C :   -0.065433
  22 C :   -0.035685
  23 S :    0.181814
  24 C :   -0.121857
  25 C :    0.191370
  26 F :   -0.166027
  27 C :    0.196479
  28 F :   -0.165495
  29 C :   -0.127284
  30 S :    0.161056
  31 C :   -0.036170
  32 C :   -0.061604
  33 C :    0.004969
  34 C :   -0.016359
  35 S :    0.181419
  36 C :    0.016571
  37 C :   -0.099683
  38 S :    0.157066
  39 C :    0.052108
  40 C :   -0.130115
  41 C :    0.234598
  42 C :   -0.314969
  43 C :   -0.178139
  44 N :    0.153385
  45 C :   -0.209579
  46 N :    0.176112
  47 C :    0.010664
  48 C :    0.001370
  49 C :    0.138309
  50 O :   -0.145568
  51 C :   -0.070059
  52 C :    0.107869
  53 C :   -0.089667
  54 C :   -0.026823
  55 S :    0.138545
  56 C :   -0.049425
  57 C :    0.026441
  58 H :    0.005366
  59 H :    0.001881
  60 H :    0.001781
  61 H :   -0.000772
  62 H :    0.026967
  63 H :    0.001881
  64 H :   -0.001518
  65 H :   -0.001737
  66 H :    0.001343
  67 H :    0.026477
  68 H :   -0.009131
  69 H :   -0.001994
  70 H :    0.037853
  71 H :   -0.006231
Sum of atomic charges:   -0.0000000

LOEWDIN ATOMIC CHARGES
----------------------
   0 C :   -0.001696
   1 C :    0.002763
   2 C :   -0.003433
   3 C :    0.014362
   4 C :   -0.045725
   5 C :   -0.010159
   6 C :    0.060324
   7 C :   -0.137213
   8 C :   -0.019944
   9 N :   -0.049112
  10 C :   -0.035858
  11 N :   -0.045740
  12 C :   -0.097926
  13 C :    0.084386
  14 O :   -0.139742
  15 C :    0.049988
  16 C :   -0.172761
  17 C :   -0.018700
  18 C :   -0.204143
  19 C :   -0.177120
  20 S :    0.451752
  21 C :   -0.071671
  22 C :   -0.164463
  23 S :    0.449731
  24 C :   -0.210201
  25 C :    0.023979
  26 F :   -0.042978
  27 C :    0.023754
  28 F :   -0.043031
  29 C :   -0.209402
  30 S :    0.466751
  31 C :   -0.165243
  32 C :   -0.071136
  33 C :   -0.177719
  34 C :   -0.204184
  35 S :    0.449023
  36 C :   -0.019269
  37 C :   -0.171780
  38 S :    0.453075
  39 C :    0.049038
  40 C :   -0.096163
  41 C :    0.060398
  42 C :   -0.141809
  43 C :   -0.020001
  44 N :   -0.051774
  45 C :   -0.036831
  46 N :   -0.047982
  47 C :   -0.018340
  48 C :   -0.055318
  49 C :    0.084076
  50 O :   -0.144414
  51 C :    0.023937
  52 C :   -0.036223
  53 C :   -0.144611
  54 C :   -0.012243
  55 S :    0.428623
  56 C :   -0.150022
  57 C :   -0.057329
  58 H :    0.039801
  59 H :    0.036392
  60 H :    0.034891
  61 H :    0.040384
  62 H :    0.052193
  63 H :    0.041090
  64 H :    0.031759
  65 H :    0.031685
  66 H :    0.040933
  67 H :    0.052059
  68 H :    0.041018
  69 H :    0.040608
  70 H :    0.029214
  71 H :    0.035424

  Mayer bond orders larger than 0.100000
B(  0-C ,  1-C ) :   1.3701 B(  0-C ,  5-C ) :   1.3841 B(  0-C , 58-H ) :   0.9870
B(  1-C ,  2-C ) :   1.3815 B(  1-C , 59-H ) :   0.9854 B(  2-C ,  3-C ) :   1.3516
B(  2-C , 60-H ) :   0.9908 B(  3-C ,  4-C ) :   1.3937 B(  3-C , 61-H ) :   1.0056
B(  4-C ,  5-C ) :   1.3315 B(  4-C , 13-C ) :   0.9259 B(  5-C ,  6-C ) :   1.0056
B(  6-C ,  7-C ) :   1.6694 B(  6-C , 12-C ) :   1.0293 B(  7-C ,  8-C ) :   1.1319
B(  7-C , 10-C ) :   1.1464 B(  8-C ,  9-N ) :   2.9993 B( 10-C , 11-N ) :   3.0328
B( 12-C , 13-C ) :   0.9380 B( 12-C , 15-C ) :   1.6578 B( 13-C , 14-O ) :   2.2671
B( 15-C , 16-C ) :   1.1414 B( 15-C , 62-H ) :   0.9469 B( 16-C , 17-C ) :   1.4603
B( 16-C , 20-S ) :   1.0860 B( 17-C , 18-C ) :   1.2736 B( 17-C , 63-H ) :   1.0053
B( 18-C , 19-C ) :   1.3937 B( 18-C , 23-S ) :   1.0497 B( 19-C , 20-S ) :   1.0901
B( 19-C , 21-C ) :   1.2784 B( 21-C , 22-C ) :   1.4915 B( 21-C , 64-H ) :   0.9972
B( 22-C , 23-S ) :   1.1167 B( 22-C , 24-C ) :   1.1754 B( 24-C , 25-C ) :   1.4600
B( 24-C , 29-C ) :   0.1222 B( 24-C , 30-S ) :   1.1036 B( 25-C , 26-F ) :   1.1558
B( 25-C , 27-C ) :   1.2088 B( 27-C , 28-F ) :   1.1572 B( 27-C , 29-C ) :   1.4600
B( 29-C , 30-S ) :   1.1057 B( 29-C , 31-C ) :   1.1762 B( 31-C , 32-C ) :   1.4898
B( 31-C , 35-S ) :   1.1170 B( 32-C , 33-C ) :   1.2780 B( 32-C , 65-H ) :   0.9975
B( 33-C , 34-C ) :   1.3967 B( 33-C , 38-S ) :   1.0891 B( 34-C , 35-S ) :   1.0489
B( 34-C , 36-C ) :   1.2739 B( 36-C , 37-C ) :   1.4594 B( 36-C , 66-H ) :   1.0054
B( 37-C , 38-S ) :   1.0878 B( 37-C , 39-C ) :   1.1420 B( 39-C , 40-C ) :   1.6578
B( 39-C , 67-H ) :   0.9466 B( 40-C , 41-C ) :   1.0295 B( 40-C , 49-C ) :   0.9358
B( 41-C , 42-C ) :   1.6613 B( 41-C , 47-C ) :   1.0183 B( 42-C , 43-C ) :   1.1328
B( 42-C , 45-C ) :   1.1503 B( 43-C , 44-N ) :   2.9946 B( 45-C , 46-N ) :   3.0318
B( 47-C , 48-C ) :   1.2681 B( 47-C , 54-C ) :   1.4173 B( 48-C , 49-C ) :   0.9251
B( 48-C , 51-C ) :   1.4259 B( 49-C , 50-O ) :   2.2667 B( 51-C , 52-C ) :   1.2539
B( 51-C , 68-H ) :   1.0164 B( 52-C , 53-C ) :   1.3025 B( 52-C , 57-C ) :   1.1723
B( 53-C , 54-C ) :   1.3192 B( 53-C , 55-S ) :   1.0963 B( 54-C , 69-H ) :   0.9877
B( 55-S , 56-C ) :   1.1259 B( 56-C , 57-C ) :   1.6301 B( 56-C , 70-H ) :   0.9685
B( 57-C , 71-H ) :   0.9998

-----------------------------------------------------------------------------
         ABSORPTION SPECTRUM VIA TRANSITION ELECTRIC DIPOLE MOMENTS
-----------------------------------------------------------------------------
State   Energy  Wavelength   fosc         T2         TX        TY        TZ
        (cm-1)    (nm)                  (au**2)     (au)      (au)      (au)
-----------------------------------------------------------------------------
   0   17988.5    555.9   1.618325038  29.61742  -5.42866  -0.10235   0.36965
   1   21021.6    475.7   0.466508372   7.30584  -0.17839   1.35395  -2.33256
   2   26251.1    380.9   0.434143647   5.44454   2.19825  -0.71647  -0.31452
   3   26664.7    375.0   0.104148106   1.28585   0.90685  -0.64879  -0.20627
   4   27252.0    366.9   0.200510628   2.42222   0.64639  -0.05552  -1.41468
   5   27858.6    359.0   0.014416505   0.17036  -0.19747   0.35928  -0.04783
   6   28030.8    356.7   0.092903624   1.09112  -0.38799   0.71364  -0.65673
   7   28508.4    350.8   0.212824659   2.45768  -0.57240  -0.27258   1.43378
   8   29099.0    343.7   0.078623456   0.88951   0.57662  -0.69654  -0.26804
   9   29997.6    333.4   0.147500071   1.61876  -0.11288  -0.79798   0.98450
  10   30551.3    327.3   0.068212116   0.73503   0.66229  -0.14516  -0.52473
  11   30766.6    325.0   0.063726189   0.68189  -0.82396  -0.04921   0.02349
  12   31522.8    317.2   0.038556263   0.40267   0.59487   0.04282   0.21672
  13   32301.6    309.6   0.105468667   1.07492  -0.60604   0.78677  -0.29771
  14   32980.1    303.2   0.129756577   1.29525  -0.79582   0.77543   0.24624
  15   33435.6    299.1   0.246336216   2.42547  -0.91637   0.36384   1.20555
  16   34290.8    291.6   0.323511541   3.10590   0.88566  -0.22426  -1.50706
  17   34938.9    286.2   0.017932742   0.16897   0.03380  -0.09389   0.39877
  18   35011.9    285.6   0.019723238   0.18545   0.41744  -0.10568  -0.00557
  19   35314.7    283.2   0.050317545   0.46907  -0.44841   0.45292   0.25072
  20   35646.2    280.5   0.023862384   0.22038  -0.26486   0.38377  -0.05433
  21   36086.3    277.1   0.025500751   0.23264  -0.18679   0.41759  -0.15287
  22   36939.6    270.7   0.037879052   0.33758  -0.23201  -0.04795   0.53053
  23   37207.0    268.8   0.009294570   0.08224   0.06578  -0.13144   0.24625
  24   37667.7    265.5   0.144160944   1.25995   0.73585  -0.12146  -0.83888
  25   37841.8    264.3   0.124499983   1.08311   0.76727  -0.69001   0.13522
  26   38129.9    262.3   0.025274877   0.21822  -0.33542   0.06289   0.31900
  27   38654.2    258.7   0.056188988   0.47855   0.10713  -0.17704   0.66010
  28   38804.1    257.7   0.320440046   2.71860  -1.04277   1.23540   0.32407
  29   39049.5    256.1   0.281306023   2.37159   0.89265  -1.20880   0.33702
  30   39359.7    254.1   0.174642867   1.46075   0.70152  -0.98390   0.02383

FINAL SINGLE POINT ENERGY     -4639.759806795547

DIPOLE MOMENT
-------------
                                X             Y             Z
Electronic contribution:      6.73471     -15.59086      26.60400
Nuclear contribution   :     -6.35868      15.90106     -27.66038
                        -----------------------------------------
Total Dipole Moment    :      0.37603       0.31020      -1.05638
                        -----------------------------------------
Magnitude (a.u.)       :      1.16343
Magnitude (Debye)      :      2.95720

Rotational constants in cm-1:     0.001902     0.000337     0.000296
Rotational constants in MHz :    57.013024    10.108792     8.888572

                             ****ORCA TERMINATED NORMALLY****
TOTAL RUN TIME: 0 days 0 hours 6 minutes 9 seconds 25 msec
