                         Program Version 4.2.0 -  RELEASE  -
|  1> # ORCA input file
|  2> # SCF done       -182.520142256973          0.000774592796
|  3> ! CAM-B3LYP def2-SVP def2/J RIJCOSX Grid4 TightSCF
|  4> %maxcore 5000
|  5> %tddft
|  6>     Mode sTDDFT
|  7>     Ethresh 5.0
|  8>     maxcore 5000
|  9> end
| 10>
| 11> %pal
| 12>   nprocs 6
| 13>   end
| 14> * xyz 0 1
| 15>    C        3.19774         1.24688         3.44350
| 16>    C        2.71586         2.55369         3.98209
| 17>    O        1.56090         2.90725         4.06193
| 18>    C        3.93355         3.24881         4.43494
| 19>    C        5.05919         2.50999         4.06467
| 20>    C        4.63504         1.35169         3.28673
| 21>    C        5.39379         0.68856         2.36134
| 22>    C        4.84112        -0.19672         1.41064
| 23>    N        4.42041        -0.87592         0.58689
| 24>    C        6.77892         0.88340         2.18684
| 25>    N        7.90859         0.98864         2.01401
| 26>    C        6.34522         2.94163         4.41249
| 27>    C        6.47784         4.11011         5.11629
| 28>    C        5.36253         4.89326         5.48779
| 29>    C        4.04823         4.45985         5.14543
| 30>    C        2.93875         5.24474         5.51964
| 31>    C        3.12426         6.41535         6.20234
| 32>    C        4.41637         6.84772         6.54127
| 33>    C        5.51092         6.10423         6.19390
| 34>    C        2.33335         0.20913         3.32667
| 35>    C        2.60447        -1.18059         3.23599
| 36>    C        1.70400        -2.16014         2.87352
| 37>    C        2.23805        -3.44747         2.93718
| 38>   Cl        1.33858        -4.84304         2.51559
| 39>    C        3.55518        -3.49670         3.37535
| 40>    S        4.12252        -1.89161         3.70963
| 41>    C        4.39048        -4.63015         3.54368
| 42>    C        5.73389        -4.66468         3.88573
| 43>   Cl        6.66104        -3.25697         4.19825
| 44>    C        6.27949        -5.95192         3.94669
| 45>    C        5.36255        -6.93535         3.66611
| 46>    S        3.80451        -6.25035         3.30828
| 47>    C        5.55855        -8.35775         3.64836
| 48>    C        4.48161        -9.25865         3.61034
| 49>    N        4.63627       -10.55976         3.60737
| 50>    C        5.88886       -11.02658         3.64161
| 51>    N        6.98521       -10.26427         3.66322
| 52>    C        6.82622        -8.96305         3.66445
| 53>    C        6.07289       -12.44952         3.65053
| 54>    C        5.10077       -13.42019         3.68898
| 55>    C        5.64003       -14.70758         3.68767
| 56>   Cl        4.66581       -16.11585         3.74060
| 57>    C        7.02991       -14.74197         3.64510
| 58>    S        7.66352       -13.12091         3.61406
| 59>    C        7.86934       -15.88530         3.63410
| 60>    C        9.25747       -15.94052         3.61263
| 61>   Cl       10.24544       -14.54354         3.59382
| 62>    C        9.77959       -17.23495         3.59556
| 63>    C        8.80752       -18.21105         3.64039
| 64>    S        7.21961       -17.49473         3.64731
| 65>    C        9.01655       -19.61418         3.57882
| 66>    C        8.16414       -20.61542         3.90776
| 67>    C        8.37386       -21.98515         3.35156
| 68>    O        9.39334       -22.39946         2.84712
| 69>    C        7.07195       -22.65883         3.50189
| 70>    C        6.20194       -21.83972         4.22434
| 71>    C        6.91220       -20.63563         4.63891
| 72>    C        6.59796       -19.85152         5.71507
| 73>    C        7.48896       -18.89835         6.25391
| 74>    N        8.20762       -18.15646         6.75381
| 75>    C        5.40986       -19.97225         6.46403
| 76>    N        4.45242       -20.01535         7.09534
| 77>    C        4.88509       -22.24277         4.47933
| 78>    C        4.46903       -23.46200         4.01198
| 79>    C        5.32764       -24.32294         3.29301
| 80>    C        6.66802       -23.92023         3.02177
| 81>    C        7.51956       -24.78224         2.30142
| 82>    C        7.06259       -25.99728         1.87051
| 83>    C        5.74409       -26.39999         2.13648
| 84>    C        4.89492       -25.58229         2.83061
| 85>    H        7.21242         2.36011         4.14416
| 86>    H        7.46157         4.45572         5.39945
| 87>    H        1.95098         4.90240         5.25441
| 88>    H        2.27426         7.01763         6.48609
| 89>    H        4.53954         7.77528         7.08046
| 90>    H        6.50613         6.43527         6.45318
| 91>    H        1.28183         0.47166         3.39551
| 92>    H        0.70238        -1.95203         2.54493
| 93>    H        7.30608        -6.13461         4.20346
| 94>    H        3.46024        -8.89723         3.58705
| 95>    H        7.73521        -8.37684         3.66623
| 96>    H        4.05075       -13.19870         3.71884
| 97>    H       10.83291       -17.44642         3.58366
| 98>    H        9.95513       -19.92816         3.13196
| 99>    H        4.20847       -21.60185         5.02112
|100>    H        3.45512       -23.78772         4.19437
|101>    H        8.53008       -24.46205         2.10256
|102>    H        7.71594       -26.65794         1.32053
|103>    H        5.40442       -27.36374         1.78704
|104>    H        3.88005       -25.89029         3.03671
|105> *
|106>
|107>                          ****END OF INPUT****

CARTESIAN COORDINATES (ANGSTROEM)
---------------------------------
  C      3.197740    1.246880    3.443500
  C      2.715860    2.553690    3.982090
  O      1.560900    2.907250    4.061930
  C      3.933550    3.248810    4.434940
  C      5.059190    2.509990    4.064670
  C      4.635040    1.351690    3.286730
  C      5.393790    0.688560    2.361340
  C      4.841120   -0.196720    1.410640
  N      4.420410   -0.875920    0.586890
  C      6.778920    0.883400    2.186840
  N      7.908590    0.988640    2.014010
  C      6.345220    2.941630    4.412490
  C      6.477840    4.110110    5.116290
  C      5.362530    4.893260    5.487790
  C      4.048230    4.459850    5.145430
  C      2.938750    5.244740    5.519640
  C      3.124260    6.415350    6.202340
  C      4.416370    6.847720    6.541270
  C      5.510920    6.104230    6.193900
  C      2.333350    0.209130    3.326670
  C      2.604470   -1.180590    3.235990
  C      1.704000   -2.160140    2.873520
  C      2.238050   -3.447470    2.937180
  Cl     1.338580   -4.843040    2.515590
  C      3.555180   -3.496700    3.375350
  S      4.122520   -1.891610    3.709630
  C      4.390480   -4.630150    3.543680
  C      5.733890   -4.664680    3.885730
  Cl     6.661040   -3.256970    4.198250
  C      6.279490   -5.951920    3.946690
  C      5.362550   -6.935350    3.666110
  S      3.804510   -6.250350    3.308280
  C      5.558550   -8.357750    3.648360
  C      4.481610   -9.258650    3.610340
  N      4.636270  -10.559760    3.607370
  C      5.888860  -11.026580    3.641610
  N      6.985210  -10.264270    3.663220
  C      6.826220   -8.963050    3.664450
  C      6.072890  -12.449520    3.650530
  C      5.100770  -13.420190    3.688980
  C      5.640030  -14.707580    3.687670
  Cl     4.665810  -16.115850    3.740600
  C      7.029910  -14.741970    3.645100
  S      7.663520  -13.120910    3.614060
  C      7.869340  -15.885300    3.634100
  C      9.257470  -15.940520    3.612630
  Cl    10.245440  -14.543540    3.593820
  C      9.779590  -17.234950    3.595560
  C      8.807520  -18.211050    3.640390
  S      7.219610  -17.494730    3.647310
  C      9.016550  -19.614180    3.578820
  C      8.164140  -20.615420    3.907760
  C      8.373860  -21.985150    3.351560
  O      9.393340  -22.399460    2.847120
  C      7.071950  -22.658830    3.501890
  C      6.201940  -21.839720    4.224340
  C      6.912200  -20.635630    4.638910
  C      6.597960  -19.851520    5.715070
  C      7.488960  -18.898350    6.253910
  N      8.207620  -18.156460    6.753810
  C      5.409860  -19.972250    6.464030
  N      4.452420  -20.015350    7.095340
  C      4.885090  -22.242770    4.479330
  C      4.469030  -23.462000    4.011980
  C      5.327640  -24.322940    3.293010
  C      6.668020  -23.920230    3.021770
  C      7.519560  -24.782240    2.301420
  C      7.062590  -25.997280    1.870510
  C      5.744090  -26.399990    2.136480
  C      4.894920  -25.582290    2.830610
  H      7.212420    2.360110    4.144160
  H      7.461570    4.455720    5.399450
  H      1.950980    4.902400    5.254410
  H      2.274260    7.017630    6.486090
  H      4.539540    7.775280    7.080460
  H      6.506130    6.435270    6.453180
  H      1.281830    0.471660    3.395510
  H      0.702380   -1.952030    2.544930
  H      7.306080   -6.134610    4.203460
  H      3.460240   -8.897230    3.587050
  H      7.735210   -8.376840    3.666230
  H      4.050750  -13.198700    3.718840
  H     10.832910  -17.446420    3.583660
  H      9.955130  -19.928160    3.131960
  H      4.208470  -21.601850    5.021120
  H      3.455120  -23.787720    4.194370
  H      8.530080  -24.462050    2.102560
  H      7.715940  -26.657940    1.320530
  H      5.404420  -27.363740    1.787040
  H      3.880050  -25.890290    3.036710

 Total Charge           Charge          ....    0
 Multiplicity           Mult            ....    1
 Number of Electrons    NEL             ....  534
 Basis Dimension        Dim             .... 1112

ORBITAL ENERGIES
----------------

  NO   OCC          E(Eh)            E(eV)
   0   2.0000    -101.608526     -2764.9086
   1   2.0000    -101.606350     -2764.8493
   2   2.0000    -101.600206     -2764.6822
   3   2.0000    -101.599432     -2764.6611
   4   2.0000     -88.977819     -2421.2095
   5   2.0000     -88.976211     -2421.1658
   6   2.0000     -88.970462     -2421.0094
   7   2.0000     -88.967176     -2420.9199
   8   2.0000     -19.219770      -522.9965
   9   2.0000     -19.216847      -522.9170
  10   2.0000     -14.425177      -392.5290
  11   2.0000     -14.424497      -392.5105
  12   2.0000     -14.417480      -392.3196
  13   2.0000     -14.414063      -392.2266
  14   2.0000     -14.413923      -392.2228
  15   2.0000     -14.410437      -392.1279
  16   2.0000     -10.370884      -282.2061
  17   2.0000     -10.367902      -282.1250
  18   2.0000     -10.359535      -281.8973
  19   2.0000     -10.347209      -281.5619
  20   2.0000     -10.345739      -281.5219
  21   2.0000     -10.343683      -281.4659
  22   2.0000     -10.343646      -281.4649
  23   2.0000     -10.342356      -281.4298
  24   2.0000     -10.340125      -281.3691
  25   2.0000     -10.337268      -281.2914
  26   2.0000     -10.336847      -281.2799
  27   2.0000     -10.336701      -281.2759
  28   2.0000     -10.335790      -281.2512
  29   2.0000     -10.335652      -281.2474
  30   2.0000     -10.332275      -281.1555
  31   2.0000     -10.330592      -281.1097
  32   2.0000     -10.325424      -280.9691
  33   2.0000     -10.324151      -280.9344
  34   2.0000     -10.321815      -280.8709
  35   2.0000     -10.319765      -280.8151
  36   2.0000     -10.319752      -280.8147
  37   2.0000     -10.318338      -280.7763
  38   2.0000     -10.316379      -280.7229
  39   2.0000     -10.315899      -280.7099
  40   2.0000     -10.314442      -280.6702
  41   2.0000     -10.312433      -280.6156
  42   2.0000     -10.311856      -280.5999
  43   2.0000     -10.311525      -280.5909
  44   2.0000     -10.308581      -280.5107
  45   2.0000     -10.305261      -280.4204
  46   2.0000     -10.302804      -280.3536
  47   2.0000     -10.299825      -280.2725
  48   2.0000     -10.298333      -280.2319
  49   2.0000     -10.298130      -280.2264
  50   2.0000     -10.297801      -280.2174
  51   2.0000     -10.297471      -280.2084
  52   2.0000     -10.297469      -280.2084
  53   2.0000     -10.296775      -280.1895
  54   2.0000     -10.296528      -280.1828
  55   2.0000     -10.295796      -280.1629
  56   2.0000     -10.295055      -280.1427
  57   2.0000     -10.294511      -280.1279
  58   2.0000     -10.294264      -280.1212
  59   2.0000     -10.293370      -280.0968
  60   2.0000     -10.290711      -280.0245
  61   2.0000     -10.287695      -279.9424
  62   2.0000     -10.285297      -279.8772
  63   2.0000     -10.284662      -279.8599
  64   2.0000     -10.282960      -279.8136
  65   2.0000     -10.282790      -279.8089
  66   2.0000     -10.282432      -279.7992
  67   2.0000     -10.280611      -279.7496
  68   2.0000     -10.279026      -279.7065
  69   2.0000     -10.276584      -279.6401
  70   2.0000      -9.563187      -260.2275
  71   2.0000      -9.561075      -260.1701
  72   2.0000      -9.554992      -260.0045
  73   2.0000      -9.554229      -259.9838
  74   2.0000      -8.072596      -219.6665
  75   2.0000      -8.070595      -219.6121
  76   2.0000      -8.064924      -219.4577
  77   2.0000      -8.061608      -219.3675
  78   2.0000      -7.333308      -199.5494
  79   2.0000      -7.331224      -199.4927
  80   2.0000      -7.325042      -199.3245
  81   2.0000      -7.324363      -199.3061
  82   2.0000      -7.323266      -199.2762
  83   2.0000      -7.323183      -199.2739
  84   2.0000      -7.321118      -199.2178
  85   2.0000      -7.321085      -199.2168
  86   2.0000      -7.315082      -199.0535
  87   2.0000      -7.315028      -199.0520
  88   2.0000      -7.314277      -199.0316
  89   2.0000      -7.314225      -199.0302
  90   2.0000      -6.042085      -164.4135
  91   2.0000      -6.040107      -164.3597
  92   2.0000      -6.037761      -164.2958
  93   2.0000      -6.035758      -164.2413
  94   2.0000      -6.034457      -164.2059
  95   2.0000      -6.034413      -164.2047
  96   2.0000      -6.032385      -164.1496
  97   2.0000      -6.031051      -164.1132
  98   2.0000      -6.030076      -164.0867
  99   2.0000      -6.026668      -163.9940
 100   2.0000      -6.026652      -163.9935
 101   2.0000      -6.023549      -163.9091
 102   2.0000      -1.134936       -30.8832
 103   2.0000      -1.132010       -30.8036
 104   2.0000      -1.099044       -29.9065
 105   2.0000      -1.035900       -28.1883
 106   2.0000      -1.028159       -27.9776
 107   2.0000      -1.021048       -27.7841
 108   2.0000      -1.017122       -27.6773
 109   2.0000      -1.011508       -27.5245
 110   2.0000      -1.003276       -27.3005
 111   2.0000      -1.000513       -27.2253
 112   2.0000      -0.997374       -27.1399
 113   2.0000      -0.993880       -27.0448
 114   2.0000      -0.993630       -27.0380
 115   2.0000      -0.990372       -26.9494
 116   2.0000      -0.973358       -26.4864
 117   2.0000      -0.969702       -26.3869
 118   2.0000      -0.969071       -26.3698
 119   2.0000      -0.961561       -26.1654
 120   2.0000      -0.959465       -26.1084
 121   2.0000      -0.951910       -25.9028
 122   2.0000      -0.925054       -25.1720
 123   2.0000      -0.921819       -25.0840
 124   2.0000      -0.919166       -25.0118
 125   2.0000      -0.907560       -24.6959
 126   2.0000      -0.904303       -24.6073
 127   2.0000      -0.895989       -24.3811
 128   2.0000      -0.891418       -24.2567
 129   2.0000      -0.874921       -23.8078
 130   2.0000      -0.867110       -23.5953
 131   2.0000      -0.856903       -23.3175
 132   2.0000      -0.853451       -23.2236
 133   2.0000      -0.841779       -22.9060
 134   2.0000      -0.838583       -22.8190
 135   2.0000      -0.836181       -22.7536
 136   2.0000      -0.833820       -22.6894
 137   2.0000      -0.827643       -22.5213
 138   2.0000      -0.818751       -22.2794
 139   2.0000      -0.810065       -22.0430
 140   2.0000      -0.797055       -21.6890
 141   2.0000      -0.781448       -21.2643
 142   2.0000      -0.774998       -21.0888
 143   2.0000      -0.769559       -20.9408
 144   2.0000      -0.760746       -20.7010
 145   2.0000      -0.758714       -20.6457
 146   2.0000      -0.748904       -20.3787
 147   2.0000      -0.717995       -19.5376
 148   2.0000      -0.715876       -19.4800
 149   2.0000      -0.713274       -19.4092
 150   2.0000      -0.712658       -19.3924
 151   2.0000      -0.704623       -19.1738
 152   2.0000      -0.700998       -19.0751
 153   2.0000      -0.692322       -18.8390
 154   2.0000      -0.683287       -18.5932
 155   2.0000      -0.678278       -18.4569
 156   2.0000      -0.674947       -18.3662
 157   2.0000      -0.668875       -18.2010
 158   2.0000      -0.662972       -18.0404
 159   2.0000      -0.649247       -17.6669
 160   2.0000      -0.645318       -17.5600
 161   2.0000      -0.638907       -17.3855
 162   2.0000      -0.631628       -17.1875
 163   2.0000      -0.628789       -17.1102
 164   2.0000      -0.623720       -16.9723
 165   2.0000      -0.620101       -16.8738
 166   2.0000      -0.617644       -16.8070
 167   2.0000      -0.613544       -16.6954
 168   2.0000      -0.611721       -16.6458
 169   2.0000      -0.598996       -16.2995
 170   2.0000      -0.591923       -16.1070
 171   2.0000      -0.590239       -16.0612
 172   2.0000      -0.588810       -16.0223
 173   2.0000      -0.587443       -15.9851
 174   2.0000      -0.581388       -15.8204
 175   2.0000      -0.576171       -15.6784
 176   2.0000      -0.566550       -15.4166
 177   2.0000      -0.564353       -15.3568
 178   2.0000      -0.556288       -15.1374
 179   2.0000      -0.551098       -14.9961
 180   2.0000      -0.546910       -14.8822
 181   2.0000      -0.544483       -14.8161
 182   2.0000      -0.540055       -14.6956
 183   2.0000      -0.537018       -14.6130
 184   2.0000      -0.536432       -14.5971
 185   2.0000      -0.532907       -14.5011
 186   2.0000      -0.531236       -14.4557
 187   2.0000      -0.530007       -14.4222
 188   2.0000      -0.527521       -14.3546
 189   2.0000      -0.526607       -14.3297
 190   2.0000      -0.523646       -14.2491
 191   2.0000      -0.521524       -14.1914
 192   2.0000      -0.517249       -14.0751
 193   2.0000      -0.514532       -14.0011
 194   2.0000      -0.513253       -13.9663
 195   2.0000      -0.509233       -13.8569
 196   2.0000      -0.508422       -13.8349
 197   2.0000      -0.507492       -13.8096
 198   2.0000      -0.505866       -13.7653
 199   2.0000      -0.504525       -13.7288
 200   2.0000      -0.503820       -13.7096
 201   2.0000      -0.501444       -13.6450
 202   2.0000      -0.499238       -13.5849
 203   2.0000      -0.498623       -13.5682
 204   2.0000      -0.496424       -13.5084
 205   2.0000      -0.494126       -13.4458
 206   2.0000      -0.489833       -13.3290
 207   2.0000      -0.486124       -13.2281
 208   2.0000      -0.485016       -13.1980
 209   2.0000      -0.479611       -13.0509
 210   2.0000      -0.476315       -12.9612
 211   2.0000      -0.474757       -12.9188
 212   2.0000      -0.470420       -12.8008
 213   2.0000      -0.465519       -12.6674
 214   2.0000      -0.460372       -12.5274
 215   2.0000      -0.458566       -12.4782
 216   2.0000      -0.453560       -12.3420
 217   2.0000      -0.452595       -12.3157
 218   2.0000      -0.448745       -12.2110
 219   2.0000      -0.447853       -12.1867
 220   2.0000      -0.446362       -12.1461
 221   2.0000      -0.443411       -12.0658
 222   2.0000      -0.442162       -12.0318
 223   2.0000      -0.441356       -12.0099
 224   2.0000      -0.440783       -11.9943
 225   2.0000      -0.438874       -11.9424
 226   2.0000      -0.437773       -11.9124
 227   2.0000      -0.436299       -11.8723
 228   2.0000      -0.433728       -11.8023
 229   2.0000      -0.431542       -11.7429
 230   2.0000      -0.431104       -11.7309
 231   2.0000      -0.429092       -11.6762
 232   2.0000      -0.426963       -11.6183
 233   2.0000      -0.423571       -11.5259
 234   2.0000      -0.421887       -11.4801
 235   2.0000      -0.420268       -11.4361
 236   2.0000      -0.416712       -11.3393
 237   2.0000      -0.410442       -11.1687
 238   2.0000      -0.408002       -11.1023
 239   2.0000      -0.405656       -11.0385
 240   2.0000      -0.404475       -11.0063
 241   2.0000      -0.400625       -10.9016
 242   2.0000      -0.396972       -10.8021
 243   2.0000      -0.391602       -10.6560
 244   2.0000      -0.390513       -10.6264
 245   2.0000      -0.383860       -10.4454
 246   2.0000      -0.381461       -10.3801
 247   2.0000      -0.379025       -10.3138
 248   2.0000      -0.374077       -10.1792
 249   2.0000      -0.369954       -10.0670
 250   2.0000      -0.365767        -9.9530
 251   2.0000      -0.358681        -9.7602
 252   2.0000      -0.342972        -9.3327
 253   2.0000      -0.337496        -9.1837
 254   2.0000      -0.335092        -9.1183
 255   2.0000      -0.333968        -9.0877
 256   2.0000      -0.330912        -9.0046
 257   2.0000      -0.326787        -8.8923
 258   2.0000      -0.325379        -8.8540
 259   2.0000      -0.320764        -8.7284
 260   2.0000      -0.317836        -8.6488
 261   2.0000      -0.313906        -8.5418
 262   2.0000      -0.307263        -8.3611
 263   2.0000      -0.295374        -8.0375
 264   2.0000      -0.292775        -7.9668
 265   2.0000      -0.271363        -7.3842
 266   2.0000      -0.253846        -6.9075
 267   0.0000      -0.095304        -2.5934
 268   0.0000      -0.088364        -2.4045
 269   0.0000      -0.073568        -2.0019
 270   0.0000      -0.069472        -1.8904
 271   0.0000      -0.052276        -1.4225

MULLIKEN ATOMIC CHARGES
-----------------------
   0 C :   -0.124665
   1 C :    0.122976
   2 O :   -0.151201
   3 C :    0.009068
   4 C :   -0.006649
   5 C :    0.239229
   6 C :   -0.314988
   7 C :   -0.203988
   8 N :    0.174717
   9 C :   -0.178301
  10 N :    0.162140
  11 C :   -0.018034
  12 C :    0.005680
  13 C :    0.079151
  14 C :    0.036696
  15 C :   -0.026758
  16 C :    0.039011
  17 C :    0.040477
  18 C :   -0.022034
  19 C :    0.059189
  20 C :   -0.079664
  21 C :    0.049793
  22 C :    0.070760
  23 Cl:   -0.060224
  24 C :   -0.079707
  25 S :    0.163182
  26 C :   -0.088993
  27 C :    0.069032
  28 Cl:   -0.051722
  29 C :    0.002627
  30 C :   -0.041106
  31 S :    0.148171
  32 C :    0.043462
  33 C :    0.016226
  34 N :   -0.039624
  35 C :   -0.070973
  36 N :   -0.052941
  37 C :    0.032464
  38 C :   -0.016442
  39 C :   -0.001433
  40 C :    0.070933
  41 Cl:   -0.059429
  42 C :   -0.093472
  43 S :    0.205048
  44 C :   -0.076904
  45 C :    0.066347
  46 Cl:   -0.056611
  47 C :    0.050990
  48 C :   -0.082770
  49 S :    0.161756
  50 C :    0.062332
  51 C :   -0.123382
  52 C :    0.121780
  53 O :   -0.148731
  54 C :    0.008082
  55 C :   -0.005042
  56 C :    0.235083
  57 C :   -0.310597
  58 C :   -0.205534
  59 N :    0.177063
  60 C :   -0.180245
  61 N :    0.159949
  62 C :   -0.021437
  63 C :    0.006290
  64 C :    0.079134
  65 C :    0.035879
  66 C :   -0.027053
  67 C :    0.036841
  68 C :    0.038910
  69 C :   -0.019309
  70 H :    0.001621
  71 H :   -0.012218
  72 H :    0.000367
  73 H :   -0.005981
  74 H :   -0.005964
  75 H :   -0.021161
  76 H :    0.024325
  77 H :   -0.006330
  78 H :   -0.013960
  79 H :    0.018712
  80 H :    0.009322
  81 H :   -0.002493
  82 H :   -0.006448
  83 H :    0.024089
  84 H :    0.003035
  85 H :   -0.012812
  86 H :   -0.000084
  87 H :   -0.005655
  88 H :   -0.007309
  89 H :   -0.021566
Sum of atomic charges:   -0.0000000

LOEWDIN ATOMIC CHARGES
----------------------
   0 C :   -0.089397
   1 C :    0.088225
   2 O :   -0.141675
   3 C :   -0.033327
   4 C :   -0.003014
   5 C :    0.060505
   6 C :   -0.136689
   7 C :   -0.037845
   8 N :   -0.043431
   9 C :   -0.021145
  10 N :   -0.047050
  11 C :   -0.017972
  12 C :    0.020301
  13 C :   -0.009571
  14 C :   -0.002739
  15 C :   -0.002141
  16 C :   -0.011597
  17 C :   -0.012298
  18 C :   -0.011892
  19 C :    0.045472
  20 C :   -0.184535
  21 C :   -0.029770
  22 C :   -0.174602
  23 Cl:    0.161605
  24 C :   -0.186248
  25 S :    0.485631
  26 C :   -0.211271
  27 C :   -0.160465
  28 Cl:    0.168410
  29 C :   -0.066702
  30 C :   -0.162645
  31 S :    0.460214
  32 C :   -0.087885
  33 C :    0.047730
  34 N :   -0.073330
  35 C :    0.014877
  36 N :   -0.084841
  37 C :    0.060471
  38 C :   -0.191065
  39 C :   -0.041023
  40 C :   -0.167221
  41 Cl:    0.164030
  42 C :   -0.208102
  43 S :    0.491299
  44 C :   -0.185779
  45 C :   -0.172899
  46 Cl:    0.164956
  47 C :   -0.030278
  48 C :   -0.185812
  49 S :    0.481067
  50 C :    0.046620
  51 C :   -0.089565
  52 C :    0.087598
  53 O :   -0.141862
  54 C :   -0.033763
  55 C :   -0.002832
  56 C :    0.059911
  57 C :   -0.135170
  58 C :   -0.035894
  59 N :   -0.043304
  60 C :   -0.020645
  61 N :   -0.047742
  62 C :   -0.017681
  63 C :    0.019589
  64 C :   -0.009766
  65 C :   -0.002835
  66 C :   -0.002238
  67 C :   -0.012330
  68 C :   -0.012751
  69 C :   -0.012288
  70 H :    0.039644
  71 H :    0.035803
  72 H :    0.035502
  73 H :    0.032935
  74 H :    0.032286
  75 H :    0.030399
  76 H :    0.051894
  77 H :    0.039609
  78 H :    0.034408
  79 H :    0.021902
  80 H :    0.027635
  81 H :    0.040088
  82 H :    0.039255
  83 H :    0.051333
  84 H :    0.039837
  85 H :    0.035638
  86 H :    0.035446
  87 H :    0.032736
  88 H :    0.031818
  89 H :    0.030246

  Mayer bond orders larger than 0.100000
B(  0-C ,  1-C ) :   0.9539 B(  0-C ,  5-C ) :   1.0119 B(  0-C , 19-C ) :   1.6770
B(  1-C ,  2-O ) :   2.1946 B(  1-C ,  3-C ) :   0.9405 B(  3-C ,  4-C ) :   1.4147
B(  3-C , 14-C ) :   1.2385 B(  4-C ,  5-C ) :   1.0076 B(  4-C , 11-C ) :   1.2618
B(  5-C ,  6-C ) :   1.6673 B(  6-C ,  7-C ) :   1.1457 B(  6-C ,  9-C ) :   1.1327
B(  7-C ,  8-N ) :   3.0324 B(  9-C , 10-N ) :   3.0001 B( 11-C , 12-C ) :   1.4673
B( 11-C , 70-H ) :   0.9868 B( 12-C , 13-C ) :   1.2233 B( 12-C , 71-H ) :   0.9946
B( 13-C , 14-C ) :   1.2420 B( 13-C , 18-C ) :   1.2402 B( 14-C , 15-C ) :   1.2744
B( 15-C , 16-C ) :   1.4752 B( 15-C , 72-H ) :   0.9873 B( 16-C , 17-C ) :   1.2542
B( 16-C , 73-H ) :   0.9877 B( 17-C , 18-C ) :   1.4960 B( 17-C , 74-H ) :   0.9889
B( 18-C , 75-H ) :   0.9980 B( 19-C , 20-C ) :   1.1211 B( 19-C , 76-H ) :   0.9460
B( 20-C , 21-C ) :   1.4336 B( 20-C , 25-S ) :   1.0937 B( 21-C , 22-C ) :   1.2852
B( 21-C , 77-H ) :   1.0082 B( 22-C , 23-Cl) :   1.0293 B( 22-C , 24-C ) :   1.4444
B( 24-C , 25-S ) :   1.1548 B( 24-C , 26-C ) :   1.1837 B( 26-C , 27-C ) :   1.4759
B( 26-C , 30-C ) :   0.1007 B( 26-C , 31-S ) :   1.1213 B( 27-C , 28-Cl) :   1.0416
B( 27-C , 29-C ) :   1.2641 B( 29-C , 30-C ) :   1.5034 B( 29-C , 78-H ) :   1.0012
B( 30-C , 31-S ) :   1.1186 B( 30-C , 32-C ) :   1.0690 B( 32-C , 33-C ) :   1.3007
B( 32-C , 37-C ) :   1.3228 B( 33-C , 34-N ) :   1.5879 B( 33-C , 79-H ) :   0.9822
B( 34-N , 35-C ) :   1.5796 B( 35-C , 36-N ) :   1.5773 B( 35-C , 38-C ) :   1.0309
B( 36-N , 37-C ) :   1.5799 B( 37-C , 80-H ) :   0.9854 B( 38-C , 39-C ) :   1.4852
B( 38-C , 42-C ) :   0.1075 B( 38-C , 43-S ) :   1.1151 B( 39-C , 40-C ) :   1.2616
B( 39-C , 81-H ) :   1.0133 B( 40-C , 41-Cl) :   1.0291 B( 40-C , 42-C ) :   1.4573
B( 42-C , 43-S ) :   1.1295 B( 42-C , 44-C ) :   1.1836 B( 44-C , 45-C ) :   1.4462
B( 44-C , 49-S ) :   1.1513 B( 45-C , 46-Cl) :   1.0354 B( 45-C , 47-C ) :   1.2854
B( 47-C , 48-C ) :   1.4306 B( 47-C , 82-H ) :   1.0095 B( 48-C , 49-S ) :   1.0955
B( 48-C , 50-C ) :   1.1129 B( 50-C , 51-C ) :   1.6838 B( 50-C , 83-H ) :   0.9452
B( 51-C , 52-C ) :   0.9530 B( 51-C , 56-C ) :   1.0149 B( 52-C , 53-O ) :   2.1989
B( 52-C , 54-C ) :   0.9402 B( 54-C , 55-C ) :   1.4134 B( 54-C , 65-C ) :   1.2380
B( 55-C , 56-C ) :   1.0073 B( 55-C , 62-C ) :   1.2626 B( 56-C , 57-C ) :   1.6660
B( 57-C , 58-C ) :   1.1489 B( 57-C , 60-C ) :   1.1322 B( 58-C , 59-N ) :   3.0316
B( 60-C , 61-N ) :   2.9992 B( 62-C , 63-C ) :   1.4668 B( 62-C , 84-H ) :   0.9865
B( 63-C , 64-C ) :   1.2230 B( 63-C , 85-H ) :   0.9942 B( 64-C , 65-C ) :   1.2439
B( 64-C , 69-C ) :   1.2411 B( 65-C , 66-C ) :   1.2739 B( 66-C , 67-C ) :   1.4755
B( 66-C , 86-H ) :   0.9872 B( 67-C , 68-C ) :   1.2567 B( 67-C , 87-H ) :   0.9869
B( 68-C , 69-C ) :   1.4948 B( 68-C , 88-H ) :   0.9890 B( 69-C , 89-H ) :   0.9975

-----------------------------------------------------------------------------
         ABSORPTION SPECTRUM VIA TRANSITION ELECTRIC DIPOLE MOMENTS
-----------------------------------------------------------------------------
State   Energy  Wavelength   fosc         T2         TX        TY        TZ
        (cm-1)    (nm)                  (au**2)     (au)      (au)      (au)
-----------------------------------------------------------------------------
   0   19086.2    523.9   1.901568769  32.79958   0.60369  -5.67815   0.44012
   1   20408.2    490.0   0.008005257   0.12914   0.02047   0.28321   0.22025
   2   24332.9    411.0   0.671891700   9.09035  -1.04776   2.82294   0.15348
   3   25425.6    393.3   0.005375000   0.06960  -0.09071   0.24527   0.03476
   4   27255.2    366.9   0.457134304   5.52166   0.53030  -1.93784  -1.21869
   5   27387.4    365.1   0.002346188   0.02820  -0.08574   0.13851   0.04081
   6   27622.9    362.0   0.081649295   0.97310  -0.30164  -0.90595  -0.24775
   7   28604.8    349.6   0.088178268   1.01484   0.97491  -0.24468  -0.06732
   8   29589.9    338.0   0.059566096   0.66272  -0.71975   0.30515  -0.22709
   9   29926.4    334.2   0.012556349   0.13813   0.26278  -0.25171  -0.07560
  10   30653.1    326.2   0.028681060   0.30803   0.01810  -0.03107  -0.55384
  11   30760.6    325.1   0.005186833   0.05551   0.18808   0.07486   0.12055
  12   30946.4    323.1   0.114649107   1.21965  -0.10251   1.01040   0.43386
  13   31614.3    316.3   0.008731874   0.09093   0.22758   0.19063   0.05285
  14   31881.3    313.7   0.354081942   3.65632  -1.17405   1.27517   0.80738
  15   32044.3    312.1   0.230283075   2.36585   0.76369  -0.87461  -1.00881
  16   32257.7    310.0   0.344114049   3.51192   1.17561   1.45676   0.08775
  17   32624.9    306.5   0.081983481   0.82728  -0.06487   0.51907   0.74407
  18   32809.2    304.8   0.074297242   0.74551  -0.32208  -0.66588  -0.44539
  19   33065.4    302.4   0.011917791   0.11866  -0.05073   0.26421   0.21513
  20   33226.3    301.0   0.103725284   1.02773  -0.42382  -0.92093  -0.00095
  21   33958.1    294.5   0.090747571   0.87977  -0.91471  -0.18370  -0.09657
  22   34127.5    293.0   0.203994475   1.96784   1.18156   0.70201   0.28097
  23   34436.6    290.4   0.659701711   6.30670  -0.18824   2.07386   1.40370
  24   34779.8    287.5   0.002557302   0.02421   0.06799   0.04449  -0.13268
  25   35193.3    284.1   0.028083571   0.26270  -0.30702   0.28270   0.29753
  26   35335.4    283.0   0.060664309   0.56520  -0.57589   0.36060   0.32172
  27   35655.3    280.5   0.058818287   0.54308  -0.68536   0.25746  -0.08416
  28   36108.9    276.9   0.078605369   0.71666   0.35435  -0.66865  -0.37947
  29   36849.8    271.4   0.015684416   0.14012   0.09871   0.11092  -0.34362
  30   37899.5    263.9   0.071755630   0.62330  -0.22317  -0.64408  -0.39831
  31   38022.1    263.0   0.035753480   0.30957   0.35099   0.43121  -0.02094
  32   38075.6    262.6   0.015359616   0.13280  -0.30857  -0.19360  -0.01032
  33   38516.8    259.6   0.012180702   0.10411   0.06057   0.12701  -0.29036
  34   38670.5    258.6   0.105001850   0.89391   0.21201   0.64718   0.65584
  35   38951.2    256.7   0.042084369   0.35569   0.04917  -0.49347  -0.33131
  36   39127.9    255.6   0.074786226   0.62923   0.64363   0.35215   0.30161
  37   39442.5    253.5   0.028973943   0.24183   0.34822   0.30322   0.16922
  38   39954.2    250.3   0.134591269   1.10900  -1.05113   0.01162   0.06317

FINAL SINGLE POINT ENERGY     -5977.977276686845

DIPOLE MOMENT
-------------
                                X             Y             Z
Electronic contribution:      4.16025      -0.70905      -5.39139
Nuclear contribution   :     -4.94302       1.35194       5.52773
                        -----------------------------------------
Total Dipole Moment    :     -0.78277       0.64288       0.13634
                        -----------------------------------------
Magnitude (a.u.)       :      1.02206
Magnitude (Debye)      :      2.59788

Rotational constants in cm-1:     0.003322     0.000166     0.000162
Rotational constants in MHz :    99.597591     4.969413     4.864370

                             ****ORCA TERMINATED NORMALLY****
TOTAL RUN TIME: 0 days 0 hours 9 minutes 6 seconds 149 msec
