                         Program Version 4.2.0 -  RELEASE  -
|  1> # ORCA input file
|  2> # SCF done       -135.734549367106          0.000923431458
|  3> ! CAM-B3LYP def2-SVP def2/J RIJCOSX Grid4 TightSCF
|  4> %maxcore 5000
|  5> %tddft
|  6>     Mode sTDDFT
|  7>     Ethresh 5.0
|  8>     maxcore 5000
|  9> end
| 10>
| 11> %pal
| 12>   nprocs 6
| 13>   end
| 14> * xyz 0 1
| 15>    C       -7.71165        -2.77204         2.73628
| 16>    C       -7.02526        -1.60591         2.59066
| 17>    C       -5.82473        -1.76817         1.87957
| 18>    C       -5.60479        -3.06701         1.48584
| 19>    S       -6.90535        -4.09823         2.00721
| 20>    C       -4.50065        -3.58772         0.74636
| 21>    C       -3.43771        -2.89424         0.21823
| 22>    C       -2.52721        -3.71727        -0.46110
| 23>   Cl       -1.19470        -3.06222        -1.31736
| 24>    C       -2.86414        -5.05654        -0.45719
| 25>    S       -4.36895        -5.28305         0.39179
| 26>    C       -2.23075        -6.18920        -1.04962
| 27>    C       -0.89041        -6.51678        -1.16020
| 28>   Cl        0.38970        -5.61023        -0.46593
| 29>    C       -0.65960        -7.73135        -1.80900
| 30>    C       -1.82104        -8.36841        -2.19886
| 31>    S       -3.22079        -7.44467        -1.74551
| 32>    C       -1.93879        -9.61664        -2.87128
| 33>    C       -3.20145       -10.16941        -3.17642
| 34>    C       -3.37487       -11.43833        -3.83034
| 35>    N       -4.62775       -11.88142        -4.06602
| 36>    C       -5.63992       -11.16353        -3.70381
| 37>    C       -5.47085        -9.90858        -3.06532
| 38>    N       -4.28651        -9.45071        -2.82350
| 39>    F       -6.51578        -9.16969        -2.70546
| 40>    F       -6.85700       -11.64381        -3.95739
| 41>    C       -2.26528       -12.22027        -4.22762
| 42>    C       -1.00103       -11.65757        -3.94043
| 43>    C       -0.82691       -10.38925        -3.27458
| 44>    N        0.46485       -10.09409        -3.11863
| 45>    S        1.36006       -11.27365        -3.73807
| 46>    N        0.16736       -12.22452        -4.23745
| 47>    C       -2.35224       -13.48802        -4.86674
| 48>    C       -3.47430       -14.22381        -5.19881
| 49>    C       -3.16850       -15.43374        -5.81225
| 50>   Cl       -4.37872       -16.53816        -6.32054
| 51>    C       -1.80681       -15.66814        -5.97716
| 52>    S       -0.89905       -14.32667        -5.33466
| 53>    C       -1.18089       -16.79618        -6.55758
| 54>    C        0.17469       -17.03237        -6.74158
| 55>   Cl        1.38921       -15.92077        -6.26875
| 56>    C        0.47465       -18.25636        -7.34546
| 57>    C       -0.64823       -18.99674        -7.63795
| 58>    S       -2.09116       -18.15494        -7.16320
| 59>    C       -0.71174       -20.28593        -8.24200
| 60>    C        0.32408       -21.04599        -8.73379
| 61>    C       -0.09935       -22.27833        -9.25681
| 62>    C       -1.44527       -22.45630        -9.16073
| 63>    S       -2.22995       -21.11533        -8.43472
| 64>    H       -8.64888        -2.93308         3.23057
| 65>    H       -7.36639        -0.66276         2.97793
| 66>    H       -5.14586        -0.96356         1.66585
| 67>    H       -3.31382        -1.83063         0.29635
| 68>    H        0.31672        -8.14469        -1.97970
| 69>    H       -4.47382       -13.89003        -4.99913
| 70>    H        1.47873       -18.57674        -7.54849
| 71>    H        1.34883       -20.72315        -8.72339
| 72>    H        0.56715       -23.00507        -9.68545
| 73>    H       -2.02766       -23.29871        -9.47617
| 74> *
| 75>
| 76>                          ****END OF INPUT****

CARTESIAN COORDINATES (ANGSTROEM)
---------------------------------
  C     -7.711650   -2.772040    2.736280
  C     -7.025260   -1.605910    2.590660
  C     -5.824730   -1.768170    1.879570
  C     -5.604790   -3.067010    1.485840
  S     -6.905350   -4.098230    2.007210
  C     -4.500650   -3.587720    0.746360
  C     -3.437710   -2.894240    0.218230
  C     -2.527210   -3.717270   -0.461100
  Cl    -1.194700   -3.062220   -1.317360
  C     -2.864140   -5.056540   -0.457190
  S     -4.368950   -5.283050    0.391790
  C     -2.230750   -6.189200   -1.049620
  C     -0.890410   -6.516780   -1.160200
  Cl     0.389700   -5.610230   -0.465930
  C     -0.659600   -7.731350   -1.809000
  C     -1.821040   -8.368410   -2.198860
  S     -3.220790   -7.444670   -1.745510
  C     -1.938790   -9.616640   -2.871280
  C     -3.201450  -10.169410   -3.176420
  C     -3.374870  -11.438330   -3.830340
  N     -4.627750  -11.881420   -4.066020
  C     -5.639920  -11.163530   -3.703810
  C     -5.470850   -9.908580   -3.065320
  N     -4.286510   -9.450710   -2.823500
  F     -6.515780   -9.169690   -2.705460
  F     -6.857000  -11.643810   -3.957390
  C     -2.265280  -12.220270   -4.227620
  C     -1.001030  -11.657570   -3.940430
  C     -0.826910  -10.389250   -3.274580
  N      0.464850  -10.094090   -3.118630
  S      1.360060  -11.273650   -3.738070
  N      0.167360  -12.224520   -4.237450
  C     -2.352240  -13.488020   -4.866740
  C     -3.474300  -14.223810   -5.198810
  C     -3.168500  -15.433740   -5.812250
  Cl    -4.378720  -16.538160   -6.320540
  C     -1.806810  -15.668140   -5.977160
  S     -0.899050  -14.326670   -5.334660
  C     -1.180890  -16.796180   -6.557580
  C      0.174690  -17.032370   -6.741580
  Cl     1.389210  -15.920770   -6.268750
  C      0.474650  -18.256360   -7.345460
  C     -0.648230  -18.996740   -7.637950
  S     -2.091160  -18.154940   -7.163200
  C     -0.711740  -20.285930   -8.242000
  C      0.324080  -21.045990   -8.733790
  C     -0.099350  -22.278330   -9.256810
  C     -1.445270  -22.456300   -9.160730
  S     -2.229950  -21.115330   -8.434720
  H     -8.648880   -2.933080    3.230570
  H     -7.366390   -0.662760    2.977930
  H     -5.145860   -0.963560    1.665850
  H     -3.313820   -1.830630    0.296350
  H      0.316720   -8.144690   -1.979700
  H     -4.473820  -13.890030   -4.999130
  H      1.478730  -18.576740   -7.548490
  H      1.348830  -20.723150   -8.723390
  H      0.567150  -23.005070   -9.685450
  H     -2.027660  -23.298710   -9.476170

 Total Charge           Charge          ....    0
 Multiplicity           Mult            ....    1
 Number of Electrons    NEL             ....  428
 Basis Dimension        Dim             ....  780

ORBITAL ENERGIES
----------------

  NO   OCC          E(Eh)            E(eV)
   0   2.0000    -101.592310     -2764.4673
   1   2.0000    -101.588290     -2764.3579
   2   2.0000    -101.577313     -2764.0592
   3   2.0000    -101.573189     -2763.9470
   4   2.0000     -89.040195     -2422.9069
   5   2.0000     -88.959008     -2420.6977
   6   2.0000     -88.957101     -2420.6458
   7   2.0000     -88.954830     -2420.5840
   8   2.0000     -88.953550     -2420.5492
   9   2.0000     -88.952641     -2420.5244
  10   2.0000     -88.952012     -2420.5073
  11   2.0000     -24.815656      -675.2683
  12   2.0000     -24.812623      -675.1858
  13   2.0000     -14.455459      -393.3530
  14   2.0000     -14.452585      -393.2748
  15   2.0000     -14.449502      -393.1909
  16   2.0000     -14.449076      -393.1794
  17   2.0000     -10.431548      -283.8569
  18   2.0000     -10.428629      -283.7774
  19   2.0000     -10.343107      -281.4503
  20   2.0000     -10.341653      -281.4107
  21   2.0000     -10.337387      -281.2946
  22   2.0000     -10.335810      -281.2517
  23   2.0000     -10.327292      -281.0199
  24   2.0000     -10.322103      -280.8787
  25   2.0000     -10.320290      -280.8294
  26   2.0000     -10.316450      -280.7249
  27   2.0000     -10.312654      -280.6216
  28   2.0000     -10.312446      -280.6159
  29   2.0000     -10.310952      -280.5753
  30   2.0000     -10.309843      -280.5451
  31   2.0000     -10.309294      -280.5301
  32   2.0000     -10.308897      -280.5194
  33   2.0000     -10.306744      -280.4608
  34   2.0000     -10.304440      -280.3981
  35   2.0000     -10.304307      -280.3944
  36   2.0000     -10.303613      -280.3756
  37   2.0000     -10.302727      -280.3514
  38   2.0000     -10.301654      -280.3223
  39   2.0000     -10.291834      -280.0550
  40   2.0000     -10.290213      -280.0109
  41   2.0000     -10.278988      -279.7055
  42   2.0000     -10.275687      -279.6157
  43   2.0000     -10.273867      -279.5661
  44   2.0000     -10.273109      -279.5455
  45   2.0000     -10.272214      -279.5212
  46   2.0000     -10.271639      -279.5055
  47   2.0000     -10.271160      -279.4925
  48   2.0000     -10.270195      -279.4662
  49   2.0000      -9.547047      -259.7884
  50   2.0000      -9.543038      -259.6793
  51   2.0000      -9.532229      -259.3851
  52   2.0000      -9.528151      -259.2742
  53   2.0000      -8.131383      -221.2662
  54   2.0000      -8.054033      -219.1614
  55   2.0000      -8.052853      -219.1293
  56   2.0000      -8.050943      -219.0773
  57   2.0000      -8.049678      -219.0429
  58   2.0000      -8.046451      -218.9551
  59   2.0000      -8.045941      -218.9412
  60   2.0000      -7.317137      -199.1094
  61   2.0000      -7.313056      -198.9984
  62   2.0000      -7.307187      -198.8387
  63   2.0000      -7.307030      -198.8344
  64   2.0000      -7.303147      -198.7287
  65   2.0000      -7.303124      -198.7281
  66   2.0000      -7.302599      -198.7138
  67   2.0000      -7.298474      -198.6016
  68   2.0000      -7.292388      -198.4360
  69   2.0000      -7.291914      -198.4231
  70   2.0000      -7.288332      -198.3256
  71   2.0000      -7.287864      -198.3129
  72   2.0000      -6.102505      -166.0576
  73   2.0000      -6.094719      -165.8457
  74   2.0000      -6.094083      -165.8284
  75   2.0000      -6.023573      -163.9098
  76   2.0000      -6.022202      -163.8725
  77   2.0000      -6.020251      -163.8194
  78   2.0000      -6.019235      -163.7917
  79   2.0000      -6.018962      -163.7843
  80   2.0000      -6.018116      -163.7612
  81   2.0000      -6.016131      -163.7073
  82   2.0000      -6.015877      -163.7003
  83   2.0000      -6.015698      -163.6955
  84   2.0000      -6.015543      -163.6912
  85   2.0000      -6.014687      -163.6680
  86   2.0000      -6.014625      -163.6663
  87   2.0000      -6.013208      -163.6277
  88   2.0000      -6.011961      -163.5938
  89   2.0000      -6.011477      -163.5806
  90   2.0000      -6.010961      -163.5666
  91   2.0000      -6.008081      -163.4882
  92   2.0000      -6.007826      -163.4812
  93   2.0000      -1.342236       -36.5241
  94   2.0000      -1.327766       -36.1303
  95   2.0000      -1.137686       -30.9580
  96   2.0000      -1.113128       -30.2898
  97   2.0000      -1.039144       -28.2765
  98   2.0000      -1.016196       -27.6521
  99   2.0000      -1.008932       -27.4544
 100   2.0000      -0.998596       -27.1732
 101   2.0000      -0.993068       -27.0227
 102   2.0000      -0.987006       -26.8578
 103   2.0000      -0.979203       -26.6455
 104   2.0000      -0.975824       -26.5535
 105   2.0000      -0.968538       -26.3553
 106   2.0000      -0.946645       -25.7595
 107   2.0000      -0.940081       -25.5809
 108   2.0000      -0.937042       -25.4982
 109   2.0000      -0.927866       -25.2485
 110   2.0000      -0.890931       -24.2435
 111   2.0000      -0.883075       -24.0297
 112   2.0000      -0.872285       -23.7361
 113   2.0000      -0.859763       -23.3953
 114   2.0000      -0.833561       -22.6823
 115   2.0000      -0.831113       -22.6157
 116   2.0000      -0.829280       -22.5658
 117   2.0000      -0.823366       -22.4049
 118   2.0000      -0.814575       -22.1657
 119   2.0000      -0.812457       -22.1081
 120   2.0000      -0.809414       -22.0253
 121   2.0000      -0.805875       -21.9290
 122   2.0000      -0.798445       -21.7268
 123   2.0000      -0.778579       -21.1862
 124   2.0000      -0.769464       -20.9382
 125   2.0000      -0.754413       -20.5286
 126   2.0000      -0.747160       -20.3313
 127   2.0000      -0.720107       -19.5951
 128   2.0000      -0.699659       -19.0387
 129   2.0000      -0.687592       -18.7103
 130   2.0000      -0.684059       -18.6142
 131   2.0000      -0.675641       -18.3851
 132   2.0000      -0.670324       -18.2404
 133   2.0000      -0.660983       -17.9863
 134   2.0000      -0.657539       -17.8925
 135   2.0000      -0.648640       -17.6504
 136   2.0000      -0.638052       -17.3623
 137   2.0000      -0.636435       -17.3183
 138   2.0000      -0.629403       -17.1269
 139   2.0000      -0.625640       -17.0245
 140   2.0000      -0.617391       -16.8001
 141   2.0000      -0.612733       -16.6733
 142   2.0000      -0.611965       -16.6524
 143   2.0000      -0.609459       -16.5842
 144   2.0000      -0.605297       -16.4710
 145   2.0000      -0.602072       -16.3832
 146   2.0000      -0.585663       -15.9367
 147   2.0000      -0.579331       -15.7644
 148   2.0000      -0.569366       -15.4932
 149   2.0000      -0.564431       -15.3589
 150   2.0000      -0.563689       -15.3388
 151   2.0000      -0.558176       -15.1887
 152   2.0000      -0.546122       -14.8607
 153   2.0000      -0.540516       -14.7082
 154   2.0000      -0.537033       -14.6134
 155   2.0000      -0.524511       -14.2727
 156   2.0000      -0.519841       -14.1456
 157   2.0000      -0.518646       -14.1131
 158   2.0000      -0.513975       -13.9860
 159   2.0000      -0.511758       -13.9257
 160   2.0000      -0.509932       -13.8760
 161   2.0000      -0.504834       -13.7372
 162   2.0000      -0.503485       -13.7005
 163   2.0000      -0.496314       -13.5054
 164   2.0000      -0.493478       -13.4282
 165   2.0000      -0.492803       -13.4098
 166   2.0000      -0.489815       -13.3285
 167   2.0000      -0.489542       -13.3211
 168   2.0000      -0.485029       -13.1983
 169   2.0000      -0.480879       -13.0854
 170   2.0000      -0.477827       -13.0023
 171   2.0000      -0.476570       -12.9681
 172   2.0000      -0.471973       -12.8430
 173   2.0000      -0.469317       -12.7708
 174   2.0000      -0.465023       -12.6539
 175   2.0000      -0.463721       -12.6185
 176   2.0000      -0.459366       -12.5000
 177   2.0000      -0.452629       -12.3167
 178   2.0000      -0.451620       -12.2892
 179   2.0000      -0.447915       -12.1884
 180   2.0000      -0.444600       -12.0982
 181   2.0000      -0.443565       -12.0700
 182   2.0000      -0.438261       -11.9257
 183   2.0000      -0.432781       -11.7766
 184   2.0000      -0.430532       -11.7154
 185   2.0000      -0.422278       -11.4908
 186   2.0000      -0.416980       -11.3466
 187   2.0000      -0.414588       -11.2815
 188   2.0000      -0.412439       -11.2230
 189   2.0000      -0.408998       -11.1294
 190   2.0000      -0.404404       -11.0044
 191   2.0000      -0.400519       -10.8987
 192   2.0000      -0.398655       -10.8480
 193   2.0000      -0.390080       -10.6146
 194   2.0000      -0.384520       -10.4633
 195   2.0000      -0.380391       -10.3510
 196   2.0000      -0.371169       -10.1000
 197   2.0000      -0.368929       -10.0391
 198   2.0000      -0.360799        -9.8178
 199   2.0000      -0.359512        -9.7828
 200   2.0000      -0.346465        -9.4278
 201   2.0000      -0.345375        -9.3981
 202   2.0000      -0.340813        -9.2740
 203   2.0000      -0.332989        -9.0611
 204   2.0000      -0.324039        -8.8176
 205   2.0000      -0.321462        -8.7474
 206   2.0000      -0.314823        -8.5668
 207   2.0000      -0.312128        -8.4934
 208   2.0000      -0.307026        -8.3546
 209   2.0000      -0.303770        -8.2660
 210   2.0000      -0.300061        -8.1651
 211   2.0000      -0.278182        -7.5697
 212   2.0000      -0.251198        -6.8355
 213   2.0000      -0.225379        -6.1329
 214   0.0000      -0.110299        -3.0014
 215   0.0000      -0.036970        -1.0060
 216   0.0000      -0.030641        -0.8338
 217   0.0000      -0.022111        -0.6017
 218   0.0000       0.002098         0.0571

MULLIKEN ATOMIC CHARGES
-----------------------
   0 C :   -0.070487
   1 C :    0.051459
   2 C :   -0.006640
   3 C :   -0.074937
   4 S :    0.120731
   5 C :   -0.011506
   6 C :   -0.032580
   7 C :    0.110367
   8 Cl:   -0.069385
   9 C :   -0.141850
  10 S :    0.146582
  11 C :   -0.109832
  12 C :    0.114853
  13 Cl:   -0.076084
  14 C :   -0.018384
  15 C :   -0.169607
  16 S :    0.167152
  17 C :    0.202129
  18 C :   -0.057290
  19 C :   -0.082334
  20 N :    0.004787
  21 C :    0.137358
  22 C :    0.154919
  23 N :   -0.047774
  24 F :   -0.135261
  25 F :   -0.143742
  26 C :    0.221988
  27 C :   -0.028694
  28 C :   -0.007438
  29 N :   -0.289562
  30 S :    0.551483
  31 N :   -0.325873
  32 C :   -0.167095
  33 C :   -0.004283
  34 C :    0.073140
  35 Cl:   -0.073048
  36 C :   -0.061335
  37 S :    0.162673
  38 C :   -0.105059
  39 C :    0.071542
  40 Cl:   -0.068825
  41 C :   -0.025405
  42 C :    0.000946
  43 S :    0.147058
  44 C :   -0.079654
  45 C :   -0.009639
  46 C :    0.052434
  47 C :   -0.070629
  48 S :    0.123078
  49 H :    0.028477
  50 H :   -0.009643
  51 H :   -0.014710
  52 H :   -0.021586
  53 H :   -0.008043
  54 H :   -0.005603
  55 H :   -0.024929
  56 H :   -0.015140
  57 H :   -0.008446
  58 H :    0.029173
Sum of atomic charges:   -0.0000000

LOEWDIN ATOMIC CHARGES
----------------------
   0 C :   -0.183511
   1 C :   -0.061877
   2 C :   -0.055362
   3 C :   -0.192126
   4 S :    0.431620
   5 C :   -0.176069
   6 C :   -0.072901
   7 C :   -0.158991
   8 Cl:    0.145201
   9 C :   -0.218995
  10 S :    0.436998
  11 C :   -0.217207
  12 C :   -0.168092
  13 Cl:    0.137078
  14 C :   -0.052677
  15 C :   -0.171725
  16 S :    0.470712
  17 C :   -0.042599
  18 C :   -0.014343
  19 C :   -0.010510
  20 N :   -0.028266
  21 C :    0.057533
  22 C :    0.063152
  23 N :   -0.052474
  24 F :   -0.024973
  25 F :   -0.031945
  26 C :   -0.040637
  27 C :   -0.047121
  28 C :   -0.038500
  29 N :   -0.277607
  30 S :    0.673033
  31 N :   -0.296850
  32 C :   -0.175445
  33 C :   -0.052897
  34 C :   -0.178239
  35 Cl:    0.150485
  36 C :   -0.205206
  37 S :    0.480820
  38 C :   -0.213726
  39 C :   -0.165489
  40 Cl:    0.156442
  41 C :   -0.074839
  42 C :   -0.179157
  43 S :    0.442811
  44 C :   -0.192201
  45 C :   -0.055230
  46 C :   -0.062412
  47 C :   -0.182656
  48 S :    0.432724
  49 H :    0.024024
  50 H :    0.031079
  51 H :    0.029056
  52 H :    0.031595
  53 H :    0.031704
  54 H :    0.031394
  55 H :    0.030869
  56 H :    0.028810
  57 H :    0.031453
  58 H :    0.024263

  Mayer bond orders larger than 0.100000
B(  0-C ,  1-C ) :   1.5702 B(  0-C ,  3-C ) :   0.1005 B(  0-C ,  4-S ) :   1.1626
B(  0-C , 49-H ) :   0.9738 B(  1-C ,  2-C ) :   1.2600 B(  1-C , 50-H ) :   0.9938
B(  2-C ,  3-C ) :   1.5495 B(  2-C , 51-H ) :   0.9947 B(  3-C ,  4-S ) :   1.1380
B(  3-C ,  5-C ) :   1.1028 B(  5-C ,  6-C ) :   1.5215 B(  5-C ,  9-C ) :   0.1144
B(  5-C , 10-S ) :   1.1164 B(  6-C ,  7-C ) :   1.2289 B(  6-C , 52-H ) :   1.0062
B(  7-C ,  8-Cl) :   1.0496 B(  7-C ,  9-C ) :   1.5541 B(  9-C , 10-S ) :   1.1188
B(  9-C , 11-C ) :   1.0660 B( 11-C , 12-C ) :   1.5273 B( 11-C , 15-C ) :   0.1016
B( 11-C , 16-S ) :   1.0935 B( 12-C , 13-Cl) :   1.0451 B( 12-C , 14-C ) :   1.2273
B( 14-C , 15-C ) :   1.4585 B( 14-C , 53-H ) :   0.9947 B( 15-C , 16-S ) :   1.1036
B( 15-C , 17-C ) :   1.1673 B( 17-C , 18-C ) :   1.2982 B( 17-C , 26-C ) :   0.1266
B( 17-C , 28-C ) :   1.2023 B( 18-C , 19-C ) :   1.1090 B( 18-C , 23-N ) :   1.3724
B( 19-C , 20-N ) :   1.4307 B( 19-C , 26-C ) :   1.2958 B( 20-N , 21-C ) :   1.6698
B( 21-C , 22-C ) :   1.1067 B( 21-C , 25-F ) :   1.1695 B( 22-C , 23-N ) :   1.6560
B( 22-C , 24-F ) :   1.1882 B( 26-C , 27-C ) :   1.1829 B( 26-C , 32-C ) :   1.1841
B( 27-C , 28-C ) :   1.1093 B( 27-C , 31-N ) :   1.4757 B( 28-C , 29-N ) :   1.5091
B( 29-N , 30-S ) :   1.2789 B( 29-N , 31-N ) :   0.1535 B( 30-S , 31-N ) :   1.2719
B( 32-C , 33-C ) :   1.4257 B( 32-C , 37-S ) :   1.0986 B( 33-C , 34-C ) :   1.2656
B( 33-C , 54-H ) :   0.9976 B( 34-C , 35-Cl) :   1.0237 B( 34-C , 36-C ) :   1.4372
B( 36-C , 37-S ) :   1.0997 B( 36-C , 38-C ) :   1.1952 B( 38-C , 39-C ) :   1.4725
B( 38-C , 42-C ) :   0.1035 B( 38-C , 43-S ) :   1.1166 B( 39-C , 40-Cl) :   1.0326
B( 39-C , 41-C ) :   1.2638 B( 41-C , 42-C ) :   1.4992 B( 41-C , 55-H ) :   1.0076
B( 42-C , 43-S ) :   1.1095 B( 42-C , 44-C ) :   1.1107 B( 44-C , 45-C ) :   1.5424
B( 44-C , 48-S ) :   1.1373 B( 45-C , 46-C ) :   1.2611 B( 45-C , 56-H ) :   0.9954
B( 46-C , 47-C ) :   1.5675 B( 46-C , 57-H ) :   0.9937 B( 47-C , 48-S ) :   1.1643
B( 47-C , 58-H ) :   0.9739

-----------------------------------------------------------------------------
         ABSORPTION SPECTRUM VIA TRANSITION ELECTRIC DIPOLE MOMENTS
-----------------------------------------------------------------------------
State   Energy  Wavelength   fosc         T2         TX        TY        TZ
        (cm-1)    (nm)                  (au**2)     (au)      (au)      (au)
-----------------------------------------------------------------------------
   0    9962.5   1003.8   0.663113720  21.91276  -0.48303   4.11997   2.16917
   1   17131.4    583.7   0.000465904   0.00895   0.02887  -0.04432   0.07846
   2   22662.2    441.3   0.135610317   1.97000   0.63889  -1.09347  -0.60510
   3   24331.4    411.0   0.036851885   0.49862  -0.42675   0.49387   0.26943
   4   24862.1    402.2   0.008766883   0.11609  -0.26592   0.18076   0.11270
   5   25507.0    392.0   0.500658568   6.46187   0.39415  -2.23116  -1.15258
   6   26439.5    378.2   0.992379925  12.35664   0.99323  -2.96544  -1.60509
   7   28284.2    353.6   0.163718978   1.90559   0.93936  -0.74506  -0.68417
   8   28860.9    346.5   0.016347626   0.18647   0.06621  -0.27467  -0.32657
   9   29489.9    339.1   0.028008701   0.31268  -0.54524  -0.11993   0.03169
  10   29938.4    334.0   0.000711277   0.00782   0.05953   0.01529  -0.06359
  11   30563.5    327.2   0.044653348   0.48098  -0.69337  -0.01268   0.00777
  12   30664.0    326.1   0.010319190   0.11079   0.23859   0.09203   0.21306
  13   30843.5    324.2   0.040317411   0.43033   0.39679  -0.51850  -0.06362
  14   33447.4    299.0   0.018046664   0.17763   0.33224  -0.20479  -0.15909
  15   34092.3    293.3   0.005271771   0.05091   0.00829   0.16528   0.15336
  16   34565.4    289.3   0.317444599   3.02344   1.70453  -0.00758  -0.34348
  17   34831.8    287.1   0.077005429   0.72782  -0.71411   0.43985   0.15619
  18   35466.9    282.0   0.183178177   1.70030   1.14282   0.56195   0.28016
  19   35558.4    281.2   0.001599003   0.01480   0.00565  -0.10008   0.06896
  20   35927.8    278.3   0.463838949   4.25023  -1.91475   0.64639   0.40762
  21   36365.8    275.0   0.124649143   1.12842  -1.00474   0.26207   0.22415
  22   37006.7    270.2   0.002846880   0.02533   0.13246   0.02925   0.08322
  23   37228.3    268.6   0.000706430   0.00625   0.03762   0.03235  -0.06153
  24   38739.8    258.1   0.043473298   0.36944  -0.56578   0.21073  -0.07016
  25   39040.3    256.1   0.000872937   0.00736   0.04528   0.01195   0.07189
  26   39997.9    250.0   0.032874911   0.27058   0.46504  -0.16863  -0.16088
  27   40141.9    249.1   0.018772096   0.15395  -0.37519   0.04865   0.10402

FINAL SINGLE POINT ENERGY     -6268.802874909723

DIPOLE MOMENT
-------------
                                X             Y             Z
Electronic contribution:      2.93310       7.77757      -1.00907
Nuclear contribution   :     -2.71424      -8.42636       0.84492
                        -----------------------------------------
Total Dipole Moment    :      0.21885      -0.64879      -0.16415
                        -----------------------------------------
Magnitude (a.u.)       :      0.70411
Magnitude (Debye)      :      1.78970

Rotational constants in cm-1:     0.003786     0.000427     0.000388
Rotational constants in MHz :   113.506486    12.801509    11.625412

                             ****ORCA TERMINATED NORMALLY****
TOTAL RUN TIME: 0 days 0 hours 4 minutes 23 seconds 666 msec
