                         Program Version 4.2.0 -  RELEASE  -
|  1> # ORCA input file
|  2> # SCF done       -137.035272086675          0.000188293578
|  3> ! CAM-B3LYP def2-SVP def2/J RIJCOSX Grid4 TightSCF
|  4> %maxcore 5000
|  5> %tddft
|  6>     Mode sTDDFT
|  7>     Ethresh 5.0
|  8>     maxcore 5000
|  9> end
| 10>
| 11> %pal
| 12>   nprocs 6
| 13>   end
| 14> * xyz 0 1
| 15>    C       11.38987         7.67919        -7.65979
| 16>    C       11.51847         7.28717        -6.34809
| 17>    N       11.67048         8.25928        -5.32926
| 18>    O       11.84588         9.41302        -5.67616
| 19>    O       11.61901         7.90789        -4.16483
| 20>    C       11.50560         5.87310        -6.15813
| 21>    C       11.79687         5.20704        -4.86112
| 22>    C       11.33056         5.21537        -7.35793
| 23>    S       11.23597         6.35130        -8.69972
| 24>    C       11.24822         3.83036        -7.68437
| 25>    C       10.64809         2.82424        -6.98395
| 26>    C       10.63400         1.45368        -7.37558
| 27>    C        9.91798         0.64152        -6.55535
| 28>    C        9.30975         1.31348        -5.46960
| 29>    S        9.68287         3.02370        -5.52892
| 30>    C        8.53219         0.78507        -4.45832
| 31>    C        8.13910        -0.55788        -4.25842
| 32>    C        7.38500        -0.74490        -3.14041
| 33>    C        7.13035         0.43768        -2.39889
| 34>    S        7.88836         1.80145        -3.19256
| 35>    C        6.47424         0.48173        -1.18933
| 36>    C        6.19146         1.60559        -0.39945
| 37>    C        6.11432         2.96359        -0.70280
| 38>    F        6.13776         3.44931        -1.95062
| 39>    C        5.90014         3.79145         0.39268
| 40>    F        5.69538         5.10675         0.24628
| 41>    C        5.79487         3.12824         1.61407
| 42>    S        5.89476         1.40509         1.31711
| 43>    C        5.66577         3.62241         2.92120
| 44>    C        6.09519         4.85084         3.37508
| 45>    C        5.93518         5.35563         4.68993
| 46>    C        6.56247         6.54576         4.91446
| 47>    C        7.26604         7.03433         3.79338
| 48>    S        7.07152         5.95721         2.43547
| 49>    C        8.04863         8.16957         3.66896
| 50>    C        8.32288         9.17938         4.61568
| 51>    C        9.16247        10.14761         4.15205
| 52>    C        9.60437         9.95155         2.81818
| 53>    S        8.89161         8.49040         2.16984
| 54>    C       10.46689        10.77653         2.13709
| 55>    C       10.94744        10.60664         0.83054
| 56>    C       11.84157        11.42847         0.11344
| 57>    N       12.39993        12.61335         0.62646
| 58>    O       11.97655        13.06252         1.68450
| 59>    O       13.29413        13.15114        -0.00635
| 60>    C       12.13866        10.93740        -1.19282
| 61>    C       13.02521        11.58316        -2.19825
| 62>    C       11.48205         9.77097        -1.44672
| 63>    S       10.50654         9.23341        -0.14368
| 64>    H       11.37314         8.68668        -8.02590
| 65>    H       12.55026         5.76751        -4.31208
| 66>    H       12.15177         4.19386        -5.02736
| 67>    H       10.90436         5.17095        -4.23676
| 68>    H       11.64462         3.56205        -8.65604
| 69>    H       11.16386         1.12251        -8.25106
| 70>    H        9.80792        -0.41852        -6.69793
| 71>    H        8.42495        -1.34336        -4.93459
| 72>    H        7.00054        -1.69667        -2.81850
| 73>    H        6.20696        -0.47260        -0.75389
| 74>    H        5.26588         2.93734         3.65683
| 75>    H        5.36051         4.82231         5.42648
| 76>    H        6.54782         7.07146         5.85230
| 77>    H        7.89501         9.16752         5.60208
| 78>    H        9.48560        10.99983         4.72300
| 79>    H       10.81631        11.65508         2.66283
| 80>    H       14.05672        11.58367        -1.85020
| 81>    H       12.74037        12.62235        -2.34942
| 82>    H       12.96088        11.04929        -3.14269
| 83>    H       11.52072         9.18043        -2.34160
| 84> *
| 85>
| 86>                          ****END OF INPUT****

CARTESIAN COORDINATES (ANGSTROEM)
---------------------------------
  C     11.389870    7.679190   -7.659790
  C     11.518470    7.287170   -6.348090
  N     11.670480    8.259280   -5.329260
  O     11.845880    9.413020   -5.676160
  O     11.619010    7.907890   -4.164830
  C     11.505600    5.873100   -6.158130
  C     11.796870    5.207040   -4.861120
  C     11.330560    5.215370   -7.357930
  S     11.235970    6.351300   -8.699720
  C     11.248220    3.830360   -7.684370
  C     10.648090    2.824240   -6.983950
  C     10.634000    1.453680   -7.375580
  C      9.917980    0.641520   -6.555350
  C      9.309750    1.313480   -5.469600
  S      9.682870    3.023700   -5.528920
  C      8.532190    0.785070   -4.458320
  C      8.139100   -0.557880   -4.258420
  C      7.385000   -0.744900   -3.140410
  C      7.130350    0.437680   -2.398890
  S      7.888360    1.801450   -3.192560
  C      6.474240    0.481730   -1.189330
  C      6.191460    1.605590   -0.399450
  C      6.114320    2.963590   -0.702800
  F      6.137760    3.449310   -1.950620
  C      5.900140    3.791450    0.392680
  F      5.695380    5.106750    0.246280
  C      5.794870    3.128240    1.614070
  S      5.894760    1.405090    1.317110
  C      5.665770    3.622410    2.921200
  C      6.095190    4.850840    3.375080
  C      5.935180    5.355630    4.689930
  C      6.562470    6.545760    4.914460
  C      7.266040    7.034330    3.793380
  S      7.071520    5.957210    2.435470
  C      8.048630    8.169570    3.668960
  C      8.322880    9.179380    4.615680
  C      9.162470   10.147610    4.152050
  C      9.604370    9.951550    2.818180
  S      8.891610    8.490400    2.169840
  C     10.466890   10.776530    2.137090
  C     10.947440   10.606640    0.830540
  C     11.841570   11.428470    0.113440
  N     12.399930   12.613350    0.626460
  O     11.976550   13.062520    1.684500
  O     13.294130   13.151140   -0.006350
  C     12.138660   10.937400   -1.192820
  C     13.025210   11.583160   -2.198250
  C     11.482050    9.770970   -1.446720
  S     10.506540    9.233410   -0.143680
  H     11.373140    8.686680   -8.025900
  H     12.550260    5.767510   -4.312080
  H     12.151770    4.193860   -5.027360
  H     10.904360    5.170950   -4.236760
  H     11.644620    3.562050   -8.656040
  H     11.163860    1.122510   -8.251060
  H      9.807920   -0.418520   -6.697930
  H      8.424950   -1.343360   -4.934590
  H      7.000540   -1.696670   -2.818500
  H      6.206960   -0.472600   -0.753890
  H      5.265880    2.937340    3.656830
  H      5.360510    4.822310    5.426480
  H      6.547820    7.071460    5.852300
  H      7.895010    9.167520    5.602080
  H      9.485600   10.999830    4.723000
  H     10.816310   11.655080    2.662830
  H     14.056720   11.583670   -1.850200
  H     12.740370   12.622350   -2.349420
  H     12.960880   11.049290   -3.142690
  H     11.520720    9.180430   -2.341600

 Total Charge           Charge          ....    0
 Multiplicity           Mult            ....    1
 Number of Electrons    NEL             ....  400
 Basis Dimension        Dim             ....  814

ORBITAL ENERGIES
----------------

  NO   OCC          E(Eh)            E(eV)
   0   2.0000     -88.976045     -2421.1613
   1   2.0000     -88.965286     -2420.8685
   2   2.0000     -88.952187     -2420.5121
   3   2.0000     -88.948671     -2420.4164
   4   2.0000     -88.946326     -2420.3526
   5   2.0000     -88.944777     -2420.3104
   6   2.0000     -88.943356     -2420.2718
   7   2.0000     -24.794858      -674.7024
   8   2.0000     -24.792330      -674.6336
   9   2.0000     -19.247426      -523.7491
  10   2.0000     -19.243563      -523.6440
  11   2.0000     -19.212734      -522.8051
  12   2.0000     -19.211434      -522.7697
  13   2.0000     -14.652824      -398.7236
  14   2.0000     -14.622687      -397.9035
  15   2.0000     -10.366691      -282.0920
  16   2.0000     -10.365010      -282.0462
  17   2.0000     -10.328038      -281.0402
  18   2.0000     -10.321760      -280.8694
  19   2.0000     -10.317391      -280.7505
  20   2.0000     -10.316945      -280.7384
  21   2.0000     -10.316774      -280.7337
  22   2.0000     -10.314473      -280.6711
  23   2.0000     -10.314336      -280.6673
  24   2.0000     -10.314271      -280.6656
  25   2.0000     -10.313703      -280.6501
  26   2.0000     -10.312594      -280.6199
  27   2.0000     -10.310719      -280.5689
  28   2.0000     -10.310604      -280.5658
  29   2.0000     -10.310173      -280.5541
  30   2.0000     -10.306588      -280.4565
  31   2.0000     -10.303085      -280.3612
  32   2.0000     -10.301073      -280.3064
  33   2.0000     -10.295780      -280.1624
  34   2.0000     -10.293898      -280.1112
  35   2.0000     -10.291704      -280.0515
  36   2.0000     -10.291421      -280.0438
  37   2.0000     -10.291095      -280.0349
  38   2.0000     -10.290339      -280.0144
  39   2.0000     -10.289723      -279.9976
  40   2.0000     -10.289330      -279.9869
  41   2.0000     -10.287200      -279.9289
  42   2.0000     -10.286095      -279.8989
  43   2.0000     -10.283511      -279.8286
  44   2.0000     -10.274662      -279.5878
  45   2.0000     -10.274475      -279.5827
  46   2.0000     -10.272942      -279.5410
  47   2.0000     -10.262845      -279.2662
  48   2.0000     -10.241785      -278.6931
  49   2.0000      -8.072055      -219.6518
  50   2.0000      -8.060886      -219.3479
  51   2.0000      -8.047850      -218.9931
  52   2.0000      -8.044741      -218.9085
  53   2.0000      -8.042668      -218.8521
  54   2.0000      -8.041040      -218.8078
  55   2.0000      -8.039777      -218.7735
  56   2.0000      -6.041142      -164.3878
  57   2.0000      -6.036941      -164.2735
  58   2.0000      -6.034563      -164.2088
  59   2.0000      -6.030360      -164.0944
  60   2.0000      -6.026708      -163.9951
  61   2.0000      -6.022072      -163.8689
  62   2.0000      -6.017053      -163.7323
  63   2.0000      -6.014589      -163.6653
  64   2.0000      -6.012617      -163.6116
  65   2.0000      -6.012438      -163.6068
  66   2.0000      -6.010769      -163.5613
  67   2.0000      -6.010443      -163.5525
  68   2.0000      -6.010356      -163.5501
  69   2.0000      -6.009504      -163.5269
  70   2.0000      -6.008262      -163.4931
  71   2.0000      -6.006535      -163.4461
  72   2.0000      -6.005486      -163.4176
  73   2.0000      -6.005337      -163.4135
  74   2.0000      -6.003474      -163.3628
  75   2.0000      -6.002055      -163.3242
  76   2.0000      -6.000673      -163.2866
  77   2.0000      -1.325098       -36.0577
  78   2.0000      -1.314233       -35.7621
  79   2.0000      -1.300981       -35.4015
  80   2.0000      -1.291396       -35.1407
  81   2.0000      -1.141375       -31.0584
  82   2.0000      -1.106741       -30.1159
  83   2.0000      -1.009655       -27.4741
  84   2.0000      -1.001600       -27.2549
  85   2.0000      -0.998262       -27.1641
  86   2.0000      -0.994570       -27.0636
  87   2.0000      -0.984789       -26.7975
  88   2.0000      -0.976627       -26.5754
  89   2.0000      -0.970632       -26.4122
  90   2.0000      -0.915124       -24.9018
  91   2.0000      -0.906999       -24.6807
  92   2.0000      -0.894102       -24.3298
  93   2.0000      -0.886218       -24.1152
  94   2.0000      -0.879975       -23.9453
  95   2.0000      -0.874577       -23.7985
  96   2.0000      -0.861393       -23.4397
  97   2.0000      -0.851952       -23.1828
  98   2.0000      -0.847376       -23.0583
  99   2.0000      -0.837556       -22.7910
 100   2.0000      -0.834299       -22.7024
 101   2.0000      -0.826899       -22.5011
 102   2.0000      -0.825623       -22.4663
 103   2.0000      -0.819458       -22.2986
 104   2.0000      -0.803395       -21.8615
 105   2.0000      -0.787067       -21.4172
 106   2.0000      -0.767559       -20.8863
 107   2.0000      -0.759038       -20.6545
 108   2.0000      -0.749848       -20.4044
 109   2.0000      -0.734510       -19.9870
 110   2.0000      -0.731091       -19.8940
 111   2.0000      -0.717417       -19.5219
 112   2.0000      -0.700899       -19.0724
 113   2.0000      -0.688829       -18.7440
 114   2.0000      -0.676213       -18.4007
 115   2.0000      -0.672622       -18.3030
 116   2.0000      -0.663543       -18.0559
 117   2.0000      -0.656421       -17.8621
 118   2.0000      -0.647662       -17.6238
 119   2.0000      -0.645448       -17.5635
 120   2.0000      -0.633699       -17.2438
 121   2.0000      -0.631031       -17.1712
 122   2.0000      -0.627147       -17.0655
 123   2.0000      -0.626085       -17.0366
 124   2.0000      -0.622503       -16.9392
 125   2.0000      -0.618812       -16.8387
 126   2.0000      -0.617985       -16.8162
 127   2.0000      -0.614833       -16.7304
 128   2.0000      -0.612706       -16.6726
 129   2.0000      -0.605595       -16.4791
 130   2.0000      -0.603390       -16.4191
 131   2.0000      -0.589485       -16.0407
 132   2.0000      -0.581566       -15.8252
 133   2.0000      -0.579151       -15.7595
 134   2.0000      -0.576922       -15.6988
 135   2.0000      -0.568550       -15.4710
 136   2.0000      -0.559139       -15.2150
 137   2.0000      -0.550816       -14.9885
 138   2.0000      -0.545127       -14.8336
 139   2.0000      -0.542645       -14.7661
 140   2.0000      -0.540372       -14.7043
 141   2.0000      -0.529758       -14.4154
 142   2.0000      -0.527964       -14.3666
 143   2.0000      -0.521928       -14.2024
 144   2.0000      -0.516848       -14.0642
 145   2.0000      -0.514811       -14.0087
 146   2.0000      -0.513852       -13.9826
 147   2.0000      -0.507381       -13.8065
 148   2.0000      -0.502165       -13.6646
 149   2.0000      -0.501112       -13.6359
 150   2.0000      -0.498935       -13.5767
 151   2.0000      -0.496988       -13.5237
 152   2.0000      -0.495256       -13.4766
 153   2.0000      -0.491092       -13.3633
 154   2.0000      -0.487018       -13.2524
 155   2.0000      -0.485701       -13.2166
 156   2.0000      -0.483122       -13.1464
 157   2.0000      -0.479558       -13.0494
 158   2.0000      -0.474953       -12.9241
 159   2.0000      -0.473077       -12.8731
 160   2.0000      -0.469333       -12.7712
 161   2.0000      -0.465704       -12.6724
 162   2.0000      -0.462248       -12.5784
 163   2.0000      -0.461951       -12.5703
 164   2.0000      -0.458516       -12.4768
 165   2.0000      -0.449655       -12.2357
 166   2.0000      -0.445664       -12.1271
 167   2.0000      -0.440736       -11.9930
 168   2.0000      -0.440400       -11.9839
 169   2.0000      -0.438720       -11.9382
 170   2.0000      -0.434680       -11.8282
 171   2.0000      -0.430376       -11.7111
 172   2.0000      -0.427173       -11.6240
 173   2.0000      -0.423780       -11.5316
 174   2.0000      -0.421320       -11.4647
 175   2.0000      -0.409253       -11.1363
 176   2.0000      -0.406314       -11.0564
 177   2.0000      -0.399264       -10.8645
 178   2.0000      -0.390368       -10.6224
 179   2.0000      -0.389199       -10.5906
 180   2.0000      -0.383499       -10.4355
 181   2.0000      -0.381318       -10.3762
 182   2.0000      -0.371434       -10.1072
 183   2.0000      -0.367285        -9.9943
 184   2.0000      -0.357931        -9.7398
 185   2.0000      -0.353106        -9.6085
 186   2.0000      -0.347781        -9.4636
 187   2.0000      -0.341093        -9.2816
 188   2.0000      -0.338580        -9.2132
 189   2.0000      -0.337644        -9.1878
 190   2.0000      -0.336058        -9.1446
 191   2.0000      -0.326362        -8.8807
 192   2.0000      -0.325295        -8.8517
 193   2.0000      -0.321112        -8.7379
 194   2.0000      -0.318130        -8.6568
 195   2.0000      -0.307978        -8.3805
 196   2.0000      -0.294859        -8.0235
 197   2.0000      -0.272740        -7.4216
 198   2.0000      -0.229353        -6.2410
 199   2.0000      -0.203811        -5.5460
 200   0.0000      -0.095449        -2.5973
 201   0.0000      -0.070737        -1.9249
 202   0.0000      -0.049811        -1.3554
 203   0.0000      -0.028336        -0.7711
 204   0.0000      -0.007866        -0.2141

MULLIKEN ATOMIC CHARGES
-----------------------
   0 C :   -0.084165
   1 C :    0.084823
   2 N :    0.280280
   3 O :   -0.240723
   4 O :   -0.236297
   5 C :   -0.059127
   6 C :    0.153654
   7 C :   -0.189114
   8 S :    0.161520
   9 C :   -0.030440
  10 C :   -0.014238
  11 C :    0.029233
  12 C :    0.036430
  13 C :   -0.061904
  14 S :    0.086098
  15 C :   -0.048371
  16 C :    0.030130
  17 C :    0.036594
  18 C :   -0.036602
  19 S :    0.103927
  20 C :    0.039678
  21 C :   -0.188510
  22 C :    0.215492
  23 F :   -0.168144
  24 C :    0.207588
  25 F :   -0.166635
  26 C :   -0.180880
  27 S :    0.140948
  28 C :    0.035570
  29 C :   -0.035588
  30 C :    0.033086
  31 C :    0.033661
  32 C :   -0.053001
  33 S :    0.104497
  34 C :   -0.031034
  35 C :    0.032149
  36 C :    0.036289
  37 C :   -0.021231
  38 S :    0.071366
  39 C :   -0.037453
  40 C :   -0.140362
  41 C :    0.146743
  42 N :    0.267641
  43 O :   -0.269790
  44 O :   -0.260334
  45 C :   -0.104348
  46 C :    0.167442
  47 C :   -0.106103
  48 S :    0.120477
  49 H :    0.044723
  50 H :    0.027753
  51 H :    0.020342
  52 H :    0.042169
  53 H :   -0.003533
  54 H :   -0.010159
  55 H :   -0.010742
  56 H :   -0.012902
  57 H :   -0.010802
  58 H :   -0.010713
  59 H :   -0.009344
  60 H :   -0.010506
  61 H :   -0.011249
  62 H :   -0.014140
  63 H :   -0.003549
  64 H :    0.022524
  65 H :    0.026497
  66 H :    0.021835
  67 H :    0.004051
  68 H :    0.006822
Sum of atomic charges:    0.0000000

LOEWDIN ATOMIC CHARGES
----------------------
   0 C :   -0.151017
   1 C :   -0.081357
   2 N :    0.294245
   3 O :   -0.208122
   4 O :   -0.197502
   5 C :   -0.047101
   6 C :   -0.056905
   7 C :   -0.175975
   8 S :    0.476514
   9 C :   -0.096575
  10 C :   -0.136229
  11 C :   -0.036034
  12 C :   -0.027329
  13 C :   -0.182222
  14 S :    0.395511
  15 C :   -0.175557
  16 C :   -0.035747
  17 C :   -0.028235
  18 C :   -0.146800
  19 S :    0.395490
  20 C :   -0.078371
  21 C :   -0.201977
  22 C :    0.017280
  23 F :   -0.045764
  24 C :    0.011935
  25 F :   -0.045610
  26 C :   -0.198996
  27 S :    0.434912
  28 C :   -0.085475
  29 C :   -0.141731
  30 C :   -0.032670
  31 C :   -0.030630
  32 C :   -0.177464
  33 S :    0.400778
  34 C :   -0.174901
  35 C :   -0.035607
  36 C :   -0.023303
  37 C :   -0.145319
  38 S :    0.377990
  39 C :   -0.071511
  40 C :   -0.150332
  41 C :   -0.082647
  42 N :    0.289838
  43 O :   -0.230814
  44 O :   -0.213084
  45 C :   -0.044403
  46 C :   -0.045241
  47 C :   -0.189091
  48 S :    0.460585
  49 H :    0.037914
  50 H :    0.035363
  51 H :    0.028444
  52 H :    0.038226
  53 H :    0.033191
  54 H :    0.033384
  55 H :    0.033217
  56 H :    0.031721
  57 H :    0.033648
  58 H :    0.035746
  59 H :    0.035125
  60 H :    0.033454
  61 H :    0.032837
  62 H :    0.032360
  63 H :    0.037317
  64 H :    0.042063
  65 H :    0.038001
  66 H :    0.035812
  67 H :    0.028434
  68 H :    0.016314

  Mayer bond orders larger than 0.100000
B(  0-C ,  1-C ) :   1.5102 B(  0-C ,  8-S ) :   1.2153 B(  0-C , 49-H ) :   0.9570
B(  1-C ,  2-N ) :   0.9279 B(  1-C ,  5-C ) :   1.2311 B(  2-N ,  3-O ) :   1.5441
B(  2-N ,  4-O ) :   1.4814 B(  3-O ,  4-O ) :   0.2534 B(  4-O , 68-H ) :   0.1022
B(  5-C ,  6-C ) :   1.1320 B(  5-C ,  7-C ) :   1.5271 B(  6-C , 50-H ) :   0.9270
B(  6-C , 51-H ) :   0.9350 B(  6-C , 52-H ) :   0.9232 B(  7-C ,  8-S ) :   1.1176
B(  7-C ,  9-C ) :   1.0750 B(  9-C , 10-C ) :   1.6705 B(  9-C , 53-H ) :   0.9480
B( 10-C , 11-C ) :   1.1198 B( 10-C , 14-S ) :   1.0408 B( 11-C , 12-C ) :   1.6109
B( 11-C , 54-H ) :   0.9986 B( 12-C , 13-C ) :   1.1772 B( 12-C , 55-H ) :   0.9934
B( 13-C , 14-S ) :   1.0417 B( 13-C , 15-C ) :   1.5186 B( 15-C , 16-C ) :   1.1794
B( 15-C , 19-S ) :   1.0488 B( 16-C , 17-C ) :   1.5964 B( 16-C , 56-H ) :   0.9935
B( 17-C , 18-C ) :   1.1453 B( 17-C , 57-H ) :   0.9985 B( 18-C , 19-S ) :   1.0523
B( 18-C , 20-C ) :   1.5939 B( 20-C , 21-C ) :   1.1679 B( 20-C , 58-H ) :   0.9464
B( 21-C , 22-C ) :   1.3940 B( 21-C , 26-C ) :   0.1090 B( 21-C , 27-S ) :   1.0862
B( 22-C , 23-F ) :   1.1478 B( 22-C , 24-C ) :   1.2507 B( 24-C , 25-F ) :   1.1517
B( 24-C , 26-C ) :   1.4016 B( 26-C , 27-S ) :   1.0850 B( 26-C , 28-C ) :   1.1624
B( 28-C , 29-C ) :   1.5814 B( 28-C , 59-H ) :   0.9497 B( 29-C , 30-C ) :   1.1521
B( 29-C , 33-S ) :   1.0609 B( 30-C , 31-C ) :   1.5852 B( 30-C , 60-H ) :   0.9982
B( 31-C , 32-C ) :   1.1916 B( 31-C , 61-H ) :   0.9944 B( 32-C , 33-S ) :   1.0570
B( 32-C , 34-C ) :   1.4952 B( 34-C , 35-C ) :   1.1904 B( 34-C , 38-S ) :   1.0459
B( 35-C , 36-C ) :   1.5801 B( 35-C , 62-H ) :   0.9935 B( 36-C , 37-C ) :   1.1534
B( 36-C , 63-H ) :   1.0008 B( 37-C , 38-S ) :   1.0405 B( 37-C , 39-C ) :   1.5083
B( 39-C , 40-C ) :   1.2244 B( 39-C , 64-H ) :   0.9605 B( 40-C , 41-C ) :   1.3779
B( 40-C , 48-S ) :   1.1570 B( 41-C , 42-N ) :   0.9783 B( 41-C , 45-C ) :   1.2454
B( 42-N , 43-O ) :   1.4795 B( 42-N , 44-O ) :   1.5026 B( 43-O , 44-O ) :   0.2433
B( 45-C , 46-C ) :   1.1050 B( 45-C , 47-C ) :   1.5903 B( 46-C , 65-H ) :   0.9348
B( 46-C , 66-H ) :   0.9362 B( 46-C , 67-H ) :   0.9358 B( 47-C , 48-S ) :   1.1206
B( 47-C , 68-H ) :   0.9421

-----------------------------------------------------------------------------
         ABSORPTION SPECTRUM VIA TRANSITION ELECTRIC DIPOLE MOMENTS
-----------------------------------------------------------------------------
State   Energy  Wavelength   fosc         T2         TX        TY        TZ
        (cm-1)    (nm)                  (au**2)     (au)      (au)      (au)
-----------------------------------------------------------------------------
   0   10498.5    952.5   0.617863042  19.37489  -0.50887  -3.29285  -2.87629
   1   15971.6    626.1   0.010170986   0.20965  -0.35910  -0.21528   0.18533
   2   17586.7    568.6   2.107668471  39.45429   3.81031   3.25940  -3.78315
   3   20159.9    496.0   0.012899740   0.21065  -0.37816   0.00297   0.26008
   4   22535.9    443.7   0.108354769   1.58288  -0.25796  -1.18507  -0.33459
   5   23155.1    431.9   0.005169382   0.07350   0.06790  -0.18489  -0.18629
   6   24986.5    400.2   0.004562501   0.06011   0.13624   0.02919   0.20174
   7   25848.1    386.9   0.543141206   6.91766   0.08761  -1.85179  -1.86571
   8   27216.0    367.4   0.015846423   0.19168  -0.01975   0.28147   0.33476
   9   29659.0    337.2   0.013882863   0.15410   0.31574  -0.12596  -0.19632
  10   30037.3    332.9   0.183562052   2.01186  -0.04648   1.33129   0.48720
  11   30361.0    329.4   0.002585621   0.02804   0.02526   0.09607   0.13479
  12   31213.8    320.4   0.009572941   0.10097   0.04726   0.31422   0.00067
  13   31403.3    318.4   0.023130501   0.24249  -0.01408  -0.48750   0.06805
  14   31685.3    315.6   0.006335188   0.06582  -0.01622  -0.15876   0.20089
  15   32465.2    308.0   0.040619220   0.41190   0.15139  -0.33064  -0.52882
  16   32887.0    304.1   0.011696472   0.11709  -0.03368  -0.26311   0.21616
  17   33061.3    302.5   0.043468648   0.43284  -0.06526   0.52929  -0.38528
  18   33952.6    294.5   0.005895553   0.05716  -0.11312  -0.21049  -0.00776
  19   34214.3    292.3   0.034801160   0.33486  -0.09128  -0.47163   0.32263
  20   34815.8    287.2   0.003289904   0.03111   0.03226   0.00833   0.17320
  21   34835.7    287.1   0.044792814   0.42331  -0.11451  -0.48699  -0.41598
  22   35075.7    285.1   0.012440645   0.11676  -0.02009   0.23183   0.25024
  23   35404.2    282.5   0.116349966   1.08190   0.39207   0.96059  -0.07382
  24   35553.9    281.3   0.054808950   0.50751  -0.43819  -0.07745   0.55633
  25   35734.9    279.8   0.032019508   0.29498  -0.23565   0.33828   0.35358
  26   36331.3    275.2   0.066873791   0.60597   0.18478   0.72724   0.20723
  27   37084.7    269.7   0.001008930   0.00896  -0.00376  -0.04513   0.08310
  28   37317.5    268.0   0.022239334   0.19619   0.11417   0.41857  -0.08919
  29   37814.0    264.5   0.033397540   0.29076   0.08298   0.30770   0.43497
  30   38198.2    261.8   0.028316825   0.24405  -0.27365   0.01695   0.41094
  31   38726.3    258.2   0.031922413   0.27137   0.09994   0.36536  -0.35762
  32   39024.4    256.2   0.013712995   0.11568   0.27638   0.16388   0.11153
  33   39539.6    252.9   0.019894470   0.16564   0.02527   0.22092  -0.34088
  34   39758.7    251.5   0.002879452   0.02384   0.00578  -0.11376  -0.10425

FINAL SINGLE POINT ENERGY     -4701.592361678943

DIPOLE MOMENT
-------------
                                X             Y             Z
Electronic contribution:    -20.73213      -5.25643       4.80201
Nuclear contribution   :     19.56084       1.06145      -5.53949
                        -----------------------------------------
Total Dipole Moment    :     -1.17129      -4.19498      -0.73749
                        -----------------------------------------
Magnitude (a.u.)       :      4.41743
Magnitude (Debye)      :     11.22821

Rotational constants in cm-1:     0.001366     0.001078     0.000618
Rotational constants in MHz :    40.938944    32.330049    18.527525

                             ****ORCA TERMINATED NORMALLY****
TOTAL RUN TIME: 0 days 0 hours 5 minutes 23 seconds 370 msec
