                         Program Version 4.2.0 -  RELEASE  -
|  1> # ORCA input file
|  2> # SCF done       -172.583142077212          0.000516451294
|  3> ! CAM-B3LYP def2-SVP def2/J RIJCOSX Grid4 TightSCF
|  4> %maxcore 5000
|  5> %tddft
|  6>     Mode sTDDFT
|  7>     Ethresh 5.0
|  8>     maxcore 5000
|  9> end
| 10>
| 11> %pal
| 12>   nprocs 6
| 13>   end
| 14> * xyz 0 1
| 15>    C      -10.13675        -3.56389         8.46247
| 16>    C       -8.78203        -3.58934         8.47554
| 17>    C       -7.68049        -3.20129         9.37703
| 18>    O       -7.70528        -2.72430        10.48305
| 19>    N       -6.52435        -3.49611         8.66315
| 20>    C       -5.19895        -3.25243         9.17498
| 21>    C       -6.75566        -4.04142         7.40077
| 22>    O       -5.88699        -4.36850         6.62625
| 23>    C       -8.20873        -4.09717         7.27696
| 24>    C       -9.13097        -4.45647         6.32284
| 25>    S      -10.74628        -4.16562         6.95975
| 26>    C       -8.92783        -4.93672         5.00906
| 27>    C       -9.89532        -5.10855         4.02542
| 28>    C       -9.34602        -5.50346         2.81897
| 29>    C       -7.95623        -5.65957         2.89020
| 30>    S       -7.31200        -5.30231         4.43702
| 31>    C       -7.46324        -5.95975         1.60231
| 32>    C       -8.53080        -5.97043         0.69639
| 33>    C       -9.84258        -5.74091         1.41098
| 34>    C      -10.73537        -6.98354         1.33660
| 35>    C      -10.57354        -4.51565         0.85811
| 36>    C       -8.11832        -6.09951        -0.61751
| 37>    C       -6.73571        -6.20115        -0.72878
| 38>    S       -5.94722        -6.19625         0.84232
| 39>    C       -5.92262        -6.12021        -1.89198
| 40>    C       -6.37194        -5.62007        -3.13714
| 41>    C       -5.44041        -5.18174        -4.14054
| 42>    N       -5.90075        -4.61958        -5.27566
| 43>    C       -7.17537        -4.49678        -5.45858
| 44>    C       -8.09281        -4.94111        -4.47565
| 45>    N       -7.69357        -5.47166        -3.36584
| 46>    F       -9.41013        -4.83476        -4.66451
| 47>    F       -7.59477        -3.95447        -6.60003
| 48>    C       -4.03785        -5.27007        -3.98375
| 49>    C       -3.60178        -5.99000        -2.84668
| 50>    C       -4.53340        -6.37432        -1.81435
| 51>    N       -3.91970        -6.95643        -0.78620
| 52>    S       -2.34464        -7.03249        -1.08330
| 53>    N       -2.35042        -6.31470        -2.52286
| 54>    C       -3.14653        -4.53297        -4.80554
| 55>    C       -1.75570        -4.59777        -4.80918
| 56>    C       -1.18675        -3.56255        -5.52663
| 57>    C       -2.14136        -2.68779        -6.06233
| 58>    S       -3.75083        -3.19634        -5.76524
| 59>    C       -1.47827        -1.57328        -6.61944
| 60>    C       -0.09636        -1.74278        -6.46642
| 61>    C        0.21329        -3.06637        -5.80523
| 62>    C        1.01169        -2.87941        -4.51381
| 63>    C        0.94839        -4.00752        -6.76525
| 64>    C        0.62151        -0.63788        -6.88603
| 65>    C       -0.20794         0.38489        -7.33296
| 66>    S       -1.90546        -0.04468        -7.26456
| 67>    C        0.18949         1.67980        -7.73729
| 68>    C       -0.57817         2.78744        -8.00883
| 69>    C       -1.99544         3.13400        -8.02394
| 70>    O       -2.97308         2.45154        -7.82411
| 71>    N       -2.02826         4.49307        -8.33476
| 72>    C       -3.25659         5.24123        -8.43400
| 73>    C       -0.77621         5.06095        -8.54042
| 74>    O       -0.58183         6.21383        -8.82976
| 75>    C        0.17452         3.95278        -8.32278
| 76>    C        1.51479         3.75479        -8.30840
| 77>    S        1.88744         2.11592        -7.89854
| 78>    H      -10.81972        -3.23375         9.21895
| 79>    H       -5.30065        -2.75863        10.13970
| 80>    H       -4.64607        -2.61637         8.48271
| 81>    H       -4.66102        -4.19420         9.29288
| 82>    H      -10.93784        -4.91963         4.21077
| 83>    H      -10.20975        -7.85033         1.73043
| 84>    H      -11.01090        -7.18122         0.30394
| 85>    H      -11.63976        -6.82849         1.91964
| 86>    H       -9.93631        -3.63652         0.91892
| 87>    H      -11.47999        -4.33064         1.42893
| 88>    H      -10.84022        -4.68063        -0.18247
| 89>    H       -8.75717        -6.09824        -1.47942
| 90>    H       -1.22559        -5.36294        -4.27375
| 91>    H        0.48589        -2.20824        -3.83885
| 92>    H        1.98900        -2.45792        -4.73501
| 93>    H        1.14529        -3.83740        -4.01795
| 94>    H        0.37594        -4.13410        -7.68107
| 95>    H        1.08409        -4.98095        -6.30087
| 96>    H        1.92320        -3.59707        -7.01660
| 97>    H        1.69169        -0.53381        -6.85691
| 98>    H       -4.07554         4.53138        -8.53777
| 99>    H       -3.20870         5.90043        -9.29998
|100>    H       -3.40959         5.84510        -7.53720
|101>    H        2.30876         4.44765        -8.50171
|102> *
|103>
|104>                          ****END OF INPUT****

CARTESIAN COORDINATES (ANGSTROEM)
---------------------------------
  C    -10.136750   -3.563890    8.462470
  C     -8.782030   -3.589340    8.475540
  C     -7.680490   -3.201290    9.377030
  O     -7.705280   -2.724300   10.483050
  N     -6.524350   -3.496110    8.663150
  C     -5.198950   -3.252430    9.174980
  C     -6.755660   -4.041420    7.400770
  O     -5.886990   -4.368500    6.626250
  C     -8.208730   -4.097170    7.276960
  C     -9.130970   -4.456470    6.322840
  S    -10.746280   -4.165620    6.959750
  C     -8.927830   -4.936720    5.009060
  C     -9.895320   -5.108550    4.025420
  C     -9.346020   -5.503460    2.818970
  C     -7.956230   -5.659570    2.890200
  S     -7.312000   -5.302310    4.437020
  C     -7.463240   -5.959750    1.602310
  C     -8.530800   -5.970430    0.696390
  C     -9.842580   -5.740910    1.410980
  C    -10.735370   -6.983540    1.336600
  C    -10.573540   -4.515650    0.858110
  C     -8.118320   -6.099510   -0.617510
  C     -6.735710   -6.201150   -0.728780
  S     -5.947220   -6.196250    0.842320
  C     -5.922620   -6.120210   -1.891980
  C     -6.371940   -5.620070   -3.137140
  C     -5.440410   -5.181740   -4.140540
  N     -5.900750   -4.619580   -5.275660
  C     -7.175370   -4.496780   -5.458580
  C     -8.092810   -4.941110   -4.475650
  N     -7.693570   -5.471660   -3.365840
  F     -9.410130   -4.834760   -4.664510
  F     -7.594770   -3.954470   -6.600030
  C     -4.037850   -5.270070   -3.983750
  C     -3.601780   -5.990000   -2.846680
  C     -4.533400   -6.374320   -1.814350
  N     -3.919700   -6.956430   -0.786200
  S     -2.344640   -7.032490   -1.083300
  N     -2.350420   -6.314700   -2.522860
  C     -3.146530   -4.532970   -4.805540
  C     -1.755700   -4.597770   -4.809180
  C     -1.186750   -3.562550   -5.526630
  C     -2.141360   -2.687790   -6.062330
  S     -3.750830   -3.196340   -5.765240
  C     -1.478270   -1.573280   -6.619440
  C     -0.096360   -1.742780   -6.466420
  C      0.213290   -3.066370   -5.805230
  C      1.011690   -2.879410   -4.513810
  C      0.948390   -4.007520   -6.765250
  C      0.621510   -0.637880   -6.886030
  C     -0.207940    0.384890   -7.332960
  S     -1.905460   -0.044680   -7.264560
  C      0.189490    1.679800   -7.737290
  C     -0.578170    2.787440   -8.008830
  C     -1.995440    3.134000   -8.023940
  O     -2.973080    2.451540   -7.824110
  N     -2.028260    4.493070   -8.334760
  C     -3.256590    5.241230   -8.434000
  C     -0.776210    5.060950   -8.540420
  O     -0.581830    6.213830   -8.829760
  C      0.174520    3.952780   -8.322780
  C      1.514790    3.754790   -8.308400
  S      1.887440    2.115920   -7.898540
  H    -10.819720   -3.233750    9.218950
  H     -5.300650   -2.758630   10.139700
  H     -4.646070   -2.616370    8.482710
  H     -4.661020   -4.194200    9.292880
  H    -10.937840   -4.919630    4.210770
  H    -10.209750   -7.850330    1.730430
  H    -11.010900   -7.181220    0.303940
  H    -11.639760   -6.828490    1.919640
  H     -9.936310   -3.636520    0.918920
  H    -11.479990   -4.330640    1.428930
  H    -10.840220   -4.680630   -0.182470
  H     -8.757170   -6.098240   -1.479420
  H     -1.225590   -5.362940   -4.273750
  H      0.485890   -2.208240   -3.838850
  H      1.989000   -2.457920   -4.735010
  H      1.145290   -3.837400   -4.017950
  H      0.375940   -4.134100   -7.681070
  H      1.084090   -4.980950   -6.300870
  H      1.923200   -3.597070   -7.016600
  H      1.691690   -0.533810   -6.856910
  H     -4.075540    4.531380   -8.537770
  H     -3.208700    5.900430   -9.299980
  H     -3.409590    5.845100   -7.537200
  H      2.308760    4.447650   -8.501710

 Total Charge           Charge          ....    0
 Multiplicity           Mult            ....    1
 Number of Electrons    NEL             ....  492
 Basis Dimension        Dim             .... 1030

ORBITAL ENERGIES
----------------

  NO   OCC          E(Eh)            E(eV)
   0   2.0000     -89.033057     -2422.7127
   1   2.0000     -88.972095     -2421.0538
   2   2.0000     -88.972020     -2421.0517
   3   2.0000     -88.958869     -2420.6939
   4   2.0000     -88.958769     -2420.6912
   5   2.0000     -88.954023     -2420.5620
   6   2.0000     -88.953912     -2420.5590
   7   2.0000     -24.808109      -675.0630
   8   2.0000     -24.807821      -675.0551
   9   2.0000     -19.203855      -522.5635
  10   2.0000     -19.203647      -522.5578
  11   2.0000     -19.201171      -522.4904
  12   2.0000     -19.200627      -522.4756
  13   2.0000     -14.448846      -393.1731
  14   2.0000     -14.448659      -393.1680
  15   2.0000     -14.448598      -393.1663
  16   2.0000     -14.446513      -393.1096
  17   2.0000     -14.444478      -393.0542
  18   2.0000     -14.443571      -393.0295
  19   2.0000     -10.422808      -283.6190
  20   2.0000     -10.422429      -283.6087
  21   2.0000     -10.386839      -282.6403
  22   2.0000     -10.386220      -282.6234
  23   2.0000     -10.386132      -282.6210
  24   2.0000     -10.384974      -282.5895
  25   2.0000     -10.336482      -281.2700
  26   2.0000     -10.335043      -281.2308
  27   2.0000     -10.331453      -281.1331
  28   2.0000     -10.330264      -281.1008
  29   2.0000     -10.330165      -281.0981
  30   2.0000     -10.330164      -281.0980
  31   2.0000     -10.314902      -280.6828
  32   2.0000     -10.314779      -280.6794
  33   2.0000     -10.308084      -280.4972
  34   2.0000     -10.307814      -280.4899
  35   2.0000     -10.304131      -280.3897
  36   2.0000     -10.303869      -280.3825
  37   2.0000     -10.302045      -280.3329
  38   2.0000     -10.300993      -280.3043
  39   2.0000     -10.298528      -280.2372
  40   2.0000     -10.298506      -280.2366
  41   2.0000     -10.297449      -280.2078
  42   2.0000     -10.297160      -280.2000
  43   2.0000     -10.295055      -280.1427
  44   2.0000     -10.294814      -280.1361
  45   2.0000     -10.291462      -280.0449
  46   2.0000     -10.290884      -280.0292
  47   2.0000     -10.287022      -279.9241
  48   2.0000     -10.286662      -279.9143
  49   2.0000     -10.282707      -279.8067
  50   2.0000     -10.282522      -279.8017
  51   2.0000     -10.281613      -279.7769
  52   2.0000     -10.281432      -279.7720
  53   2.0000     -10.272387      -279.5259
  54   2.0000     -10.271953      -279.5140
  55   2.0000     -10.270158      -279.4652
  56   2.0000     -10.268769      -279.4274
  57   2.0000     -10.268419      -279.4179
  58   2.0000     -10.267994      -279.4063
  59   2.0000     -10.262825      -279.2657
  60   2.0000     -10.262729      -279.2630
  61   2.0000     -10.261975      -279.2425
  62   2.0000     -10.261758      -279.2366
  63   2.0000      -8.124571      -221.0808
  64   2.0000      -8.067390      -219.5248
  65   2.0000      -8.067345      -219.5236
  66   2.0000      -8.052925      -219.1312
  67   2.0000      -8.052920      -219.1311
  68   2.0000      -8.048095      -218.9998
  69   2.0000      -8.047915      -218.9949
  70   2.0000      -6.095737      -165.8734
  71   2.0000      -6.087977      -165.6623
  72   2.0000      -6.087110      -165.6387
  73   2.0000      -6.036957      -164.2740
  74   2.0000      -6.036880      -164.2718
  75   2.0000      -6.032356      -164.1488
  76   2.0000      -6.032332      -164.1481
  77   2.0000      -6.029436      -164.0693
  78   2.0000      -6.029386      -164.0679
  79   2.0000      -6.022351      -163.8765
  80   2.0000      -6.022310      -163.8754
  81   2.0000      -6.017988      -163.7578
  82   2.0000      -6.017988      -163.7578
  83   2.0000      -6.017530      -163.7453
  84   2.0000      -6.017392      -163.7416
  85   2.0000      -6.014981      -163.6759
  86   2.0000      -6.014964      -163.6755
  87   2.0000      -6.013212      -163.6278
  88   2.0000      -6.012977      -163.6214
  89   2.0000      -6.010148      -163.5444
  90   2.0000      -6.010025      -163.5411
  91   2.0000      -1.335141       -36.3310
  92   2.0000      -1.321223       -35.9523
  93   2.0000      -1.149463       -31.2785
  94   2.0000      -1.149317       -31.2745
  95   2.0000      -1.131734       -30.7960
  96   2.0000      -1.125822       -30.6352
  97   2.0000      -1.125601       -30.6292
  98   2.0000      -1.106309       -30.1042
  99   2.0000      -1.041239       -28.3336
 100   2.0000      -1.041008       -28.3273
 101   2.0000      -1.032151       -28.0863
 102   2.0000      -1.010116       -27.4867
 103   2.0000      -1.009839       -27.4791
 104   2.0000      -0.995086       -27.0777
 105   2.0000      -0.994217       -27.0540
 106   2.0000      -0.987651       -26.8754
 107   2.0000      -0.975492       -26.5445
 108   2.0000      -0.964512       -26.2457
 109   2.0000      -0.954075       -25.9617
 110   2.0000      -0.922985       -25.1157
 111   2.0000      -0.916801       -24.9474
 112   2.0000      -0.885600       -24.0984
 113   2.0000      -0.884999       -24.0821
 114   2.0000      -0.880904       -23.9706
 115   2.0000      -0.876775       -23.8583
 116   2.0000      -0.869957       -23.6727
 117   2.0000      -0.864376       -23.5209
 118   2.0000      -0.841956       -22.9108
 119   2.0000      -0.831337       -22.6218
 120   2.0000      -0.826816       -22.4988
 121   2.0000      -0.825035       -22.4503
 122   2.0000      -0.818931       -22.2842
 123   2.0000      -0.817426       -22.2433
 124   2.0000      -0.806936       -21.9578
 125   2.0000      -0.790017       -21.4974
 126   2.0000      -0.789700       -21.4888
 127   2.0000      -0.786190       -21.3933
 128   2.0000      -0.774564       -21.0770
 129   2.0000      -0.773621       -21.0513
 130   2.0000      -0.770208       -20.9584
 131   2.0000      -0.757026       -20.5997
 132   2.0000      -0.751270       -20.4431
 133   2.0000      -0.736256       -20.0345
 134   2.0000      -0.733705       -19.9651
 135   2.0000      -0.720713       -19.6116
 136   2.0000      -0.705057       -19.1856
 137   2.0000      -0.698849       -19.0166
 138   2.0000      -0.696871       -18.9628
 139   2.0000      -0.683116       -18.5885
 140   2.0000      -0.678569       -18.4648
 141   2.0000      -0.671438       -18.2707
 142   2.0000      -0.669999       -18.2316
 143   2.0000      -0.664185       -18.0734
 144   2.0000      -0.662429       -18.0256
 145   2.0000      -0.657432       -17.8896
 146   2.0000      -0.653699       -17.7881
 147   2.0000      -0.638001       -17.3609
 148   2.0000      -0.626176       -17.0391
 149   2.0000      -0.625248       -17.0139
 150   2.0000      -0.620601       -16.8874
 151   2.0000      -0.618333       -16.8257
 152   2.0000      -0.615986       -16.7618
 153   2.0000      -0.611533       -16.6407
 154   2.0000      -0.608494       -16.5580
 155   2.0000      -0.600622       -16.3438
 156   2.0000      -0.589189       -16.0327
 157   2.0000      -0.576956       -15.6998
 158   2.0000      -0.570861       -15.5339
 159   2.0000      -0.570604       -15.5269
 160   2.0000      -0.563581       -15.3358
 161   2.0000      -0.563210       -15.3257
 162   2.0000      -0.562201       -15.2983
 163   2.0000      -0.558827       -15.2065
 164   2.0000      -0.552725       -15.0404
 165   2.0000      -0.552370       -15.0308
 166   2.0000      -0.550240       -14.9728
 167   2.0000      -0.548237       -14.9183
 168   2.0000      -0.539210       -14.6726
 169   2.0000      -0.535883       -14.5821
 170   2.0000      -0.535319       -14.5668
 171   2.0000      -0.527801       -14.3622
 172   2.0000      -0.526285       -14.3209
 173   2.0000      -0.524764       -14.2796
 174   2.0000      -0.524362       -14.2686
 175   2.0000      -0.518195       -14.1008
 176   2.0000      -0.515713       -14.0333
 177   2.0000      -0.512898       -13.9567
 178   2.0000      -0.511977       -13.9316
 179   2.0000      -0.509156       -13.8548
 180   2.0000      -0.508566       -13.8388
 181   2.0000      -0.507422       -13.8076
 182   2.0000      -0.505215       -13.7476
 183   2.0000      -0.502086       -13.6625
 184   2.0000      -0.501863       -13.6564
 185   2.0000      -0.501445       -13.6450
 186   2.0000      -0.498443       -13.5633
 187   2.0000      -0.494373       -13.4526
 188   2.0000      -0.481463       -13.1013
 189   2.0000      -0.481162       -13.0931
 190   2.0000      -0.479059       -13.0359
 191   2.0000      -0.477540       -12.9945
 192   2.0000      -0.476222       -12.9587
 193   2.0000      -0.474323       -12.9070
 194   2.0000      -0.472587       -12.8597
 195   2.0000      -0.471553       -12.8316
 196   2.0000      -0.469985       -12.7889
 197   2.0000      -0.469794       -12.7838
 198   2.0000      -0.467963       -12.7339
 199   2.0000      -0.467062       -12.7094
 200   2.0000      -0.465964       -12.6795
 201   2.0000      -0.462898       -12.5961
 202   2.0000      -0.460705       -12.5364
 203   2.0000      -0.457163       -12.4400
 204   2.0000      -0.456227       -12.4146
 205   2.0000      -0.450940       -12.2707
 206   2.0000      -0.447834       -12.1862
 207   2.0000      -0.446692       -12.1551
 208   2.0000      -0.445088       -12.1115
 209   2.0000      -0.441193       -12.0055
 210   2.0000      -0.432320       -11.7640
 211   2.0000      -0.430153       -11.7051
 212   2.0000      -0.423206       -11.5160
 213   2.0000      -0.422054       -11.4847
 214   2.0000      -0.421723       -11.4757
 215   2.0000      -0.420973       -11.4553
 216   2.0000      -0.415477       -11.3057
 217   2.0000      -0.414027       -11.2663
 218   2.0000      -0.411005       -11.1840
 219   2.0000      -0.404098       -10.9961
 220   2.0000      -0.400595       -10.9007
 221   2.0000      -0.400101       -10.8873
 222   2.0000      -0.394534       -10.7358
 223   2.0000      -0.385011       -10.4767
 224   2.0000      -0.372800       -10.1444
 225   2.0000      -0.368826       -10.0363
 226   2.0000      -0.363811        -9.8998
 227   2.0000      -0.358734        -9.7617
 228   2.0000      -0.353827        -9.6281
 229   2.0000      -0.353398        -9.6164
 230   2.0000      -0.346284        -9.4229
 231   2.0000      -0.345939        -9.4135
 232   2.0000      -0.335989        -9.1427
 233   2.0000      -0.335770        -9.1368
 234   2.0000      -0.335394        -9.1265
 235   2.0000      -0.334252        -9.0955
 236   2.0000      -0.327423        -8.9096
 237   2.0000      -0.327259        -8.9052
 238   2.0000      -0.319037        -8.6814
 239   2.0000      -0.318975        -8.6797
 240   2.0000      -0.317359        -8.6358
 241   2.0000      -0.312696        -8.5089
 242   2.0000      -0.310040        -8.4366
 243   2.0000      -0.281907        -7.6711
 244   2.0000      -0.247661        -6.7392
 245   2.0000      -0.213664        -5.8141
 246   0.0000      -0.105436        -2.8691
 247   0.0000      -0.046983        -1.2785
 248   0.0000      -0.046755        -1.2723
 249   0.0000      -0.017686        -0.4813
 250   0.0000      -0.016778        -0.4566

MULLIKEN ATOMIC CHARGES
-----------------------
   0 C :   -0.131415
   1 C :    0.021903
   2 C :    0.192246
   3 O :   -0.156659
   4 N :   -0.316830
   5 C :    0.141361
   6 C :    0.187534
   7 O :   -0.178198
   8 C :   -0.034761
   9 C :   -0.096361
  10 S :    0.134449
  11 C :   -0.087889
  12 C :   -0.081536
  13 C :    0.027433
  14 C :   -0.078772
  15 S :    0.204683
  16 C :   -0.071492
  17 C :    0.028619
  18 C :   -0.104373
  19 C :    0.114713
  20 C :    0.098278
  21 C :   -0.046422
  22 C :   -0.174438
  23 S :    0.170845
  24 C :    0.174495
  25 C :   -0.066380
  26 C :   -0.087219
  27 N :   -0.029157
  28 C :    0.143102
  29 C :    0.132680
  30 N :    0.007354
  31 F :   -0.148541
  32 F :   -0.141284
  33 C :    0.159124
  34 C :    0.002968
  35 C :   -0.050493
  36 N :   -0.307192
  37 S :    0.530583
  38 N :   -0.292495
  39 C :   -0.172731
  40 C :   -0.043506
  41 C :    0.024225
  42 C :   -0.065331
  43 S :    0.169666
  44 C :   -0.082169
  45 C :    0.027899
  46 C :   -0.102612
  47 C :    0.098827
  48 C :    0.115779
  49 C :   -0.081723
  50 C :   -0.087960
  51 S :    0.207021
  52 C :   -0.094750
  53 C :   -0.041784
  54 C :    0.191815
  55 O :   -0.176103
  56 N :   -0.315262
  57 C :    0.136813
  58 C :    0.187476
  59 O :   -0.156462
  60 C :    0.027535
  61 C :   -0.133448
  62 S :    0.133889
  63 H :    0.038455
  64 H :    0.050026
  65 H :    0.037569
  66 H :    0.036186
  67 H :   -0.017381
  68 H :    0.019258
  69 H :    0.012712
  70 H :    0.007256
  71 H :    0.022036
  72 H :    0.007379
  73 H :    0.015205
  74 H :   -0.006374
  75 H :   -0.009684
  76 H :    0.021980
  77 H :    0.007038
  78 H :    0.012558
  79 H :    0.019624
  80 H :    0.011259
  81 H :    0.007458
  82 H :   -0.017101
  83 H :    0.049320
  84 H :    0.041554
  85 H :    0.037253
  86 H :    0.038848
Sum of atomic charges:   -0.0000000

LOEWDIN ATOMIC CHARGES
----------------------
   0 C :   -0.144512
   1 C :   -0.091633
   2 C :    0.086559
   3 O :   -0.163185
   4 N :   -0.042019
   5 C :    0.035798
   6 C :    0.083300
   7 O :   -0.176247
   8 C :   -0.120682
   9 C :   -0.138779
  10 S :    0.446718
  11 C :   -0.197166
  12 C :   -0.049550
  13 C :   -0.038290
  14 C :   -0.191165
  15 S :    0.495954
  16 C :   -0.195313
  17 C :   -0.037756
  18 C :   -0.035037
  19 C :   -0.023491
  20 C :   -0.025793
  21 C :   -0.040846
  22 C :   -0.159333
  23 S :    0.469027
  24 C :   -0.051546
  25 C :   -0.011681
  26 C :   -0.018688
  27 N :   -0.050967
  28 C :    0.054712
  29 C :    0.055393
  30 N :   -0.032727
  31 F :   -0.037386
  32 F :   -0.030875
  33 C :   -0.049818
  34 C :   -0.040308
  35 C :   -0.050374
  36 N :   -0.294604
  37 S :    0.658270
  38 N :   -0.283826
  39 C :   -0.162017
  40 C :   -0.038713
  41 C :   -0.038762
  42 C :   -0.193525
  43 S :    0.470222
  44 C :   -0.191514
  45 C :   -0.037926
  46 C :   -0.035158
  47 C :   -0.026033
  48 C :   -0.023378
  49 C :   -0.050041
  50 C :   -0.196707
  51 S :    0.497735
  52 C :   -0.138611
  53 C :   -0.120310
  54 C :    0.083801
  55 O :   -0.176012
  56 N :   -0.041744
  57 C :    0.035865
  58 C :    0.085552
  59 O :   -0.162067
  60 C :   -0.091544
  61 C :   -0.144934
  62 S :    0.446264
  63 H :    0.034590
  64 H :    0.036841
  65 H :    0.032210
  66 H :    0.031168
  67 H :    0.025724
  68 H :    0.029832
  69 H :    0.024769
  70 H :    0.022234
  71 H :    0.029975
  72 H :    0.022188
  73 H :    0.025521
  74 H :    0.029094
  75 H :    0.029152
  76 H :    0.029989
  77 H :    0.022133
  78 H :    0.024592
  79 H :    0.030085
  80 H :    0.024243
  81 H :    0.022207
  82 H :    0.025686
  83 H :    0.036392
  84 H :    0.034035
  85 H :    0.030184
  86 H :    0.034579

  Mayer bond orders larger than 0.100000
B(  0-C ,  1-C ) :   1.5991 B(  0-C , 10-S ) :   1.1414 B(  0-C , 63-H ) :   0.9690
B(  1-C ,  2-C ) :   0.8863 B(  1-C ,  8-C ) :   1.2303 B(  2-C ,  3-O ) :   2.2309
B(  2-C ,  4-N ) :   1.0642 B(  4-N ,  5-C ) :   0.9444 B(  4-N ,  6-C ) :   1.0696
B(  5-C , 64-H ) :   0.9605 B(  5-C , 65-H ) :   0.9743 B(  5-C , 66-H ) :   0.9770
B(  6-C ,  7-O ) :   2.1615 B(  6-C ,  8-C ) :   0.9171 B(  8-C ,  9-C ) :   1.5080
B(  9-C , 10-S ) :   1.1404 B(  9-C , 11-C ) :   1.1927 B( 11-C , 12-C ) :   1.4046
B( 11-C , 15-S ) :   1.1258 B( 12-C , 13-C ) :   1.3480 B( 12-C , 67-H ) :   1.0019
B( 13-C , 14-C ) :   1.4898 B( 13-C , 18-C ) :   0.9380 B( 14-C , 15-S ) :   1.0797
B( 14-C , 16-C ) :   1.1795 B( 16-C , 17-C ) :   1.4819 B( 16-C , 23-S ) :   1.0827
B( 17-C , 18-C ) :   0.9375 B( 17-C , 21-C ) :   1.3036 B( 18-C , 19-C ) :   1.0290
B( 18-C , 20-C ) :   1.0461 B( 19-C , 68-H ) :   0.9628 B( 19-C , 69-H ) :   0.9652
B( 19-C , 70-H ) :   0.9646 B( 20-C , 71-H ) :   0.9652 B( 20-C , 72-H ) :   0.9632
B( 20-C , 73-H ) :   0.9637 B( 21-C , 22-C ) :   1.4150 B( 21-C , 74-H ) :   1.0024
B( 22-C , 23-S ) :   1.1013 B( 22-C , 24-C ) :   1.1848 B( 24-C , 25-C ) :   1.2995
B( 24-C , 33-C ) :   0.1120 B( 24-C , 35-C ) :   1.1730 B( 25-C , 26-C ) :   1.1268
B( 25-C , 30-N ) :   1.4191 B( 26-C , 27-N ) :   1.3944 B( 26-C , 33-C ) :   1.2760
B( 27-N , 28-C ) :   1.6618 B( 28-C , 29-C ) :   1.1109 B( 28-C , 32-F ) :   1.1794
B( 29-C , 30-N ) :   1.6688 B( 29-C , 31-F ) :   1.1672 B( 33-C , 34-C ) :   1.2043
B( 33-C , 39-C ) :   1.1925 B( 34-C , 35-C ) :   1.1168 B( 34-C , 38-N ) :   1.5098
B( 35-C , 36-N ) :   1.4978 B( 36-N , 37-S ) :   1.2715 B( 36-N , 38-N ) :   0.1504
B( 37-S , 38-N ) :   1.2654 B( 39-C , 40-C ) :   1.4169 B( 39-C , 43-S ) :   1.0965
B( 40-C , 41-C ) :   1.3136 B( 40-C , 75-H ) :   0.9978 B( 41-C , 42-C ) :   1.4816
B( 41-C , 46-C ) :   0.9364 B( 42-C , 43-S ) :   1.0800 B( 42-C , 44-C ) :   1.1794
B( 44-C , 45-C ) :   1.4864 B( 44-C , 51-S ) :   1.0811 B( 45-C , 46-C ) :   0.9383
B( 45-C , 49-C ) :   1.3487 B( 46-C , 47-C ) :   1.0482 B( 46-C , 48-C ) :   1.0266
B( 47-C , 76-H ) :   0.9653 B( 47-C , 77-H ) :   0.9629 B( 47-C , 78-H ) :   0.9633
B( 48-C , 79-H ) :   0.9625 B( 48-C , 80-H ) :   0.9654 B( 48-C , 81-H ) :   0.9650
B( 49-C , 50-C ) :   1.4030 B( 49-C , 82-H ) :   1.0026 B( 50-C , 51-S ) :   1.1273
B( 50-C , 52-C ) :   1.1915 B( 52-C , 53-C ) :   1.5084 B( 52-C , 62-S ) :   1.1412
B( 53-C , 54-C ) :   0.9213 B( 53-C , 60-C ) :   1.2293 B( 54-C , 55-O ) :   2.1520
B( 54-C , 56-N ) :   1.0715 B( 56-N , 57-C ) :   0.9430 B( 56-N , 58-C ) :   1.0621
B( 57-C , 83-H ) :   0.9624 B( 57-C , 84-H ) :   0.9698 B( 57-C , 85-H ) :   0.9806
B( 58-C , 59-O ) :   2.2432 B( 58-C , 60-C ) :   0.8837 B( 60-C , 61-C ) :   1.6010
B( 61-C , 62-S ) :   1.1398 B( 61-C , 86-H ) :   0.9688

-----------------------------------------------------------------------------
         ABSORPTION SPECTRUM VIA TRANSITION ELECTRIC DIPOLE MOMENTS
-----------------------------------------------------------------------------
State   Energy  Wavelength   fosc         T2         TX        TY        TZ
        (cm-1)    (nm)                  (au**2)     (au)      (au)      (au)
-----------------------------------------------------------------------------
   0    8569.8   1166.9   0.618081654  23.74371  -2.67769  -1.63980   3.72622
   1   17000.5    588.2   0.184188636   3.56679  -0.32915  -1.63087  -0.89371
   2   21427.3    466.7   1.148245151  17.64181   1.67341   1.59766  -3.50556
   3   22838.3    437.9   0.637230628   9.18560  -0.39917  -2.61772  -1.47438
   4   24096.7    415.0   0.005134026   0.07014   0.14438   0.18412  -0.12407
   5   24641.0    405.8   0.038511229   0.51452   0.24123   0.28031  -0.61462
   6   27004.1    370.3   0.004096959   0.04995  -0.01065   0.09105  -0.20382
   7   27059.7    369.6   0.001840141   0.02239  -0.01932  -0.14814  -0.00834
   8   29430.5    339.8   0.029205658   0.32670  -0.36056   0.03008  -0.44248
   9   30033.6    333.0   0.152658442   1.67336   1.28379  -0.06250   0.14609
  10   30211.9    331.0   0.111727998   1.21747  -0.32346   1.04397   0.15159
  11   30885.3    323.8   0.110493885   1.17777   0.05204   0.99238   0.43618
  12   31158.5    320.9   0.035826875   0.37854  -0.19489  -0.23074   0.53602
  13   31510.9    317.4   0.013599227   0.14208  -0.26918   0.19391  -0.17894
  14   32105.4    311.5   0.012299272   0.12612  -0.23073   0.02617  -0.26869
  15   32405.5    308.6   0.136486448   1.38659   0.57182   0.42386  -0.93806
  16   32979.3    303.2   0.013774825   0.13751  -0.12428  -0.18062   0.29906
  17   33243.5    300.8   0.019573603   0.19384  -0.32099   0.28016   0.11098
  18   33258.4    300.7   0.064573915   0.63919   0.52913   0.20538   0.56306
  19   34190.8    292.5   0.149058433   1.43524   0.82401  -0.46581   0.73435
  20   34724.8    288.0   0.252223971   2.39124  -1.13285   0.41805  -0.96598
  21   35038.2    285.4   0.027080277   0.25444  -0.47249   0.05477  -0.16790
  22   36436.3    274.5   0.340153698   3.07338   1.20854  -0.65776   1.08635
  23   37224.6    268.6   0.006682829   0.05910  -0.17839   0.16185   0.03292
  24   37319.5    268.0   0.005184222   0.04573  -0.12033  -0.13386  -0.11548
  25   37723.0    265.1   0.028527316   0.24896   0.41253  -0.04830   0.27649
  26   37835.9    264.3   0.010581875   0.09207   0.24054  -0.17089   0.07080
  27   38027.3    263.0   0.004585469   0.03970  -0.06868   0.13086  -0.13363
  28   38341.2    260.8   0.051020649   0.43808  -0.22812   0.61868  -0.05730
  29   39253.0    254.8   0.013063193   0.10956   0.28003  -0.17610  -0.01150
  30   39367.9    254.0   0.022465007   0.18786  -0.42786  -0.06240   0.03010
  31   39565.6    252.7   0.020604280   0.17144   0.39000  -0.12881  -0.05242
  32   40297.4    248.2   0.001675914   0.01369   0.01837  -0.04415   0.10680

FINAL SINGLE POINT ENERGY     -5303.673326589196

DIPOLE MOMENT
-------------
                                X             Y             Z
Electronic contribution:     -9.87878     -11.44893     -14.58136
Nuclear contribution   :     10.29042      10.31979      14.54254
                        -----------------------------------------
Total Dipole Moment    :      0.41164      -1.12914      -0.03882
                        -----------------------------------------
Magnitude (a.u.)       :      1.20246
Magnitude (Debye)      :      3.05641

Rotational constants in cm-1:     0.001424     0.000342     0.000321
Rotational constants in MHz :    42.688340    10.246673     9.623099

                             ****ORCA TERMINATED NORMALLY****
TOTAL RUN TIME: 0 days 0 hours 7 minutes 45 seconds 739 msec
