                         Program Version 4.2.0 -  RELEASE  -
|  1> # ORCA input file
|  2> # SCF done       -198.764273702788          0.000834268941
|  3> ! CAM-B3LYP def2-SVP def2/J RIJCOSX Grid4 TightSCF
|  4> %maxcore 5000
|  5> %tddft
|  6>     Mode sTDDFT
|  7>     Ethresh 5.0
|  8>     maxcore 5000
|  9> end
| 10>
| 11> %pal
| 12>   nprocs 6
| 13>   end
| 14> * xyz 0 1
| 15>    C        0.51495         1.52281        -3.51628
| 16>    C        1.11149         1.65632        -4.73853
| 17>    F        1.66189         2.82416        -5.09522
| 18>    C        1.15698         0.57140        -5.63732
| 19>    F        1.75032         0.73078        -6.82795
| 20>    C        0.60397        -0.63240        -5.30133
| 21>    C       -0.01750        -0.80174        -4.04874
| 22>    C       -0.06394         0.29425        -3.13883
| 23>    C       -0.68151         0.14784        -1.87570
| 24>    C       -1.23319        -1.05870        -1.53270
| 25>    C       -1.17601        -2.14778        -2.44400
| 26>    C       -0.59122        -2.03629        -3.67247
| 27>    C       -1.81448        -3.33445        -1.84054
| 28>    O       -1.96117        -4.40806        -2.38493
| 29>    C       -2.19262        -2.92820        -0.46585
| 30>    C       -1.92369        -1.50535        -0.32689
| 31>    C       -2.31105        -0.68988         0.70428
| 32>    C       -3.07482        -1.07889         1.82599
| 33>    N       -3.71094        -1.30138         2.75602
| 34>    C       -2.03145         0.69248         0.76059
| 35>    N       -1.83242         1.81755         0.86881
| 36>    C       -2.59030        -3.72292         0.57647
| 37>    C       -2.92770        -5.08869         0.63422
| 38>    C       -3.14004        -6.04717        -0.34824
| 39>    C       -3.49455        -7.27492         0.19079
| 40>    C       -3.56084        -7.28837         1.59919
| 41>    S       -3.19021        -5.74308         2.25730
| 42>    C       -3.90423        -8.52164         2.13400
| 43>    C       -4.11566        -9.47189         1.14443
| 44>    S       -3.89080        -8.82680        -0.46814
| 45>    C       -4.47011       -10.83576         1.34740
| 46>    C       -4.71966       -11.70744         0.26493
| 47>    C       -5.07802       -13.08279         0.44706
| 48>    N       -5.30004       -13.85440        -0.63604
| 49>    C       -5.19311       -13.34807        -1.82001
| 50>    C       -4.84332       -11.98150        -2.00078
| 51>    N       -4.61880       -11.21387        -0.98600
| 52>    F       -4.73669       -11.45978        -3.21600
| 53>    F       -5.41395       -14.14044        -2.86145
| 54>    C       -5.20424       -13.67545         1.72262
| 55>    C       -4.94931       -12.81154         2.81410
| 56>    C       -4.59478       -11.42019         2.63047
| 57>    N       -4.40644       -10.80809         3.80141
| 58>    S       -4.64598       -11.84893         4.99425
| 59>    N       -4.99937       -13.13448         4.10794
| 60>    C       -5.56947       -15.04167         1.87905
| 61>    C       -5.68391       -15.73376         3.07628
| 62>    C       -6.07541       -17.04992         2.87542
| 63>    C       -6.27588       -17.38256         1.52236
| 64>    S       -5.94461       -16.03778         0.48710
| 65>    C       -6.71019       -18.68606         1.32691
| 66>    C       -6.83853       -19.37933         2.52209
| 67>    S       -6.38454       -18.39523         3.90513
| 68>    C       -7.20831       -20.72488         2.73916
| 69>    C       -7.89765       -21.57048         1.92221
| 70>    C       -7.79286       -23.03941         2.14963
| 71>    O       -7.32842       -23.58882         3.12068
| 72>    C       -8.32262       -23.66072         0.91879
| 73>    C       -8.34687       -24.97868         0.56401
| 74>    C       -8.88493       -25.34244        -0.69096
| 75>    C       -9.38291       -24.32782        -1.55941
| 76>    C       -9.91235       -24.69641        -2.81243
| 77>    C       -9.94944       -26.01084        -3.18458
| 78>    C       -9.45780       -27.01374        -2.32457
| 79>    C       -8.93646       -26.68811        -1.10380
| 80>    F       -9.50525       -28.29384        -2.71613
| 81>    F      -10.45470       -26.35969        -4.37445
| 82>    C       -9.35038       -22.97151        -1.16218
| 83>    C       -8.83490       -22.64405         0.06309
| 84>    C       -8.71038       -21.35746         0.74489
| 85>    C       -9.44867       -20.23987         0.45321
| 86>    C       -9.51372       -19.10467         1.28603
| 87>    N       -9.63139       -18.17674         1.95111
| 88>    C      -10.29787       -20.13188        -0.66702
| 89>    N      -10.98564       -19.98831        -1.57438
| 90>    H        0.48777         2.36377        -2.84100
| 91>    H        0.64694        -1.45317        -6.00009
| 92>    H       -0.69467         0.99445        -1.20875
| 93>    H       -0.56497        -2.87978        -4.34555
| 94>    H       -2.63862        -3.23997         1.54613
| 95>    H       -3.03018        -5.84306        -1.39700
| 96>    H       -4.00221        -8.74087         3.18001
| 97>    H       -5.49056       -15.27982         4.02941
| 98>    H       -6.88493       -19.12699         0.36240
| 99>    H       -6.84165       -21.17626         3.65642
|100>    H       -7.96137       -25.73421         1.23149
|101>    H      -10.29605       -23.94131        -3.48063
|102>    H       -8.56445       -27.46791        -0.45782
|103>    H       -9.72626       -22.22334        -1.84175
|104> *
|105>
|106>                          ****END OF INPUT****

CARTESIAN COORDINATES (ANGSTROEM)
---------------------------------
  C      0.514950    1.522810   -3.516280
  C      1.111490    1.656320   -4.738530
  F      1.661890    2.824160   -5.095220
  C      1.156980    0.571400   -5.637320
  F      1.750320    0.730780   -6.827950
  C      0.603970   -0.632400   -5.301330
  C     -0.017500   -0.801740   -4.048740
  C     -0.063940    0.294250   -3.138830
  C     -0.681510    0.147840   -1.875700
  C     -1.233190   -1.058700   -1.532700
  C     -1.176010   -2.147780   -2.444000
  C     -0.591220   -2.036290   -3.672470
  C     -1.814480   -3.334450   -1.840540
  O     -1.961170   -4.408060   -2.384930
  C     -2.192620   -2.928200   -0.465850
  C     -1.923690   -1.505350   -0.326890
  C     -2.311050   -0.689880    0.704280
  C     -3.074820   -1.078890    1.825990
  N     -3.710940   -1.301380    2.756020
  C     -2.031450    0.692480    0.760590
  N     -1.832420    1.817550    0.868810
  C     -2.590300   -3.722920    0.576470
  C     -2.927700   -5.088690    0.634220
  C     -3.140040   -6.047170   -0.348240
  C     -3.494550   -7.274920    0.190790
  C     -3.560840   -7.288370    1.599190
  S     -3.190210   -5.743080    2.257300
  C     -3.904230   -8.521640    2.134000
  C     -4.115660   -9.471890    1.144430
  S     -3.890800   -8.826800   -0.468140
  C     -4.470110  -10.835760    1.347400
  C     -4.719660  -11.707440    0.264930
  C     -5.078020  -13.082790    0.447060
  N     -5.300040  -13.854400   -0.636040
  C     -5.193110  -13.348070   -1.820010
  C     -4.843320  -11.981500   -2.000780
  N     -4.618800  -11.213870   -0.986000
  F     -4.736690  -11.459780   -3.216000
  F     -5.413950  -14.140440   -2.861450
  C     -5.204240  -13.675450    1.722620
  C     -4.949310  -12.811540    2.814100
  C     -4.594780  -11.420190    2.630470
  N     -4.406440  -10.808090    3.801410
  S     -4.645980  -11.848930    4.994250
  N     -4.999370  -13.134480    4.107940
  C     -5.569470  -15.041670    1.879050
  C     -5.683910  -15.733760    3.076280
  C     -6.075410  -17.049920    2.875420
  C     -6.275880  -17.382560    1.522360
  S     -5.944610  -16.037780    0.487100
  C     -6.710190  -18.686060    1.326910
  C     -6.838530  -19.379330    2.522090
  S     -6.384540  -18.395230    3.905130
  C     -7.208310  -20.724880    2.739160
  C     -7.897650  -21.570480    1.922210
  C     -7.792860  -23.039410    2.149630
  O     -7.328420  -23.588820    3.120680
  C     -8.322620  -23.660720    0.918790
  C     -8.346870  -24.978680    0.564010
  C     -8.884930  -25.342440   -0.690960
  C     -9.382910  -24.327820   -1.559410
  C     -9.912350  -24.696410   -2.812430
  C     -9.949440  -26.010840   -3.184580
  C     -9.457800  -27.013740   -2.324570
  C     -8.936460  -26.688110   -1.103800
  F     -9.505250  -28.293840   -2.716130
  F    -10.454700  -26.359690   -4.374450
  C     -9.350380  -22.971510   -1.162180
  C     -8.834900  -22.644050    0.063090
  C     -8.710380  -21.357460    0.744890
  C     -9.448670  -20.239870    0.453210
  C     -9.513720  -19.104670    1.286030
  N     -9.631390  -18.176740    1.951110
  C    -10.297870  -20.131880   -0.667020
  N    -10.985640  -19.988310   -1.574380
  H      0.487770    2.363770   -2.841000
  H      0.646940   -1.453170   -6.000090
  H     -0.694670    0.994450   -1.208750
  H     -0.564970   -2.879780   -4.345550
  H     -2.638620   -3.239970    1.546130
  H     -3.030180   -5.843060   -1.397000
  H     -4.002210   -8.740870    3.180010
  H     -5.490560  -15.279820    4.029410
  H     -6.884930  -19.126990    0.362400
  H     -6.841650  -21.176260    3.656420
  H     -7.961370  -25.734210    1.231490
  H    -10.296050  -23.941310   -3.480630
  H     -8.564450  -27.467910   -0.457820
  H     -9.726260  -22.223340   -1.841750

 Total Charge           Charge          ....    0
 Multiplicity           Mult            ....    1
 Number of Electrons    NEL             ....  544
 Basis Dimension        Dim             .... 1140

ORBITAL ENERGIES
----------------

  NO   OCC          E(Eh)            E(eV)
   0   2.0000     -89.055253     -2423.3166
   1   2.0000     -88.970868     -2421.0204
   2   2.0000     -88.967754     -2420.9357
   3   2.0000     -88.965988     -2420.8876
   4   2.0000     -88.965249     -2420.8675
   5   2.0000     -24.829360      -675.6412
   6   2.0000     -24.829190      -675.6366
   7   2.0000     -24.799750      -674.8355
   8   2.0000     -24.799225      -674.8212
   9   2.0000     -24.798015      -674.7883
  10   2.0000     -24.796787      -674.7549
  11   2.0000     -19.220181      -523.0077
  12   2.0000     -19.217888      -522.9453
  13   2.0000     -14.470393      -393.7594
  14   2.0000     -14.469979      -393.7481
  15   2.0000     -14.464151      -393.5896
  16   2.0000     -14.463625      -393.5753
  17   2.0000     -14.419216      -392.3668
  18   2.0000     -14.417437      -392.3184
  19   2.0000     -14.415499      -392.2657
  20   2.0000     -14.414078      -392.2270
  21   2.0000     -10.447036      -284.2783
  22   2.0000     -10.446589      -284.2661
  23   2.0000     -10.382965      -282.5349
  24   2.0000     -10.382572      -282.5241
  25   2.0000     -10.380887      -282.4783
  26   2.0000     -10.380111      -282.4572
  27   2.0000     -10.371491      -282.2226
  28   2.0000     -10.369352      -282.1644
  29   2.0000     -10.359187      -281.8878
  30   2.0000     -10.358636      -281.8728
  31   2.0000     -10.354257      -281.7536
  32   2.0000     -10.354013      -281.7470
  33   2.0000     -10.346570      -281.5445
  34   2.0000     -10.345608      -281.5183
  35   2.0000     -10.341685      -281.4116
  36   2.0000     -10.341037      -281.3939
  37   2.0000     -10.330177      -281.0984
  38   2.0000     -10.328659      -281.0571
  39   2.0000     -10.328067      -281.0410
  40   2.0000     -10.326993      -281.0118
  41   2.0000     -10.325410      -280.9687
  42   2.0000     -10.325155      -280.9618
  43   2.0000     -10.323484      -280.9163
  44   2.0000     -10.321903      -280.8733
  45   2.0000     -10.320388      -280.8320
  46   2.0000     -10.318456      -280.7795
  47   2.0000     -10.318363      -280.7769
  48   2.0000     -10.317275      -280.7473
  49   2.0000     -10.315042      -280.6866
  50   2.0000     -10.314510      -280.6721
  51   2.0000     -10.312572      -280.6194
  52   2.0000     -10.312191      -280.6090
  53   2.0000     -10.310281      -280.5570
  54   2.0000     -10.309860      -280.5456
  55   2.0000     -10.309548      -280.5371
  56   2.0000     -10.306955      -280.4665
  57   2.0000     -10.306351      -280.4501
  58   2.0000     -10.305649      -280.4310
  59   2.0000     -10.304801      -280.4079
  60   2.0000     -10.304450      -280.3983
  61   2.0000     -10.304414      -280.3974
  62   2.0000     -10.302763      -280.3524
  63   2.0000     -10.301990      -280.3314
  64   2.0000     -10.301760      -280.3252
  65   2.0000     -10.301473      -280.3173
  66   2.0000     -10.301452      -280.3168
  67   2.0000     -10.300881      -280.3012
  68   2.0000     -10.300652      -280.2950
  69   2.0000     -10.299808      -280.2720
  70   2.0000     -10.296038      -280.1694
  71   2.0000     -10.295794      -280.1628
  72   2.0000     -10.293846      -280.1098
  73   2.0000     -10.292486      -280.0728
  74   2.0000     -10.292387      -280.0701
  75   2.0000      -8.146525      -221.6782
  76   2.0000      -8.066363      -219.4969
  77   2.0000      -8.063182      -219.4103
  78   2.0000      -8.059792      -219.3181
  79   2.0000      -8.059004      -219.2967
  80   2.0000      -6.117654      -166.4698
  81   2.0000      -6.109685      -166.2530
  82   2.0000      -6.109385      -166.2448
  83   2.0000      -6.035787      -164.2421
  84   2.0000      -6.032585      -164.1550
  85   2.0000      -6.031867      -164.1354
  86   2.0000      -6.029520      -164.0716
  87   2.0000      -6.028723      -164.0499
  88   2.0000      -6.028680      -164.0487
  89   2.0000      -6.027948      -164.0288
  90   2.0000      -6.025083      -163.9508
  91   2.0000      -6.024810      -163.9434
  92   2.0000      -6.024272      -163.9288
  93   2.0000      -6.021294      -163.8477
  94   2.0000      -6.020559      -163.8277
  95   2.0000      -1.358547       -36.9680
  96   2.0000      -1.344443       -36.5841
  97   2.0000      -1.322557       -35.9886
  98   2.0000      -1.320337       -35.9282
  99   2.0000      -1.307702       -35.5844
 100   2.0000      -1.305459       -35.5234
 101   2.0000      -1.153190       -31.3799
 102   2.0000      -1.135501       -30.8985
 103   2.0000      -1.133689       -30.8493
 104   2.0000      -1.130354       -30.7585
 105   2.0000      -1.057063       -28.7642
 106   2.0000      -1.024761       -27.8852
 107   2.0000      -1.020322       -27.7644
 108   2.0000      -1.019114       -27.7315
 109   2.0000      -1.018100       -27.7039
 110   2.0000      -1.006336       -27.3838
 111   2.0000      -1.005877       -27.3713
 112   2.0000      -1.003782       -27.3143
 113   2.0000      -0.996904       -27.1271
 114   2.0000      -0.993581       -27.0367
 115   2.0000      -0.990303       -26.9475
 116   2.0000      -0.983615       -26.7655
 117   2.0000      -0.981078       -26.6965
 118   2.0000      -0.962475       -26.1903
 119   2.0000      -0.953176       -25.9372
 120   2.0000      -0.932965       -25.3873
 121   2.0000      -0.930457       -25.3190
 122   2.0000      -0.909097       -24.7378
 123   2.0000      -0.903509       -24.5857
 124   2.0000      -0.899327       -24.4719
 125   2.0000      -0.896826       -24.4039
 126   2.0000      -0.893947       -24.3255
 127   2.0000      -0.890920       -24.2432
 128   2.0000      -0.880142       -23.9499
 129   2.0000      -0.876289       -23.8450
 130   2.0000      -0.869154       -23.6509
 131   2.0000      -0.865095       -23.5404
 132   2.0000      -0.842629       -22.9291
 133   2.0000      -0.839972       -22.8568
 134   2.0000      -0.835411       -22.7327
 135   2.0000      -0.825752       -22.4699
 136   2.0000      -0.821247       -22.3473
 137   2.0000      -0.813876       -22.1467
 138   2.0000      -0.809206       -22.0196
 139   2.0000      -0.800583       -21.7850
 140   2.0000      -0.786333       -21.3972
 141   2.0000      -0.771166       -20.9845
 142   2.0000      -0.767252       -20.8780
 143   2.0000      -0.766368       -20.8539
 144   2.0000      -0.763172       -20.7670
 145   2.0000      -0.748840       -20.3770
 146   2.0000      -0.739307       -20.1176
 147   2.0000      -0.727581       -19.7985
 148   2.0000      -0.720257       -19.5992
 149   2.0000      -0.717219       -19.5165
 150   2.0000      -0.710967       -19.3464
 151   2.0000      -0.698727       -19.0133
 152   2.0000      -0.698002       -18.9936
 153   2.0000      -0.692513       -18.8442
 154   2.0000      -0.686673       -18.6853
 155   2.0000      -0.684339       -18.6218
 156   2.0000      -0.680153       -18.5079
 157   2.0000      -0.672732       -18.3060
 158   2.0000      -0.666554       -18.1379
 159   2.0000      -0.665903       -18.1201
 160   2.0000      -0.657241       -17.8844
 161   2.0000      -0.655132       -17.8270
 162   2.0000      -0.650142       -17.6913
 163   2.0000      -0.645620       -17.5682
 164   2.0000      -0.643801       -17.5187
 165   2.0000      -0.642149       -17.4738
 166   2.0000      -0.641773       -17.4635
 167   2.0000      -0.640664       -17.4333
 168   2.0000      -0.633267       -17.2321
 169   2.0000      -0.626351       -17.0439
 170   2.0000      -0.621875       -16.9221
 171   2.0000      -0.617209       -16.7951
 172   2.0000      -0.611525       -16.6404
 173   2.0000      -0.602708       -16.4005
 174   2.0000      -0.593529       -16.1507
 175   2.0000      -0.588267       -16.0075
 176   2.0000      -0.587090       -15.9755
 177   2.0000      -0.587017       -15.9735
 178   2.0000      -0.585740       -15.9388
 179   2.0000      -0.584932       -15.9168
 180   2.0000      -0.584899       -15.9159
 181   2.0000      -0.582775       -15.8581
 182   2.0000      -0.579084       -15.7577
 183   2.0000      -0.578800       -15.7499
 184   2.0000      -0.574635       -15.6366
 185   2.0000      -0.564311       -15.3557
 186   2.0000      -0.560863       -15.2619
 187   2.0000      -0.556357       -15.1392
 188   2.0000      -0.553672       -15.0662
 189   2.0000      -0.548683       -14.9304
 190   2.0000      -0.547665       -14.9027
 191   2.0000      -0.546593       -14.8736
 192   2.0000      -0.546266       -14.8646
 193   2.0000      -0.539342       -14.6762
 194   2.0000      -0.538996       -14.6668
 195   2.0000      -0.536461       -14.5979
 196   2.0000      -0.535531       -14.5725
 197   2.0000      -0.533633       -14.5209
 198   2.0000      -0.531733       -14.4692
 199   2.0000      -0.530392       -14.4327
 200   2.0000      -0.526519       -14.3273
 201   2.0000      -0.524932       -14.2841
 202   2.0000      -0.524353       -14.2684
 203   2.0000      -0.523157       -14.2358
 204   2.0000      -0.520707       -14.1691
 205   2.0000      -0.516412       -14.0523
 206   2.0000      -0.515842       -14.0368
 207   2.0000      -0.513529       -13.9738
 208   2.0000      -0.508390       -13.8340
 209   2.0000      -0.506305       -13.7773
 210   2.0000      -0.501921       -13.6580
 211   2.0000      -0.499285       -13.5862
 212   2.0000      -0.495953       -13.4956
 213   2.0000      -0.495716       -13.4891
 214   2.0000      -0.491354       -13.3704
 215   2.0000      -0.489603       -13.3228
 216   2.0000      -0.488215       -13.2850
 217   2.0000      -0.487084       -13.2542
 218   2.0000      -0.484926       -13.1955
 219   2.0000      -0.479588       -13.0502
 220   2.0000      -0.474968       -12.9245
 221   2.0000      -0.470086       -12.7917
 222   2.0000      -0.468960       -12.7611
 223   2.0000      -0.468431       -12.7467
 224   2.0000      -0.464679       -12.6446
 225   2.0000      -0.463023       -12.5995
 226   2.0000      -0.459978       -12.5166
 227   2.0000      -0.458732       -12.4827
 228   2.0000      -0.455732       -12.4011
 229   2.0000      -0.452863       -12.3230
 230   2.0000      -0.448441       -12.2027
 231   2.0000      -0.448024       -12.1914
 232   2.0000      -0.446014       -12.1366
 233   2.0000      -0.445645       -12.1266
 234   2.0000      -0.443231       -12.0609
 235   2.0000      -0.442298       -12.0355
 236   2.0000      -0.439634       -11.9631
 237   2.0000      -0.433448       -11.7947
 238   2.0000      -0.432814       -11.7775
 239   2.0000      -0.430808       -11.7229
 240   2.0000      -0.430288       -11.7087
 241   2.0000      -0.429122       -11.6770
 242   2.0000      -0.428763       -11.6672
 243   2.0000      -0.424348       -11.5471
 244   2.0000      -0.422376       -11.4934
 245   2.0000      -0.421794       -11.4776
 246   2.0000      -0.417531       -11.3616
 247   2.0000      -0.410047       -11.1579
 248   2.0000      -0.407652       -11.0928
 249   2.0000      -0.397268       -10.8102
 250   2.0000      -0.395747       -10.7688
 251   2.0000      -0.389588       -10.6012
 252   2.0000      -0.385849       -10.4995
 253   2.0000      -0.385344       -10.4857
 254   2.0000      -0.384585       -10.4651
 255   2.0000      -0.371772       -10.1164
 256   2.0000      -0.369226       -10.0471
 257   2.0000      -0.366222        -9.9654
 258   2.0000      -0.362584        -9.8664
 259   2.0000      -0.355793        -9.6816
 260   2.0000      -0.351196        -9.5565
 261   2.0000      -0.341376        -9.2893
 262   2.0000      -0.338664        -9.2155
 263   2.0000      -0.321302        -8.7431
 264   2.0000      -0.318748        -8.6736
 265   2.0000      -0.316658        -8.6167
 266   2.0000      -0.306011        -8.3270
 267   2.0000      -0.302832        -8.2405
 268   2.0000      -0.302123        -8.2212
 269   2.0000      -0.299910        -8.1610
 270   2.0000      -0.282490        -7.6869
 271   2.0000      -0.248889        -6.7726
 272   0.0000      -0.132096        -3.5945
 273   0.0000      -0.094956        -2.5839
 274   0.0000      -0.089950        -2.4477
 275   0.0000      -0.060205        -1.6383
 276   0.0000      -0.059929        -1.6308

MULLIKEN ATOMIC CHARGES
-----------------------
   0 C :   -0.111822
   1 C :    0.242009
   2 F :   -0.171097
   3 C :    0.239665
   4 F :   -0.171568
   5 C :   -0.109377
   6 C :    0.121802
   7 C :    0.118070
   8 C :   -0.090597
   9 C :    0.053435
  10 C :    0.001804
  11 C :   -0.090506
  12 C :    0.158775
  13 O :   -0.157063
  14 C :   -0.093647
  15 C :    0.306917
  16 C :   -0.352964
  17 C :   -0.200147
  18 N :    0.159193
  19 C :   -0.181365
  20 N :    0.145293
  21 C :    0.044740
  22 C :   -0.114843
  23 C :   -0.006608
  24 C :    0.005167
  25 C :    0.020916
  26 S :    0.152202
  27 C :   -0.049040
  28 C :   -0.171882
  29 S :    0.171813
  30 C :    0.186869
  31 C :   -0.057978
  32 C :   -0.055471
  33 N :   -0.038695
  34 C :    0.150508
  35 C :    0.152466
  36 N :   -0.035886
  37 F :   -0.130563
  38 F :   -0.130959
  39 C :    0.190202
  40 C :   -0.014821
  41 C :   -0.008806
  42 N :   -0.296190
  43 S :    0.560432
  44 N :   -0.292985
  45 C :   -0.174138
  46 C :   -0.044043
  47 C :    0.023573
  48 C :    0.006467
  49 S :    0.170447
  50 C :    0.006529
  51 C :   -0.123276
  52 S :    0.165817
  53 C :    0.088648
  54 C :   -0.136430
  55 C :    0.136707
  56 O :   -0.140774
  57 C :    0.013992
  58 C :   -0.079398
  59 C :    0.110712
  60 C :    0.109700
  61 C :   -0.105529
  62 C :    0.241065
  63 C :    0.240704
  64 C :   -0.104162
  65 F :   -0.172166
  66 F :   -0.170334
  67 C :   -0.080577
  68 C :    0.034176
  69 C :    0.266646
  70 C :   -0.339796
  71 C :   -0.204628
  72 N :    0.178494
  73 C :   -0.173539
  74 N :    0.153728
  75 H :    0.008246
  76 H :   -0.000476
  77 H :   -0.004505
  78 H :   -0.010903
  79 H :    0.016762
  80 H :    0.017694
  81 H :    0.003016
  82 H :    0.002965
  83 H :    0.002757
  84 H :    0.026316
  85 H :   -0.008953
  86 H :    0.006048
  87 H :   -0.000206
  88 H :   -0.004773
Sum of atomic charges:   -0.0000000

LOEWDIN ATOMIC CHARGES
----------------------
   0 C :   -0.029515
   1 C :    0.066099
   2 F :   -0.049110
   3 C :    0.067031
   4 F :   -0.049701
   5 C :   -0.033874
   6 C :   -0.008778
   7 C :   -0.006577
   8 C :    0.016719
   9 C :   -0.022725
  10 C :   -0.051287
  11 C :    0.028150
  12 C :    0.086793
  13 O :   -0.143328
  14 C :   -0.098484
  15 C :    0.075657
  16 C :   -0.142314
  17 C :   -0.026486
  18 N :   -0.050355
  19 C :   -0.017190
  20 N :   -0.055647
  21 C :    0.048779
  22 C :   -0.169699
  23 C :   -0.013536
  24 C :   -0.205174
  25 C :   -0.183353
  26 S :    0.435467
  27 C :   -0.053009
  28 C :   -0.146618
  29 S :    0.461235
  30 C :   -0.041590
  31 C :   -0.011004
  32 C :   -0.013471
  33 N :   -0.050256
  34 C :    0.065420
  35 C :    0.066727
  36 N :   -0.050664
  37 F :   -0.019570
  38 F :   -0.020363
  39 C :   -0.035583
  40 C :   -0.036531
  41 C :   -0.035010
  42 N :   -0.277776
  43 S :    0.682731
  44 N :   -0.276421
  45 C :   -0.150360
  46 C :   -0.046055
  47 C :   -0.183396
  48 C :   -0.196521
  49 S :    0.461496
  50 C :   -0.025349
  51 C :   -0.172344
  52 S :    0.444117
  53 C :    0.050506
  54 C :   -0.094542
  55 C :    0.082188
  56 O :   -0.141871
  57 C :   -0.054021
  58 C :    0.030629
  59 C :   -0.009637
  60 C :   -0.005895
  61 C :   -0.030414
  62 C :    0.066796
  63 C :    0.067097
  64 C :   -0.032771
  65 F :   -0.049298
  66 F :   -0.048250
  67 C :    0.013218
  68 C :   -0.020365
  69 C :    0.064527
  70 C :   -0.140044
  71 C :   -0.020067
  72 N :   -0.038952
  73 C :   -0.020296
  74 N :   -0.052181
  75 H :    0.047785
  76 H :    0.044536
  77 H :    0.039962
  78 H :    0.039549
  79 H :    0.044019
  80 H :    0.037909
  81 H :    0.032715
  82 H :    0.033014
  83 H :    0.036866
  84 H :    0.047305
  85 H :    0.040848
  86 H :    0.047342
  87 H :    0.044982
  88 H :    0.039413

  Mayer bond orders larger than 0.100000
B(  0-C ,  1-C ) :   1.4417 B(  0-C ,  5-C ) :   0.1089 B(  0-C ,  7-C ) :   1.1878
B(  0-C , 75-H ) :   1.0066 B(  1-C ,  2-F ) :   1.1346 B(  1-C ,  3-C ) :   1.1913
B(  3-C ,  4-F ) :   1.1339 B(  3-C ,  5-C ) :   1.4430 B(  5-C ,  6-C ) :   1.1924
B(  5-C , 76-H ) :   1.0070 B(  6-C ,  7-C ) :   1.2567 B(  6-C , 11-C ) :   1.1863
B(  7-C ,  8-C ) :   1.2159 B(  8-C ,  9-C ) :   1.4502 B(  8-C , 77-H ) :   0.9901
B(  9-C , 10-C ) :   1.2235 B(  9-C , 15-C ) :   0.9809 B( 10-C , 11-C ) :   1.4711
B( 10-C , 12-C ) :   0.9486 B( 11-C , 78-H ) :   1.0167 B( 12-C , 13-O ) :   2.1725
B( 12-C , 14-C ) :   0.9457 B( 14-C , 15-C ) :   1.0814 B( 14-C , 21-C ) :   1.5735
B( 15-C , 16-C ) :   1.6243 B( 16-C , 17-C ) :   1.1379 B( 16-C , 19-C ) :   1.1479
B( 17-C , 18-N ) :   2.9890 B( 19-C , 20-N ) :   2.9640 B( 21-C , 22-C ) :   1.2341
B( 21-C , 79-H ) :   0.9184 B( 22-C , 23-C ) :   1.4292 B( 22-C , 26-S ) :   1.0718
B( 23-C , 24-C ) :   1.2890 B( 23-C , 80-H ) :   0.9835 B( 24-C , 25-C ) :   1.3491
B( 24-C , 29-S ) :   1.0216 B( 25-C , 26-S ) :   1.0924 B( 25-C , 27-C ) :   1.2493
B( 27-C , 28-C ) :   1.4682 B( 27-C , 81-H ) :   0.9896 B( 28-C , 29-S ) :   1.1006
B( 28-C , 30-C ) :   1.1917 B( 30-C , 31-C ) :   1.2971 B( 30-C , 39-C ) :   0.1269
B( 30-C , 41-C ) :   1.1975 B( 31-C , 32-C ) :   1.1221 B( 31-C , 36-N ) :   1.3813
B( 32-C , 33-N ) :   1.3788 B( 32-C , 39-C ) :   1.2942 B( 33-N , 34-C ) :   1.6610
B( 34-C , 35-C ) :   1.1018 B( 34-C , 38-F ) :   1.1902 B( 35-C , 36-N ) :   1.6613
B( 35-C , 37-F ) :   1.1905 B( 39-C , 40-C ) :   1.1972 B( 39-C , 45-C ) :   1.1991
B( 40-C , 41-C ) :   1.1043 B( 40-C , 44-N ) :   1.5053 B( 41-C , 42-N ) :   1.5024
B( 42-N , 43-S ) :   1.2821 B( 42-N , 44-N ) :   0.1509 B( 43-S , 44-N ) :   1.2833
B( 45-C , 46-C ) :   1.4696 B( 45-C , 49-S ) :   1.0942 B( 46-C , 47-C ) :   1.2512
B( 46-C , 82-H ) :   0.9867 B( 47-C , 48-C ) :   1.3685 B( 47-C , 52-S ) :   1.0839
B( 48-C , 49-S ) :   1.0247 B( 48-C , 50-C ) :   1.3273 B( 50-C , 51-C ) :   1.4369
B( 50-C , 83-H ) :   0.9931 B( 51-C , 52-S ) :   1.0871 B( 51-C , 53-C ) :   1.1435
B( 53-C , 54-C ) :   1.6535 B( 53-C , 84-H ) :   0.9293 B( 54-C , 55-C ) :   0.9438
B( 54-C , 69-C ) :   1.0451 B( 55-C , 56-O ) :   2.2720 B( 55-C , 57-C ) :   0.9156
B( 57-C , 58-C ) :   1.4761 B( 57-C , 68-C ) :   1.2218 B( 58-C , 59-C ) :   1.1918
B( 58-C , 85-H ) :   1.0157 B( 59-C , 60-C ) :   1.2581 B( 59-C , 64-C ) :   1.1945
B( 60-C , 61-C ) :   1.1883 B( 60-C , 67-C ) :   1.2159 B( 61-C , 62-C ) :   1.4414
B( 61-C , 64-C ) :   0.1091 B( 61-C , 86-H ) :   1.0067 B( 62-C , 63-C ) :   1.1919
B( 62-C , 66-F ) :   1.1352 B( 63-C , 64-C ) :   1.4422 B( 63-C , 65-F ) :   1.1322
B( 64-C , 87-H ) :   1.0067 B( 67-C , 68-C ) :   1.4553 B( 67-C , 88-H ) :   0.9934
B( 68-C , 69-C ) :   0.9958 B( 69-C , 70-C ) :   1.6485 B( 70-C , 71-C ) :   1.1632
B( 70-C , 73-C ) :   1.1310 B( 71-C , 72-N ) :   3.0099 B( 73-C , 74-N ) :   2.9854

-----------------------------------------------------------------------------
         ABSORPTION SPECTRUM VIA TRANSITION ELECTRIC DIPOLE MOMENTS
-----------------------------------------------------------------------------
State   Energy  Wavelength   fosc         T2         TX        TY        TZ
        (cm-1)    (nm)                  (au**2)     (au)      (au)      (au)
-----------------------------------------------------------------------------
   0   10697.6    934.8   1.290682260  39.72009  -1.93492  -5.97291   0.54821
   1   18598.9    537.7   0.034366839   0.60831   0.60822   0.24043   0.42494
   2   19446.8    514.2   0.447611070   7.57753  -1.30042  -2.38897  -0.42337
   3   20768.6    481.5   0.526801994   8.35056   0.67763   2.71495  -0.72142
   4   20838.4    479.9   0.145626780   2.30066  -0.31275  -1.44392   0.34344
   5   21414.0    467.0   0.027968172   0.42997   0.18181   0.21139   0.59349
   6   25264.6    395.8   0.004650466   0.06060   0.22561   0.07846   0.05952
   7   25839.0    387.0   0.024134112   0.30749  -0.31808   0.06041   0.45019
   8   27059.2    369.6   0.026385634   0.32102  -0.08296   0.21262  -0.51858
   9   27302.1    366.3   0.126195483   1.52168   0.32325   1.18394  -0.12436
  10   27459.3    364.2   0.052821258   0.63328   0.46091   0.03202  -0.64793
  11   27661.5    361.5   0.076514346   0.91063   0.23203   0.86949   0.31745
  12   27800.6    359.7   0.112076409   1.32720   0.00848   1.09598  -0.35490
  13   28028.6    356.8   0.030759377   0.36129  -0.40115   0.41903   0.15742
  14   28259.2    353.9   0.175487162   2.04438  -0.31829  -1.35601   0.32295
  15   28754.1    347.8   0.041177084   0.47145   0.46111   0.44212  -0.25170
  16   29009.7    344.7   0.062264932   0.70660   0.37949   0.69183   0.28976
  17   29063.1    344.1   0.062558307   0.70863   0.31488   0.38031  -0.68179
  18   29285.1    341.5   0.009681402   0.10883  -0.13824  -0.00759  -0.29944
  19   29342.3    340.8   0.018922263   0.21230   0.36201  -0.14094   0.24777
  20   29899.0    334.5   0.031313690   0.34479   0.04057  -0.58111  -0.07386
  21   30371.3    329.3   0.276042880   2.99219  -0.09634  -0.19987  -1.71551
  22   31353.4    318.9   0.227443898   2.38817   0.01356   1.31193   0.81660
  23   31939.2    313.1   0.376308159   3.87878  -0.93389  -1.18156   1.26907
  24   32150.2    311.0   0.012064934   0.12354  -0.17028  -0.10880   0.28759
  25   32406.2    308.6   0.147846187   1.50196   0.25426  -0.90739  -0.78355
  26   32602.5    306.7   0.040273178   0.40667   0.23664   0.54545  -0.23054
  27   33125.0    301.9   0.195877258   1.94672  -0.28217  -1.34670   0.23130
  28   33667.1    297.0   0.044809753   0.43817   0.24269  -0.61581  -0.00668
  29   33827.4    295.6   0.012297888   0.11968  -0.01877   0.33930  -0.06489
  30   33939.1    294.6   0.023138177   0.22444  -0.16074  -0.18615   0.40491
  31   34728.0    288.0   0.070953357   0.67262   0.17130   0.10491   0.79515
  32   34889.8    286.6   0.010728973   0.10124   0.01084   0.05593   0.31303
  33   35317.9    283.1   0.155811092   1.45238   0.09934   1.19662   0.10295
  34   35622.2    280.7   0.931231798   8.60623  -0.80856   1.15308   2.57349
  35   35665.7    280.4   0.250766502   2.31470   0.67469   0.90959  -1.01594
  36   36039.8    277.5   0.011748788   0.10732   0.11790  -0.06735   0.29814
  37   36331.6    275.2   0.164999461   1.49511  -0.27571   1.17165   0.21523
  38   36379.4    274.9   0.074105587   0.67061  -0.39705   0.55232   0.45597
  39   36729.7    272.3   0.009512831   0.08526   0.02433   0.25824  -0.13410
  40   36881.1    271.1   0.026220583   0.23405  -0.04614   0.23452   0.42063
  41   36960.7    270.6   0.009648147   0.08594  -0.08809   0.27551  -0.04764
  42   37218.0    268.7   0.027171728   0.24035  -0.21025   0.01950  -0.44245
  43   37292.6    268.1   0.038443814   0.33937   0.18345   0.46401   0.30070
  44   37448.3    267.0   0.011806311   0.10379   0.20894   0.23300   0.07646
  45   37589.8    266.0   0.002906936   0.02546   0.01509  -0.13731  -0.07985
  46   37651.5    265.6   0.015891824   0.13895   0.08282   0.33725   0.13549
  47   37936.2    263.6   0.230176158   1.99748  -0.18178   0.12598  -1.39591
  48   38031.5    262.9   0.114030514   0.98708  -0.22539  -0.28747  -0.92393
  49   38413.3    260.3   0.142426850   1.22064  -0.09374  -0.12919   1.09323
  50   39268.2    254.7   0.055445983   0.46484   0.10588   0.63958  -0.21111
  51   39467.7    253.4   0.081031080   0.67591   0.36448  -0.15447   0.72055
  52   39626.7    252.4   0.142588871   1.18460   0.23846   1.04819   0.17037
  53   39994.8    250.0   0.050377973   0.41468  -0.30896  -0.32403  -0.46285
  54   40141.3    249.1   0.025495699   0.20910   0.04263   0.39364  -0.22876

FINAL SINGLE POINT ENERGY     -5240.003514988309

DIPOLE MOMENT
-------------
                                X             Y             Z
Electronic contribution:      1.15775      -2.33642     -16.84309
Nuclear contribution   :      0.49530      -0.02174      16.80061
                        -----------------------------------------
Total Dipole Moment    :      1.65305      -2.35816      -0.04248
                        -----------------------------------------
Magnitude (a.u.)       :      2.88016
Magnitude (Debye)      :      7.32078

Rotational constants in cm-1:     0.002000     0.000171     0.000160
Rotational constants in MHz :    59.949184     5.123207     4.803483

                             ****ORCA TERMINATED NORMALLY****
TOTAL RUN TIME: 0 days 0 hours 9 minutes 10 seconds 86 msec
