                         Program Version 4.2.0 -  RELEASE  -
|  1> # ORCA input file
|  2> # SCF done       -201.835034897899          0.001201963873
|  3> ! CAM-B3LYP def2-SVP def2/J RIJCOSX Grid4 TightSCF
|  4> %maxcore 5000
|  5> %tddft
|  6>     Mode sTDDFT
|  7>     Ethresh 5.0
|  8>     maxcore 5000
|  9> end
| 10>
| 11> %pal
| 12>   nprocs 6
| 13>   end
| 14> * xyz 0 1
| 15>    C      -16.83495        -1.30599        17.99574
| 16>    C      -17.36042        -1.41456        19.25281
| 17>    F      -16.73010        -0.85731        20.29687
| 18>    C      -18.56576        -2.11074        19.46790
| 19>    F      -19.05858        -2.20236        20.71198
| 20>    C      -19.22977        -2.68943        18.42256
| 21>    C      -18.71357        -2.59544        17.11598
| 22>    C      -17.49489        -1.89136        16.89709
| 23>    C      -16.95613        -1.78495        15.59350
| 24>    C      -17.61466        -2.36642        14.54362
| 25>    C      -18.82947        -3.07009        14.77201
| 26>    C      -19.37576        -3.18745        16.01651
| 27>    C      -19.32566        -3.61259        13.48970
| 28>    O      -20.34319        -4.25763        13.32820
| 29>    C      -18.32992        -3.21033        12.47500
| 30>    C      -17.30252        -2.43058        13.11543
| 31>    C      -16.21592        -1.83192        12.52076
| 32>    C      -15.90040        -1.86730        11.14775
| 33>    N      -15.56572        -1.83994        10.04879
| 34>    C      -15.25147        -1.07641        13.21664
| 35>    N      -14.42945        -0.44943        13.71781
| 36>    C      -18.38084        -3.57093        11.14212
| 37>    C      -19.37949        -4.34906        10.56620
| 38>    C      -19.35922        -4.74049         9.23945
| 39>    C      -20.30712        -5.56835         8.59589
| 40>    C      -20.01069        -5.83868         7.29118
| 41>    C      -18.81917        -5.22941         6.84385
| 42>    S      -18.09036        -4.29192         8.12199
| 43>    C      -18.21329        -5.33198         5.59950
| 44>    C      -18.63050        -6.12337         4.50719
| 45>    C      -17.77840        -6.05601         3.44458
| 46>    C      -16.66863        -5.20476         3.65765
| 47>    S      -16.73207        -4.46309         5.23193
| 48>    C      -15.61633        -4.96966         2.80022
| 49>    C      -14.58080        -4.09896         3.17277
| 50>    N      -14.72012        -3.45927         4.34663
| 51>    N      -13.87677        -2.63537         4.82588
| 52>    C      -12.71046        -2.33547         4.22358
| 53>    C      -12.42221        -2.95997         2.96972
| 54>    C      -13.39892        -3.85253         2.41603
| 55>    N      -13.02819        -4.34722         1.24449
| 56>    S      -11.57759        -3.75119         0.86303
| 57>    N      -11.36837        -2.83533         2.17837
| 58>    C      -11.91895        -1.40497         4.92343
| 59>    C      -10.63889        -0.95898         4.69330
| 60>    C       -9.99143        -0.00272         5.52009
| 61>    C       -8.69977         0.25816         5.17679
| 62>    C       -8.25923        -0.49386         4.06683
| 63>    S       -9.54242        -1.49690         3.44083
| 64>    C       -6.98957        -0.51626         3.50480
| 65>    C       -5.85760         0.23707         3.87394
| 66>    C       -4.74122        -0.05718         3.14322
| 67>    C       -4.93843        -1.06431         2.17393
| 68>    S       -6.60057        -1.60040         2.19195
| 69>    C       -3.98017        -1.59268         1.32562
| 70>    C       -4.23519        -2.64577         0.45728
| 71>    C       -3.37151        -3.27962        -0.41256
| 72>    C       -3.71669        -4.64170        -0.88006
| 73>    O       -4.78560        -5.20246        -0.76386
| 74>    C       -2.47301        -5.18190        -1.46794
| 75>    C       -2.22243        -6.43478        -1.94500
| 76>    C       -0.92939        -6.73988        -2.42764
| 77>    C        0.07882        -5.73391        -2.40459
| 78>    C        1.36776        -6.04641        -2.87991
| 79>    C        1.64255        -7.29813        -3.35583
| 80>    C        0.64468        -8.29167        -3.37802
| 81>    C       -0.61580        -8.01945        -2.92450
| 82>    F        0.94207        -9.51206        -3.84866
| 83>    F        2.87076        -7.59267        -3.80677
| 84>    C       -0.21486        -4.44038        -1.91118
| 85>    C       -1.47438        -4.16727        -1.45226
| 86>    C       -2.06757        -2.94203        -0.90953
| 87>    C       -1.52886        -1.68343        -1.04947
| 88>    C       -2.21989        -0.48663        -0.77810
| 89>    N       -2.74230         0.52404        -0.61907
| 90>    C       -0.25427        -1.43175        -1.59244
| 91>    N        0.78220        -1.16489        -2.00904
| 92>    H      -15.91081        -0.76925        17.84799
| 93>    H      -20.15162        -3.21948        18.60416
| 94>    H      -16.03149        -1.24673        15.46331
| 95>    H      -20.29924        -3.72715        16.16170
| 96>    H      -17.57889        -3.24672        10.49027
| 97>    H      -20.20199        -4.68486        11.18165
| 98>    H      -21.16937        -5.94393         9.11763
| 99>    H      -20.61349        -6.45475         6.64855
|100>    H      -19.52051        -6.72667         4.52966
|101>    H      -17.90684        -6.59300         2.52119
|102>    H      -15.56318        -5.46274         1.84211
|103>    H      -12.41493        -1.00826         5.80120
|104>    H      -10.50643         0.45466         6.34623
|105>    H       -8.06224         0.95013         5.69671
|106>    H       -5.88947         0.96895         4.66071
|107>    H       -3.78404         0.41486         3.27462
|108>    H       -2.98640        -1.17707         1.40171
|109>    H       -5.21289        -3.11499         0.52917
|110>    H       -2.99819        -7.18520        -1.95191
|111>    H        2.14359        -5.29671        -2.87309
|112>    H       -1.36946        -8.79085        -2.94803
|113>    H        0.57087        -3.70224        -1.90070
|114> *
|115>
|116>                          ****END OF INPUT****

CARTESIAN COORDINATES (ANGSTROEM)
---------------------------------
  C    -16.834950   -1.305990   17.995740
  C    -17.360420   -1.414560   19.252810
  F    -16.730100   -0.857310   20.296870
  C    -18.565760   -2.110740   19.467900
  F    -19.058580   -2.202360   20.711980
  C    -19.229770   -2.689430   18.422560
  C    -18.713570   -2.595440   17.115980
  C    -17.494890   -1.891360   16.897090
  C    -16.956130   -1.784950   15.593500
  C    -17.614660   -2.366420   14.543620
  C    -18.829470   -3.070090   14.772010
  C    -19.375760   -3.187450   16.016510
  C    -19.325660   -3.612590   13.489700
  O    -20.343190   -4.257630   13.328200
  C    -18.329920   -3.210330   12.475000
  C    -17.302520   -2.430580   13.115430
  C    -16.215920   -1.831920   12.520760
  C    -15.900400   -1.867300   11.147750
  N    -15.565720   -1.839940   10.048790
  C    -15.251470   -1.076410   13.216640
  N    -14.429450   -0.449430   13.717810
  C    -18.380840   -3.570930   11.142120
  C    -19.379490   -4.349060   10.566200
  C    -19.359220   -4.740490    9.239450
  C    -20.307120   -5.568350    8.595890
  C    -20.010690   -5.838680    7.291180
  C    -18.819170   -5.229410    6.843850
  S    -18.090360   -4.291920    8.121990
  C    -18.213290   -5.331980    5.599500
  C    -18.630500   -6.123370    4.507190
  C    -17.778400   -6.056010    3.444580
  C    -16.668630   -5.204760    3.657650
  S    -16.732070   -4.463090    5.231930
  C    -15.616330   -4.969660    2.800220
  C    -14.580800   -4.098960    3.172770
  N    -14.720120   -3.459270    4.346630
  N    -13.876770   -2.635370    4.825880
  C    -12.710460   -2.335470    4.223580
  C    -12.422210   -2.959970    2.969720
  C    -13.398920   -3.852530    2.416030
  N    -13.028190   -4.347220    1.244490
  S    -11.577590   -3.751190    0.863030
  N    -11.368370   -2.835330    2.178370
  C    -11.918950   -1.404970    4.923430
  C    -10.638890   -0.958980    4.693300
  C     -9.991430   -0.002720    5.520090
  C     -8.699770    0.258160    5.176790
  C     -8.259230   -0.493860    4.066830
  S     -9.542420   -1.496900    3.440830
  C     -6.989570   -0.516260    3.504800
  C     -5.857600    0.237070    3.873940
  C     -4.741220   -0.057180    3.143220
  C     -4.938430   -1.064310    2.173930
  S     -6.600570   -1.600400    2.191950
  C     -3.980170   -1.592680    1.325620
  C     -4.235190   -2.645770    0.457280
  C     -3.371510   -3.279620   -0.412560
  C     -3.716690   -4.641700   -0.880060
  O     -4.785600   -5.202460   -0.763860
  C     -2.473010   -5.181900   -1.467940
  C     -2.222430   -6.434780   -1.945000
  C     -0.929390   -6.739880   -2.427640
  C      0.078820   -5.733910   -2.404590
  C      1.367760   -6.046410   -2.879910
  C      1.642550   -7.298130   -3.355830
  C      0.644680   -8.291670   -3.378020
  C     -0.615800   -8.019450   -2.924500
  F      0.942070   -9.512060   -3.848660
  F      2.870760   -7.592670   -3.806770
  C     -0.214860   -4.440380   -1.911180
  C     -1.474380   -4.167270   -1.452260
  C     -2.067570   -2.942030   -0.909530
  C     -1.528860   -1.683430   -1.049470
  C     -2.219890   -0.486630   -0.778100
  N     -2.742300    0.524040   -0.619070
  C     -0.254270   -1.431750   -1.592440
  N      0.782200   -1.164890   -2.009040
  H    -15.910810   -0.769250   17.847990
  H    -20.151620   -3.219480   18.604160
  H    -16.031490   -1.246730   15.463310
  H    -20.299240   -3.727150   16.161700
  H    -17.578890   -3.246720   10.490270
  H    -20.201990   -4.684860   11.181650
  H    -21.169370   -5.943930    9.117630
  H    -20.613490   -6.454750    6.648550
  H    -19.520510   -6.726670    4.529660
  H    -17.906840   -6.593000    2.521190
  H    -15.563180   -5.462740    1.842110
  H    -12.414930   -1.008260    5.801200
  H    -10.506430    0.454660    6.346230
  H     -8.062240    0.950130    5.696710
  H     -5.889470    0.968950    4.660710
  H     -3.784040    0.414860    3.274620
  H     -2.986400   -1.177070    1.401710
  H     -5.212890   -3.114990    0.529170
  H     -2.998190   -7.185200   -1.951910
  H      2.143590   -5.296710   -2.873090
  H     -1.369460   -8.790850   -2.948030
  H      0.570870   -3.702240   -1.900700

 Total Charge           Charge          ....    0
 Multiplicity           Mult            ....    1
 Number of Electrons    NEL             ....  558
 Basis Dimension        Dim             .... 1208

ORBITAL ENERGIES
----------------

  NO   OCC          E(Eh)            E(eV)
   0   2.0000     -89.047549     -2423.1070
   1   2.0000     -88.966784     -2420.9093
   2   2.0000     -88.965370     -2420.8708
   3   2.0000     -88.964579     -2420.8493
   4   2.0000     -88.962599     -2420.7954
   5   2.0000     -24.793974      -674.6783
   6   2.0000     -24.792927      -674.6499
   7   2.0000     -24.790043      -674.5714
   8   2.0000     -24.789077      -674.5451
   9   2.0000     -19.210808      -522.7527
  10   2.0000     -19.201248      -522.4925
  11   2.0000     -14.464628      -393.6025
  12   2.0000     -14.463982      -393.5850
  13   2.0000     -14.454331      -393.3224
  14   2.0000     -14.453995      -393.3132
  15   2.0000     -14.409990      -392.1158
  16   2.0000     -14.408210      -392.0673
  17   2.0000     -14.403633      -391.9428
  18   2.0000     -14.402074      -391.9004
  19   2.0000     -10.376493      -282.3587
  20   2.0000     -10.375777      -282.3392
  21   2.0000     -10.372019      -282.2370
  22   2.0000     -10.371443      -282.2213
  23   2.0000     -10.361348      -281.9466
  24   2.0000     -10.352423      -281.7037
  25   2.0000     -10.350823      -281.6602
  26   2.0000     -10.347950      -281.5820
  27   2.0000     -10.338614      -281.3280
  28   2.0000     -10.338079      -281.3134
  29   2.0000     -10.335859      -281.2530
  30   2.0000     -10.334056      -281.2040
  31   2.0000     -10.333791      -281.1967
  32   2.0000     -10.333117      -281.1784
  33   2.0000     -10.332808      -281.1700
  34   2.0000     -10.332276      -281.1555
  35   2.0000     -10.332025      -281.1487
  36   2.0000     -10.328971      -281.0656
  37   2.0000     -10.328611      -281.0558
  38   2.0000     -10.328608      -281.0557
  39   2.0000     -10.328411      -281.0503
  40   2.0000     -10.323136      -280.9068
  41   2.0000     -10.313708      -280.6503
  42   2.0000     -10.313162      -280.6354
  43   2.0000     -10.312117      -280.6070
  44   2.0000     -10.309582      -280.5380
  45   2.0000     -10.309366      -280.5321
  46   2.0000     -10.307248      -280.4745
  47   2.0000     -10.306882      -280.4645
  48   2.0000     -10.306816      -280.4627
  49   2.0000     -10.305929      -280.4386
  50   2.0000     -10.305529      -280.4277
  51   2.0000     -10.305313      -280.4218
  52   2.0000     -10.305154      -280.4175
  53   2.0000     -10.304906      -280.4107
  54   2.0000     -10.304789      -280.4076
  55   2.0000     -10.304450      -280.3984
  56   2.0000     -10.303575      -280.3745
  57   2.0000     -10.300653      -280.2950
  58   2.0000     -10.300165      -280.2817
  59   2.0000     -10.300036      -280.2782
  60   2.0000     -10.299873      -280.2738
  61   2.0000     -10.298107      -280.2257
  62   2.0000     -10.296412      -280.1796
  63   2.0000     -10.296242      -280.1750
  64   2.0000     -10.296108      -280.1713
  65   2.0000     -10.295536      -280.1558
  66   2.0000     -10.295360      -280.1510
  67   2.0000     -10.292275      -280.0670
  68   2.0000     -10.291465      -280.0450
  69   2.0000     -10.291276      -280.0398
  70   2.0000     -10.290644      -280.0227
  71   2.0000     -10.290538      -280.0198
  72   2.0000     -10.288078      -279.9528
  73   2.0000     -10.286991      -279.9232
  74   2.0000     -10.286470      -279.9091
  75   2.0000     -10.281902      -279.7848
  76   2.0000     -10.281526      -279.7745
  77   2.0000      -8.139040      -221.4745
  78   2.0000      -8.062847      -219.4012
  79   2.0000      -8.061705      -219.3702
  80   2.0000      -8.059787      -219.3180
  81   2.0000      -8.055632      -219.2049
  82   2.0000      -6.110282      -166.2692
  83   2.0000      -6.102588      -166.0598
  84   2.0000      -6.101296      -166.0247
  85   2.0000      -6.032394      -164.1498
  86   2.0000      -6.031267      -164.1191
  87   2.0000      -6.029539      -164.0721
  88   2.0000      -6.028326      -164.0391
  89   2.0000      -6.027241      -164.0096
  90   2.0000      -6.025787      -163.9700
  91   2.0000      -6.025216      -163.9545
  92   2.0000      -6.024089      -163.9238
  93   2.0000      -6.022894      -163.8913
  94   2.0000      -6.020770      -163.8335
  95   2.0000      -6.020695      -163.8314
  96   2.0000      -6.016967      -163.7300
  97   2.0000      -1.315904       -35.8076
  98   2.0000      -1.311906       -35.6988
  99   2.0000      -1.301101       -35.4048
 100   2.0000      -1.297134       -35.2968
 101   2.0000      -1.153831       -31.3973
 102   2.0000      -1.132411       -30.8145
 103   2.0000      -1.124440       -30.5976
 104   2.0000      -1.115838       -30.3635
 105   2.0000      -1.017859       -27.6973
 106   2.0000      -1.016118       -27.6500
 107   2.0000      -1.012866       -27.5615
 108   2.0000      -1.007990       -27.4288
 109   2.0000      -1.006888       -27.3988
 110   2.0000      -0.998480       -27.1700
 111   2.0000      -0.994939       -27.0737
 112   2.0000      -0.992952       -27.0196
 113   2.0000      -0.992521       -27.0079
 114   2.0000      -0.987798       -26.8794
 115   2.0000      -0.981789       -26.7158
 116   2.0000      -0.975167       -26.5356
 117   2.0000      -0.969784       -26.3892
 118   2.0000      -0.954622       -25.9766
 119   2.0000      -0.934510       -25.4293
 120   2.0000      -0.928953       -25.2781
 121   2.0000      -0.923976       -25.1427
 122   2.0000      -0.913802       -24.8658
 123   2.0000      -0.909963       -24.7613
 124   2.0000      -0.895652       -24.3719
 125   2.0000      -0.890714       -24.2375
 126   2.0000      -0.886745       -24.1296
 127   2.0000      -0.883912       -24.0525
 128   2.0000      -0.880297       -23.9541
 129   2.0000      -0.875900       -23.8345
 130   2.0000      -0.868104       -23.6223
 131   2.0000      -0.861075       -23.4311
 132   2.0000      -0.853222       -23.2174
 133   2.0000      -0.846413       -23.0321
 134   2.0000      -0.840353       -22.8672
 135   2.0000      -0.837094       -22.7785
 136   2.0000      -0.834619       -22.7111
 137   2.0000      -0.830019       -22.5860
 138   2.0000      -0.823343       -22.4043
 139   2.0000      -0.809322       -22.0228
 140   2.0000      -0.798334       -21.7238
 141   2.0000      -0.779500       -21.2113
 142   2.0000      -0.772360       -21.0170
 143   2.0000      -0.760852       -20.7038
 144   2.0000      -0.755309       -20.5530
 145   2.0000      -0.754012       -20.5177
 146   2.0000      -0.748201       -20.3596
 147   2.0000      -0.739267       -20.1165
 148   2.0000      -0.729106       -19.8400
 149   2.0000      -0.722434       -19.6584
 150   2.0000      -0.714070       -19.4308
 151   2.0000      -0.708377       -19.2759
 152   2.0000      -0.706872       -19.2350
 153   2.0000      -0.703416       -19.1409
 154   2.0000      -0.690803       -18.7977
 155   2.0000      -0.686014       -18.6674
 156   2.0000      -0.680672       -18.5220
 157   2.0000      -0.675585       -18.3836
 158   2.0000      -0.671319       -18.2675
 159   2.0000      -0.668378       -18.1875
 160   2.0000      -0.655493       -17.8369
 161   2.0000      -0.653893       -17.7933
 162   2.0000      -0.651185       -17.7196
 163   2.0000      -0.646402       -17.5895
 164   2.0000      -0.645083       -17.5536
 165   2.0000      -0.640867       -17.4389
 166   2.0000      -0.637185       -17.3387
 167   2.0000      -0.632648       -17.2152
 168   2.0000      -0.630346       -17.1526
 169   2.0000      -0.627505       -17.0753
 170   2.0000      -0.625488       -17.0204
 171   2.0000      -0.624437       -16.9918
 172   2.0000      -0.619858       -16.8672
 173   2.0000      -0.616606       -16.7787
 174   2.0000      -0.608685       -16.5632
 175   2.0000      -0.602554       -16.3963
 176   2.0000      -0.597514       -16.2592
 177   2.0000      -0.585101       -15.9214
 178   2.0000      -0.584273       -15.8989
 179   2.0000      -0.581330       -15.8188
 180   2.0000      -0.580679       -15.8011
 181   2.0000      -0.579643       -15.7729
 182   2.0000      -0.577360       -15.7108
 183   2.0000      -0.576724       -15.6935
 184   2.0000      -0.570611       -15.5271
 185   2.0000      -0.567390       -15.4395
 186   2.0000      -0.564421       -15.3587
 187   2.0000      -0.560682       -15.2569
 188   2.0000      -0.549241       -14.9456
 189   2.0000      -0.545011       -14.8305
 190   2.0000      -0.544627       -14.8200
 191   2.0000      -0.542454       -14.7609
 192   2.0000      -0.538610       -14.6563
 193   2.0000      -0.535845       -14.5811
 194   2.0000      -0.532809       -14.4985
 195   2.0000      -0.532447       -14.4886
 196   2.0000      -0.531574       -14.4649
 197   2.0000      -0.526627       -14.3302
 198   2.0000      -0.525802       -14.3078
 199   2.0000      -0.524393       -14.2695
 200   2.0000      -0.523453       -14.2439
 201   2.0000      -0.521335       -14.1863
 202   2.0000      -0.520186       -14.1550
 203   2.0000      -0.517364       -14.0782
 204   2.0000      -0.516290       -14.0490
 205   2.0000      -0.515130       -14.0174
 206   2.0000      -0.513310       -13.9679
 207   2.0000      -0.513055       -13.9609
 208   2.0000      -0.509455       -13.8630
 209   2.0000      -0.508284       -13.8311
 210   2.0000      -0.505786       -13.7631
 211   2.0000      -0.503953       -13.7133
 212   2.0000      -0.498734       -13.5712
 213   2.0000      -0.497664       -13.5421
 214   2.0000      -0.496872       -13.5206
 215   2.0000      -0.491048       -13.3621
 216   2.0000      -0.490840       -13.3564
 217   2.0000      -0.489726       -13.3261
 218   2.0000      -0.486211       -13.2305
 219   2.0000      -0.484322       -13.1791
 220   2.0000      -0.483769       -13.1640
 221   2.0000      -0.482684       -13.1345
 222   2.0000      -0.480006       -13.0616
 223   2.0000      -0.478426       -13.0186
 224   2.0000      -0.475546       -12.9403
 225   2.0000      -0.471368       -12.8266
 226   2.0000      -0.465346       -12.6627
 227   2.0000      -0.463322       -12.6076
 228   2.0000      -0.459398       -12.5009
 229   2.0000      -0.458282       -12.4705
 230   2.0000      -0.454980       -12.3806
 231   2.0000      -0.454289       -12.3618
 232   2.0000      -0.453425       -12.3383
 233   2.0000      -0.452618       -12.3164
 234   2.0000      -0.446183       -12.1412
 235   2.0000      -0.444579       -12.0976
 236   2.0000      -0.440749       -11.9934
 237   2.0000      -0.439957       -11.9718
 238   2.0000      -0.437918       -11.9164
 239   2.0000      -0.436019       -11.8647
 240   2.0000      -0.433762       -11.8033
 241   2.0000      -0.431608       -11.7446
 242   2.0000      -0.427120       -11.6225
 243   2.0000      -0.425947       -11.5906
 244   2.0000      -0.423646       -11.5280
 245   2.0000      -0.422190       -11.4884
 246   2.0000      -0.418336       -11.3835
 247   2.0000      -0.417722       -11.3668
 248   2.0000      -0.416924       -11.3451
 249   2.0000      -0.416086       -11.3223
 250   2.0000      -0.413054       -11.2398
 251   2.0000      -0.409195       -11.1348
 252   2.0000      -0.401553       -10.9268
 253   2.0000      -0.399227       -10.8635
 254   2.0000      -0.396484       -10.7889
 255   2.0000      -0.391673       -10.6580
 256   2.0000      -0.389200       -10.5907
 257   2.0000      -0.383826       -10.4444
 258   2.0000      -0.380581       -10.3561
 259   2.0000      -0.376436       -10.2434
 260   2.0000      -0.372552       -10.1377
 261   2.0000      -0.369451       -10.0533
 262   2.0000      -0.358355        -9.7513
 263   2.0000      -0.354805        -9.6547
 264   2.0000      -0.353235        -9.6120
 265   2.0000      -0.341919        -9.3041
 266   2.0000      -0.339148        -9.2287
 267   2.0000      -0.336577        -9.1587
 268   2.0000      -0.330795        -9.0014
 269   2.0000      -0.325715        -8.8632
 270   2.0000      -0.315841        -8.5945
 271   2.0000      -0.311111        -8.4658
 272   2.0000      -0.306765        -8.3475
 273   2.0000      -0.302213        -8.2236
 274   2.0000      -0.297698        -8.1008
 275   2.0000      -0.292295        -7.9538
 276   2.0000      -0.286718        -7.8020
 277   2.0000      -0.249502        -6.7893
 278   2.0000      -0.223983        -6.0949
 279   0.0000      -0.137307        -3.7363
 280   0.0000      -0.106766        -2.9052
 281   0.0000      -0.080866        -2.2005
 282   0.0000      -0.060217        -1.6386
 283   0.0000      -0.054897        -1.4938

MULLIKEN ATOMIC CHARGES
-----------------------
   0 C :   -0.108177
   1 C :    0.240501
   2 F :   -0.173665
   3 C :    0.236879
   4 F :   -0.175191
   5 C :   -0.104927
   6 C :    0.115613
   7 C :    0.112644
   8 C :   -0.087963
   9 C :    0.050778
  10 C :   -0.001216
  11 C :   -0.085013
  12 C :    0.143698
  13 O :   -0.161568
  14 C :   -0.087044
  15 C :    0.334040
  16 C :   -0.360139
  17 C :   -0.197617
  18 N :    0.143929
  19 C :   -0.185304
  20 N :    0.139273
  21 C :   -0.039506
  22 C :   -0.019142
  23 C :    0.000416
  24 C :    0.035032
  25 C :    0.041496
  26 C :   -0.049128
  27 S :    0.130317
  28 C :   -0.030229
  29 C :    0.028903
  30 C :    0.042511
  31 C :    0.007849
  32 S :    0.180111
  33 C :   -0.083438
  34 C :    0.067897
  35 N :   -0.154528
  36 N :   -0.040585
  37 C :   -0.060985
  38 C :    0.107360
  39 C :    0.036078
  40 N :   -0.251266
  41 S :    0.541489
  42 N :   -0.298815
  43 C :   -0.045587
  44 C :    0.001887
  45 C :    0.043987
  46 C :    0.033272
  47 C :   -0.011564
  48 S :    0.133652
  49 C :   -0.062816
  50 C :    0.038395
  51 C :    0.038987
  52 C :   -0.019518
  53 S :    0.111423
  54 C :    0.004148
  55 C :    0.021169
  56 C :   -0.132934
  57 C :    0.140354
  58 O :   -0.157290
  59 C :    0.009255
  60 C :   -0.093472
  61 C :    0.118594
  62 C :    0.117586
  63 C :   -0.113016
  64 C :    0.240000
  65 C :    0.237295
  66 C :   -0.110169
  67 F :   -0.175942
  68 F :   -0.175058
  69 C :   -0.092640
  70 C :    0.040428
  71 C :    0.297581
  72 C :   -0.349281
  73 C :   -0.219177
  74 N :    0.158008
  75 C :   -0.178583
  76 N :    0.140059
  77 H :    0.004624
  78 H :   -0.002711
  79 H :   -0.009389
  80 H :   -0.014649
  81 H :    0.019567
  82 H :    0.021308
  83 H :    0.004710
  84 H :   -0.000859
  85 H :   -0.009199
  86 H :   -0.002360
  87 H :   -0.003240
  88 H :    0.008978
  89 H :    0.007275
  90 H :   -0.003141
  91 H :   -0.000088
  92 H :    0.004667
  93 H :    0.008148
  94 H :    0.013571
  95 H :   -0.013826
  96 H :    0.005481
  97 H :   -0.002989
  98 H :   -0.006274
Sum of atomic charges:   -0.0000000

LOEWDIN ATOMIC CHARGES
----------------------
   0 C :   -0.030100
   1 C :    0.064988
   2 F :   -0.051603
   3 C :    0.065935
   4 F :   -0.052379
   5 C :   -0.034342
   6 C :   -0.009893
   7 C :   -0.007413
   8 C :    0.013502
   9 C :   -0.020228
  10 C :   -0.050239
  11 C :    0.025610
  12 C :    0.082200
  13 O :   -0.154647
  14 C :   -0.097624
  15 C :    0.070806
  16 C :   -0.148894
  17 C :   -0.023355
  18 N :   -0.057989
  19 C :   -0.017711
  20 N :   -0.064868
  21 C :    0.049976
  22 C :   -0.058759
  23 C :   -0.107784
  24 C :   -0.028564
  25 C :   -0.009776
  26 C :   -0.168835
  27 S :    0.427051
  28 C :   -0.172705
  29 C :   -0.025782
  30 C :   -0.020441
  31 C :   -0.121351
  32 S :    0.465032
  33 C :   -0.051961
  34 C :   -0.020458
  35 N :   -0.071626
  36 N :   -0.032460
  37 C :   -0.034313
  38 C :   -0.053994
  39 C :   -0.057414
  40 N :   -0.269163
  41 S :    0.662207
  42 N :   -0.283299
  43 C :   -0.026727
  44 C :   -0.141612
  45 C :   -0.007668
  46 C :   -0.030742
  47 C :   -0.158469
  48 S :    0.441323
  49 C :   -0.184522
  50 C :   -0.006934
  51 C :   -0.033292
  52 C :   -0.101426
  53 S :    0.408059
  54 C :   -0.063313
  55 C :    0.049491
  56 C :   -0.104966
  57 C :    0.077532
  58 O :   -0.158876
  59 C :   -0.050928
  60 C :    0.024149
  61 C :   -0.010988
  62 C :   -0.007152
  63 C :   -0.031245
  64 C :    0.064276
  65 C :    0.064282
  66 C :   -0.034963
  67 F :   -0.053400
  68 F :   -0.052681
  69 C :    0.009379
  70 C :   -0.017341
  71 C :    0.066936
  72 C :   -0.151730
  73 C :   -0.024377
  74 N :   -0.061217
  75 C :   -0.019623
  76 N :   -0.063754
  77 H :    0.046838
  78 H :    0.043836
  79 H :    0.039074
  80 H :    0.038525
  81 H :    0.033162
  82 H :    0.040028
  83 H :    0.040657
  84 H :    0.036823
  85 H :    0.031699
  86 H :    0.037395
  87 H :    0.041729
  88 H :    0.051984
  89 H :    0.041185
  90 H :    0.035101
  91 H :    0.037257
  92 H :    0.041203
  93 H :    0.038525
  94 H :    0.033128
  95 H :    0.038415
  96 H :    0.046579
  97 H :    0.043346
  98 H :    0.038693

  Mayer bond orders larger than 0.100000
B(  0-C ,  1-C ) :   1.4382 B(  0-C ,  5-C ) :   0.1092 B(  0-C ,  7-C ) :   1.1907
B(  0-C , 77-H ) :   1.0066 B(  1-C ,  2-F ) :   1.1324 B(  1-C ,  3-C ) :   1.1956
B(  3-C ,  4-F ) :   1.1292 B(  3-C ,  5-C ) :   1.4399 B(  5-C ,  6-C ) :   1.1946
B(  5-C , 78-H ) :   1.0068 B(  6-C ,  7-C ) :   1.2589 B(  6-C , 11-C ) :   1.1827
B(  7-C ,  8-C ) :   1.2106 B(  8-C ,  9-C ) :   1.4588 B(  8-C , 79-H ) :   0.9881
B(  9-C , 10-C ) :   1.2212 B(  9-C , 15-C ) :   0.9748 B( 10-C , 11-C ) :   1.4792
B( 10-C , 12-C ) :   0.9350 B( 11-C , 80-H ) :   1.0155 B( 12-C , 13-O ) :   2.1895
B( 12-C , 14-C ) :   0.9605 B( 14-C , 15-C ) :   1.1064 B( 14-C , 21-C ) :   1.4897
B( 15-C , 16-C ) :   1.5896 B( 16-C , 17-C ) :   1.1524 B( 16-C , 19-C ) :   1.1536
B( 17-C , 18-N ) :   2.9603 B( 19-C , 20-N ) :   2.9548 B( 21-C , 22-C ) :   1.2486
B( 21-C , 81-H ) :   0.9445 B( 22-C , 23-C ) :   1.4243 B( 22-C , 82-H ) :   0.9771
B( 23-C , 24-C ) :   1.1702 B( 23-C , 27-S ) :   1.0819 B( 24-C , 25-C ) :   1.5473
B( 24-C , 83-H ) :   1.0026 B( 25-C , 26-C ) :   1.2058 B( 25-C , 84-H ) :   0.9956
B( 26-C , 27-S ) :   1.0641 B( 26-C , 28-C ) :   1.4728 B( 28-C , 29-C ) :   1.1935
B( 28-C , 32-S ) :   1.0034 B( 29-C , 30-C ) :   1.5681 B( 29-C , 85-H ) :   0.9962
B( 30-C , 31-C ) :   1.1498 B( 30-C , 86-H ) :   1.0015 B( 31-C , 32-S ) :   1.0965
B( 31-C , 33-C ) :   1.4651 B( 32-S , 35-N ) :   0.1264 B( 33-C , 34-C ) :   1.2672
B( 33-C , 87-H ) :   0.9875 B( 34-C , 35-N ) :   1.4106 B( 34-C , 39-C ) :   1.0833
B( 35-N , 36-N ) :   1.3381 B( 36-N , 37-C ) :   1.5568 B( 37-C , 38-C ) :   1.0741
B( 37-C , 43-C ) :   1.2181 B( 38-C , 39-C ) :   1.2022 B( 38-C , 42-N ) :   1.5163
B( 39-C , 40-N ) :   1.5970 B( 40-N , 41-S ) :   1.2603 B( 40-N , 42-N ) :   0.1348
B( 41-S , 42-N ) :   1.2457 B( 43-C , 44-C ) :   1.4885 B( 43-C , 88-H ) :   0.9572
B( 44-C , 45-C ) :   1.1487 B( 44-C , 48-S ) :   1.0493 B( 45-C , 46-C ) :   1.5738
B( 45-C , 89-H ) :   1.0040 B( 46-C , 47-C ) :   1.1916 B( 46-C , 90-H ) :   0.9950
B( 47-C , 48-S ) :   1.0555 B( 47-C , 49-C ) :   1.4535 B( 49-C , 50-C ) :   1.2230
B( 49-C , 53-S ) :   1.0506 B( 50-C , 51-C ) :   1.5351 B( 50-C , 91-H ) :   0.9959
B( 51-C , 52-C ) :   1.1860 B( 51-C , 92-H ) :   1.0012 B( 52-C , 53-S ) :   1.0860
B( 52-C , 54-C ) :   1.4845 B( 54-C , 55-C ) :   1.2338 B( 54-C , 93-H ) :   0.9644
B( 55-C , 56-C ) :   1.5184 B( 55-C , 94-H ) :   0.9355 B( 56-C , 57-C ) :   0.9682
B( 56-C , 71-C ) :   1.0867 B( 57-C , 58-O ) :   2.2416 B( 57-C , 59-C ) :   0.9171
B( 59-C , 60-C ) :   1.4833 B( 59-C , 70-C ) :   1.2211 B( 60-C , 61-C ) :   1.1836
B( 60-C , 95-H ) :   1.0165 B( 61-C , 62-C ) :   1.2624 B( 61-C , 66-C ) :   1.1950
B( 62-C , 63-C ) :   1.1922 B( 62-C , 69-C ) :   1.2047 B( 63-C , 64-C ) :   1.4379
B( 63-C , 66-C ) :   0.1094 B( 63-C , 96-H ) :   1.0072 B( 64-C , 65-C ) :   1.1959
B( 64-C , 68-F ) :   1.1304 B( 65-C , 66-C ) :   1.4398 B( 65-C , 67-F ) :   1.1289
B( 66-C , 97-H ) :   1.0073 B( 69-C , 70-C ) :   1.4652 B( 69-C , 98-H ) :   0.9926
B( 70-C , 71-C ) :   0.9862 B( 71-C , 72-C ) :   1.6002 B( 72-C , 73-C ) :   1.1695
B( 72-C , 75-C ) :   1.1377 B( 73-C , 74-N ) :   3.0059 B( 75-C , 76-N ) :   2.9716

-----------------------------------------------------------------------------
         ABSORPTION SPECTRUM VIA TRANSITION ELECTRIC DIPOLE MOMENTS
-----------------------------------------------------------------------------
State   Energy  Wavelength   fosc         T2         TX        TY        TZ
        (cm-1)    (nm)                  (au**2)     (au)      (au)      (au)
-----------------------------------------------------------------------------
   0    6834.9   1463.1   1.363547881  65.67723   6.40250   0.40544  -4.95185
   1   12617.7    792.5   0.206799854   5.39569   1.19846   0.34832   1.95910
   2   13481.0    741.8   0.326501021   7.97328   2.75169   0.03900   0.63244
   3   16047.6    623.1   0.000960103   0.01970  -0.10699   0.05806   0.06985
   4   17383.7    575.3   0.383697864   7.26645   0.42229  -1.36548  -2.28552
   5   20069.8    498.3   0.268990421   4.41234   0.73510   1.29236   1.48384
   6   20849.7    479.6   0.474672549   7.49497  -0.66006  -1.66395  -2.07136
   7   22211.5    450.2   0.006242510   0.09252   0.02488   0.05053  -0.29892
   8   23028.2    434.2   0.116647577   1.66759  -0.67096  -0.79404  -0.76610
   9   23724.6    421.5   0.184265390   2.55694   1.10377   0.67021  -0.94310
  10   23824.3    419.7   0.138060978   1.90777   0.89334  -0.39812  -0.97530
  11   24027.6    416.2   0.002546429   0.03489  -0.04240   0.18180  -0.00625
  12   24559.3    407.2   0.030442270   0.40807   0.46586   0.42655  -0.09541
  13   24963.2    400.6   0.043351866   0.57172  -0.71131   0.19926   0.16139
  14   25099.5    398.4   0.006164304   0.08085   0.28155  -0.01422  -0.03719
  15   25712.9    388.9   0.010746499   0.13759   0.35575   0.01105   0.10446
  16   25942.5    385.5   0.324061954   4.11236  -0.35290  -1.51639  -1.29938
  17   26137.4    382.6   0.047296155   0.59572  -0.41978  -0.09796   0.64024
  18   26661.0    375.1   0.027687609   0.34189   0.03000   0.41845   0.40729
  19   27021.1    370.1   0.018971157   0.23114   0.29620  -0.37421  -0.05803
  20   27504.0    363.6   0.010372996   0.12416   0.15520   0.11064   0.29637
  21   27898.2    358.4   0.091355782   1.07804   0.33545   0.16772   0.96818
  22   28780.8    347.5   0.051673267   0.59107   0.46061  -0.55747  -0.26103
  23   29440.7    339.7   0.079070886   0.88419  -0.04349   0.63396   0.69311
  24   29585.3    338.0   0.001260570   0.01403   0.03212  -0.01765   0.11262
  25   29742.5    336.2   0.186510346   2.06443   0.60640  -0.34718  -1.25546
  26   30240.2    330.7   0.097228921   1.05849   0.49721  -0.64780  -0.62580
  27   30762.2    325.1   0.010625572   0.11371  -0.22217  -0.21341   0.13716
  28   31234.9    320.2   0.046467441   0.48976   0.27560  -0.34235   0.54461
  29   31374.0    318.7   0.118208843   1.24038  -0.17547  -1.03440  -0.37363
  30   31798.7    314.5   0.051661748   0.53485   0.09414  -0.39395  -0.60893
  31   31982.7    312.7   0.155043546   1.59593   0.43579  -0.41434  -1.11101
  32   32276.2    309.8   0.037970383   0.38729  -0.39037   0.27903  -0.39629
  33   32431.9    308.3   0.022416013   0.22754  -0.24529  -0.03894  -0.40726
  34   32705.4    305.8   0.006459652   0.06502   0.18533  -0.02964  -0.17262
  35   32757.7    305.3   0.000259452   0.00261  -0.00186   0.05084   0.00440
  36   32896.8    304.0   0.008313073   0.08319  -0.20495  -0.14970   0.13704
  37   33234.6    300.9   0.008103549   0.08027  -0.04897   0.18724   0.20691
  38   33560.0    298.0   0.010599153   0.10397   0.04876  -0.31860  -0.00955
  39   33607.7    297.6   0.082024066   0.80349  -0.09552  -0.88464  -0.10847
  40   34265.1    291.8   0.079656003   0.76532  -0.08474  -0.56072  -0.66613
  41   34617.4    288.9   0.228844708   2.17632   0.24296  -1.39566  -0.41160
  42   35029.3    285.5   0.079106945   0.74346  -0.35579  -0.07332   0.78199
  43   35219.7    283.9   0.047856943   0.44734  -0.06667   0.60498  -0.27730
  44   35317.5    283.1   0.477410266   4.45018  -0.84013   0.62027   1.83293
  45   35494.5    281.7   0.157317968   1.45913  -0.01881  -1.09892   0.50115
  46   35594.0    280.9   0.024854402   0.22988  -0.19870   0.41283   0.14130
  47   35689.7    280.2   0.054951783   0.50689   0.36121   0.30054  -0.53488
  48   36179.3    276.4   0.000484226   0.00441  -0.06162   0.01461   0.01990
  49   36306.0    275.4   0.001770495   0.01605   0.01154  -0.00851   0.12589
  50   36481.6    274.1   0.007412543   0.06689   0.20807  -0.10682  -0.11039
  51   36606.2    273.2   0.005304361   0.04770  -0.12600   0.13711   0.11415
  52   36891.2    271.1   0.029369752   0.26209  -0.36982  -0.29050   0.20233
  53   37257.6    268.4   0.020482674   0.18099  -0.28062   0.12419   0.29464
  54   37527.1    266.5   0.002000396   0.01755  -0.08975  -0.09743   0.00065
  55   37862.8    264.1   0.017252675   0.15001   0.15959  -0.28392  -0.20960
  56   37915.2    263.7   0.088922215   0.77210   0.12090   0.87031  -0.00696
  57   38124.4    262.3   0.008812645   0.07610  -0.15822  -0.20798  -0.08838
  58   38243.3    261.5   0.071082313   0.61190   0.31447   0.05961  -0.71376
  59   38650.3    258.7   0.005532558   0.04712   0.21323  -0.03889  -0.01212
  60   38783.0    257.8   0.029550983   0.25085   0.38266  -0.31109  -0.08740
  61   38889.1    257.1   0.201751253   1.70791   0.93677   0.90853  -0.07035
  62   39081.6    255.9   0.067999785   0.57281   0.05942  -0.68851  -0.30860
  63   39488.4    253.2   0.063387601   0.52846   0.37385  -0.08337  -0.61786
  64   39500.0    253.2   0.100828406   0.84035   0.80152   0.35888  -0.26290
  65   39951.7    250.3   0.074145156   0.61097   0.41954   0.58013   0.31370
  66   40056.8    249.6   0.105859650   0.87002  -0.58606  -0.31315   0.65459
  67   40273.7    248.3   0.064513103   0.52735  -0.12004  -0.18619  -0.69158

FINAL SINGLE POINT ENERGY     -5197.428898393323

DIPOLE MOMENT
-------------
                                X             Y             Z
Electronic contribution:     19.00924      -5.84195       1.99629
Nuclear contribution   :    -23.20170       3.87002      -1.66011
                        -----------------------------------------
Total Dipole Moment    :     -4.19246      -1.97193       0.33618
                        -----------------------------------------
Magnitude (a.u.)       :      4.64524
Magnitude (Debye)      :     11.80725

Rotational constants in cm-1:     0.001122     0.000163     0.000152
Rotational constants in MHz :    33.649435     4.885657     4.556393

                             ****ORCA TERMINATED NORMALLY****
TOTAL RUN TIME: 0 days 0 hours 11 minutes 11 seconds 354 msec
