                         Program Version 4.2.0 -  RELEASE  -
|  1> # ORCA input file
|  2> # SCF done       -204.767628210720          0.000385958518
|  3> ! CAM-B3LYP def2-SVP def2/J RIJCOSX Grid4 TightSCF
|  4> %maxcore 5000
|  5> %tddft
|  6>     Mode sTDDFT
|  7>     Ethresh 5.0
|  8>     maxcore 5000
|  9> end
| 10>
| 11> %pal
| 12>   nprocs 6
| 13>   end
| 14> * xyz 0 1
| 15>    C       -1.54492        -0.98974        -1.47312
| 16>    C       -1.98750        -1.75108        -2.52489
| 17>    C       -1.24033        -2.79079        -3.11663
| 18>    N       -0.68734        -3.65083        -3.63864
| 19>    C       -3.21794        -1.58378        -3.19386
| 20>    N       -4.18813        -1.49744        -3.80296
| 21>    C       -0.22842        -1.08232        -0.85752
| 22>    C       -0.08917        -0.02142         0.07125
| 23>    C        1.05253         0.17122         0.81106
| 24>    C        2.10774        -0.72716         0.62721
| 25>    C        1.95777        -1.78821        -0.29825
| 26>    C        0.80341        -1.98211        -1.04759
| 27>    S        3.38262        -2.77721        -0.35613
| 28>    C        4.15160        -1.78149         0.83089
| 29>    C        3.38381        -0.75492         1.25701
| 30>    C       -1.32452         0.78085         0.09812
| 31>    O       -1.53156         1.74775         0.80041
| 32>    C       -2.25564         0.10982        -0.84341
| 33>    C       -3.59654         0.33888        -0.98548
| 34>    C       -4.38214         1.41731        -0.53313
| 35>    C       -4.04658         2.68929        -0.08659
| 36>    C       -5.16707         3.45943         0.19185
| 37>    C       -6.38328         2.77401        -0.03144
| 38>    S       -6.13767         1.19779        -0.61426
| 39>    C       -7.45396         3.63735         0.30226
| 40>    C       -6.92252         4.86880         0.72369
| 41>    C       -5.47118         4.80341         0.65558
| 42>    C       -4.59394         5.80893         0.93682
| 43>    C       -3.19533         5.67412         0.79668
| 44>    N       -2.05819         5.60316         0.67274
| 45>    C       -5.03098         7.08086         1.36258
| 46>    N       -5.37616         8.11988         1.70446
| 47>    C       -7.90353         5.79424         1.07164
| 48>    C       -9.18132         5.28901         0.92696
| 49>    S       -9.15993         3.62478         0.34376
| 50>    C      -10.43383         5.93764         1.18888
| 51>    C      -11.62407         5.22271         1.13692
| 52>    C      -12.84971         5.80814         1.39864
| 53>    C      -12.97633         7.15531         1.71387
| 54>    C      -11.77870         7.93416         1.75444
| 55>    C      -10.51789         7.32778         1.50932
| 56>    N       -9.40020         8.07561         1.57615
| 57>    C       -9.47424         9.34918         1.85985
| 58>    C      -10.74173         9.96173         2.08885
| 59>    N      -11.83623         9.24987         2.03423
| 60>    C      -10.86939        11.41325         2.39411
| 61>    C       -8.20382        10.12176         1.93232
| 62>    C      -14.26279         7.71929         2.00511
| 63>    C      -14.59406         9.04275         2.22055
| 64>    C      -15.94645         9.21268         2.50694
| 65>    C      -16.66463         8.00393         2.51345
| 66>    S      -15.67016         6.66576         2.15620
| 67>    C      -18.01445         8.28159         2.84578
| 68>    C      -18.14618         9.67209         3.04030
| 69>    C      -16.85161        10.29910         2.83938
| 70>    C      -16.54846        11.62202         2.98042
| 71>    C      -15.24245        12.11721         2.78953
| 72>    N      -14.18119        12.52285         2.63267
| 73>    C      -17.53405        12.56826         3.33176
| 74>    N      -18.34913        13.32542         3.61021
| 75>    C      -19.42546        10.04619         3.42814
| 76>    C      -20.27910         8.95884         3.54352
| 77>    S      -19.47440         7.45160         3.11473
| 78>    C      -21.64078         8.93282         3.91512
| 79>    C      -22.36151         9.87777         4.57949
| 80>    C      -22.00049        11.05777         5.33802
| 81>    C      -20.85694        11.24967         6.07035
| 82>    C      -20.63183        12.36906         6.89893
| 83>    N      -20.39793        13.25329         7.59186
| 84>    C      -19.81352        10.30968         6.16798
| 85>    N      -18.94993         9.56478         6.30359
| 86>    C      -23.19222        11.89461         5.42501
| 87>    C      -24.30830        11.14843         4.96485
| 88>    C      -23.85031         9.82937         4.49679
| 89>    O      -24.51677         8.90752         4.08452
| 90>    C      -25.58512        11.65669         4.97119
| 91>    C      -25.76616        12.96235         5.43775
| 92>    C      -24.64181        13.70535         5.87303
| 93>    C      -23.35091        13.18959         5.87712
| 94>    S      -25.10104        15.29657         6.38847
| 95>    C      -26.75969        14.95984         6.03249
| 96>    C      -26.96831        13.71679         5.54640
| 97>    H        1.12718         0.99192         1.50749
| 98>    H        0.73608        -2.80825        -1.73554
| 99>    H        5.14757        -2.03144         1.14115
|100>    H        3.69504        -0.03397         1.99110
|101>    H       -4.16598        -0.42075        -1.50902
|102>    H       -3.02938         3.01528         0.02676
|103>    H       -7.73484         6.79707         1.41605
|104>    H      -11.59336         4.16997         0.89473
|105>    H      -13.73801         5.19432         1.35461
|106>    H      -10.35059        11.64719         3.32278
|107>    H      -11.91630        11.68691         2.49236
|108>    H      -10.41501        12.00590         1.60181
|109>    H       -8.19673        10.90312         1.17351
|110>    H       -7.35374         9.46357         1.77544
|111>    H       -8.11152        10.60272         2.90470
|112>    H      -13.85537         9.82046         2.17137
|113>    H      -19.74489        11.06037         3.58486
|114>    H      -22.21476         8.07350         3.58140
|115>    H      -26.41853        11.06453         4.62644
|116>    H      -22.52237        13.79358         6.20846
|117>    H      -27.48798        15.72679         6.21155
|118>    H      -27.93322        13.33227         5.26961
|119> *
|120>
|121>                          ****END OF INPUT****

CARTESIAN COORDINATES (ANGSTROEM)
---------------------------------
  C     -1.544920   -0.989740   -1.473120
  C     -1.987500   -1.751080   -2.524890
  C     -1.240330   -2.790790   -3.116630
  N     -0.687340   -3.650830   -3.638640
  C     -3.217940   -1.583780   -3.193860
  N     -4.188130   -1.497440   -3.802960
  C     -0.228420   -1.082320   -0.857520
  C     -0.089170   -0.021420    0.071250
  C      1.052530    0.171220    0.811060
  C      2.107740   -0.727160    0.627210
  C      1.957770   -1.788210   -0.298250
  C      0.803410   -1.982110   -1.047590
  S      3.382620   -2.777210   -0.356130
  C      4.151600   -1.781490    0.830890
  C      3.383810   -0.754920    1.257010
  C     -1.324520    0.780850    0.098120
  O     -1.531560    1.747750    0.800410
  C     -2.255640    0.109820   -0.843410
  C     -3.596540    0.338880   -0.985480
  C     -4.382140    1.417310   -0.533130
  C     -4.046580    2.689290   -0.086590
  C     -5.167070    3.459430    0.191850
  C     -6.383280    2.774010   -0.031440
  S     -6.137670    1.197790   -0.614260
  C     -7.453960    3.637350    0.302260
  C     -6.922520    4.868800    0.723690
  C     -5.471180    4.803410    0.655580
  C     -4.593940    5.808930    0.936820
  C     -3.195330    5.674120    0.796680
  N     -2.058190    5.603160    0.672740
  C     -5.030980    7.080860    1.362580
  N     -5.376160    8.119880    1.704460
  C     -7.903530    5.794240    1.071640
  C     -9.181320    5.289010    0.926960
  S     -9.159930    3.624780    0.343760
  C    -10.433830    5.937640    1.188880
  C    -11.624070    5.222710    1.136920
  C    -12.849710    5.808140    1.398640
  C    -12.976330    7.155310    1.713870
  C    -11.778700    7.934160    1.754440
  C    -10.517890    7.327780    1.509320
  N     -9.400200    8.075610    1.576150
  C     -9.474240    9.349180    1.859850
  C    -10.741730    9.961730    2.088850
  N    -11.836230    9.249870    2.034230
  C    -10.869390   11.413250    2.394110
  C     -8.203820   10.121760    1.932320
  C    -14.262790    7.719290    2.005110
  C    -14.594060    9.042750    2.220550
  C    -15.946450    9.212680    2.506940
  C    -16.664630    8.003930    2.513450
  S    -15.670160    6.665760    2.156200
  C    -18.014450    8.281590    2.845780
  C    -18.146180    9.672090    3.040300
  C    -16.851610   10.299100    2.839380
  C    -16.548460   11.622020    2.980420
  C    -15.242450   12.117210    2.789530
  N    -14.181190   12.522850    2.632670
  C    -17.534050   12.568260    3.331760
  N    -18.349130   13.325420    3.610210
  C    -19.425460   10.046190    3.428140
  C    -20.279100    8.958840    3.543520
  S    -19.474400    7.451600    3.114730
  C    -21.640780    8.932820    3.915120
  C    -22.361510    9.877770    4.579490
  C    -22.000490   11.057770    5.338020
  C    -20.856940   11.249670    6.070350
  C    -20.631830   12.369060    6.898930
  N    -20.397930   13.253290    7.591860
  C    -19.813520   10.309680    6.167980
  N    -18.949930    9.564780    6.303590
  C    -23.192220   11.894610    5.425010
  C    -24.308300   11.148430    4.964850
  C    -23.850310    9.829370    4.496790
  O    -24.516770    8.907520    4.084520
  C    -25.585120   11.656690    4.971190
  C    -25.766160   12.962350    5.437750
  C    -24.641810   13.705350    5.873030
  C    -23.350910   13.189590    5.877120
  S    -25.101040   15.296570    6.388470
  C    -26.759690   14.959840    6.032490
  C    -26.968310   13.716790    5.546400
  H      1.127180    0.991920    1.507490
  H      0.736080   -2.808250   -1.735540
  H      5.147570   -2.031440    1.141150
  H      3.695040   -0.033970    1.991100
  H     -4.165980   -0.420750   -1.509020
  H     -3.029380    3.015280    0.026760
  H     -7.734840    6.797070    1.416050
  H    -11.593360    4.169970    0.894730
  H    -13.738010    5.194320    1.354610
  H    -10.350590   11.647190    3.322780
  H    -11.916300   11.686910    2.492360
  H    -10.415010   12.005900    1.601810
  H     -8.196730   10.903120    1.173510
  H     -7.353740    9.463570    1.775440
  H     -8.111520   10.602720    2.904700
  H    -13.855370    9.820460    2.171370
  H    -19.744890   11.060370    3.584860
  H    -22.214760    8.073500    3.581400
  H    -26.418530   11.064530    4.626440
  H    -22.522370   13.793580    6.208460
  H    -27.487980   15.726790    6.211550
  H    -27.933220   13.332270    5.269610

 Total Charge           Charge          ....    0
 Multiplicity           Mult            ....    1
 Number of Electrons    NEL             ....  588
 Basis Dimension        Dim             .... 1282

ORBITAL ENERGIES
----------------

  NO   OCC          E(Eh)            E(eV)
   0   2.0000     -88.995634     -2421.6943
   1   2.0000     -88.995077     -2421.6792
   2   2.0000     -88.991495     -2421.5817
   3   2.0000     -88.990547     -2421.5559
   4   2.0000     -88.965808     -2420.8827
   5   2.0000     -88.965087     -2420.8631
   6   2.0000     -19.215792      -522.8883
   7   2.0000     -19.214078      -522.8416
   8   2.0000     -14.435034      -392.7973
   9   2.0000     -14.434660      -392.7871
  10   2.0000     -14.432595      -392.7309
  11   2.0000     -14.428942      -392.6315
  12   2.0000     -14.424969      -392.5234
  13   2.0000     -14.424767      -392.5179
  14   2.0000     -14.416695      -392.2982
  15   2.0000     -14.414528      -392.2393
  16   2.0000     -14.412473      -392.1833
  17   2.0000     -14.412366      -392.1804
  18   2.0000     -10.367515      -282.1144
  19   2.0000     -10.366928      -282.0984
  20   2.0000     -10.366394      -282.0839
  21   2.0000     -10.365310      -282.0544
  22   2.0000     -10.354160      -281.7510
  23   2.0000     -10.353990      -281.7464
  24   2.0000     -10.345868      -281.5254
  25   2.0000     -10.342910      -281.4449
  26   2.0000     -10.342652      -281.4379
  27   2.0000     -10.342074      -281.4221
  28   2.0000     -10.339787      -281.3599
  29   2.0000     -10.339214      -281.3443
  30   2.0000     -10.336040      -281.2579
  31   2.0000     -10.335722      -281.2493
  32   2.0000     -10.333750      -281.1956
  33   2.0000     -10.333506      -281.1890
  34   2.0000     -10.333057      -281.1768
  35   2.0000     -10.329882      -281.0904
  36   2.0000     -10.329616      -281.0831
  37   2.0000     -10.328471      -281.0520
  38   2.0000     -10.327890      -281.0362
  39   2.0000     -10.327604      -281.0284
  40   2.0000     -10.327463      -281.0246
  41   2.0000     -10.326631      -281.0019
  42   2.0000     -10.326568      -281.0002
  43   2.0000     -10.326004      -280.9848
  44   2.0000     -10.325304      -280.9658
  45   2.0000     -10.323904      -280.9277
  46   2.0000     -10.319916      -280.8192
  47   2.0000     -10.318856      -280.7903
  48   2.0000     -10.318237      -280.7735
  49   2.0000     -10.317831      -280.7625
  50   2.0000     -10.315512      -280.6994
  51   2.0000     -10.315011      -280.6857
  52   2.0000     -10.313135      -280.6347
  53   2.0000     -10.312741      -280.6240
  54   2.0000     -10.311713      -280.5960
  55   2.0000     -10.310121      -280.5526
  56   2.0000     -10.309825      -280.5446
  57   2.0000     -10.307185      -280.4728
  58   2.0000     -10.306707      -280.4598
  59   2.0000     -10.306665      -280.4586
  60   2.0000     -10.306260      -280.4476
  61   2.0000     -10.306053      -280.4420
  62   2.0000     -10.304263      -280.3933
  63   2.0000     -10.304108      -280.3890
  64   2.0000     -10.302202      -280.3372
  65   2.0000     -10.301575      -280.3201
  66   2.0000     -10.300735      -280.2973
  67   2.0000     -10.300020      -280.2778
  68   2.0000     -10.299135      -280.2537
  69   2.0000     -10.299125      -280.2535
  70   2.0000     -10.299002      -280.2501
  71   2.0000     -10.298650      -280.2405
  72   2.0000     -10.298348      -280.2323
  73   2.0000     -10.296840      -280.1913
  74   2.0000     -10.291565      -280.0477
  75   2.0000     -10.290665      -280.0232
  76   2.0000     -10.290394      -280.0159
  77   2.0000     -10.288391      -279.9613
  78   2.0000     -10.288229      -279.9569
  79   2.0000     -10.287523      -279.9377
  80   2.0000     -10.265430      -279.3365
  81   2.0000     -10.265251      -279.3317
  82   2.0000      -8.090324      -220.1489
  83   2.0000      -8.089897      -220.1373
  84   2.0000      -8.085905      -220.0287
  85   2.0000      -8.084950      -220.0027
  86   2.0000      -8.061983      -219.3777
  87   2.0000      -8.061350      -219.3605
  88   2.0000      -6.059463      -164.8864
  89   2.0000      -6.059018      -164.8743
  90   2.0000      -6.055312      -164.7734
  91   2.0000      -6.055150      -164.7690
  92   2.0000      -6.054838      -164.7605
  93   2.0000      -6.054168      -164.7423
  94   2.0000      -6.052853      -164.7065
  95   2.0000      -6.052453      -164.6956
  96   2.0000      -6.050977      -164.6555
  97   2.0000      -6.050015      -164.6293
  98   2.0000      -6.048337      -164.5836
  99   2.0000      -6.047404      -164.5582
 100   2.0000      -6.031487      -164.1251
 101   2.0000      -6.030861      -164.1081
 102   2.0000      -6.027189      -164.0082
 103   2.0000      -6.026559      -163.9910
 104   2.0000      -6.023701      -163.9133
 105   2.0000      -6.023022      -163.8948
 106   2.0000      -1.131328       -30.7850
 107   2.0000      -1.129361       -30.7315
 108   2.0000      -1.088466       -29.6187
 109   2.0000      -1.048392       -28.5282
 110   2.0000      -1.048112       -28.5206
 111   2.0000      -1.025228       -27.8979
 112   2.0000      -1.024593       -27.8806
 113   2.0000      -1.020052       -27.7570
 114   2.0000      -1.018708       -27.7205
 115   2.0000      -1.013219       -27.5711
 116   2.0000      -1.011074       -27.5127
 117   2.0000      -1.008612       -27.4457
 118   2.0000      -1.007715       -27.4213
 119   2.0000      -1.006725       -27.3944
 120   2.0000      -1.002932       -27.2912
 121   2.0000      -0.998982       -27.1837
 122   2.0000      -0.992427       -27.0053
 123   2.0000      -0.992175       -26.9985
 124   2.0000      -0.984497       -26.7895
 125   2.0000      -0.983568       -26.7642
 126   2.0000      -0.974790       -26.5254
 127   2.0000      -0.962831       -26.2000
 128   2.0000      -0.955234       -25.9932
 129   2.0000      -0.932149       -25.3651
 130   2.0000      -0.931361       -25.3436
 131   2.0000      -0.922032       -25.0898
 132   2.0000      -0.916615       -24.9424
 133   2.0000      -0.901541       -24.5322
 134   2.0000      -0.897454       -24.4210
 135   2.0000      -0.893469       -24.3125
 136   2.0000      -0.884613       -24.0715
 137   2.0000      -0.880578       -23.9617
 138   2.0000      -0.879568       -23.9343
 139   2.0000      -0.875836       -23.8327
 140   2.0000      -0.874873       -23.8065
 141   2.0000      -0.863493       -23.4968
 142   2.0000      -0.857881       -23.3441
 143   2.0000      -0.856022       -23.2936
 144   2.0000      -0.852522       -23.1983
 145   2.0000      -0.822404       -22.3788
 146   2.0000      -0.821415       -22.3518
 147   2.0000      -0.819187       -22.2912
 148   2.0000      -0.818882       -22.2829
 149   2.0000      -0.808050       -21.9882
 150   2.0000      -0.803064       -21.8525
 151   2.0000      -0.789141       -21.4736
 152   2.0000      -0.779032       -21.1985
 153   2.0000      -0.775897       -21.1132
 154   2.0000      -0.766021       -20.8445
 155   2.0000      -0.756529       -20.5862
 156   2.0000      -0.754779       -20.5386
 157   2.0000      -0.739646       -20.1268
 158   2.0000      -0.729745       -19.8574
 159   2.0000      -0.724654       -19.7188
 160   2.0000      -0.723048       -19.6751
 161   2.0000      -0.714875       -19.4527
 162   2.0000      -0.702719       -19.1220
 163   2.0000      -0.699700       -19.0398
 164   2.0000      -0.691770       -18.8240
 165   2.0000      -0.689321       -18.7574
 166   2.0000      -0.687625       -18.7112
 167   2.0000      -0.687005       -18.6944
 168   2.0000      -0.680709       -18.5230
 169   2.0000      -0.676922       -18.4200
 170   2.0000      -0.669379       -18.2147
 171   2.0000      -0.664727       -18.0881
 172   2.0000      -0.660355       -17.9692
 173   2.0000      -0.659942       -17.9579
 174   2.0000      -0.647352       -17.6153
 175   2.0000      -0.643108       -17.4999
 176   2.0000      -0.636098       -17.3091
 177   2.0000      -0.633158       -17.2291
 178   2.0000      -0.626430       -17.0460
 179   2.0000      -0.621077       -16.9004
 180   2.0000      -0.619089       -16.8463
 181   2.0000      -0.618019       -16.8172
 182   2.0000      -0.614918       -16.7328
 183   2.0000      -0.612691       -16.6722
 184   2.0000      -0.608201       -16.5500
 185   2.0000      -0.598696       -16.2914
 186   2.0000      -0.593861       -16.1598
 187   2.0000      -0.590722       -16.0744
 188   2.0000      -0.583422       -15.8757
 189   2.0000      -0.578635       -15.7455
 190   2.0000      -0.576161       -15.6781
 191   2.0000      -0.563712       -15.3394
 192   2.0000      -0.559858       -15.2345
 193   2.0000      -0.557393       -15.1674
 194   2.0000      -0.550691       -14.9851
 195   2.0000      -0.550124       -14.9696
 196   2.0000      -0.549739       -14.9591
 197   2.0000      -0.547388       -14.8952
 198   2.0000      -0.544891       -14.8272
 199   2.0000      -0.539510       -14.6808
 200   2.0000      -0.538403       -14.6507
 201   2.0000      -0.537323       -14.6213
 202   2.0000      -0.534231       -14.5372
 203   2.0000      -0.530876       -14.4459
 204   2.0000      -0.527871       -14.3641
 205   2.0000      -0.523344       -14.2409
 206   2.0000      -0.520880       -14.1739
 207   2.0000      -0.518179       -14.1004
 208   2.0000      -0.513798       -13.9812
 209   2.0000      -0.512327       -13.9411
 210   2.0000      -0.511561       -13.9203
 211   2.0000      -0.508440       -13.8354
 212   2.0000      -0.507367       -13.8062
 213   2.0000      -0.506117       -13.7721
 214   2.0000      -0.504839       -13.7374
 215   2.0000      -0.502720       -13.6797
 216   2.0000      -0.500807       -13.6276
 217   2.0000      -0.498589       -13.5673
 218   2.0000      -0.497627       -13.5411
 219   2.0000      -0.496499       -13.5104
 220   2.0000      -0.495149       -13.4737
 221   2.0000      -0.493086       -13.4176
 222   2.0000      -0.491905       -13.3854
 223   2.0000      -0.490400       -13.3444
 224   2.0000      -0.488306       -13.2875
 225   2.0000      -0.487733       -13.2719
 226   2.0000      -0.485401       -13.2084
 227   2.0000      -0.484942       -13.1959
 228   2.0000      -0.482064       -13.1176
 229   2.0000      -0.479553       -13.0493
 230   2.0000      -0.476700       -12.9717
 231   2.0000      -0.475259       -12.9325
 232   2.0000      -0.471152       -12.8207
 233   2.0000      -0.470008       -12.7896
 234   2.0000      -0.466395       -12.6913
 235   2.0000      -0.462289       -12.5795
 236   2.0000      -0.461897       -12.5689
 237   2.0000      -0.458605       -12.4793
 238   2.0000      -0.454833       -12.3766
 239   2.0000      -0.453691       -12.3456
 240   2.0000      -0.453206       -12.3324
 241   2.0000      -0.452138       -12.3033
 242   2.0000      -0.450287       -12.2529
 243   2.0000      -0.449113       -12.2210
 244   2.0000      -0.447193       -12.1687
 245   2.0000      -0.446646       -12.1539
 246   2.0000      -0.444881       -12.1058
 247   2.0000      -0.443840       -12.0775
 248   2.0000      -0.442590       -12.0435
 249   2.0000      -0.441907       -12.0249
 250   2.0000      -0.441720       -12.0198
 251   2.0000      -0.441073       -12.0022
 252   2.0000      -0.440289       -11.9809
 253   2.0000      -0.439627       -11.9629
 254   2.0000      -0.438230       -11.9248
 255   2.0000      -0.433449       -11.7947
 256   2.0000      -0.433094       -11.7851
 257   2.0000      -0.432749       -11.7757
 258   2.0000      -0.431217       -11.7340
 259   2.0000      -0.431143       -11.7320
 260   2.0000      -0.427881       -11.6432
 261   2.0000      -0.425708       -11.5841
 262   2.0000      -0.425470       -11.5776
 263   2.0000      -0.425227       -11.5710
 264   2.0000      -0.422668       -11.5014
 265   2.0000      -0.420626       -11.4458
 266   2.0000      -0.416474       -11.3328
 267   2.0000      -0.414814       -11.2877
 268   2.0000      -0.408802       -11.1241
 269   2.0000      -0.407622       -11.0920
 270   2.0000      -0.403131       -10.9698
 271   2.0000      -0.402464       -10.9516
 272   2.0000      -0.384723       -10.4688
 273   2.0000      -0.381204       -10.3731
 274   2.0000      -0.377824       -10.2811
 275   2.0000      -0.373960       -10.1760
 276   2.0000      -0.369195       -10.0463
 277   2.0000      -0.356484        -9.7004
 278   2.0000      -0.352065        -9.5802
 279   2.0000      -0.348998        -9.4967
 280   2.0000      -0.341839        -9.3019
 281   2.0000      -0.337134        -9.1739
 282   2.0000      -0.332771        -9.0552
 283   2.0000      -0.328552        -8.9404
 284   2.0000      -0.325594        -8.8599
 285   2.0000      -0.323046        -8.7905
 286   2.0000      -0.322131        -8.7656
 287   2.0000      -0.313150        -8.5212
 288   2.0000      -0.312586        -8.5059
 289   2.0000      -0.306995        -8.3538
 290   2.0000      -0.294556        -8.0153
 291   2.0000      -0.292792        -7.9673
 292   2.0000      -0.273791        -7.4502
 293   2.0000      -0.248966        -6.7747
 294   0.0000      -0.116082        -3.1587
 295   0.0000      -0.108779        -2.9600
 296   0.0000      -0.087964        -2.3936
 297   0.0000      -0.086540        -2.3549
 298   0.0000      -0.066370        -1.8060

MULLIKEN ATOMIC CHARGES
-----------------------
   0 C :    0.301224
   1 C :   -0.346349
   2 C :   -0.184856
   3 N :    0.148254
   4 C :   -0.206659
   5 N :    0.155732
   6 C :    0.015783
   7 C :   -0.016050
   8 C :   -0.068679
   9 C :    0.114368
  10 C :   -0.093654
  11 C :   -0.025729
  12 S :    0.140073
  13 C :   -0.047065
  14 C :    0.024499
  15 C :    0.152701
  16 O :   -0.153419
  17 C :   -0.094199
  18 C :    0.029323
  19 C :   -0.111370
  20 C :    0.015927
  21 C :   -0.016939
  22 C :   -0.080478
  23 S :    0.205148
  24 C :   -0.095288
  25 C :    0.039686
  26 C :    0.316560
  27 C :   -0.304472
  28 C :   -0.193154
  29 N :    0.188113
  30 C :   -0.176522
  31 N :    0.185478
  32 C :   -0.050647
  33 C :   -0.108058
  34 S :    0.163694
  35 C :    0.157201
  36 C :   -0.069856
  37 C :   -0.078562
  38 C :    0.164054
  39 C :   -0.041290
  40 C :   -0.040321
  41 N :   -0.013262
  42 C :   -0.159766
  43 C :   -0.156582
  44 N :   -0.010905
  45 C :    0.125223
  46 C :    0.129912
  47 C :   -0.111823
  48 C :   -0.049152
  49 C :    0.038476
  50 C :   -0.093742
  51 S :    0.162788
  52 C :   -0.070266
  53 C :   -0.004201
  54 C :    0.312914
  55 C :   -0.297867
  56 C :   -0.172003
  57 N :    0.183513
  58 C :   -0.186865
  59 N :    0.169026
  60 C :   -0.006697
  61 C :   -0.110558
  62 S :    0.211848
  63 C :    0.080005
  64 C :   -0.133836
  65 C :    0.268886
  66 C :   -0.338150
  67 C :   -0.171441
  68 N :    0.157779
  69 C :   -0.197924
  70 N :    0.166010
  71 C :   -0.003234
  72 C :    0.003627
  73 C :    0.131506
  74 O :   -0.147930
  75 C :   -0.066318
  76 C :    0.108215
  77 C :   -0.095283
  78 C :   -0.017233
  79 S :    0.143389
  80 C :   -0.050758
  81 C :    0.027115
  82 H :   -0.008357
  83 H :   -0.005567
  84 H :    0.037842
  85 H :   -0.005876
  86 H :    0.019154
  87 H :    0.034403
  88 H :    0.018447
  89 H :   -0.008358
  90 H :   -0.008151
  91 H :    0.028040
  92 H :    0.033982
  93 H :    0.026044
  94 H :    0.027507
  95 H :    0.032496
  96 H :    0.025427
  97 H :    0.017540
  98 H :    0.024966
  99 H :    0.019966
 100 H :   -0.011704
 101 H :    0.001335
 102 H :    0.039303
 103 H :   -0.007077
Sum of atomic charges:   -0.0000000

LOEWDIN ATOMIC CHARGES
----------------------
   0 C :    0.076939
   1 C :   -0.145095
   2 C :   -0.018580
   3 N :   -0.055102
   4 C :   -0.025231
   5 N :   -0.056066
   6 C :   -0.023239
   7 C :   -0.052697
   8 C :    0.024550
   9 C :   -0.034727
  10 C :   -0.145547
  11 C :   -0.008987
  12 S :    0.429246
  13 C :   -0.149277
  14 C :   -0.057271
  15 C :    0.085129
  16 O :   -0.140465
  17 C :   -0.097121
  18 C :    0.041793
  19 C :   -0.178958
  20 C :    0.022539
  21 C :   -0.076703
  22 C :   -0.155973
  23 S :    0.493585
  24 C :   -0.191031
  25 C :   -0.058411
  26 C :    0.080731
  27 C :   -0.098295
  28 C :   -0.021539
  29 N :   -0.019773
  30 C :   -0.002320
  31 N :   -0.030418
  32 C :   -0.023149
  33 C :   -0.142597
  34 S :    0.474646
  35 C :   -0.038813
  36 C :   -0.021143
  37 C :   -0.023436
  38 C :   -0.035093
  39 C :   -0.001213
  40 C :   -0.000627
  41 N :   -0.038422
  42 C :    0.013358
  43 C :    0.013043
  44 N :   -0.037405
  45 C :   -0.054728
  46 C :   -0.054960
  47 C :   -0.147381
  48 C :   -0.020357
  49 C :   -0.062477
  50 C :   -0.184614
  51 S :    0.475746
  52 C :   -0.156657
  53 C :   -0.067746
  54 C :    0.086821
  55 C :   -0.101555
  56 C :   -0.003390
  57 N :   -0.030186
  58 C :   -0.013782
  59 N :   -0.033629
  60 C :    0.008645
  61 C :   -0.183029
  62 S :    0.498150
  63 C :    0.040994
  64 C :   -0.091325
  65 C :    0.066877
  66 C :   -0.139189
  67 C :   -0.019233
  68 N :   -0.047588
  69 C :   -0.015675
  70 N :   -0.049027
  71 C :   -0.019041
  72 C :   -0.056106
  73 C :    0.083365
  74 O :   -0.146600
  75 C :    0.024001
  76 C :   -0.035888
  77 C :   -0.144387
  78 C :   -0.008523
  79 S :    0.431652
  80 C :   -0.149945
  81 C :   -0.057774
  82 H :    0.041527
  83 H :    0.040695
  84 H :    0.029225
  85 H :    0.035717
  86 H :    0.043319
  87 H :    0.044621
  88 H :    0.036398
  89 H :    0.023265
  90 H :    0.023325
  91 H :    0.041372
  92 H :    0.037661
  93 H :    0.040221
  94 H :    0.040995
  95 H :    0.037087
  96 H :    0.040331
  97 H :    0.036371
  98 H :    0.042614
  99 H :    0.045442
 100 H :    0.040579
 101 H :    0.042319
 102 H :    0.029506
 103 H :    0.035114

  Mayer bond orders larger than 0.100000
B(  0-C ,  1-C ) :   1.6246 B(  0-C ,  6-C ) :   1.0030 B(  0-C , 17-C ) :   1.0779
B(  1-C ,  2-C ) :   1.1441 B(  1-C ,  4-C ) :   1.1405 B(  2-C ,  3-N ) :   2.9716
B(  4-C ,  5-N ) :   2.9904 B(  6-C ,  7-C ) :   1.2681 B(  6-C , 11-C ) :   1.4101
B(  7-C ,  8-C ) :   1.4256 B(  7-C , 15-C ) :   0.9495 B(  8-C ,  9-C ) :   1.2433
B(  8-C , 82-H ) :   1.0175 B(  9-C , 10-C ) :   1.3018 B(  9-C , 14-C ) :   1.1720
B( 10-C , 11-C ) :   1.3225 B( 10-C , 12-S ) :   1.0986 B( 11-C , 83-H ) :   0.9835
B( 12-S , 13-C ) :   1.1261 B( 13-C , 14-C ) :   1.6286 B( 13-C , 84-H ) :   0.9684
B( 14-C , 85-H ) :   1.0000 B( 15-C , 16-O ) :   2.1857 B( 15-C , 17-C ) :   0.9440
B( 17-C , 18-C ) :   1.5930 B( 18-C , 19-C ) :   1.2052 B( 18-C , 86-H ) :   0.9222
B( 19-C , 20-C ) :   1.4011 B( 19-C , 23-S ) :   1.0716 B( 20-C , 21-C ) :   1.3301
B( 20-C , 87-H ) :   0.9746 B( 21-C , 22-C ) :   1.3804 B( 21-C , 26-C ) :   0.9906
B( 22-C , 23-S ) :   1.1687 B( 22-C , 24-C ) :   1.1984 B( 24-C , 25-C ) :   1.4280
B( 24-C , 34-S ) :   1.1156 B( 25-C , 26-C ) :   0.9998 B( 25-C , 32-C ) :   1.2282
B( 26-C , 27-C ) :   1.7123 B( 27-C , 28-C ) :   1.1309 B( 27-C , 30-C ) :   1.1444
B( 28-C , 29-N ) :   2.9975 B( 30-C , 31-N ) :   2.9755 B( 32-C , 33-C ) :   1.4819
B( 32-C , 88-H ) :   0.9797 B( 33-C , 34-S ) :   1.1014 B( 33-C , 35-C ) :   1.1107
B( 35-C , 36-C ) :   1.3804 B( 35-C , 38-C ) :   0.1222 B( 35-C , 40-C ) :   1.2158
B( 36-C , 37-C ) :   1.3169 B( 36-C , 89-H ) :   0.9853 B( 37-C , 38-C ) :   1.3764
B( 37-C , 90-H ) :   0.9873 B( 38-C , 39-C ) :   1.2182 B( 38-C , 47-C ) :   1.1114
B( 39-C , 40-C ) :   1.2664 B( 39-C , 44-N ) :   1.4406 B( 40-C , 41-N ) :   1.4416
B( 41-N , 42-C ) :   1.6662 B( 42-C , 43-C ) :   1.1584 B( 42-C , 46-C ) :   1.0972
B( 43-C , 44-N ) :   1.6672 B( 43-C , 45-C ) :   1.0966 B( 45-C , 91-H ) :   0.9330
B( 45-C , 92-H ) :   0.9306 B( 45-C , 93-H ) :   0.9342 B( 46-C , 94-H ) :   0.9319
B( 46-C , 95-H ) :   0.9292 B( 46-C , 96-H ) :   0.9335 B( 47-C , 48-C ) :   1.4841
B( 47-C , 51-S ) :   1.0985 B( 48-C , 49-C ) :   1.2233 B( 48-C , 97-H ) :   0.9816
B( 49-C , 50-C ) :   1.4334 B( 49-C , 54-C ) :   1.0010 B( 50-C , 51-S ) :   1.1218
B( 50-C , 52-C ) :   1.1885 B( 52-C , 53-C ) :   1.4095 B( 52-C , 62-S ) :   1.1563
B( 53-C , 54-C ) :   0.9950 B( 53-C , 60-C ) :   1.3580 B( 54-C , 55-C ) :   1.7137
B( 55-C , 56-C ) :   1.1394 B( 55-C , 58-C ) :   1.1320 B( 56-C , 57-N ) :   2.9773
B( 58-C , 59-N ) :   2.9823 B( 60-C , 61-C ) :   1.3969 B( 60-C , 98-H ) :   0.9814
B( 61-C , 62-S ) :   1.0862 B( 61-C , 63-C ) :   1.1324 B( 63-C , 64-C ) :   1.6749
B( 63-C , 99-H ) :   0.9285 B( 64-C , 65-C ) :   1.0347 B( 64-C , 73-C ) :   0.9421
B( 65-C , 66-C ) :   1.6485 B( 65-C , 71-C ) :   1.0108 B( 66-C , 67-C ) :   1.1264
B( 66-C , 69-C ) :   1.1716 B( 67-C , 68-N ) :   2.9937 B( 69-C , 70-N ) :   2.9973
B( 71-C , 72-C ) :   1.2688 B( 71-C , 78-C ) :   1.4187 B( 72-C , 73-C ) :   0.9249
B( 72-C , 75-C ) :   1.4269 B( 73-C , 74-O ) :   2.2606 B( 75-C , 76-C ) :   1.2513
B( 75-C ,100-H ) :   1.0158 B( 76-C , 77-C ) :   1.3036 B( 76-C , 81-C ) :   1.1722
B( 77-C , 78-C ) :   1.3206 B( 77-C , 79-S ) :   1.0987 B( 78-C ,101-H ) :   0.9857
B( 79-S , 80-C ) :   1.1272 B( 80-C , 81-C ) :   1.6294 B( 80-C ,102-H ) :   0.9683
B( 81-C ,103-H ) :   0.9995

-----------------------------------------------------------------------------
         ABSORPTION SPECTRUM VIA TRANSITION ELECTRIC DIPOLE MOMENTS
-----------------------------------------------------------------------------
State   Energy  Wavelength   fosc         T2         TX        TY        TZ
        (cm-1)    (nm)                  (au**2)     (au)      (au)      (au)
-----------------------------------------------------------------------------
   0   12653.0    790.3   0.719125502  18.71054   3.70141  -1.94416  -1.10920
   1   13538.9    738.6   0.044802270   1.08941  -0.55528   0.87686   0.11038
   2   19232.6    520.0   1.788822751  30.62005   4.59643  -2.55184  -1.72656
   3   21011.5    475.9   0.330690176   5.18131  -1.45023   1.75440   0.01514
   4   21689.2    461.1   0.037099880   0.56313   0.44052  -0.60728  -0.01689
   5   23097.6    432.9   0.110618984   1.57666  -0.44979   0.95747   0.67646
   6   24784.1    403.5   0.130316181   1.73101   1.31466  -0.03966   0.03323
   7   25885.1    386.3   0.035257732   0.44842   0.55980  -0.35899   0.07850
   8   26049.0    383.9   0.132235892   1.67122   1.20878  -0.22973   0.39659
   9   27337.9    365.8   0.002662288   0.03206  -0.11399   0.04432   0.13078
  10   27569.8    362.7   0.045280369   0.54069   0.47914  -0.38975   0.39902
  11   27789.0    359.9   0.003735881   0.04426   0.14246   0.08691   0.12811
  12   27904.4    358.4   0.035359040   0.41716   0.52472   0.37656  -0.00546
  13   28426.4    351.8   0.075943492   0.87952   0.84345  -0.32262  -0.25305
  14   28705.7    348.4   0.008671039   0.09944   0.18069   0.23178  -0.11433
  15   29035.8    344.4   0.024464745   0.27738   0.52045   0.08071   0.00145
  16   29352.4    340.7   0.039852190   0.44698  -0.37454  -0.55375  -0.00712
  17   29456.2    339.5   0.041857150   0.46781  -0.25918   0.18571  -0.60510
  18   29981.9    333.5   0.136616858   1.50010  -0.94253  -0.77758   0.08432
  19   30279.2    330.3   0.133524824   1.45175   0.51602  -0.92118  -0.58044
  20   30399.4    329.0   0.046150895   0.49979  -0.49810   0.48460   0.12980
  21   30605.3    326.7   0.006037930   0.06495  -0.24849  -0.05615   0.00681
  22   30693.5    325.8   0.560833382   6.01537  -2.16257   1.14825  -0.14211
  23   30756.1    325.1   0.137976196   1.47689  -1.06654   0.49968  -0.29951
  24   30921.9    323.4   0.193078349   2.05562   1.27412  -0.60614   0.25461
  25   31312.3    319.4   0.695712429   7.31461   1.78800   1.97130   0.48126
  26   31808.4    314.4   0.152642759   1.57983   0.73395  -0.72941  -0.71352
  27   31981.1    312.7   0.005439481   0.05599   0.10849  -0.21027  -0.00327
  28   32204.2    310.5   0.220564563   2.25475  -1.14332   0.93446   0.27269
  29   32399.4    308.6   0.106724523   1.08443  -0.75252   0.71973   0.01186
  30   32644.7    306.3   0.079855027   0.80531   0.83602   0.19233   0.26342
  31   32790.3    305.0   0.062615851   0.62866  -0.48404   0.62486  -0.06255
  32   33197.2    301.2   0.052829820   0.52391  -0.62835   0.35065   0.07823
  33   33594.0    297.7   0.006250051   0.06125   0.16576  -0.04910   0.17709
  34   33824.1    295.6   0.117958088   1.14809  -0.97075   0.39995  -0.21396
  35   33864.0    295.3   0.016233413   0.15781  -0.37613   0.09637  -0.08399
  36   34077.7    293.4   0.019900925   0.19226  -0.21290   0.27833   0.26355
  37   34262.5    291.9   0.119592468   1.14911  -0.94102  -0.08066  -0.50703
  38   34521.9    289.7   0.225390386   2.14939   1.08171  -0.12932   0.98111
  39   34559.3    289.4   0.328868097   3.13280   1.10542   1.20291   0.68106
  40   34878.1    286.7   0.347384686   3.27894  -1.76826   0.38929  -0.02588
  41   35064.3    285.2   0.058986133   0.55381  -0.06980   0.73382  -0.10218
  42   35265.1    283.6   0.050805347   0.47429   0.14935   0.67226  -0.00731
  43   35403.5    282.5   0.018856040   0.17534   0.18234   0.34734  -0.14644
  44   35708.8    280.0   0.092938901   0.85684  -0.53232  -0.62014  -0.43463
  45   36059.4    277.3   0.061247745   0.55917   0.51268  -0.43653  -0.32523
  46   36471.7    274.2   0.016095577   0.14529  -0.20359   0.32121   0.02570
  47   36780.3    271.9   0.021927507   0.19627  -0.40429   0.05238  -0.17341
  48   36833.6    271.5   0.013003414   0.11622  -0.26093  -0.21593  -0.03889
  49   37042.5    270.0   0.004500170   0.03999   0.19381  -0.03590  -0.03380
  50   37441.3    267.1   0.231741262   2.03764   1.23773  -0.67366  -0.22769
  51   37576.0    266.1   0.128902854   1.12935   0.93839   0.49333   0.07354
  52   38026.3    263.0   0.026608011   0.23036  -0.20505  -0.37021  -0.22640
  53   38090.2    262.5   0.185850246   1.60629   0.02306  -1.13230  -0.56891
  54   38415.2    260.3   0.041079711   0.35205   0.04627  -0.45889  -0.37326
  55   38842.8    257.4   0.067442992   0.57161  -0.61125  -0.44402   0.02880
  56   39119.7    255.6   0.088102362   0.74143  -0.25885   0.68405   0.45442
  57   39452.9    253.5   0.079218681   0.66103   0.25280  -0.67968  -0.36765
  58   39657.1    252.2   0.272594365   2.26293  -0.47260  -1.40604  -0.25025
  59   39964.4    250.2   0.041320107   0.34038  -0.56139  -0.14557  -0.06349
  60   40065.5    249.6   0.021226480   0.17441   0.40217   0.09409   0.06184
  61   40084.1    249.5   0.031403380   0.25792   0.00818   0.38707   0.32868
  62   40192.3    248.8   0.155558061   1.27416   0.64804   0.70911   0.59276

FINAL SINGLE POINT ENERGY     -5534.289828450664

DIPOLE MOMENT
-------------
                                X             Y             Z
Electronic contribution:     -8.35242     -22.69551      -5.70738
Nuclear contribution   :      6.85424      22.60645       6.13199
                        -----------------------------------------
Total Dipole Moment    :     -1.49818      -0.08907       0.42461
                        -----------------------------------------
Magnitude (a.u.)       :      1.55974
Magnitude (Debye)      :      3.96454

Rotational constants in cm-1:     0.002549     0.000136     0.000131
Rotational constants in MHz :    76.416227     4.071163     3.940941

                             ****ORCA TERMINATED NORMALLY****
TOTAL RUN TIME: 0 days 0 hours 17 minutes 5 seconds 847 msec
