                         Program Version 4.2.0 -  RELEASE  -
|  1> # ORCA input file
|  2> # SCF done       -199.368682760002          0.000447436391
|  3> ! CAM-B3LYP def2-SVP def2/J RIJCOSX Grid4 TightSCF
|  4> %maxcore 5000
|  5> %tddft
|  6>     Mode sTDDFT
|  7>     Ethresh 5.0
|  8>     maxcore 5000
|  9> end
| 10>
| 11> %pal
| 12>   nprocs 6
| 13>   end
| 14> * xyz 0 1
| 15>    C        1.97780        -3.70604         5.19507
| 16>    O        1.48078        -4.81624         5.26104
| 17>    C        2.84566        -3.08088         6.21235
| 18>    C        3.21913        -1.79638         5.77942
| 19>    C        4.04364        -1.02079         6.57687
| 20>    C        4.47973        -1.54197         7.79065
| 21>    C        4.10185        -2.81844         8.21042
| 22>    C        3.27435        -3.60093         7.41518
| 23>   Br        4.71372        -3.50141         9.86292
| 24>   Br        5.61239        -0.48626         8.87545
| 25>    C        2.60753        -1.54188         4.47425
| 26>    C        2.73168        -0.37746         3.76213
| 27>    C        3.48342         0.73607         4.19542
| 28>    N        4.07865         1.67153         4.49101
| 29>    C        2.13646        -0.10701         2.51162
| 30>    N        1.68886         0.19400         1.49768
| 31>    C        1.85840        -2.72878         4.11156
| 32>    C        1.17514        -2.92060         2.93394
| 33>    C        0.42477        -4.01382         2.48765
| 34>    C       -0.17836        -4.02643         1.22335
| 35>    C       -0.87546        -5.18942         0.97819
| 36>    C       -0.83250        -6.09611         2.06075
| 37>    S        0.10036        -5.49733         3.37846
| 38>    C       -1.55392        -7.25368         1.77476
| 39>    C       -2.12384        -7.24306         0.47984
| 40>    S       -1.79760        -5.77225        -0.39246
| 41>    C       -2.77450        -8.45186         0.30303
| 42>    C       -2.61742        -9.16547         1.50232
| 43>    N       -1.86987        -8.42667         2.38112
| 44>    C       -1.32926        -8.81120         3.65629
| 45>    C       -3.19185       -10.45705         1.76250
| 46>    C       -3.79244       -10.82768         2.98167
| 47>    C       -4.39171       -12.12865         3.16099
| 48>    N       -4.94788       -12.44662         4.33340
| 49>    C       -4.99684       -11.56661         5.30344
| 50>    C       -4.45942       -10.25410         5.10134
| 51>    N       -3.87376        -9.92777         3.97609
| 52>    C       -4.54042        -9.28453         6.13272
| 53>    N       -4.60364        -8.51766         6.98093
| 54>    C       -5.58466       -11.93723         6.53657
| 55>    N       -6.05763       -12.22214         7.54027
| 56>    C       -4.43443       -13.10677         2.14129
| 57>    C       -3.85900       -12.72199         0.90965
| 58>    C       -3.26526       -11.41574         0.72860
| 59>    N       -2.77653       -11.26693        -0.50475
| 60>    S       -3.04121       -12.60389        -1.34486
| 61>    N       -3.78094       -13.45402        -0.20205
| 62>    C       -5.03936       -14.36794         2.37473
| 63>    C       -5.13865       -15.42964         1.48665
| 64>    C       -5.79614       -16.51627         2.04449
| 65>    C       -6.21436       -16.29805         3.36845
| 66>    S       -5.77128       -14.72043         3.92652
| 67>    C       -6.87295       -17.41108         3.88779
| 68>    C       -6.95825       -18.47669         2.95220
| 69>    S       -6.20787       -18.10211         1.42842
| 70>    C       -7.65051       -19.50708         3.55391
| 71>    C       -7.97031       -19.06913         4.85645
| 72>    N       -7.46719       -17.79636         5.03559
| 73>    C       -7.63339       -16.97408         6.20289
| 74>    C       -8.57519       -19.77975         5.91062
| 75>    C       -9.32589       -20.92090         5.86420
| 76>    C       -9.45155       -21.75057         7.08827
| 77>    O       -9.11868       -21.44809         8.21078
| 78>    C      -10.01833       -23.03692         6.62385
| 79>    C      -10.32171       -22.94651         5.25259
| 80>    C      -10.02882       -21.58832         4.79448
| 81>    C      -10.56509       -20.99944         3.67818
| 82>    C      -10.49979       -19.61295         3.43353
| 83>    N      -10.50934       -18.48375         3.22910
| 84>    C      -11.31987       -21.69271         2.71055
| 85>    N      -11.92127       -22.22351         1.88995
| 86>    C      -10.83543       -24.04471         4.58581
| 87>    C      -11.04385       -25.21864         5.30209
| 88>    C      -10.75469       -25.29596         6.66577
| 89>    C      -10.23545       -24.19626         7.33807
| 90>   Br      -11.05997       -26.90091         7.61639
| 91>   Br      -11.72883       -26.72713         4.39168
| 92>    H        4.35893        -0.03139         6.28843
| 93>    H        2.97350        -4.58863         7.72818
| 94>    H        1.21091        -2.11195         2.21426
| 95>    H       -0.09139        -3.20507         0.53530
| 96>    H       -3.32092        -8.78994        -0.55226
| 97>    H       -1.97306        -8.47546         4.47127
| 98>    H       -0.34803        -8.35016         3.77487
| 99>    H       -1.22480        -9.89373         3.70664
|100>    H       -4.74370       -15.38404         0.48927
|101>    H       -7.86372       -20.47365         3.14426
|102>    H       -8.69260       -16.84473         6.43157
|103>    H       -7.19079       -15.99833         6.01082
|104>    H       -7.13539       -17.42185         7.06556
|105>    H       -8.34651       -19.43988         6.91603
|106>    H      -11.06744       -24.01937         3.53308
|107>    H      -10.00738       -24.24664         8.39141
|108> *
|109>
|110>                          ****END OF INPUT****

CARTESIAN COORDINATES (ANGSTROEM)
---------------------------------
  C      1.977800   -3.706040    5.195070
  O      1.480780   -4.816240    5.261040
  C      2.845660   -3.080880    6.212350
  C      3.219130   -1.796380    5.779420
  C      4.043640   -1.020790    6.576870
  C      4.479730   -1.541970    7.790650
  C      4.101850   -2.818440    8.210420
  C      3.274350   -3.600930    7.415180
  Br     4.713720   -3.501410    9.862920
  Br     5.612390   -0.486260    8.875450
  C      2.607530   -1.541880    4.474250
  C      2.731680   -0.377460    3.762130
  C      3.483420    0.736070    4.195420
  N      4.078650    1.671530    4.491010
  C      2.136460   -0.107010    2.511620
  N      1.688860    0.194000    1.497680
  C      1.858400   -2.728780    4.111560
  C      1.175140   -2.920600    2.933940
  C      0.424770   -4.013820    2.487650
  C     -0.178360   -4.026430    1.223350
  C     -0.875460   -5.189420    0.978190
  C     -0.832500   -6.096110    2.060750
  S      0.100360   -5.497330    3.378460
  C     -1.553920   -7.253680    1.774760
  C     -2.123840   -7.243060    0.479840
  S     -1.797600   -5.772250   -0.392460
  C     -2.774500   -8.451860    0.303030
  C     -2.617420   -9.165470    1.502320
  N     -1.869870   -8.426670    2.381120
  C     -1.329260   -8.811200    3.656290
  C     -3.191850  -10.457050    1.762500
  C     -3.792440  -10.827680    2.981670
  C     -4.391710  -12.128650    3.160990
  N     -4.947880  -12.446620    4.333400
  C     -4.996840  -11.566610    5.303440
  C     -4.459420  -10.254100    5.101340
  N     -3.873760   -9.927770    3.976090
  C     -4.540420   -9.284530    6.132720
  N     -4.603640   -8.517660    6.980930
  C     -5.584660  -11.937230    6.536570
  N     -6.057630  -12.222140    7.540270
  C     -4.434430  -13.106770    2.141290
  C     -3.859000  -12.721990    0.909650
  C     -3.265260  -11.415740    0.728600
  N     -2.776530  -11.266930   -0.504750
  S     -3.041210  -12.603890   -1.344860
  N     -3.780940  -13.454020   -0.202050
  C     -5.039360  -14.367940    2.374730
  C     -5.138650  -15.429640    1.486650
  C     -5.796140  -16.516270    2.044490
  C     -6.214360  -16.298050    3.368450
  S     -5.771280  -14.720430    3.926520
  C     -6.872950  -17.411080    3.887790
  C     -6.958250  -18.476690    2.952200
  S     -6.207870  -18.102110    1.428420
  C     -7.650510  -19.507080    3.553910
  C     -7.970310  -19.069130    4.856450
  N     -7.467190  -17.796360    5.035590
  C     -7.633390  -16.974080    6.202890
  C     -8.575190  -19.779750    5.910620
  C     -9.325890  -20.920900    5.864200
  C     -9.451550  -21.750570    7.088270
  O     -9.118680  -21.448090    8.210780
  C    -10.018330  -23.036920    6.623850
  C    -10.321710  -22.946510    5.252590
  C    -10.028820  -21.588320    4.794480
  C    -10.565090  -20.999440    3.678180
  C    -10.499790  -19.612950    3.433530
  N    -10.509340  -18.483750    3.229100
  C    -11.319870  -21.692710    2.710550
  N    -11.921270  -22.223510    1.889950
  C    -10.835430  -24.044710    4.585810
  C    -11.043850  -25.218640    5.302090
  C    -10.754690  -25.295960    6.665770
  C    -10.235450  -24.196260    7.338070
  Br   -11.059970  -26.900910    7.616390
  Br   -11.728830  -26.727130    4.391680
  H      4.358930   -0.031390    6.288430
  H      2.973500   -4.588630    7.728180
  H      1.210910   -2.111950    2.214260
  H     -0.091390   -3.205070    0.535300
  H     -3.320920   -8.789940   -0.552260
  H     -1.973060   -8.475460    4.471270
  H     -0.348030   -8.350160    3.774870
  H     -1.224800   -9.893730    3.706640
  H     -4.743700  -15.384040    0.489270
  H     -7.863720  -20.473650    3.144260
  H     -8.692600  -16.844730    6.431570
  H     -7.190790  -15.998330    6.010820
  H     -7.135390  -17.421850    7.065560
  H     -8.346510  -19.439880    6.916030
  H    -11.067440  -24.019370    3.533080
  H    -10.007380  -24.246640    8.391410

 Total Charge           Charge          ....    0
 Multiplicity           Mult            ....    1
 Number of Electrons    NEL             ....  660
 Basis Dimension        Dim             .... 1250

ORBITAL ENERGIES
----------------

  NO   OCC          E(Eh)            E(eV)
   0   2.0000    -482.877339    -13139.7604
   1   2.0000    -482.877024    -13139.7518
   2   2.0000    -482.876311    -13139.7324
   3   2.0000    -482.874953    -13139.6955
   4   2.0000     -89.060165     -2423.4503
   5   2.0000     -88.977079     -2421.1894
   6   2.0000     -88.974614     -2421.1223
   7   2.0000     -88.966807     -2420.9099
   8   2.0000     -88.965229     -2420.8669
   9   2.0000     -62.554930     -1702.2062
  10   2.0000     -62.554600     -1702.1972
  11   2.0000     -62.553936     -1702.1791
  12   2.0000     -62.552519     -1702.1406
  13   2.0000     -56.388879     -1534.4194
  14   2.0000     -56.388545     -1534.4103
  15   2.0000     -56.387896     -1534.3926
  16   2.0000     -56.386479     -1534.3541
  17   2.0000     -56.386229     -1534.3473
  18   2.0000     -56.386136     -1534.3448
  19   2.0000     -56.385905     -1534.3385
  20   2.0000     -56.385802     -1534.3357
  21   2.0000     -56.385226     -1534.3200
  22   2.0000     -56.385134     -1534.3175
  23   2.0000     -56.383814     -1534.2816
  24   2.0000     -56.383720     -1534.2790
  25   2.0000     -19.227810      -523.2153
  26   2.0000     -19.221571      -523.0455
  27   2.0000     -14.493118      -394.3778
  28   2.0000     -14.490705      -394.3121
  29   2.0000     -14.481674      -394.0664
  30   2.0000     -14.477692      -393.9580
  31   2.0000     -14.469465      -393.7342
  32   2.0000     -14.467708      -393.6864
  33   2.0000     -14.445268      -393.0757
  34   2.0000     -14.443522      -393.0282
  35   2.0000     -14.421393      -392.4261
  36   2.0000     -14.419792      -392.3825
  37   2.0000     -14.419636      -392.3782
  38   2.0000     -14.416744      -392.2996
  39   2.0000     -10.398366      -282.9539
  40   2.0000     -10.397255      -282.9237
  41   2.0000     -10.376174      -282.3501
  42   2.0000     -10.372769      -282.2574
  43   2.0000     -10.364825      -282.0412
  44   2.0000     -10.362536      -281.9789
  45   2.0000     -10.360201      -281.9154
  46   2.0000     -10.359371      -281.8928
  47   2.0000     -10.354527      -281.7610
  48   2.0000     -10.353836      -281.7422
  49   2.0000     -10.353210      -281.7252
  50   2.0000     -10.352824      -281.7147
  51   2.0000     -10.348460      -281.5959
  52   2.0000     -10.347647      -281.5738
  53   2.0000     -10.346756      -281.5496
  54   2.0000     -10.346177      -281.5338
  55   2.0000     -10.339036      -281.3395
  56   2.0000     -10.337785      -281.3054
  57   2.0000     -10.336393      -281.2675
  58   2.0000     -10.335665      -281.2477
  59   2.0000     -10.335444      -281.2417
  60   2.0000     -10.333871      -281.1989
  61   2.0000     -10.332292      -281.1560
  62   2.0000     -10.331201      -281.1263
  63   2.0000     -10.329538      -281.0810
  64   2.0000     -10.327747      -281.0323
  65   2.0000     -10.327311      -281.0204
  66   2.0000     -10.325675      -280.9759
  67   2.0000     -10.325637      -280.9749
  68   2.0000     -10.324138      -280.9341
  69   2.0000     -10.323402      -280.9140
  70   2.0000     -10.322234      -280.8823
  71   2.0000     -10.322097      -280.8785
  72   2.0000     -10.320967      -280.8478
  73   2.0000     -10.319660      -280.8122
  74   2.0000     -10.318964      -280.7933
  75   2.0000     -10.318324      -280.7759
  76   2.0000     -10.317333      -280.7489
  77   2.0000     -10.317054      -280.7413
  78   2.0000     -10.316243      -280.7192
  79   2.0000     -10.312470      -280.6166
  80   2.0000     -10.312267      -280.6110
  81   2.0000     -10.311654      -280.5944
  82   2.0000     -10.310481      -280.5625
  83   2.0000     -10.310314      -280.5579
  84   2.0000     -10.309453      -280.5345
  85   2.0000     -10.308326      -280.5038
  86   2.0000     -10.304354      -280.3957
  87   2.0000     -10.303103      -280.3617
  88   2.0000     -10.302207      -280.3373
  89   2.0000     -10.301078      -280.3066
  90   2.0000     -10.299834      -280.2727
  91   2.0000     -10.297440      -280.2076
  92   2.0000     -10.286428      -279.9079
  93   2.0000      -8.784237      -239.0312
  94   2.0000      -8.783904      -239.0222
  95   2.0000      -8.783259      -239.0046
  96   2.0000      -8.781812      -238.9653
  97   2.0000      -8.151471      -221.8128
  98   2.0000      -8.069562      -219.5839
  99   2.0000      -8.067198      -219.5196
 100   2.0000      -8.061772      -219.3720
 101   2.0000      -8.060238      -219.3302
 102   2.0000      -6.620362      -180.1492
 103   2.0000      -6.619988      -180.1390
 104   2.0000      -6.619420      -180.1236
 105   2.0000      -6.617940      -180.0833
 106   2.0000      -6.606366      -179.7683
 107   2.0000      -6.606049      -179.7597
 108   2.0000      -6.605578      -179.7469
 109   2.0000      -6.605367      -179.7412
 110   2.0000      -6.605271      -179.7386
 111   2.0000      -6.604580      -179.7198
 112   2.0000      -6.603927      -179.7020
 113   2.0000      -6.603156      -179.6810
 114   2.0000      -6.122537      -166.6027
 115   2.0000      -6.114634      -166.3876
 116   2.0000      -6.114375      -166.3806
 117   2.0000      -6.039533      -164.3440
 118   2.0000      -6.036982      -164.2746
 119   2.0000      -6.034742      -164.2137
 120   2.0000      -6.032330      -164.1481
 121   2.0000      -6.031754      -164.1324
 122   2.0000      -6.031197      -164.1172
 123   2.0000      -6.030226      -164.0908
 124   2.0000      -6.028893      -164.0545
 125   2.0000      -6.027794      -164.0246
 126   2.0000      -6.026315      -163.9844
 127   2.0000      -6.022384      -163.8774
 128   2.0000      -6.020765      -163.8333
 129   2.0000      -2.736247       -74.4571
 130   2.0000      -2.735947       -74.4489
 131   2.0000      -2.735307       -74.4315
 132   2.0000      -2.733902       -74.3933
 133   2.0000      -2.732474       -74.3544
 134   2.0000      -2.732141       -74.3453
 135   2.0000      -2.731945       -74.3400
 136   2.0000      -2.731544       -74.3291
 137   2.0000      -2.731528       -74.3287
 138   2.0000      -2.730951       -74.3130
 139   2.0000      -2.730052       -74.2885
 140   2.0000      -2.729452       -74.2722
 141   2.0000      -2.720767       -74.0358
 142   2.0000      -2.720752       -74.0354
 143   2.0000      -2.720454       -74.0273
 144   2.0000      -2.720436       -74.0268
 145   2.0000      -2.719756       -74.0083
 146   2.0000      -2.719745       -74.0080
 147   2.0000      -2.718312       -73.9690
 148   2.0000      -2.718307       -73.9689
 149   2.0000      -1.157941       -31.5092
 150   2.0000      -1.143497       -31.1161
 151   2.0000      -1.139447       -31.0059
 152   2.0000      -1.136952       -30.9380
 153   2.0000      -1.118753       -30.4428
 154   2.0000      -1.115302       -30.3489
 155   2.0000      -1.066379       -29.0176
 156   2.0000      -1.029639       -28.0179
 157   2.0000      -1.026311       -27.9273
 158   2.0000      -1.025595       -27.9079
 159   2.0000      -1.020921       -27.7807
 160   2.0000      -1.017264       -27.6812
 161   2.0000      -1.015506       -27.6333
 162   2.0000      -1.010043       -27.4847
 163   2.0000      -1.009751       -27.4767
 164   2.0000      -1.009726       -27.4760
 165   2.0000      -0.998367       -27.1669
 166   2.0000      -0.997488       -27.1430
 167   2.0000      -0.993288       -27.0288
 168   2.0000      -0.978465       -26.6254
 169   2.0000      -0.978171       -26.6174
 170   2.0000      -0.959004       -26.0958
 171   2.0000      -0.957989       -26.0682
 172   2.0000      -0.928667       -25.2703
 173   2.0000      -0.926438       -25.2097
 174   2.0000      -0.921614       -25.0784
 175   2.0000      -0.920539       -25.0491
 176   2.0000      -0.917220       -24.9588
 177   2.0000      -0.913386       -24.8545
 178   2.0000      -0.911425       -24.8011
 179   2.0000      -0.907278       -24.6883
 180   2.0000      -0.897245       -24.4153
 181   2.0000      -0.890773       -24.2392
 182   2.0000      -0.878163       -23.8960
 183   2.0000      -0.875247       -23.8167
 184   2.0000      -0.862681       -23.4747
 185   2.0000      -0.856620       -23.3098
 186   2.0000      -0.853801       -23.2331
 187   2.0000      -0.852935       -23.2095
 188   2.0000      -0.849558       -23.1177
 189   2.0000      -0.832870       -22.6636
 190   2.0000      -0.827069       -22.5057
 191   2.0000      -0.821576       -22.3562
 192   2.0000      -0.815791       -22.1988
 193   2.0000      -0.801344       -21.8057
 194   2.0000      -0.793853       -21.6018
 195   2.0000      -0.788804       -21.4645
 196   2.0000      -0.783406       -21.3176
 197   2.0000      -0.771677       -20.9984
 198   2.0000      -0.769176       -20.9303
 199   2.0000      -0.759219       -20.6594
 200   2.0000      -0.753663       -20.5082
 201   2.0000      -0.740402       -20.1474
 202   2.0000      -0.728056       -19.8114
 203   2.0000      -0.720132       -19.5958
 204   2.0000      -0.714130       -19.4325
 205   2.0000      -0.708921       -19.2907
 206   2.0000      -0.698177       -18.9984
 207   2.0000      -0.696927       -18.9644
 208   2.0000      -0.696565       -18.9545
 209   2.0000      -0.692679       -18.8488
 210   2.0000      -0.681594       -18.5471
 211   2.0000      -0.678381       -18.4597
 212   2.0000      -0.671689       -18.2776
 213   2.0000      -0.669576       -18.2201
 214   2.0000      -0.657066       -17.8797
 215   2.0000      -0.652229       -17.7481
 216   2.0000      -0.650713       -17.7068
 217   2.0000      -0.645746       -17.5717
 218   2.0000      -0.642890       -17.4939
 219   2.0000      -0.639767       -17.4089
 220   2.0000      -0.625894       -17.0314
 221   2.0000      -0.625393       -17.0178
 222   2.0000      -0.619949       -16.8697
 223   2.0000      -0.618439       -16.8286
 224   2.0000      -0.612047       -16.6546
 225   2.0000      -0.601394       -16.3648
 226   2.0000      -0.598123       -16.2757
 227   2.0000      -0.595341       -16.2001
 228   2.0000      -0.593523       -16.1506
 229   2.0000      -0.588566       -16.0157
 230   2.0000      -0.584799       -15.9132
 231   2.0000      -0.582962       -15.8632
 232   2.0000      -0.579992       -15.7824
 233   2.0000      -0.574101       -15.6221
 234   2.0000      -0.572362       -15.5748
 235   2.0000      -0.561109       -15.2686
 236   2.0000      -0.559586       -15.2271
 237   2.0000      -0.552622       -15.0376
 238   2.0000      -0.550841       -14.9891
 239   2.0000      -0.548199       -14.9172
 240   2.0000      -0.547495       -14.8981
 241   2.0000      -0.545981       -14.8569
 242   2.0000      -0.545189       -14.8353
 243   2.0000      -0.543435       -14.7876
 244   2.0000      -0.540919       -14.7191
 245   2.0000      -0.539215       -14.6728
 246   2.0000      -0.528628       -14.3847
 247   2.0000      -0.528147       -14.3716
 248   2.0000      -0.525574       -14.3016
 249   2.0000      -0.523047       -14.2328
 250   2.0000      -0.522039       -14.2054
 251   2.0000      -0.517352       -14.0779
 252   2.0000      -0.516870       -14.0647
 253   2.0000      -0.516137       -14.0448
 254   2.0000      -0.506738       -13.7890
 255   2.0000      -0.505751       -13.7622
 256   2.0000      -0.503600       -13.7037
 257   2.0000      -0.503139       -13.6911
 258   2.0000      -0.502700       -13.6792
 259   2.0000      -0.500969       -13.6320
 260   2.0000      -0.498908       -13.5760
 261   2.0000      -0.498616       -13.5680
 262   2.0000      -0.496761       -13.5175
 263   2.0000      -0.493650       -13.4329
 264   2.0000      -0.491529       -13.3752
 265   2.0000      -0.485547       -13.2124
 266   2.0000      -0.480753       -13.0820
 267   2.0000      -0.480101       -13.0642
 268   2.0000      -0.477685       -12.9985
 269   2.0000      -0.475434       -12.9372
 270   2.0000      -0.474695       -12.9171
 271   2.0000      -0.473718       -12.8905
 272   2.0000      -0.469036       -12.7631
 273   2.0000      -0.467197       -12.7131
 274   2.0000      -0.463919       -12.6239
 275   2.0000      -0.462712       -12.5910
 276   2.0000      -0.462533       -12.5862
 277   2.0000      -0.460222       -12.5233
 278   2.0000      -0.458117       -12.4660
 279   2.0000      -0.456483       -12.4215
 280   2.0000      -0.453075       -12.3288
 281   2.0000      -0.452987       -12.3264
 282   2.0000      -0.446957       -12.1623
 283   2.0000      -0.445923       -12.1342
 284   2.0000      -0.444971       -12.1083
 285   2.0000      -0.440007       -11.9732
 286   2.0000      -0.438424       -11.9301
 287   2.0000      -0.435359       -11.8467
 288   2.0000      -0.433973       -11.8090
 289   2.0000      -0.432490       -11.7686
 290   2.0000      -0.431662       -11.7461
 291   2.0000      -0.431089       -11.7305
 292   2.0000      -0.430056       -11.7024
 293   2.0000      -0.429590       -11.6897
 294   2.0000      -0.429034       -11.6746
 295   2.0000      -0.428539       -11.6611
 296   2.0000      -0.420197       -11.4342
 297   2.0000      -0.419167       -11.4061
 298   2.0000      -0.415626       -11.3098
 299   2.0000      -0.411826       -11.2064
 300   2.0000      -0.408883       -11.1263
 301   2.0000      -0.408057       -11.1038
 302   2.0000      -0.401031       -10.9126
 303   2.0000      -0.399709       -10.8766
 304   2.0000      -0.398857       -10.8535
 305   2.0000      -0.397241       -10.8095
 306   2.0000      -0.394932       -10.7467
 307   2.0000      -0.390787       -10.6339
 308   2.0000      -0.389732       -10.6051
 309   2.0000      -0.375389       -10.2149
 310   2.0000      -0.370551       -10.0832
 311   2.0000      -0.365631        -9.9493
 312   2.0000      -0.363584        -9.8936
 313   2.0000      -0.356769        -9.7082
 314   2.0000      -0.349436        -9.5086
 315   2.0000      -0.348488        -9.4828
 316   2.0000      -0.348395        -9.4803
 317   2.0000      -0.348015        -9.4700
 318   2.0000      -0.343374        -9.3437
 319   2.0000      -0.341429        -9.2908
 320   2.0000      -0.341037        -9.2801
 321   2.0000      -0.335537        -9.1304
 322   2.0000      -0.328938        -8.9509
 323   2.0000      -0.313824        -8.5396
 324   2.0000      -0.312352        -8.4995
 325   2.0000      -0.305610        -8.3161
 326   2.0000      -0.292202        -7.9512
 327   2.0000      -0.290505        -7.9050
 328   2.0000      -0.269519        -7.3340
 329   2.0000      -0.243483        -6.6255
 330   0.0000      -0.140683        -3.8282
 331   0.0000      -0.094952        -2.5838
 332   0.0000      -0.093135        -2.5343
 333   0.0000      -0.071313        -1.9405
 334   0.0000      -0.069164        -1.8820

MULLIKEN ATOMIC CHARGES
-----------------------
   0 C :    0.167288
   1 O :   -0.180425
   2 C :   -0.012848
   3 C :    0.030523
   4 C :   -0.007550
   5 C :   -0.027566
   6 C :   -0.014475
   7 C :   -0.021277
   8 Br:    0.012169
   9 Br:    0.021517
  10 C :    0.326752
  11 C :   -0.352421
  12 C :   -0.187733
  13 N :    0.154156
  14 C :   -0.186183
  15 N :    0.147058
  16 C :   -0.101004
  17 C :   -0.022639
  18 C :   -0.045423
  19 C :   -0.045335
  20 C :   -0.018689
  21 C :   -0.033181
  22 S :    0.198603
  23 C :    0.015775
  24 C :   -0.003429
  25 S :    0.157023
  26 C :   -0.091701
  27 C :   -0.007325
  28 N :   -0.148663
  29 C :    0.142813
  30 C :    0.112223
  31 C :   -0.074045
  32 C :   -0.050481
  33 N :   -0.005816
  34 C :   -0.096000
  35 C :   -0.135062
  36 N :    0.048839
  37 C :   -0.229839
  38 N :    0.250544
  39 C :   -0.237705
  40 N :    0.251210
  41 C :    0.197798
  42 C :   -0.027007
  43 C :   -0.014477
  44 N :   -0.263440
  45 S :    0.555646
  46 N :   -0.285212
  47 C :   -0.156702
  48 C :   -0.043011
  49 C :   -0.026207
  50 C :   -0.026160
  51 S :    0.151591
  52 C :    0.038457
  53 C :   -0.011134
  54 S :    0.162685
  55 C :   -0.087539
  56 C :    0.119583
  57 N :   -0.161560
  58 C :    0.117408
  59 C :    0.006650
  60 C :   -0.136714
  61 C :    0.136690
  62 O :   -0.142313
  63 C :    0.005359
  64 C :    0.016912
  65 C :    0.261821
  66 C :   -0.333729
  67 C :   -0.204634
  68 N :    0.172436
  69 C :   -0.178204
  70 N :    0.161106
  71 C :   -0.012162
  72 C :   -0.021844
  73 C :   -0.017574
  74 C :   -0.023472
  75 Br:    0.013010
  76 Br:    0.019404
  77 H :    0.006547
  78 H :    0.003366
  79 H :    0.008577
  80 H :    0.011323
  81 H :   -0.021092
  82 H :    0.058199
  83 H :    0.045345
  84 H :    0.031909
  85 H :    0.002212
  86 H :   -0.003580
  87 H :    0.059698
  88 H :    0.050911
  89 H :    0.056109
  90 H :    0.011348
  91 H :    0.009474
  92 H :    0.006512
Sum of atomic charges:   -0.0000000

LOEWDIN ATOMIC CHARGES
----------------------
   0 C :    0.084454
   1 O :   -0.166844
   2 C :   -0.041169
   3 C :   -0.010742
   4 C :   -0.006724
   5 C :   -0.119743
   6 C :   -0.123658
   7 C :    0.005035
   8 Br:    0.136208
   9 Br:    0.140780
  10 C :    0.076169
  11 C :   -0.139933
  12 C :   -0.020035
  13 N :   -0.048604
  14 C :   -0.020480
  15 N :   -0.051904
  16 C :   -0.119725
  17 C :    0.057695
  18 C :   -0.181692
  19 C :   -0.017222
  20 C :   -0.190586
  21 C :   -0.195775
  22 S :    0.490662
  23 C :   -0.042220
  24 C :   -0.175953
  25 S :    0.392892
  26 C :   -0.055976
  27 C :    0.013291
  28 N :    0.068662
  29 C :    0.033982
  30 C :   -0.041179
  31 C :   -0.012503
  32 C :   -0.017451
  33 N :   -0.014333
  34 C :   -0.026655
  35 C :   -0.027829
  36 N :    0.004235
  37 C :   -0.040489
  38 N :    0.000270
  39 C :   -0.038798
  40 N :   -0.003493
  41 C :   -0.029454
  42 C :   -0.039986
  43 C :   -0.035740
  44 N :   -0.273196
  45 S :    0.684769
  46 N :   -0.278798
  47 C :   -0.162347
  48 C :   -0.034071
  49 C :   -0.179993
  50 C :   -0.213047
  51 S :    0.459848
  52 C :   -0.017186
  53 C :   -0.177597
  54 S :    0.398327
  55 C :   -0.031779
  56 C :   -0.012547
  57 N :    0.065184
  58 C :    0.040284
  59 C :    0.052167
  60 C :   -0.101791
  61 C :    0.081656
  62 O :   -0.142555
  63 C :   -0.043449
  64 C :   -0.009172
  65 C :    0.063321
  66 C :   -0.139997
  67 C :   -0.017028
  68 N :   -0.043599
  69 C :   -0.023531
  70 N :   -0.047158
  71 C :   -0.010495
  72 C :   -0.118896
  73 C :   -0.124625
  74 C :    0.006207
  75 Br:    0.136143
  76 Br:    0.140330
  77 H :    0.044644
  78 H :    0.045186
  79 H :    0.051344
  80 H :    0.043384
  81 H :    0.029103
  82 H :    0.033551
  83 H :    0.029964
  84 H :    0.031712
  85 H :    0.035263
  86 H :    0.033726
  87 H :    0.041073
  88 H :    0.035153
  89 H :    0.036883
  90 H :    0.045535
  91 H :    0.044316
  92 H :    0.046344

  Mayer bond orders larger than 0.100000
B(  0-C ,  1-O ) :   2.1267 B(  0-C ,  2-C ) :   0.9580 B(  0-C , 16-C ) :   0.9861
B(  2-C ,  3-C ) :   1.3311 B(  2-C ,  7-C ) :   1.3724 B(  3-C ,  4-C ) :   1.3700
B(  3-C , 10-C ) :   0.9858 B(  4-C ,  5-C ) :   1.3644 B(  4-C , 77-H ) :   0.9789
B(  5-C ,  6-C ) :   1.4269 B(  5-C ,  9-Br) :   1.0586 B(  6-C ,  7-C ) :   1.3460
B(  6-C ,  8-Br) :   1.0319 B(  7-C , 78-H ) :   1.0088 B( 10-C , 11-C ) :   1.6215
B( 10-C , 16-C ) :   1.0942 B( 11-C , 12-C ) :   1.1440 B( 11-C , 14-C ) :   1.1470
B( 12-C , 13-N ) :   2.9670 B( 14-C , 15-N ) :   2.9574 B( 16-C , 17-C ) :   1.4626
B( 17-C , 18-C ) :   1.2974 B( 17-C , 79-H ) :   0.9376 B( 18-C , 19-C ) :   1.3395
B( 18-C , 22-S ) :   1.0546 B( 19-C , 20-C ) :   1.3599 B( 19-C , 80-H ) :   1.0124
B( 20-C , 21-C ) :   1.3444 B( 20-C , 25-S ) :   1.0347 B( 21-C , 22-S ) :   1.0350
B( 21-C , 23-C ) :   1.2964 B( 23-C , 24-C ) :   1.3445 B( 23-C , 27-C ) :   0.1016
B( 23-C , 28-N ) :   1.2045 B( 24-C , 25-S ) :   1.0130 B( 24-C , 26-C ) :   1.3518
B( 26-C , 27-C ) :   1.4179 B( 26-C , 81-H ) :   1.0121 B( 27-C , 28-N ) :   1.2155
B( 27-C , 30-C ) :   0.9924 B( 28-N , 29-C ) :   0.9593 B( 29-C , 82-H ) :   0.9632
B( 29-C , 83-H ) :   0.9610 B( 29-C , 84-H ) :   0.9681 B( 30-C , 31-C ) :   1.2930
B( 30-C , 41-C ) :   0.1244 B( 30-C , 43-C ) :   1.2536 B( 31-C , 32-C ) :   1.0893
B( 31-C , 36-N ) :   1.4494 B( 32-C , 33-N ) :   1.4018 B( 32-C , 41-C ) :   1.2455
B( 33-N , 34-C ) :   1.6913 B( 34-C , 35-C ) :   1.2061 B( 34-C , 39-C ) :   1.1621
B( 35-C , 36-N ) :   1.7179 B( 35-C , 37-C ) :   1.1654 B( 37-C , 38-N ) :   3.0475
B( 39-C , 40-N ) :   3.0400 B( 41-C , 42-C ) :   1.1912 B( 41-C , 47-C ) :   1.2203
B( 42-C , 43-C ) :   1.0973 B( 42-C , 46-N ) :   1.5207 B( 43-C , 44-N ) :   1.5252
B( 44-N , 45-S ) :   1.2902 B( 44-N , 46-N ) :   0.1483 B( 45-S , 46-N ) :   1.2754
B( 47-C , 48-C ) :   1.4453 B( 47-C , 51-S ) :   1.0694 B( 48-C , 49-C ) :   1.2901
B( 48-C , 85-H ) :   0.9884 B( 49-C , 50-C ) :   1.4029 B( 49-C , 54-S ) :   1.0425
B( 50-C , 51-S ) :   1.0015 B( 50-C , 52-C ) :   1.2860 B( 52-C , 53-C ) :   1.3182
B( 52-C , 57-N ) :   1.2408 B( 53-C , 54-S ) :   1.0133 B( 53-C , 55-C ) :   1.4230
B( 55-C , 56-C ) :   1.3333 B( 55-C , 86-H ) :   1.0050 B( 56-C , 57-N ) :   1.1388
B( 56-C , 59-C ) :   1.1311 B( 57-N , 58-C ) :   0.9623 B( 58-C , 87-H ) :   0.9688
B( 58-C , 88-H ) :   0.9670 B( 58-C , 89-H ) :   0.9642 B( 59-C , 60-C ) :   1.6057
B( 59-C , 90-H ) :   0.9321 B( 60-C , 61-C ) :   0.9587 B( 60-C , 65-C ) :   1.0571
B( 61-C , 62-O ) :   2.2579 B( 61-C , 63-C ) :   0.9209 B( 63-C , 64-C ) :   1.3292
B( 63-C , 74-C ) :   1.3760 B( 64-C , 65-C ) :   0.9986 B( 64-C , 71-C ) :   1.3754
B( 65-C , 66-C ) :   1.6438 B( 66-C , 67-C ) :   1.1682 B( 66-C , 69-C ) :   1.1276
B( 67-C , 68-N ) :   3.0012 B( 69-C , 70-N ) :   2.9896 B( 71-C , 72-C ) :   1.3625
B( 71-C , 91-H ) :   0.9831 B( 72-C , 73-C ) :   1.4267 B( 72-C , 76-Br) :   1.0516
B( 73-C , 74-C ) :   1.3520 B( 73-C , 75-Br) :   1.0328 B( 74-C , 92-H ) :   1.0081

-----------------------------------------------------------------------------
         ABSORPTION SPECTRUM VIA TRANSITION ELECTRIC DIPOLE MOMENTS
-----------------------------------------------------------------------------
State   Energy  Wavelength   fosc         T2         TX        TY        TZ
        (cm-1)    (nm)                  (au**2)     (au)      (au)      (au)
-----------------------------------------------------------------------------
   0    7609.7   1314.1   0.813686999  35.20185   2.92401   5.14510  -0.42423
   1   14610.0    684.5   0.037381745   0.84233   0.29272   0.62744  -0.60247
   2   17055.9    586.3   0.053596772   1.03452  -0.40319  -0.89056  -0.28081
   3   17259.1    579.4   0.010098915   0.19263   0.14454   0.05355   0.41094
   4   18428.7    542.6   0.779520876  13.92545  -2.36597  -2.87927   0.19350
   5   19397.6    515.5   0.783343328  13.29470   2.09614   2.78851   1.06071
   6   22513.9    444.2   0.069960832   1.02301  -0.65610  -0.72456   0.25993
   7   22938.6    435.9   0.084119244   1.20727  -0.08073  -0.97709  -0.49603
   8   23822.8    419.8   0.108756137   1.50293  -0.67567  -1.01556  -0.12265
   9   24434.2    409.3   0.089894471   1.21119   0.45134   0.09640   0.99909
  10   25018.8    399.7   0.210466791   2.76945  -0.57528  -0.99478   1.20371
  11   25172.1    397.3   0.006203997   0.08114   0.24550   0.13435  -0.05308
  12   25538.6    391.6   0.037717230   0.48620   0.16724   0.31510   0.59912
  13   26029.9    384.2   0.027629970   0.34945   0.11941   0.55992  -0.14722
  14   26988.5    370.5   0.039479393   0.48158   0.23429  -0.64425  -0.10783
  15   27194.1    367.7   0.061973351   0.75025   0.58405   0.49428   0.40599
  16   27518.0    363.4   0.097901319   1.17124  -0.13947  -0.60137   0.88890
  17   27924.9    358.1   0.029268390   0.34505   0.28414   0.45945   0.23069
  18   28528.4    350.5   0.095606460   1.10328   0.21025  -0.46209   0.91954
  19   28919.3    345.8   0.014625274   0.16649   0.08287  -0.39100  -0.08213
  20   29475.2    339.3   0.000944626   0.01055   0.09709   0.03156  -0.01129
  21   30069.9    332.6   0.040465281   0.44302   0.01940  -0.36312   0.55749
  22   30231.2    330.8   0.028622962   0.31170   0.03272   0.40384  -0.38411
  23   30573.2    327.1   0.077700562   0.83668   0.04352  -0.20520   0.89032
  24   31419.1    318.3   0.084710234   0.88760  -0.34345  -0.78076   0.40007
  25   31493.2    317.5   0.275824590   2.88331   0.41967  -0.82775  -1.42198
  26   31792.0    314.5   0.041897690   0.43386   0.24039   0.11448  -0.60247
  27   31932.2    313.2   0.135414980   1.39609   0.03210   0.96453   0.68171
  28   32255.4    310.0   0.090630541   0.92501   0.43546   0.77943   0.35759
  29   32392.8    308.7   0.372439523   3.78514   0.00115   1.05581  -1.63414
  30   32502.2    307.7   0.124635772   1.26242  -0.29059  -0.33491   1.03238
  31   32587.2    306.9   0.020572876   0.20784  -0.33097   0.24517   0.19542
  32   32697.8    305.8   0.081223808   0.81779  -0.00061  -0.51132   0.74588
  33   32845.1    304.5   0.035720371   0.35803  -0.54175  -0.16569   0.19257
  34   33074.8    302.3   0.023472840   0.23364  -0.42030  -0.19337   0.13997
  35   33211.0    301.1   0.061764163   0.61225  -0.12471  -0.70115   0.32418
  36   33352.7    299.8   0.021947525   0.21664  -0.07152  -0.36235   0.28323
  37   33500.8    298.5   0.135633061   1.33286  -0.54911   0.71975  -0.71645
  38   33728.9    296.5   0.029071937   0.28376   0.00214  -0.47370   0.24364
  39   33937.6    294.7   0.055270485   0.53615  -0.06446  -0.52295  -0.50845
  40   34384.0    290.8   0.088625321   0.84855  -0.19770  -0.87959   0.18917
  41   34405.6    290.6   0.008910209   0.08526   0.04123   0.20617   0.20261
  42   34599.1    289.0   0.057963867   0.55153   0.01028  -0.39167  -0.63089
  43   34884.8    286.7   0.075351443   0.71110   0.43233   0.40580  -0.59960
  44   35059.7    285.2   0.332779812   3.12481  -0.30115   1.03262  -1.40279
  45   35192.9    284.1   0.366249594   3.42608  -0.06059  -0.98403   1.56655
  46   35347.7    282.9   0.014692655   0.13684   0.18211   0.26168  -0.18762
  47   35708.1    280.0   0.275468264   2.53969   0.02710   0.93284  -1.29181
  48   35977.8    277.9   0.054463551   0.49836   0.04369  -0.19602   0.67678
  49   36358.6    275.0   0.006935615   0.06280  -0.03218  -0.08856   0.23221
  50   36417.2    274.6   0.033105914   0.29928   0.34391   0.07215   0.41929
  51   36733.1    272.2   0.107642305   0.96472   0.13992   0.86884  -0.43620
  52   36863.2    271.3   0.017054614   0.15231   0.17055  -0.26281   0.23271
  53   36928.1    270.8   0.000066090   0.00059  -0.00446   0.02249   0.00798
  54   37096.4    269.6   0.005478761   0.04862   0.08245  -0.08729   0.18494
  55   37350.4    267.7   0.313377514   2.76215  -0.58709  -1.29525  -0.86013
  56   37602.1    265.9   0.012296486   0.10766   0.09540   0.18569   0.25313
  57   38275.1    261.3   0.083975965   0.72229  -0.31362  -0.22956  -0.75580
  58   38341.5    260.8   0.053276296   0.45745  -0.41641  -0.09600  -0.52425
  59   38716.1    258.3   0.303625309   2.58180  -0.15170   0.07255   1.59797
  60   39012.6    256.3   0.159817377   1.34863  -0.33407   0.13938   1.10345
  61   39133.6    255.5   0.008127902   0.06838  -0.21277   0.10997   0.10494
  62   39466.7    253.4   0.001903599   0.01588  -0.05431   0.02866   0.11004
  63   39524.2    253.0   0.100119218   0.83393  -0.33132   0.21910   0.82228
  64   39833.8    251.0   0.048070506   0.39729   0.61368  -0.04708   0.13589
  65   40106.0    249.3   0.010770823   0.08841   0.07889  -0.06640   0.27889
  66   40204.6    248.7   0.005573767   0.04564  -0.09969   0.18291  -0.04739
  67   40223.1    248.6   0.006967447   0.05703   0.13822  -0.19012   0.04213
  68   40288.5    248.2   0.004114042   0.03362  -0.18212   0.00993  -0.01874

FINAL SINGLE POINT ENERGY    -15157.294065249613

DIPOLE MOMENT
-------------
                                X             Y             Z
Electronic contribution:     26.62364     -76.86815     116.70796
Nuclear contribution   :    -25.43552      74.18382    -117.86148
                        -----------------------------------------
Total Dipole Moment    :      1.18811      -2.68433      -1.15352
                        -----------------------------------------
Magnitude (a.u.)       :      3.15402
Magnitude (Debye)      :      8.01688

Rotational constants in cm-1:     0.001264     0.000113     0.000106
Rotational constants in MHz :    37.895157     3.394652     3.169080

                             ****ORCA TERMINATED NORMALLY****
TOTAL RUN TIME: 0 days 0 hours 11 minutes 57 seconds 873 msec
