                         Program Version 4.2.0 -  RELEASE  -
|  1> # ORCA input file
|  2> # SCF done       -186.282760334293          0.000178916364
|  3> ! CAM-B3LYP def2-SVP def2/J RIJCOSX Grid4 TightSCF
|  4> %maxcore 5000
|  5> %tddft
|  6>     Mode sTDDFT
|  7>     Ethresh 5.0
|  8>     maxcore 5000
|  9> end
| 10>
| 11> %pal
| 12>   nprocs 6
| 13>   end
| 14> * xyz 0 1
| 15>    C       15.89491         4.52834        -7.69891
| 16>    C       15.79488         4.04237        -8.97420
| 17>    C       15.27589         2.75953        -9.20412
| 18>    C       14.86569         1.98143        -8.15609
| 19>    C       14.95671         2.44879        -6.82945
| 20>    C       14.54311         1.64442        -5.74261
| 21>    C       14.64912         2.13795        -4.47200
| 22>    C       15.14475         3.45555        -4.24346
| 23>    C       15.56057         4.24774        -5.27464
| 24>    C       15.48058         3.75402        -6.59705
| 25>    C       15.07510         3.76026        -2.80141
| 26>    O       15.45463         4.75402        -2.22502
| 27>    C       14.35017         2.60296        -2.20334
| 28>    C       14.33098         1.53608        -3.18504
| 29>    C       14.31397         0.19221        -2.92326
| 30>    C       14.42187        -0.80679        -3.91030
| 31>    N       14.51126        -1.67137        -4.66036
| 32>    C       14.26477        -0.33300        -1.61577
| 33>    N       14.27033        -0.78712        -0.56089
| 34>    C       13.71810         2.74052        -1.00408
| 35>    C       12.63491         1.97744        -0.52217
| 36>    C       12.11062         1.94934         0.76130
| 37>    S       12.58387         2.68362         2.25136
| 38>    C       11.25942         1.88663         3.08549
| 39>    C       11.08058         2.11781         4.53966
| 40>    C       10.51106         1.10532         2.26513
| 41>    C       10.97627         1.12009         0.92709
| 42>    C       10.60305         0.50169        -0.26901
| 43>    S       11.65601         0.97718        -1.57538
| 44>    C        9.60497        -0.42948        -0.55423
| 45>    C        9.49922        -1.05722        -1.80611
| 46>    C        8.44554        -2.02123        -1.88924
| 47>    N        8.26591        -2.73740        -2.99938
| 48>    C        9.08807        -2.50276        -4.00225
| 49>    C        8.93330        -3.33466        -5.22490
| 50>    O        8.06691        -4.17121        -5.35356
| 51>    C        9.93306        -3.08158        -6.28062
| 52>    C       10.87443        -2.13471        -6.21192
| 53>    C       11.02033        -1.22644        -5.06631
| 54>    O       11.81239        -0.30429        -5.05762
| 55>    C       10.11818        -1.51241        -3.92684
| 56>    N       10.30779        -0.80939        -2.82800
| 57>    C        7.70813        -2.11268        -0.69773
| 58>    S        8.37595        -1.03576         0.50962
| 59>    C        6.58322        -2.90912        -0.46827
| 60>    C        5.85931        -3.05386         0.71062
| 61>    S        6.01107        -2.39856         2.30405
| 62>    C        4.59376        -3.29942         2.82013
| 63>    C        4.12874        -3.17603         4.22330
| 64>    C        4.05375        -4.04639         1.82395
| 65>    C        4.76159        -3.92275         0.60144
| 66>    C        4.61513        -4.46093        -0.69437
| 67>    S        5.87817        -3.86380        -1.75731
| 68>    C        3.57659        -5.34212        -1.00139
| 69>    C        3.26324        -5.95289        -2.19238
| 70>    C        2.16682        -6.86330        -2.43400
| 71>    C        1.22429        -7.28835        -1.52834
| 72>    C        0.17540        -8.17727        -1.83875
| 73>    N       -0.70247        -8.89488        -2.02178
| 74>    C        1.15939        -6.90324        -0.17507
| 75>    N        1.04107        -6.63415         0.93660
| 76>    C        2.22954        -7.25991        -3.83905
| 77>    C        3.33641        -6.60024        -4.44829
| 78>    C        3.65481        -6.77639        -5.76281
| 79>    C        2.85934        -7.63992        -6.55025
| 80>    C        3.13502        -7.86298        -7.91306
| 81>    C        2.34981        -8.70148        -8.65762
| 82>    C        1.25548        -9.35314        -8.07078
| 83>    C        0.96144        -9.15842        -6.74818
| 84>    C        1.74859        -8.30203        -5.95263
| 85>    C        1.44681        -8.09965        -4.58484
| 86>    C        4.00450        -5.76242        -3.44287
| 87>    O        4.97217        -5.04203        -3.61369
| 88>    H       16.29264         5.51613        -7.51641
| 89>    H       16.11383         4.64386        -9.81243
| 90>    H       15.20362         2.39128       -10.21675
| 91>    H       14.46813         0.99177        -8.32615
| 92>    H       14.12152         0.66992        -5.93156
| 93>    H       15.94098         5.24111        -5.08784
| 94>    H       14.01865         3.58877        -0.39634
| 95>    H       10.95485         3.18043         4.74501
| 96>    H       11.95789         1.77752         5.08929
| 97>    H       10.20741         1.58046         4.90075
| 98>    H        9.66055         0.53653         2.59532
| 99>    H        9.84885        -3.72572        -7.14570
|100>    H       11.58310        -1.98313        -7.01448
|101>    H        3.88015        -2.14045         4.45413
|102>    H        4.91034        -3.49072         4.91429
|103>    H        3.24860        -3.79422         4.37955
|104>    H        3.18235        -4.66138         1.96078
|105>    H        2.93575        -5.55946        -0.15706
|106>    H        4.50292        -6.26481        -6.19305
|107>    H        3.97964        -7.35794        -8.35838
|108>    H        2.56788        -8.86678        -9.70221
|109>    H        0.64561       -10.01119        -8.67157
|110>    H        0.11966        -9.65868        -6.29205
|111>    H        0.60002        -8.61829        -4.16412
|112> *
|113>
|114>                          ****END OF INPUT****

CARTESIAN COORDINATES (ANGSTROEM)
---------------------------------
  C     15.894910    4.528340   -7.698910
  C     15.794880    4.042370   -8.974200
  C     15.275890    2.759530   -9.204120
  C     14.865690    1.981430   -8.156090
  C     14.956710    2.448790   -6.829450
  C     14.543110    1.644420   -5.742610
  C     14.649120    2.137950   -4.472000
  C     15.144750    3.455550   -4.243460
  C     15.560570    4.247740   -5.274640
  C     15.480580    3.754020   -6.597050
  C     15.075100    3.760260   -2.801410
  O     15.454630    4.754020   -2.225020
  C     14.350170    2.602960   -2.203340
  C     14.330980    1.536080   -3.185040
  C     14.313970    0.192210   -2.923260
  C     14.421870   -0.806790   -3.910300
  N     14.511260   -1.671370   -4.660360
  C     14.264770   -0.333000   -1.615770
  N     14.270330   -0.787120   -0.560890
  C     13.718100    2.740520   -1.004080
  C     12.634910    1.977440   -0.522170
  C     12.110620    1.949340    0.761300
  S     12.583870    2.683620    2.251360
  C     11.259420    1.886630    3.085490
  C     11.080580    2.117810    4.539660
  C     10.511060    1.105320    2.265130
  C     10.976270    1.120090    0.927090
  C     10.603050    0.501690   -0.269010
  S     11.656010    0.977180   -1.575380
  C      9.604970   -0.429480   -0.554230
  C      9.499220   -1.057220   -1.806110
  C      8.445540   -2.021230   -1.889240
  N      8.265910   -2.737400   -2.999380
  C      9.088070   -2.502760   -4.002250
  C      8.933300   -3.334660   -5.224900
  O      8.066910   -4.171210   -5.353560
  C      9.933060   -3.081580   -6.280620
  C     10.874430   -2.134710   -6.211920
  C     11.020330   -1.226440   -5.066310
  O     11.812390   -0.304290   -5.057620
  C     10.118180   -1.512410   -3.926840
  N     10.307790   -0.809390   -2.828000
  C      7.708130   -2.112680   -0.697730
  S      8.375950   -1.035760    0.509620
  C      6.583220   -2.909120   -0.468270
  C      5.859310   -3.053860    0.710620
  S      6.011070   -2.398560    2.304050
  C      4.593760   -3.299420    2.820130
  C      4.128740   -3.176030    4.223300
  C      4.053750   -4.046390    1.823950
  C      4.761590   -3.922750    0.601440
  C      4.615130   -4.460930   -0.694370
  S      5.878170   -3.863800   -1.757310
  C      3.576590   -5.342120   -1.001390
  C      3.263240   -5.952890   -2.192380
  C      2.166820   -6.863300   -2.434000
  C      1.224290   -7.288350   -1.528340
  C      0.175400   -8.177270   -1.838750
  N     -0.702470   -8.894880   -2.021780
  C      1.159390   -6.903240   -0.175070
  N      1.041070   -6.634150    0.936600
  C      2.229540   -7.259910   -3.839050
  C      3.336410   -6.600240   -4.448290
  C      3.654810   -6.776390   -5.762810
  C      2.859340   -7.639920   -6.550250
  C      3.135020   -7.862980   -7.913060
  C      2.349810   -8.701480   -8.657620
  C      1.255480   -9.353140   -8.070780
  C      0.961440   -9.158420   -6.748180
  C      1.748590   -8.302030   -5.952630
  C      1.446810   -8.099650   -4.584840
  C      4.004500   -5.762420   -3.442870
  O      4.972170   -5.042030   -3.613690
  H     16.292640    5.516130   -7.516410
  H     16.113830    4.643860   -9.812430
  H     15.203620    2.391280  -10.216750
  H     14.468130    0.991770   -8.326150
  H     14.121520    0.669920   -5.931560
  H     15.940980    5.241110   -5.087840
  H     14.018650    3.588770   -0.396340
  H     10.954850    3.180430    4.745010
  H     11.957890    1.777520    5.089290
  H     10.207410    1.580460    4.900750
  H      9.660550    0.536530    2.595320
  H      9.848850   -3.725720   -7.145700
  H     11.583100   -1.983130   -7.014480
  H      3.880150   -2.140450    4.454130
  H      4.910340   -3.490720    4.914290
  H      3.248600   -3.794220    4.379550
  H      3.182350   -4.661380    1.960780
  H      2.935750   -5.559460   -0.157060
  H      4.502920   -6.264810   -6.193050
  H      3.979640   -7.357940   -8.358380
  H      2.567880   -8.866780   -9.702210
  H      0.645610  -10.011190   -8.671570
  H      0.119660   -9.658680   -6.292050
  H      0.600020   -8.618290   -4.164120

 Total Charge           Charge          ....    0
 Multiplicity           Mult            ....    1
 Number of Electrons    NEL             ....  526
 Basis Dimension        Dim             .... 1162

ORBITAL ENERGIES
----------------

  NO   OCC          E(Eh)            E(eV)
   0   2.0000     -89.004426     -2421.9336
   1   2.0000     -88.964496     -2420.8470
   2   2.0000     -88.964489     -2420.8468
   3   2.0000     -88.964458     -2420.8460
   4   2.0000     -88.962020     -2420.7796
   5   2.0000     -19.233334      -523.3656
   6   2.0000     -19.227663      -523.2113
   7   2.0000     -19.211129      -522.7614
   8   2.0000     -19.205075      -522.5967
   9   2.0000     -14.455603      -393.3569
  10   2.0000     -14.452585      -393.2748
  11   2.0000     -14.412289      -392.1783
  12   2.0000     -14.405396      -391.9907
  13   2.0000     -14.404070      -391.9547
  14   2.0000     -14.403333      -391.9346
  15   2.0000     -10.381095      -282.4840
  16   2.0000     -10.376951      -282.3712
  17   2.0000     -10.358135      -281.8592
  18   2.0000     -10.357417      -281.8397
  19   2.0000     -10.347057      -281.5577
  20   2.0000     -10.346404      -281.5400
  21   2.0000     -10.340228      -281.3719
  22   2.0000     -10.339561      -281.3538
  23   2.0000     -10.337184      -281.2891
  24   2.0000     -10.337054      -281.2855
  25   2.0000     -10.332813      -281.1701
  26   2.0000     -10.331105      -281.1237
  27   2.0000     -10.330633      -281.1108
  28   2.0000     -10.329036      -281.0674
  29   2.0000     -10.328860      -281.0626
  30   2.0000     -10.325532      -280.9720
  31   2.0000     -10.320766      -280.8423
  32   2.0000     -10.320134      -280.8251
  33   2.0000     -10.316249      -280.7194
  34   2.0000     -10.315195      -280.6907
  35   2.0000     -10.314010      -280.6585
  36   2.0000     -10.313201      -280.6365
  37   2.0000     -10.312554      -280.6189
  38   2.0000     -10.312531      -280.6182
  39   2.0000     -10.310177      -280.5542
  40   2.0000     -10.310168      -280.5539
  41   2.0000     -10.309329      -280.5311
  42   2.0000     -10.309237      -280.5286
  43   2.0000     -10.307643      -280.4852
  44   2.0000     -10.305857      -280.4366
  45   2.0000     -10.298599      -280.2391
  46   2.0000     -10.297829      -280.2182
  47   2.0000     -10.294935      -280.1394
  48   2.0000     -10.292222      -280.0656
  49   2.0000     -10.290485      -280.0183
  50   2.0000     -10.290234      -280.0115
  51   2.0000     -10.290199      -280.0106
  52   2.0000     -10.289354      -279.9876
  53   2.0000     -10.289037      -279.9789
  54   2.0000     -10.289034      -279.9788
  55   2.0000     -10.288450      -279.9629
  56   2.0000     -10.288176      -279.9555
  57   2.0000     -10.287730      -279.9434
  58   2.0000     -10.287380      -279.9338
  59   2.0000     -10.286690      -279.9151
  60   2.0000     -10.285676      -279.8875
  61   2.0000     -10.284657      -279.8597
  62   2.0000     -10.282302      -279.7957
  63   2.0000     -10.280705      -279.7522
  64   2.0000     -10.280483      -279.7462
  65   2.0000     -10.280479      -279.7460
  66   2.0000     -10.279844      -279.7288
  67   2.0000     -10.279683      -279.7244
  68   2.0000     -10.279450      -279.7181
  69   2.0000     -10.279203      -279.7113
  70   2.0000     -10.279183      -279.7108
  71   2.0000     -10.278848      -279.7017
  72   2.0000     -10.278297      -279.6867
  73   2.0000      -8.098090      -220.3602
  74   2.0000      -8.060336      -219.3329
  75   2.0000      -8.058172      -219.2740
  76   2.0000      -8.057556      -219.2573
  77   2.0000      -8.056177      -219.2197
  78   2.0000      -6.067276      -165.0990
  79   2.0000      -6.063095      -164.9852
  80   2.0000      -6.060720      -164.9206
  81   2.0000      -6.030053      -164.0861
  82   2.0000      -6.027848      -164.0261
  83   2.0000      -6.027258      -164.0100
  84   2.0000      -6.026008      -163.9760
  85   2.0000      -6.025739      -163.9687
  86   2.0000      -6.023560      -163.9094
  87   2.0000      -6.022634      -163.8842
  88   2.0000      -6.021693      -163.8586
  89   2.0000      -6.021066      -163.8415
  90   2.0000      -6.019488      -163.7986
  91   2.0000      -6.019271      -163.7927
  92   2.0000      -6.017925      -163.7561
  93   2.0000      -1.147814       -31.2336
  94   2.0000      -1.141754       -31.0687
  95   2.0000      -1.127420       -30.6787
  96   2.0000      -1.120094       -30.4793
  97   2.0000      -1.107250       -30.1298
  98   2.0000      -1.035946       -28.1895
  99   2.0000      -1.024282       -27.8721
 100   2.0000      -1.016732       -27.6667
 101   2.0000      -1.011163       -27.5151
 102   2.0000      -1.006918       -27.3996
 103   2.0000      -1.000980       -27.2381
 104   2.0000      -0.992345       -27.0031
 105   2.0000      -0.988235       -26.8912
 106   2.0000      -0.986435       -26.8422
 107   2.0000      -0.982231       -26.7279
 108   2.0000      -0.964908       -26.2565
 109   2.0000      -0.964439       -26.2437
 110   2.0000      -0.957248       -26.0480
 111   2.0000      -0.952825       -25.9277
 112   2.0000      -0.942049       -25.6344
 113   2.0000      -0.921964       -25.0879
 114   2.0000      -0.916795       -24.9473
 115   2.0000      -0.909391       -24.7458
 116   2.0000      -0.899769       -24.4840
 117   2.0000      -0.886446       -24.1214
 118   2.0000      -0.880685       -23.9647
 119   2.0000      -0.876368       -23.8472
 120   2.0000      -0.873614       -23.7722
 121   2.0000      -0.872147       -23.7323
 122   2.0000      -0.865741       -23.5580
 123   2.0000      -0.859467       -23.3873
 124   2.0000      -0.850671       -23.1479
 125   2.0000      -0.843480       -22.9523
 126   2.0000      -0.843044       -22.9404
 127   2.0000      -0.821493       -22.3540
 128   2.0000      -0.819773       -22.3072
 129   2.0000      -0.813007       -22.1230
 130   2.0000      -0.807048       -21.9609
 131   2.0000      -0.798797       -21.7364
 132   2.0000      -0.795326       -21.6419
 133   2.0000      -0.785965       -21.3872
 134   2.0000      -0.782814       -21.3014
 135   2.0000      -0.780323       -21.2337
 136   2.0000      -0.762194       -20.7404
 137   2.0000      -0.754905       -20.5420
 138   2.0000      -0.750987       -20.4354
 139   2.0000      -0.739732       -20.1291
 140   2.0000      -0.730340       -19.8736
 141   2.0000      -0.702983       -19.1291
 142   2.0000      -0.698580       -19.0093
 143   2.0000      -0.696344       -18.9485
 144   2.0000      -0.694641       -18.9021
 145   2.0000      -0.689478       -18.7617
 146   2.0000      -0.688541       -18.7362
 147   2.0000      -0.679766       -18.4974
 148   2.0000      -0.672332       -18.2951
 149   2.0000      -0.667675       -18.1684
 150   2.0000      -0.665280       -18.1032
 151   2.0000      -0.659088       -17.9347
 152   2.0000      -0.648429       -17.6446
 153   2.0000      -0.644749       -17.5445
 154   2.0000      -0.638831       -17.3835
 155   2.0000      -0.637850       -17.3568
 156   2.0000      -0.629543       -17.1307
 157   2.0000      -0.624826       -17.0024
 158   2.0000      -0.623376       -16.9629
 159   2.0000      -0.617373       -16.7996
 160   2.0000      -0.606336       -16.4992
 161   2.0000      -0.602679       -16.3997
 162   2.0000      -0.601336       -16.3632
 163   2.0000      -0.598873       -16.2962
 164   2.0000      -0.598733       -16.2923
 165   2.0000      -0.590821       -16.0771
 166   2.0000      -0.580390       -15.7932
 167   2.0000      -0.573707       -15.6114
 168   2.0000      -0.573475       -15.6050
 169   2.0000      -0.567931       -15.4542
 170   2.0000      -0.562616       -15.3096
 171   2.0000      -0.555882       -15.1263
 172   2.0000      -0.548687       -14.9305
 173   2.0000      -0.545808       -14.8522
 174   2.0000      -0.543580       -14.7916
 175   2.0000      -0.540848       -14.7172
 176   2.0000      -0.539229       -14.6732
 177   2.0000      -0.537698       -14.6315
 178   2.0000      -0.534875       -14.5547
 179   2.0000      -0.533375       -14.5139
 180   2.0000      -0.531978       -14.4759
 181   2.0000      -0.530631       -14.4392
 182   2.0000      -0.529329       -14.4038
 183   2.0000      -0.527971       -14.3668
 184   2.0000      -0.523394       -14.2423
 185   2.0000      -0.522360       -14.2141
 186   2.0000      -0.520443       -14.1620
 187   2.0000      -0.515038       -14.0149
 188   2.0000      -0.513510       -13.9733
 189   2.0000      -0.512225       -13.9384
 190   2.0000      -0.508894       -13.8477
 191   2.0000      -0.507785       -13.8175
 192   2.0000      -0.506088       -13.7714
 193   2.0000      -0.503514       -13.7013
 194   2.0000      -0.502226       -13.6663
 195   2.0000      -0.500298       -13.6138
 196   2.0000      -0.499859       -13.6019
 197   2.0000      -0.498537       -13.5659
 198   2.0000      -0.497777       -13.5452
 199   2.0000      -0.495102       -13.4724
 200   2.0000      -0.493021       -13.4158
 201   2.0000      -0.490189       -13.3387
 202   2.0000      -0.490123       -13.3369
 203   2.0000      -0.484951       -13.1962
 204   2.0000      -0.480996       -13.0886
 205   2.0000      -0.479918       -13.0592
 206   2.0000      -0.476490       -12.9659
 207   2.0000      -0.475062       -12.9271
 208   2.0000      -0.470866       -12.8129
 209   2.0000      -0.465913       -12.6781
 210   2.0000      -0.461923       -12.5696
 211   2.0000      -0.459871       -12.5137
 212   2.0000      -0.458225       -12.4689
 213   2.0000      -0.455614       -12.3979
 214   2.0000      -0.451903       -12.2969
 215   2.0000      -0.449590       -12.2340
 216   2.0000      -0.445424       -12.1206
 217   2.0000      -0.441267       -12.0075
 218   2.0000      -0.440995       -12.0001
 219   2.0000      -0.438380       -11.9289
 220   2.0000      -0.435040       -11.8380
 221   2.0000      -0.434290       -11.8176
 222   2.0000      -0.431439       -11.7401
 223   2.0000      -0.430531       -11.7153
 224   2.0000      -0.428314       -11.6550
 225   2.0000      -0.427520       -11.6334
 226   2.0000      -0.427451       -11.6315
 227   2.0000      -0.422951       -11.5091
 228   2.0000      -0.422572       -11.4988
 229   2.0000      -0.422221       -11.4892
 230   2.0000      -0.419744       -11.4218
 231   2.0000      -0.418989       -11.4013
 232   2.0000      -0.416895       -11.3443
 233   2.0000      -0.413704       -11.2575
 234   2.0000      -0.408864       -11.1257
 235   2.0000      -0.407642       -11.0925
 236   2.0000      -0.405596       -11.0368
 237   2.0000      -0.399775       -10.8784
 238   2.0000      -0.396838       -10.7985
 239   2.0000      -0.392914       -10.6917
 240   2.0000      -0.382561       -10.4100
 241   2.0000      -0.380057       -10.3419
 242   2.0000      -0.374513       -10.1910
 243   2.0000      -0.373220       -10.1558
 244   2.0000      -0.367481        -9.9997
 245   2.0000      -0.367056        -9.9881
 246   2.0000      -0.360945        -9.8218
 247   2.0000      -0.354245        -9.6395
 248   2.0000      -0.349971        -9.5232
 249   2.0000      -0.337633        -9.1875
 250   2.0000      -0.333854        -9.0846
 251   2.0000      -0.331438        -9.0189
 252   2.0000      -0.326059        -8.8725
 253   2.0000      -0.321914        -8.7597
 254   2.0000      -0.320413        -8.7189
 255   2.0000      -0.311593        -8.4789
 256   2.0000      -0.306434        -8.3385
 257   2.0000      -0.305059        -8.3011
 258   2.0000      -0.303326        -8.2539
 259   2.0000      -0.288511        -7.8508
 260   2.0000      -0.285405        -7.7663
 261   2.0000      -0.271890        -7.3985
 262   2.0000      -0.231668        -6.3040
 263   0.0000      -0.122535        -3.3343
 264   0.0000      -0.096600        -2.6286
 265   0.0000      -0.075174        -2.0456
 266   0.0000      -0.072933        -1.9846
 267   0.0000      -0.050366        -1.3705

MULLIKEN ATOMIC CHARGES
-----------------------
   0 C :   -0.013763
   1 C :    0.033705
   2 C :    0.033028
   3 C :   -0.014999
   4 C :    0.097883
   5 C :   -0.063501
   6 C :    0.024089
   7 C :    0.015903
   8 C :   -0.084988
   9 C :    0.090934
  10 C :    0.138155
  11 O :   -0.146675
  12 C :   -0.136005
  13 C :    0.250408
  14 C :   -0.306040
  15 C :   -0.169833
  16 N :    0.148175
  17 C :   -0.215604
  18 N :    0.165807
  19 C :    0.035266
  20 C :   -0.143139
  21 C :    0.011012
  22 S :    0.138961
  23 C :   -0.205766
  24 C :    0.113720
  25 C :   -0.004201
  26 C :    0.091943
  27 C :   -0.094623
  28 S :    0.190601
  29 C :   -0.107072
  30 C :    0.022447
  31 C :    0.049634
  32 N :    0.064403
  33 C :   -0.112357
  34 C :    0.132469
  35 O :   -0.089931
  36 C :   -0.010948
  37 C :   -0.010539
  38 C :    0.165810
  39 O :   -0.122369
  40 C :   -0.102281
  41 N :    0.022228
  42 C :   -0.172518
  43 S :    0.203425
  44 C :   -0.105438
  45 C :   -0.066918
  46 S :    0.106420
  47 C :   -0.193293
  48 C :    0.115176
  49 C :   -0.008949
  50 C :    0.118927
  51 C :   -0.066003
  52 S :    0.255203
  53 C :   -0.055802
  54 C :   -0.100677
  55 C :    0.335854
  56 C :   -0.363581
  57 C :   -0.184719
  58 N :    0.140352
  59 C :   -0.186500
  60 N :    0.134843
  61 C :    0.044761
  62 C :   -0.003603
  63 C :   -0.083370
  64 C :    0.098810
  65 C :   -0.017183
  66 C :    0.034696
  67 C :    0.034410
  68 C :   -0.020510
  69 C :    0.096415
  70 C :   -0.087983
  71 C :    0.172045
  72 O :   -0.173883
  73 H :   -0.021029
  74 H :   -0.008760
  75 H :   -0.009300
  76 H :   -0.018165
  77 H :   -0.008777
  78 H :   -0.015391
  79 H :    0.017243
  80 H :    0.041226
  81 H :    0.045030
  82 H :    0.025511
  83 H :   -0.021229
  84 H :    0.018561
  85 H :    0.018415
  86 H :    0.039427
  87 H :    0.039595
  88 H :    0.036299
  89 H :    0.007877
  90 H :   -0.008181
  91 H :   -0.007077
  92 H :   -0.018930
  93 H :   -0.007290
  94 H :   -0.006595
  95 H :   -0.010763
  96 H :   -0.010054
Sum of atomic charges:   -0.0000000

LOEWDIN ATOMIC CHARGES
----------------------
   0 C :   -0.010175
   1 C :   -0.016929
   2 C :   -0.016698
   3 C :   -0.007600
   4 C :   -0.005649
   5 C :    0.021267
   6 C :   -0.018597
   7 C :   -0.055730
   8 C :    0.028296
   9 C :   -0.010112
  10 C :    0.082417
  11 O :   -0.147796
  12 C :   -0.088491
  13 C :    0.061212
  14 C :   -0.139501
  15 C :   -0.014096
  16 N :   -0.066919
  17 C :   -0.036242
  18 N :   -0.055840
  19 C :    0.039486
  20 C :   -0.197603
  21 C :   -0.163890
  22 S :    0.408239
  23 C :   -0.132333
  24 C :   -0.058325
  25 C :   -0.077607
  26 C :   -0.066136
  27 C :   -0.167682
  28 S :    0.536803
  29 C :   -0.185610
  30 C :   -0.047845
  31 C :   -0.039855
  32 N :    0.002303
  33 C :   -0.033171
  34 C :    0.055322
  35 O :   -0.087682
  36 C :   -0.008722
  37 C :   -0.009788
  38 C :    0.067321
  39 O :   -0.105538
  40 C :   -0.034665
  41 N :   -0.009697
  42 C :   -0.193447
  43 S :    0.507994
  44 C :   -0.189068
  45 C :   -0.206796
  46 S :    0.381908
  47 C :   -0.131855
  48 C :   -0.057775
  49 C :   -0.065988
  50 C :   -0.040229
  51 C :   -0.184402
  52 S :    0.551761
  53 C :    0.048923
  54 C :   -0.109869
  55 C :    0.078055
  56 C :   -0.153085
  57 C :   -0.018142
  58 N :   -0.062723
  59 C :   -0.015150
  60 N :   -0.070221
  61 C :   -0.024307
  62 C :   -0.053133
  63 C :    0.031536
  64 C :   -0.009252
  65 C :   -0.010128
  66 C :   -0.014902
  67 C :   -0.015952
  68 C :   -0.006264
  69 C :   -0.007436
  70 C :    0.017568
  71 C :    0.083277
  72 O :   -0.158684
  73 H :    0.030570
  74 H :    0.031243
  75 H :    0.031133
  76 H :    0.031946
  77 H :    0.036821
  78 H :    0.037748
  79 H :    0.047152
  80 H :    0.041684
  81 H :    0.043596
  82 H :    0.040451
  83 H :    0.023737
  84 H :    0.046048
  85 H :    0.046931
  86 H :    0.041122
  87 H :    0.041409
  88 H :    0.045112
  89 H :    0.038375
  90 H :    0.047517
  91 H :    0.041262
  92 H :    0.031365
  93 H :    0.031702
  94 H :    0.032195
  95 H :    0.034051
  96 H :    0.038476

  Mayer bond orders larger than 0.100000
B(  0-C ,  1-C ) :   1.4900 B(  0-C ,  9-C ) :   1.2473 B(  0-C , 73-H ) :   0.9961
B(  1-C ,  2-C ) :   1.2601 B(  1-C , 74-H ) :   0.9888 B(  2-C ,  3-C ) :   1.4878
B(  2-C , 75-H ) :   0.9888 B(  3-C ,  4-C ) :   1.2428 B(  3-C , 76-H ) :   0.9968
B(  4-C ,  5-C ) :   1.1944 B(  4-C ,  9-C ) :   1.2555 B(  5-C ,  6-C ) :   1.4756
B(  5-C , 77-H ) :   0.9896 B(  6-C ,  7-C ) :   1.2100 B(  6-C , 13-C ) :   1.0007
B(  7-C ,  8-C ) :   1.4766 B(  7-C , 10-C ) :   0.9180 B(  8-C ,  9-C ) :   1.1865
B(  8-C , 78-H ) :   1.0148 B( 10-C , 11-O ) :   2.2711 B( 10-C , 12-C ) :   0.9421
B( 12-C , 13-C ) :   1.0309 B( 12-C , 19-C ) :   1.6346 B( 13-C , 14-C ) :   1.6626
B( 14-C , 15-C ) :   1.1486 B( 14-C , 17-C ) :   1.1495 B( 15-C , 16-N ) :   2.9799
B( 17-C , 18-N ) :   3.0268 B( 19-C , 20-C ) :   1.1653 B( 19-C , 79-H ) :   0.9511
B( 20-C , 21-C ) :   1.4325 B( 20-C , 28-S ) :   1.0803 B( 21-C , 22-S ) :   1.0632
B( 21-C , 26-C ) :   1.2750 B( 22-S , 23-C ) :   1.0896 B( 23-C , 24-C ) :   1.0732
B( 23-C , 25-C ) :   1.6592 B( 24-C , 80-H ) :   0.9473 B( 24-C , 81-H ) :   0.9469
B( 24-C , 82-H ) :   0.9569 B( 25-C , 26-C ) :   1.1570 B( 25-C , 83-H ) :   0.9885
B( 26-C , 27-C ) :   1.3185 B( 27-C , 28-S ) :   1.1464 B( 27-C , 29-C ) :   1.2918
B( 29-C , 30-C ) :   1.2744 B( 29-C , 42-C ) :   0.1111 B( 29-C , 43-S ) :   1.1543
B( 30-C , 31-C ) :   1.2029 B( 30-C , 41-N ) :   1.4228 B( 31-C , 32-N ) :   1.4471
B( 31-C , 42-C ) :   1.2890 B( 32-N , 33-C ) :   1.6915 B( 33-C , 34-C ) :   0.8919
B( 33-C , 40-C ) :   1.1215 B( 34-C , 35-O ) :   2.2588 B( 34-C , 36-C ) :   1.0216
B( 36-C , 37-C ) :   1.6754 B( 36-C , 84-H ) :   0.9961 B( 37-C , 38-C ) :   1.0294
B( 37-C , 85-H ) :   0.9993 B( 38-C , 39-O ) :   2.1625 B( 38-C , 40-C ) :   0.9100
B( 40-C , 41-N ) :   1.6808 B( 42-C , 43-S ) :   1.1343 B( 42-C , 44-C ) :   1.3045
B( 44-C , 45-C ) :   1.3687 B( 44-C , 52-S ) :   1.1181 B( 45-C , 46-S ) :   1.0468
B( 45-C , 50-C ) :   1.3235 B( 46-S , 47-C ) :   1.0812 B( 47-C , 48-C ) :   1.0700
B( 47-C , 49-C ) :   1.6558 B( 48-C , 86-H ) :   0.9480 B( 48-C , 87-H ) :   0.9480
B( 48-C , 88-H ) :   0.9559 B( 49-C , 50-C ) :   1.1695 B( 49-C , 89-H ) :   0.9864
B( 50-C , 51-C ) :   1.2662 B( 51-C , 52-S ) :   1.0540 B( 51-C , 53-C ) :   1.3188
B( 53-C , 54-C ) :   1.4603 B( 53-C , 90-H ) :   0.9377 B( 54-C , 55-C ) :   1.0998
B( 54-C , 71-C ) :   0.9833 B( 55-C , 56-C ) :   1.5967 B( 55-C , 61-C ) :   0.9783
B( 56-C , 57-C ) :   1.1517 B( 56-C , 59-C ) :   1.1523 B( 57-C , 58-N ) :   2.9592
B( 59-C , 60-N ) :   2.9681 B( 61-C , 62-C ) :   1.2146 B( 61-C , 70-C ) :   1.4591
B( 62-C , 63-C ) :   1.4780 B( 62-C , 71-C ) :   0.9551 B( 63-C , 64-C ) :   1.1661
B( 63-C , 91-H ) :   1.0185 B( 64-C , 65-C ) :   1.2469 B( 64-C , 69-C ) :   1.2613
B( 65-C , 66-C ) :   1.4839 B( 65-C , 92-H ) :   0.9982 B( 66-C , 67-C ) :   1.2635
B( 66-C , 93-H ) :   0.9885 B( 67-C , 68-C ) :   1.4850 B( 67-C , 94-H ) :   0.9888
B( 68-C , 69-C ) :   1.2432 B( 68-C , 95-H ) :   0.9975 B( 69-C , 70-C ) :   1.1962
B( 70-C , 96-H ) :   0.9906 B( 71-C , 72-O ) :   2.1147

-----------------------------------------------------------------------------
         ABSORPTION SPECTRUM VIA TRANSITION ELECTRIC DIPOLE MOMENTS
-----------------------------------------------------------------------------
State   Energy  Wavelength   fosc         T2         TX        TY        TZ
        (cm-1)    (nm)                  (au**2)     (au)      (au)      (au)
-----------------------------------------------------------------------------
   0    8731.9   1145.2   0.742061795  27.97732   4.22796   3.17356   0.17357
   1   14171.1    705.7   0.067389687   1.56554   0.98329   0.74359  -0.21391
   2   17521.6    570.7   0.010742305   0.20184   0.05542  -0.32270  -0.30762
   3   18110.1    552.2   0.360673263   6.55643  -2.18749  -1.26716   0.40700
   4   19615.2    509.8   0.392794880   6.59248  -0.84660  -1.53539  -1.87572
   5   20967.2    476.9   0.017722522   0.27827   0.17548  -0.29437   0.40103
   6   22184.6    450.8   0.027993018   0.41541   0.11943  -0.29843  -0.55864
   7   23231.0    430.5   0.001151975   0.01632  -0.02399   0.01583  -0.12449
   8   23276.4    429.6   0.040616141   0.57446   0.10674  -0.14663  -0.73591
   9   23547.2    424.7   0.027478870   0.38418   0.25242  -0.11583  -0.55412
  10   24004.4    416.6   0.004104775   0.05630  -0.13320  -0.02209   0.19510
  11   24746.5    404.1   0.003919020   0.05214  -0.21072   0.06183   0.06253
  12   24871.6    402.1   0.084664038   1.12065   0.02528  -0.43487  -0.96483
  13   25135.1    397.9   0.007708642   0.10097  -0.09583   0.25418   0.16485
  14   25263.1    395.8   0.001940942   0.02529   0.02820   0.08161   0.13355
  15   26097.0    383.2   0.111313675   1.40421  -0.71847  -0.83540   0.43604
  16   26458.3    378.0   0.030656373   0.38145   0.34404   0.35474  -0.37046
  17   27000.5    370.4   0.000878173   0.01071   0.00006   0.06856   0.07751
  18   27327.5    365.9   0.007578482   0.09130   0.04829   0.16441   0.24887
  19   27510.3    363.5   0.021672972   0.25936   0.39387   0.23592  -0.22039
  20   27661.0    361.5   0.029137392   0.34678  -0.27980  -0.09473   0.50943
  21   28467.0    351.3   0.102091386   1.18065  -0.38995  -1.00451  -0.13985
  22   28691.9    348.5   0.064154925   0.73612   0.51362   0.38409  -0.56990
  23   29198.2    342.5   0.081358411   0.91732  -0.27603   0.01047   0.91707
  24   29783.0    335.8   0.087955515   0.97223   0.20765  -0.19951  -0.94303
  25   30222.6    330.9   0.112252100   1.22275   0.52743   0.01258  -0.97181
  26   30362.7    329.4   0.035656273   0.38661   0.00622  -0.12222   0.60962
  27   30453.7    328.4   0.279474319   3.02119   0.51689   0.61595   1.54098
  28   30586.6    326.9   0.066451647   0.71524   0.03036   0.49322  -0.68633
  29   30639.7    326.4   0.031240604   0.33567   0.36836   0.39825  -0.20342
  30   30935.1    323.3   0.009667814   0.10288   0.11146   0.24387   0.17603
  31   31507.0    317.4   0.461011852   4.81704  -0.15180   0.36543   2.15881
  32   31601.0    316.4   0.087922305   0.91595   0.11896  -0.53245  -0.78632
  33   31662.2    315.8   0.024473256   0.25446  -0.28138  -0.41518  -0.05402
  34   31880.1    313.7   0.000890074   0.00919  -0.00928   0.02248   0.09274
  35   32136.0    311.2   0.062285727   0.63808  -0.11478   0.11554   0.78202
  36   32521.7    307.5   0.000561000   0.00568   0.05542   0.04357   0.02663
  37   32557.9    307.1   0.011725780   0.11857  -0.12286  -0.13597   0.29152
  38   32701.6    305.8   0.005299168   0.05335  -0.18545  -0.11696  -0.07264
  39   32969.9    303.3   0.008743017   0.08730  -0.11050   0.01717  -0.27349
  40   33112.6    302.0   0.060637082   0.60287  -0.32623   0.09043   0.69876
  41   33510.1    298.4   0.079410460   0.78015  -0.16592   0.10206   0.86151
  42   33991.7    294.2   0.052801843   0.51139  -0.12689  -0.21471   0.67022
  43   34177.0    292.6   0.306872465   2.95597   0.32475  -0.38765  -1.64324
  44   34406.0    290.6   0.271190405   2.59487  -0.38357  -1.11715   1.09532
  45   34631.7    288.8   0.008014052   0.07618   0.16539   0.21309   0.05851
  46   34973.3    285.9   0.063057384   0.59357  -0.18743  -0.06531   0.74443
  47   35106.8    284.8   0.329220390   3.08725  -0.53036  -0.26157   1.65455
  48   35186.2    284.2   0.045023574   0.42125  -0.25017   0.56877   0.18752
  49   35494.5    281.7   0.026233860   0.24332   0.16130   0.37020  -0.28330
  50   35989.9    277.9   0.021586334   0.19746  -0.00712  -0.39257  -0.20809
  51   36217.0    276.1   0.075450374   0.68584  -0.41992  -0.68461   0.20206
  52   36346.0    275.1   0.012587461   0.11401  -0.06346   0.29440   0.15269
  53   36401.6    274.7   0.111218383   1.00585  -0.02539  -0.02828   1.00220
  54   36526.4    273.8   0.016035451   0.14453   0.13073  -0.09734  -0.34346
  55   36595.7    273.3   0.597792858   5.37770   0.74005   0.62698  -2.10640
  56   36758.7    272.0   0.082513685   0.73899  -0.21494   0.61629   0.55944
  57   36825.2    271.6   0.032933985   0.29443  -0.23152   0.48148   0.09488
  58   37071.0    269.8   0.093931053   0.83416  -0.42868  -0.23778   0.77062
  59   37609.6    265.9   0.068842967   0.60261   0.05351  -0.27046  -0.72567
  60   37714.1    265.2   0.213894989   1.86712  -0.31129   0.46314   1.24729
  61   37938.4    263.6   0.055854887   0.48468   0.08340  -0.15422  -0.67375
  62   38026.6    263.0   0.030509296   0.26413   0.19263   0.42391   0.21754
  63   38087.0    262.6   0.004825089   0.04171  -0.05231   0.09856   0.17105
  64   38392.6    260.5   0.034484115   0.29570   0.24841   0.07803  -0.47739
  65   38518.8    259.6   0.044240753   0.37812  -0.39573  -0.37416  -0.28551
  66   38759.6    258.0   0.018269724   0.15518   0.24365   0.21830  -0.21945
  67   38927.0    256.9   0.053172612   0.44969  -0.39669  -0.37449  -0.38998
  68   39173.9    255.3   0.015511271   0.13035   0.07103   0.28553  -0.20924
  69   39218.8    255.0   0.019394011   0.16280  -0.21270  -0.04520   0.33987
  70   39334.8    254.2   0.037769655   0.31611  -0.27436  -0.38972  -0.29826
  71   39518.2    253.0   0.006550627   0.05457   0.01585   0.18649  -0.13978
  72   39826.9    251.1   0.116822986   0.96567   0.57172   0.60154   0.52627
  73   40117.5    249.3   0.060204405   0.49405   0.14555   0.03065  -0.68697
  74   40219.4    248.6   0.125207446   1.02487  -0.34396  -0.55684  -0.77233

FINAL SINGLE POINT ENERGY     -4840.700410490497

DIPOLE MOMENT
-------------
                                X             Y             Z
Electronic contribution:      7.28174       2.03051      11.14005
Nuclear contribution   :     -7.26016      -0.25807     -12.00434
                        -----------------------------------------
Total Dipole Moment    :      0.02158       1.77244      -0.86430
                        -----------------------------------------
Magnitude (a.u.)       :      1.97206
Magnitude (Debye)      :      5.01257

Rotational constants in cm-1:     0.001334     0.000422     0.000328
Rotational constants in MHz :    39.988883    12.661581     9.847048

                             ****ORCA TERMINATED NORMALLY****
TOTAL RUN TIME: 0 days 0 hours 11 minutes 25 seconds 713 msec
