                         Program Version 4.2.0 -  RELEASE  -
|  1> # ORCA input file
|  2> # SCF done       -202.966029033344          0.000716620635
|  3> ! CAM-B3LYP def2-SVP def2/J RIJCOSX Grid4 TightSCF
|  4> %maxcore 5000
|  5> %tddft
|  6>     Mode sTDDFT
|  7>     Ethresh 5.0
|  8>     maxcore 5000
|  9> end
| 10>
| 11> %pal
| 12>   nprocs 6
| 13>   end
| 14> * xyz 0 1
| 15>    C       20.70190        11.41085        -4.61485
| 16>    C       21.78482        10.72238        -5.09042
| 17>    C       21.71458         9.33406        -5.27924
| 18>    C       20.56306         8.65378        -4.99046
| 19>    C       19.42762         9.33191        -4.50282
| 20>    C       18.22997         8.63611        -4.21914
| 21>    C       17.14542         9.32950        -3.75553
| 22>    C       17.23050        10.73659        -3.53929
| 23>    C       18.37243        11.43358        -3.81160
| 24>    C       19.50051        10.74178        -4.30816
| 25>    C       15.94908        11.22564        -2.99908
| 26>    O       15.62706        12.36377        -2.74578
| 27>    C       15.13402         9.99824        -2.76389
| 28>    C       15.79147         8.89424        -3.43444
| 29>    C       15.18152         7.77795        -3.94349
| 30>    C       13.79487         7.53890        -3.85311
| 31>    N       12.66484         7.33538        -3.84660
| 32>    C       15.85081         6.80052        -4.70728
| 33>    N       16.34999         5.97538        -5.32968
| 34>    C       14.04281        10.05409        -1.95524
| 35>    C       13.38251         8.98864        -1.29457
| 36>    C       12.07917         8.99372        -0.82805
| 37>    C       11.71557         7.79548        -0.21196
| 38>    C       12.76666         6.87418        -0.16550
| 39>    S       14.19868         7.49813        -0.88922
| 40>    C       12.52185         5.57189         0.30559
| 41>    C       11.25958         5.27523         0.82131
| 42>    C       10.26734         6.37779         1.04123
| 43>    O       10.47392         7.53690         0.23594
| 44>    C       11.11122         3.92904         1.11159
| 45>    C       12.25903         3.19197         0.83634
| 46>    S       13.54915         4.18888         0.20885
| 47>    C       12.48135         1.81430         0.95756
| 48>    C       13.70311         1.18768         0.67830
| 49>    C       13.65381        -0.23727         0.81463
| 50>    N       14.72311        -0.99273         0.56910
| 51>    C       15.82403        -0.36582         0.20865
| 52>    C       17.01572        -1.20572        -0.06910
| 53>    O       16.99754        -2.41598         0.01325
| 54>    C       18.22562        -0.46025        -0.45522
| 55>    C       18.27505         0.87183        -0.56199
| 56>    C       17.12623         1.75596        -0.30372
| 57>    O       17.20217         2.96388        -0.39890
| 58>    C       15.87641         1.06021         0.08575
| 59>    N       14.81938         1.81340         0.31584
| 60>    C       12.39384        -0.71153         1.19612
| 61>    S       11.29176         0.62390         1.40315
| 62>    C       12.05491        -2.06566         1.32808
| 63>    C       10.81974        -2.62922         1.61892
| 64>    C       10.84875        -4.01949         1.57789
| 65>    C       12.12352        -4.52243         1.27981
| 66>    S       13.28382        -3.26628         1.02731
| 67>    C       12.30285        -5.91630         1.21875
| 68>    C       11.18402        -6.74941         1.29538
| 69>    C        9.81276        -6.15112         1.39687
| 70>    O        9.78319        -4.79796         1.84852
| 71>    C       11.50144        -8.09251         1.18885
| 72>    C       12.86480        -8.32249         1.03406
| 73>    S       13.76053        -6.80992         1.05811
| 74>    C       13.61503        -9.50313         0.88843
| 75>    C       13.22049       -10.77459         0.56363
| 76>    C       14.14296       -11.89155         0.45817
| 77>    C       15.37597       -11.98904         1.05011
| 78>    C       16.21838       -13.11298         0.92766
| 79>    N       16.94725       -13.99793         0.86372
| 80>    C       15.94433       -11.02062         1.90417
| 81>    N       16.45379       -10.29538         2.63479
| 82>    C       13.48884       -12.94138        -0.31223
| 83>    C       12.14289       -12.54529        -0.55031
| 84>    C       11.27400       -13.32931        -1.25233
| 85>    C       11.72534       -14.56476        -1.76919
| 86>    C       10.87872       -15.41102        -2.51161
| 87>    C       11.34038       -16.59791        -3.01291
| 88>    C       12.66834       -16.99145        -2.79127
| 89>    C       13.51594       -16.19318        -2.07230
| 90>    C       13.07402       -14.96389        -1.54289
| 91>    C       13.94810       -14.13421        -0.80277
| 92>    C       11.90371       -11.21895         0.04787
| 93>    O       10.83983       -10.63319         0.07233
| 94>    H       20.75062        12.47988        -4.46756
| 95>    H       22.70119        11.24361        -5.32382
| 96>    H       22.57800         8.80609        -5.65557
| 97>    H       20.50235         7.58541        -5.13679
| 98>    H       18.20119         7.56746        -4.36466
| 99>    H       18.41598        12.50072        -3.65200
|100>    H       13.66849        11.05053        -1.74074
|101>    H       11.40226         9.81402        -0.97703
|102>    H       10.29986         6.68961         2.09945
|103>    H        9.25073         6.04048         0.81748
|104>    H       10.21783         3.47925         1.50643
|105>    H       19.09486        -1.07299        -0.65292
|106>    H       19.18595         1.37948        -0.84946
|107>    H        9.94227        -2.04955         1.83779
|108>    H        9.19510        -6.71114         2.10509
|109>    H        9.32470        -6.19549         0.40874
|110>    H       10.78177        -8.88922         1.20563
|111>    H       14.68264        -9.34934         1.00124
|112>    H       10.25598       -13.00861        -1.41728
|113>    H        9.85703       -15.10261        -2.67939
|114>    H       10.68517       -17.23935        -3.58323
|115>    H       13.01701       -17.93078        -3.19373
|116>    H       14.53913       -16.49225        -1.89794
|117>    H       14.96532       -14.45996        -0.65347
|118> *
|119>
|120>                          ****END OF INPUT****

CARTESIAN COORDINATES (ANGSTROEM)
---------------------------------
  C     20.701900   11.410850   -4.614850
  C     21.784820   10.722380   -5.090420
  C     21.714580    9.334060   -5.279240
  C     20.563060    8.653780   -4.990460
  C     19.427620    9.331910   -4.502820
  C     18.229970    8.636110   -4.219140
  C     17.145420    9.329500   -3.755530
  C     17.230500   10.736590   -3.539290
  C     18.372430   11.433580   -3.811600
  C     19.500510   10.741780   -4.308160
  C     15.949080   11.225640   -2.999080
  O     15.627060   12.363770   -2.745780
  C     15.134020    9.998240   -2.763890
  C     15.791470    8.894240   -3.434440
  C     15.181520    7.777950   -3.943490
  C     13.794870    7.538900   -3.853110
  N     12.664840    7.335380   -3.846600
  C     15.850810    6.800520   -4.707280
  N     16.349990    5.975380   -5.329680
  C     14.042810   10.054090   -1.955240
  C     13.382510    8.988640   -1.294570
  C     12.079170    8.993720   -0.828050
  C     11.715570    7.795480   -0.211960
  C     12.766660    6.874180   -0.165500
  S     14.198680    7.498130   -0.889220
  C     12.521850    5.571890    0.305590
  C     11.259580    5.275230    0.821310
  C     10.267340    6.377790    1.041230
  O     10.473920    7.536900    0.235940
  C     11.111220    3.929040    1.111590
  C     12.259030    3.191970    0.836340
  S     13.549150    4.188880    0.208850
  C     12.481350    1.814300    0.957560
  C     13.703110    1.187680    0.678300
  C     13.653810   -0.237270    0.814630
  N     14.723110   -0.992730    0.569100
  C     15.824030   -0.365820    0.208650
  C     17.015720   -1.205720   -0.069100
  O     16.997540   -2.415980    0.013250
  C     18.225620   -0.460250   -0.455220
  C     18.275050    0.871830   -0.561990
  C     17.126230    1.755960   -0.303720
  O     17.202170    2.963880   -0.398900
  C     15.876410    1.060210    0.085750
  N     14.819380    1.813400    0.315840
  C     12.393840   -0.711530    1.196120
  S     11.291760    0.623900    1.403150
  C     12.054910   -2.065660    1.328080
  C     10.819740   -2.629220    1.618920
  C     10.848750   -4.019490    1.577890
  C     12.123520   -4.522430    1.279810
  S     13.283820   -3.266280    1.027310
  C     12.302850   -5.916300    1.218750
  C     11.184020   -6.749410    1.295380
  C      9.812760   -6.151120    1.396870
  O      9.783190   -4.797960    1.848520
  C     11.501440   -8.092510    1.188850
  C     12.864800   -8.322490    1.034060
  S     13.760530   -6.809920    1.058110
  C     13.615030   -9.503130    0.888430
  C     13.220490  -10.774590    0.563630
  C     14.142960  -11.891550    0.458170
  C     15.375970  -11.989040    1.050110
  C     16.218380  -13.112980    0.927660
  N     16.947250  -13.997930    0.863720
  C     15.944330  -11.020620    1.904170
  N     16.453790  -10.295380    2.634790
  C     13.488840  -12.941380   -0.312230
  C     12.142890  -12.545290   -0.550310
  C     11.274000  -13.329310   -1.252330
  C     11.725340  -14.564760   -1.769190
  C     10.878720  -15.411020   -2.511610
  C     11.340380  -16.597910   -3.012910
  C     12.668340  -16.991450   -2.791270
  C     13.515940  -16.193180   -2.072300
  C     13.074020  -14.963890   -1.542890
  C     13.948100  -14.134210   -0.802770
  C     11.903710  -11.218950    0.047870
  O     10.839830  -10.633190    0.072330
  H     20.750620   12.479880   -4.467560
  H     22.701190   11.243610   -5.323820
  H     22.578000    8.806090   -5.655570
  H     20.502350    7.585410   -5.136790
  H     18.201190    7.567460   -4.364660
  H     18.415980   12.500720   -3.652000
  H     13.668490   11.050530   -1.740740
  H     11.402260    9.814020   -0.977030
  H     10.299860    6.689610    2.099450
  H      9.250730    6.040480    0.817480
  H     10.217830    3.479250    1.506430
  H     19.094860   -1.072990   -0.652920
  H     19.185950    1.379480   -0.849460
  H      9.942270   -2.049550    1.837790
  H      9.195100   -6.711140    2.105090
  H      9.324700   -6.195490    0.408740
  H     10.781770   -8.889220    1.205630
  H     14.682640   -9.349340    1.001240
  H     10.255980  -13.008610   -1.417280
  H      9.857030  -15.102610   -2.679390
  H     10.685170  -17.239350   -3.583230
  H     13.017010  -17.930780   -3.193730
  H     14.539130  -16.492250   -1.897940
  H     14.965320  -14.459960   -0.653470

 Total Charge           Charge          ....    0
 Multiplicity           Mult            ....    1
 Number of Electrons    NEL             ....  566
 Basis Dimension        Dim             .... 1246

ORBITAL ENERGIES
----------------

  NO   OCC          E(Eh)            E(eV)
   0   2.0000     -89.001352     -2421.8499
   1   2.0000     -88.971446     -2421.0361
   2   2.0000     -88.970699     -2421.0158
   3   2.0000     -88.969291     -2420.9775
   4   2.0000     -88.967411     -2420.9263
   5   2.0000     -19.263328      -524.1818
   6   2.0000     -19.261530      -524.1329
   7   2.0000     -19.228365      -523.2304
   8   2.0000     -19.227761      -523.2140
   9   2.0000     -19.210450      -522.7429
  10   2.0000     -19.209654      -522.7212
  11   2.0000     -14.455291      -393.3485
  12   2.0000     -14.453833      -393.3088
  13   2.0000     -14.410954      -392.1420
  14   2.0000     -14.408684      -392.0802
  15   2.0000     -14.404643      -391.9703
  16   2.0000     -14.404223      -391.9588
  17   2.0000     -10.377978      -282.3991
  18   2.0000     -10.377706      -282.3917
  19   2.0000     -10.362264      -281.9715
  20   2.0000     -10.361235      -281.9435
  21   2.0000     -10.350437      -281.6497
  22   2.0000     -10.349894      -281.6349
  23   2.0000     -10.349200      -281.6160
  24   2.0000     -10.346188      -281.5341
  25   2.0000     -10.344758      -281.4952
  26   2.0000     -10.344641      -281.4920
  27   2.0000     -10.338949      -281.3371
  28   2.0000     -10.338548      -281.3262
  29   2.0000     -10.336999      -281.2841
  30   2.0000     -10.335310      -281.2381
  31   2.0000     -10.334721      -281.2221
  32   2.0000     -10.334504      -281.2161
  33   2.0000     -10.330284      -281.1013
  34   2.0000     -10.329676      -281.0848
  35   2.0000     -10.328144      -281.0431
  36   2.0000     -10.327134      -281.0156
  37   2.0000     -10.324821      -280.9527
  38   2.0000     -10.319713      -280.8137
  39   2.0000     -10.318277      -280.7746
  40   2.0000     -10.317878      -280.7637
  41   2.0000     -10.316829      -280.7352
  42   2.0000     -10.315901      -280.7099
  43   2.0000     -10.313488      -280.6443
  44   2.0000     -10.310981      -280.5761
  45   2.0000     -10.310804      -280.5712
  46   2.0000     -10.310364      -280.5593
  47   2.0000     -10.309661      -280.5401
  48   2.0000     -10.307996      -280.4948
  49   2.0000     -10.307719      -280.4873
  50   2.0000     -10.305971      -280.4397
  51   2.0000     -10.299909      -280.2748
  52   2.0000     -10.298199      -280.2282
  53   2.0000     -10.296866      -280.1920
  54   2.0000     -10.295000      -280.1412
  55   2.0000     -10.294820      -280.1363
  56   2.0000     -10.294505      -280.1277
  57   2.0000     -10.294281      -280.1216
  58   2.0000     -10.293913      -280.1116
  59   2.0000     -10.293742      -280.1070
  60   2.0000     -10.293091      -280.0892
  61   2.0000     -10.290836      -280.0279
  62   2.0000     -10.290807      -280.0271
  63   2.0000     -10.290432      -280.0169
  64   2.0000     -10.289587      -279.9939
  65   2.0000     -10.289190      -279.9831
  66   2.0000     -10.288999      -279.9779
  67   2.0000     -10.288755      -279.9713
  68   2.0000     -10.287314      -279.9320
  69   2.0000     -10.286262      -279.9034
  70   2.0000     -10.283873      -279.8384
  71   2.0000     -10.283450      -279.8269
  72   2.0000     -10.283215      -279.8205
  73   2.0000     -10.282607      -279.8040
  74   2.0000     -10.280984      -279.7598
  75   2.0000     -10.280734      -279.7530
  76   2.0000     -10.280181      -279.7380
  77   2.0000     -10.279789      -279.7273
  78   2.0000     -10.279222      -279.7119
  79   2.0000      -8.095509      -220.2900
  80   2.0000      -8.066222      -219.4931
  81   2.0000      -8.064897      -219.4570
  82   2.0000      -8.064852      -219.4558
  83   2.0000      -8.061418      -219.3623
  84   2.0000      -6.064658      -165.0277
  85   2.0000      -6.060603      -164.9174
  86   2.0000      -6.058024      -164.8472
  87   2.0000      -6.035655      -164.2385
  88   2.0000      -6.034334      -164.2026
  89   2.0000      -6.034082      -164.1957
  90   2.0000      -6.031586      -164.1278
  91   2.0000      -6.031018      -164.1124
  92   2.0000      -6.030066      -164.0864
  93   2.0000      -6.029944      -164.0831
  94   2.0000      -6.028025      -164.0309
  95   2.0000      -6.027013      -164.0034
  96   2.0000      -6.026750      -163.9962
  97   2.0000      -6.026698      -163.9948
  98   2.0000      -6.023053      -163.8956
  99   2.0000      -1.171105       -31.8674
 100   2.0000      -1.168975       -31.8094
 101   2.0000      -1.145491       -31.1704
 102   2.0000      -1.140547       -31.0359
 103   2.0000      -1.125555       -30.6279
 104   2.0000      -1.124103       -30.5884
 105   2.0000      -1.105687       -30.0873
 106   2.0000      -1.035185       -28.1688
 107   2.0000      -1.017495       -27.6874
 108   2.0000      -1.015067       -27.6214
 109   2.0000      -1.008828       -27.4516
 110   2.0000      -1.005466       -27.3601
 111   2.0000      -1.001268       -27.2459
 112   2.0000      -0.994126       -27.0515
 113   2.0000      -0.992324       -27.0025
 114   2.0000      -0.989703       -26.9312
 115   2.0000      -0.986586       -26.8464
 116   2.0000      -0.983323       -26.7576
 117   2.0000      -0.981302       -26.7026
 118   2.0000      -0.967646       -26.3310
 119   2.0000      -0.963631       -26.2217
 120   2.0000      -0.941307       -25.6143
 121   2.0000      -0.922208       -25.0945
 122   2.0000      -0.919263       -25.0144
 123   2.0000      -0.910554       -24.7774
 124   2.0000      -0.903477       -24.5849
 125   2.0000      -0.899801       -24.4848
 126   2.0000      -0.882346       -24.0099
 127   2.0000      -0.881345       -23.9826
 128   2.0000      -0.879428       -23.9305
 129   2.0000      -0.877833       -23.8871
 130   2.0000      -0.876610       -23.8538
 131   2.0000      -0.873467       -23.7683
 132   2.0000      -0.860651       -23.4195
 133   2.0000      -0.857123       -23.3235
 134   2.0000      -0.852562       -23.1994
 135   2.0000      -0.846066       -23.0226
 136   2.0000      -0.834136       -22.6980
 137   2.0000      -0.825201       -22.4549
 138   2.0000      -0.821205       -22.3461
 139   2.0000      -0.819452       -22.2984
 140   2.0000      -0.813446       -22.1350
 141   2.0000      -0.795718       -21.6526
 142   2.0000      -0.794471       -21.6187
 143   2.0000      -0.792189       -21.5566
 144   2.0000      -0.790490       -21.5103
 145   2.0000      -0.773357       -21.0441
 146   2.0000      -0.757516       -20.6131
 147   2.0000      -0.754443       -20.5294
 148   2.0000      -0.752930       -20.4883
 149   2.0000      -0.738665       -20.1001
 150   2.0000      -0.732470       -19.9315
 151   2.0000      -0.710830       -19.3427
 152   2.0000      -0.701807       -19.0971
 153   2.0000      -0.699059       -19.0224
 154   2.0000      -0.698517       -19.0076
 155   2.0000      -0.697902       -18.9909
 156   2.0000      -0.693881       -18.8815
 157   2.0000      -0.689943       -18.7743
 158   2.0000      -0.685078       -18.6419
 159   2.0000      -0.682065       -18.5599
 160   2.0000      -0.672278       -18.2936
 161   2.0000      -0.669959       -18.2305
 162   2.0000      -0.667602       -18.1664
 163   2.0000      -0.664682       -18.0869
 164   2.0000      -0.656484       -17.8638
 165   2.0000      -0.648397       -17.6438
 166   2.0000      -0.644411       -17.5353
 167   2.0000      -0.641085       -17.4448
 168   2.0000      -0.628582       -17.1046
 169   2.0000      -0.626055       -17.0358
 170   2.0000      -0.621285       -16.9060
 171   2.0000      -0.618874       -16.8404
 172   2.0000      -0.607222       -16.5234
 173   2.0000      -0.606292       -16.4980
 174   2.0000      -0.604290       -16.4436
 175   2.0000      -0.599642       -16.3171
 176   2.0000      -0.599442       -16.3117
 177   2.0000      -0.593976       -16.1629
 178   2.0000      -0.587839       -15.9959
 179   2.0000      -0.583688       -15.8830
 180   2.0000      -0.580414       -15.7939
 181   2.0000      -0.577132       -15.7046
 182   2.0000      -0.572292       -15.5729
 183   2.0000      -0.570039       -15.5116
 184   2.0000      -0.566641       -15.4191
 185   2.0000      -0.562882       -15.3168
 186   2.0000      -0.561243       -15.2722
 187   2.0000      -0.556436       -15.1414
 188   2.0000      -0.553041       -15.0490
 189   2.0000      -0.549379       -14.9494
 190   2.0000      -0.544825       -14.8254
 191   2.0000      -0.542784       -14.7699
 192   2.0000      -0.540262       -14.7013
 193   2.0000      -0.538833       -14.6624
 194   2.0000      -0.536204       -14.5909
 195   2.0000      -0.533697       -14.5226
 196   2.0000      -0.531027       -14.4500
 197   2.0000      -0.528925       -14.3928
 198   2.0000      -0.528487       -14.3809
 199   2.0000      -0.526102       -14.3160
 200   2.0000      -0.525842       -14.3089
 201   2.0000      -0.523863       -14.2550
 202   2.0000      -0.516187       -14.0462
 203   2.0000      -0.513595       -13.9756
 204   2.0000      -0.512708       -13.9515
 205   2.0000      -0.511186       -13.9101
 206   2.0000      -0.509428       -13.8623
 207   2.0000      -0.508422       -13.8349
 208   2.0000      -0.507776       -13.8173
 209   2.0000      -0.506012       -13.7693
 210   2.0000      -0.503726       -13.7071
 211   2.0000      -0.501791       -13.6544
 212   2.0000      -0.500879       -13.6296
 213   2.0000      -0.496304       -13.5051
 214   2.0000      -0.494962       -13.4686
 215   2.0000      -0.493659       -13.4332
 216   2.0000      -0.490876       -13.3574
 217   2.0000      -0.490202       -13.3391
 218   2.0000      -0.488851       -13.3023
 219   2.0000      -0.488352       -13.2887
 220   2.0000      -0.487319       -13.2606
 221   2.0000      -0.483145       -13.1471
 222   2.0000      -0.480591       -13.0775
 223   2.0000      -0.479401       -13.0452
 224   2.0000      -0.476973       -12.9791
 225   2.0000      -0.470890       -12.8136
 226   2.0000      -0.468096       -12.7375
 227   2.0000      -0.463266       -12.6061
 228   2.0000      -0.461744       -12.5647
 229   2.0000      -0.457845       -12.4586
 230   2.0000      -0.457605       -12.4521
 231   2.0000      -0.448294       -12.1987
 232   2.0000      -0.447821       -12.1858
 233   2.0000      -0.445762       -12.1298
 234   2.0000      -0.443402       -12.0656
 235   2.0000      -0.440029       -11.9738
 236   2.0000      -0.439688       -11.9645
 237   2.0000      -0.438212       -11.9244
 238   2.0000      -0.436883       -11.8882
 239   2.0000      -0.436567       -11.8796
 240   2.0000      -0.434674       -11.8281
 241   2.0000      -0.434454       -11.8221
 242   2.0000      -0.432296       -11.7634
 243   2.0000      -0.428743       -11.6667
 244   2.0000      -0.425663       -11.5829
 245   2.0000      -0.425639       -11.5822
 246   2.0000      -0.424540       -11.5523
 247   2.0000      -0.423512       -11.5243
 248   2.0000      -0.421175       -11.4607
 249   2.0000      -0.417564       -11.3625
 250   2.0000      -0.416032       -11.3208
 251   2.0000      -0.412836       -11.2338
 252   2.0000      -0.410487       -11.1699
 253   2.0000      -0.407232       -11.0813
 254   2.0000      -0.405269       -11.0279
 255   2.0000      -0.402019       -10.9395
 256   2.0000      -0.397860       -10.8263
 257   2.0000      -0.394415       -10.7326
 258   2.0000      -0.387383       -10.5412
 259   2.0000      -0.382654       -10.4125
 260   2.0000      -0.376601       -10.2478
 261   2.0000      -0.374172       -10.1817
 262   2.0000      -0.369835       -10.0637
 263   2.0000      -0.365401        -9.9431
 264   2.0000      -0.365042        -9.9333
 265   2.0000      -0.352977        -9.6050
 266   2.0000      -0.348821        -9.4919
 267   2.0000      -0.347571        -9.4579
 268   2.0000      -0.337491        -9.1836
 269   2.0000      -0.336867        -9.1666
 270   2.0000      -0.335534        -9.1303
 271   2.0000      -0.333068        -9.0633
 272   2.0000      -0.329151        -8.9567
 273   2.0000      -0.327444        -8.9102
 274   2.0000      -0.315630        -8.5887
 275   2.0000      -0.312053        -8.4914
 276   2.0000      -0.311827        -8.4853
 277   2.0000      -0.307489        -8.3672
 278   2.0000      -0.296551        -8.0696
 279   2.0000      -0.290407        -7.9024
 280   2.0000      -0.285259        -7.7623
 281   2.0000      -0.256703        -6.9852
 282   2.0000      -0.225638        -6.1399
 283   0.0000      -0.114558        -3.1173
 284   0.0000      -0.095222        -2.5911
 285   0.0000      -0.085560        -2.3282
 286   0.0000      -0.080114        -2.1800
 287   0.0000      -0.052120        -1.4182

MULLIKEN ATOMIC CHARGES
-----------------------
   0 C :   -0.018240
   1 C :    0.036162
   2 C :    0.036378
   3 C :   -0.019300
   4 C :    0.095670
   5 C :   -0.078963
   6 C :    0.032841
   7 C :    0.015017
   8 C :   -0.084827
   9 C :    0.096910
  10 C :    0.139135
  11 O :   -0.143877
  12 C :   -0.138153
  13 C :    0.247505
  14 C :   -0.319134
  15 C :   -0.202151
  16 N :    0.171231
  17 C :   -0.176666
  18 N :    0.153698
  19 C :    0.060257
  20 C :   -0.094091
  21 C :    0.009571
  22 C :    0.216656
  23 C :   -0.163373
  24 S :    0.179191
  25 C :   -0.036102
  26 C :   -0.115966
  27 C :    0.358165
  28 O :   -0.295237
  29 C :   -0.057380
  30 C :   -0.080775
  31 S :    0.211687
  32 C :   -0.094369
  33 C :    0.019702
  34 C :    0.030914
  35 N :    0.041114
  36 C :   -0.109538
  37 C :    0.137608
  38 O :   -0.103899
  39 C :   -0.014206
  40 C :   -0.016670
  41 C :    0.139927
  42 O :   -0.108642
  43 C :   -0.113977
  44 N :    0.037424
  45 C :   -0.115359
  46 S :    0.213002
  47 C :   -0.053876
  48 C :   -0.094132
  49 C :    0.232889
  50 C :   -0.169208
  51 S :    0.209810
  52 C :   -0.035888
  53 C :   -0.148358
  54 C :    0.353913
  55 O :   -0.300113
  56 C :    0.015172
  57 C :   -0.109582
  58 S :    0.180499
  59 C :    0.045964
  60 C :   -0.102848
  61 C :    0.293517
  62 C :   -0.348808
  63 C :   -0.183165
  64 N :    0.142804
  65 C :   -0.207360
  66 N :    0.155033
  67 C :    0.047370
  68 C :    0.002813
  69 C :   -0.087102
  70 C :    0.099974
  71 C :   -0.017613
  72 C :    0.034345
  73 C :    0.035585
  74 C :   -0.018304
  75 C :    0.094158
  76 C :   -0.083638
  77 C :    0.156472
  78 O :   -0.168415
  79 H :   -0.017367
  80 H :   -0.006770
  81 H :   -0.006210
  82 H :   -0.011001
  83 H :   -0.003536
  84 H :   -0.011999
  85 H :    0.027392
  86 H :   -0.004950
  87 H :    0.031923
  88 H :    0.026061
  89 H :   -0.018486
  90 H :    0.019026
  91 H :    0.017672
  92 H :   -0.016798
  93 H :    0.033310
  94 H :    0.032904
  95 H :    0.010463
  96 H :    0.019275
  97 H :   -0.017848
  98 H :   -0.020523
  99 H :   -0.006754
 100 H :   -0.007752
 101 H :   -0.010886
 102 H :   -0.007927
Sum of atomic charges:   -0.0000000

LOEWDIN ATOMIC CHARGES
----------------------
   0 C :   -0.009600
   1 C :   -0.014283
   2 C :   -0.013724
   3 C :   -0.006870
   4 C :   -0.005138
   5 C :    0.015606
   6 C :   -0.021590
   7 C :   -0.056810
   8 C :    0.031489
   9 C :   -0.009518
  10 C :    0.083005
  11 O :   -0.144967
  12 C :   -0.094375
  13 C :    0.059739
  14 C :   -0.139600
  15 C :   -0.033787
  16 N :   -0.049965
  17 C :   -0.018379
  18 N :   -0.053273
  19 C :    0.048663
  20 C :   -0.170329
  21 C :   -0.028955
  22 C :    0.033853
  23 C :   -0.219885
  24 S :    0.475520
  25 C :   -0.186246
  26 C :   -0.074248
  27 C :    0.108641
  28 O :   -0.090518
  29 C :   -0.047594
  30 C :   -0.181885
  31 S :    0.504735
  32 C :   -0.183204
  33 C :   -0.055589
  34 C :   -0.050120
  35 N :   -0.007649
  36 C :   -0.034784
  37 C :    0.055619
  38 O :   -0.099300
  39 C :   -0.011829
  40 C :   -0.011408
  41 C :    0.055550
  42 O :   -0.103954
  43 C :   -0.040913
  44 N :   -0.005684
  45 C :   -0.196224
  46 S :    0.500756
  47 C :   -0.165487
  48 C :   -0.076735
  49 C :    0.041111
  50 C :   -0.251113
  51 S :    0.494261
  52 C :   -0.160524
  53 C :   -0.086921
  54 C :    0.108780
  55 O :   -0.094271
  56 C :   -0.001120
  57 C :   -0.181092
  58 S :    0.465889
  59 C :    0.044458
  60 C :   -0.104225
  61 C :    0.076170
  62 C :   -0.148361
  63 C :   -0.017709
  64 N :   -0.061087
  65 C :   -0.027283
  66 N :   -0.056537
  67 C :   -0.024768
  68 C :   -0.053074
  69 C :    0.027610
  70 C :   -0.009412
  71 C :   -0.011090
  72 C :   -0.015056
  73 C :   -0.015598
  74 C :   -0.006161
  75 C :   -0.007207
  76 C :    0.017222
  77 C :    0.086018
  78 O :   -0.153065
  79 H :    0.031669
  80 H :    0.032181
  81 H :    0.032583
  82 H :    0.034081
  83 H :    0.039061
  84 H :    0.039077
  85 H :    0.051676
  86 H :    0.042080
  87 H :    0.026236
  88 H :    0.034004
  89 H :    0.028851
  90 H :    0.046455
  91 H :    0.045992
  92 H :    0.032387
  93 H :    0.037053
  94 H :    0.027551
  95 H :    0.036169
  96 H :    0.044079
  97 H :    0.036883
  98 H :    0.030664
  99 H :    0.031775
 100 H :    0.032070
 101 H :    0.034136
 102 H :    0.038684

  Mayer bond orders larger than 0.100000
B(  0-C ,  1-C ) :   1.4912 B(  0-C ,  9-C ) :   1.2429 B(  0-C , 79-H ) :   0.9978
B(  1-C ,  2-C ) :   1.2605 B(  1-C , 80-H ) :   0.9881 B(  2-C ,  3-C ) :   1.4894
B(  2-C , 81-H ) :   0.9882 B(  3-C ,  4-C ) :   1.2419 B(  3-C , 82-H ) :   0.9976
B(  4-C ,  5-C ) :   1.2025 B(  4-C ,  9-C ) :   1.2573 B(  5-C ,  6-C ) :   1.4617
B(  5-C , 83-H ) :   0.9940 B(  6-C ,  7-C ) :   1.2155 B(  6-C , 13-C ) :   1.0010
B(  7-C ,  8-C ) :   1.4736 B(  7-C , 10-C ) :   0.9214 B(  8-C ,  9-C ) :   1.1857
B(  8-C , 84-H ) :   1.0160 B( 10-C , 11-O ) :   2.2737 B( 10-C , 12-C ) :   0.9366
B( 12-C , 13-C ) :   1.0318 B( 12-C , 19-C ) :   1.6510 B( 13-C , 14-C ) :   1.6595
B( 14-C , 15-C ) :   1.1529 B( 14-C , 17-C ) :   1.1390 B( 15-C , 16-N ) :   3.0221
B( 17-C , 18-N ) :   2.9923 B( 19-C , 20-C ) :   1.1284 B( 19-C , 85-H ) :   0.9489
B( 20-C , 21-C ) :   1.3934 B( 20-C , 24-S ) :   1.1105 B( 21-C , 22-C ) :   1.2883
B( 21-C , 86-H ) :   1.0124 B( 22-C , 23-C ) :   1.4040 B( 22-C , 28-O ) :   1.1637
B( 23-C , 24-S ) :   1.1011 B( 23-C , 25-C ) :   1.1833 B( 25-C , 26-C ) :   1.4762
B( 25-C , 31-S ) :   1.0989 B( 26-C , 27-C ) :   1.0227 B( 26-C , 29-C ) :   1.3343
B( 27-C , 28-O ) :   0.9441 B( 27-C , 87-H ) :   0.9349 B( 27-C , 88-H ) :   0.9373
B( 29-C , 30-C ) :   1.3898 B( 29-C , 89-H ) :   1.0028 B( 30-C , 31-S ) :   1.1298
B( 30-C , 32-C ) :   1.2536 B( 32-C , 33-C ) :   1.3000 B( 32-C , 45-C ) :   0.1108
B( 32-C , 46-S ) :   1.1523 B( 33-C , 34-C ) :   1.1909 B( 33-C , 44-N ) :   1.4244
B( 34-C , 35-N ) :   1.4146 B( 34-C , 45-C ) :   1.3189 B( 35-N , 36-C ) :   1.7013
B( 36-C , 37-C ) :   0.8959 B( 36-C , 43-C ) :   1.1096 B( 37-C , 38-O ) :   2.2482
B( 37-C , 39-C ) :   1.0235 B( 39-C , 40-C ) :   1.6769 B( 39-C , 90-H ) :   0.9982
B( 40-C , 41-C ) :   1.0226 B( 40-C , 91-H ) :   0.9981 B( 41-C , 42-O ) :   2.2442
B( 41-C , 43-C ) :   0.9003 B( 43-C , 44-N ) :   1.6900 B( 45-C , 46-S ) :   1.1371
B( 45-C , 47-C ) :   1.2486 B( 47-C , 48-C ) :   1.3687 B( 47-C , 51-S ) :   1.1405
B( 48-C , 49-C ) :   1.2988 B( 48-C , 92-H ) :   1.0134 B( 49-C , 50-C ) :   1.4023
B( 49-C , 55-O ) :   1.1665 B( 50-C , 51-S ) :   1.0450 B( 50-C , 52-C ) :   1.1882
B( 52-C , 53-C ) :   1.4440 B( 52-C , 58-S ) :   1.1630 B( 53-C , 54-C ) :   1.0210
B( 53-C , 56-C ) :   1.3420 B( 54-C , 55-O ) :   0.9443 B( 54-C , 93-H ) :   0.9367
B( 54-C , 94-H ) :   0.9350 B( 56-C , 57-C ) :   1.3962 B( 56-C , 95-H ) :   0.9829
B( 57-C , 58-S ) :   1.0741 B( 57-C , 59-C ) :   1.2412 B( 59-C , 60-C ) :   1.5566
B( 59-C , 96-H ) :   0.9262 B( 60-C , 61-C ) :   1.0820 B( 60-C , 77-C ) :   0.9522
B( 61-C , 62-C ) :   1.6261 B( 61-C , 67-C ) :   0.9834 B( 62-C , 63-C ) :   1.1458
B( 62-C , 65-C ) :   1.1372 B( 63-C , 64-N ) :   2.9703 B( 65-C , 66-N ) :   3.0008
B( 67-C , 68-C ) :   1.2171 B( 67-C , 76-C ) :   1.4570 B( 68-C , 69-C ) :   1.4735
B( 68-C , 77-C ) :   0.9511 B( 69-C , 70-C ) :   1.1755 B( 69-C , 97-H ) :   1.0161
B( 70-C , 71-C ) :   1.2450 B( 70-C , 75-C ) :   1.2613 B( 71-C , 72-C ) :   1.4872
B( 71-C , 98-H ) :   0.9975 B( 72-C , 73-C ) :   1.2623 B( 72-C , 99-H ) :   0.9885
B( 73-C , 74-C ) :   1.4869 B( 73-C ,100-H ) :   0.9885 B( 74-C , 75-C ) :   1.2425
B( 74-C ,101-H ) :   0.9972 B( 75-C , 76-C ) :   1.1987 B( 76-C ,102-H ) :   0.9913
B( 77-C , 78-O ) :   2.1662

-----------------------------------------------------------------------------
         ABSORPTION SPECTRUM VIA TRANSITION ELECTRIC DIPOLE MOMENTS
-----------------------------------------------------------------------------
State   Energy  Wavelength   fosc         T2         TX        TY        TZ
        (cm-1)    (nm)                  (au**2)     (au)      (au)      (au)
-----------------------------------------------------------------------------
   0    9211.8   1085.6   1.022237086  36.53274   0.38973   5.96368  -0.90300
   1   14040.1    712.2   0.039101132   0.91684  -0.41950  -0.48865  -0.70858
   2   16350.9    611.6   0.367674177   7.40281  -1.38286  -1.82778   1.46619
   3   17317.9    577.4   0.183198706   3.48259  -0.26115   1.79621   0.43361
   4   18254.8    547.8   0.711171484  12.82545   1.33806  -3.25836  -0.64665
   5   22161.7    451.2   0.017588562   0.26128  -0.02363   0.45211  -0.23731
   6   24217.4    412.9   0.017401006   0.23655   0.04799   0.47250   0.10484
   7   24269.1    412.0   0.092297653   1.25202   0.17121   1.04625  -0.35786
   8   24537.6    407.5   0.191930738   2.57507   0.15411   1.57984   0.23545
   9   25123.2    398.0   0.026199020   0.34331   0.37073   0.29773   0.34238
  10   25433.4    393.2   0.009461404   0.12247  -0.33080  -0.09170   0.06806
  11   25466.1    392.7   0.031224509   0.40365  -0.63092   0.03477   0.06626
  12   25757.7    388.2   0.095757061   1.22388   0.95815   0.54249  -0.10741
  13   26000.8    384.6   0.063087514   0.79879   0.29540   0.71609  -0.44580
  14   26287.0    380.4   0.005046368   0.06320  -0.20438  -0.07316  -0.12680
  15   26881.2    372.0   0.030511203   0.37367  -0.48227  -0.29795   0.22872
  16   27311.6    366.1   0.144429110   1.74094  -0.11551  -1.19997  -0.53634
  17   27743.4    360.4   0.052050626   0.61765  -0.23197   0.66822   0.34251
  18   28189.3    354.7   0.126168505   1.47347   0.11216  -1.14226   0.39514
  19   28618.7    349.4   0.043651331   0.50214  -0.57355   0.13019   0.39526
  20   28957.9    345.3   0.106133698   1.20659  -1.00280  -0.37184   0.25045
  21   29302.9    341.3   0.002986560   0.03355   0.03588  -0.09753  -0.15084
  22   29493.3    339.1   0.046662324   0.52086   0.59699  -0.10736  -0.39107
  23   29516.0    338.8   0.009645249   0.10758  -0.31677  -0.07970  -0.02972
  24   30270.2    330.4   0.011967354   0.13015   0.25405  -0.00934  -0.25598
  25   30408.4    328.9   0.001551345   0.01680  -0.10473  -0.00083   0.07633
  26   30602.0    326.8   0.029371575   0.31597  -0.46120   0.19108   0.25837
  27   31010.8    322.5   0.124399790   1.32063   1.13128   0.13123  -0.15364
  28   31783.4    314.6   0.059666489   0.61802  -0.19238  -0.40860  -0.64347
  29   31932.2    313.2   0.090491739   0.93294  -0.01948  -0.85726  -0.44460
  30   32059.0    311.9   0.042637873   0.43785  -0.51586   0.39755  -0.11700
  31   32627.6    306.5   0.094134537   0.94982   0.41122   0.73422   0.49156
  32   32898.7    304.0   0.160155251   1.60265  -1.12864  -0.51784  -0.24628
  33   33005.7    303.0   0.011940916   0.11910  -0.17635  -0.04397   0.29338
  34   33290.9    300.4   0.372020208   3.67889   1.82371   0.40085  -0.43852
  35   33356.4    299.8   0.239432796   2.36309  -0.58370  -1.34118  -0.47287
  36   33490.1    298.6   0.117226499   1.15235  -0.61117   0.36840   0.80194
  37   33573.0    297.9   0.033513146   0.32863  -0.16279   0.33631   0.43477
  38   33762.0    296.2   0.122321132   1.19275   0.05205   0.75383   0.78853
  39   34052.9    293.7   0.063552603   0.61440   0.64013   0.43568   0.12171
  40   34260.0    291.9   0.064989995   0.62450   0.58912   0.49297   0.18553
  41   34471.6    290.1   0.053762441   0.51344  -0.68094  -0.14212   0.17197
  42   34510.1    289.8   0.092910910   0.88633  -0.77479  -0.45862   0.27514
  43   34545.3    289.5   0.052824539   0.50341   0.63462   0.23083  -0.21768
  44   34761.2    287.7   0.045267737   0.42872   0.11038  -0.47842  -0.43318
  45   34934.6    286.2   0.006610856   0.06230  -0.18973  -0.02349  -0.16047
  46   35089.5    285.0   0.076429775   0.71707   0.77713   0.28737  -0.17481
  47   35225.0    283.9   0.037085414   0.34660   0.35057   0.39866   0.25451
  48   35717.5    280.0   0.010696546   0.09859  -0.29171   0.10112  -0.05717
  49   35909.1    278.5   0.453868613   4.16103   1.99819   0.33328  -0.23915
  50   35991.6    277.8   0.192917423   1.76460   0.26734   1.08135   0.72375
  51   36314.5    275.4   0.216530288   1.96297   1.38065   0.14578  -0.18848
  52   36559.4    273.5   0.136670995   1.23070  -1.03751  -0.05735  -0.38858
  53   36893.5    271.1   0.133778243   1.19374   1.00669   0.07090   0.41869
  54   37111.5    269.5   0.049599776   0.43999  -0.09971  -0.50398  -0.41959
  55   37400.2    267.4   0.005976508   0.05261   0.19102   0.03084   0.12315
  56   37640.6    265.7   0.018870135   0.16504   0.02902  -0.27356  -0.29893
  57   37776.2    264.7   0.038466324   0.33523   0.42697   0.38092   0.08843
  58   38023.4    263.0   0.031520750   0.27291  -0.02497  -0.51707   0.07019
  59   38100.0    262.5   0.004215629   0.03643   0.16759   0.07866  -0.04639
  60   38150.1    262.1   0.032232038   0.27814   0.52165  -0.03362   0.06998
  61   38420.7    260.3   0.016016517   0.13724   0.32499  -0.11468  -0.13590
  62   38733.0    258.2   0.015307317   0.13010   0.08833   0.32136  -0.13795
  63   38824.9    257.6   0.071159668   0.60339  -0.77016   0.01468  -0.10012
  64   38896.4    257.1   0.089849138   0.76047   0.70602   0.49069   0.14569
  65   39176.4    255.3   0.003957678   0.03326  -0.13663  -0.08117  -0.08944
  66   39351.5    254.1   0.001277710   0.01069   0.02861   0.09730   0.02007
  67   39440.3    253.5   0.012636807   0.10548  -0.04742  -0.20110  -0.25058
  68   39607.3    252.5   0.054971366   0.45692   0.64320   0.00693   0.20775
  69   39846.6    251.0   0.014526300   0.12002   0.28202  -0.19582   0.04618
  70   39982.4    250.1   0.015633437   0.12872  -0.33253  -0.09113   0.09921
  71   40012.2    249.9   0.003190948   0.02625  -0.15246  -0.05034   0.02182
  72   40183.6    248.9   0.029131384   0.23866   0.31332  -0.35630  -0.11638
  73   40271.2    248.3   0.219501901   1.79440   1.25939  -0.28630  -0.35547

FINAL SINGLE POINT ENERGY     -5143.194341025671

DIPOLE MOMENT
-------------
                                X             Y             Z
Electronic contribution:     -4.20728      16.39112      17.34993
Nuclear contribution   :      2.85020     -14.90419     -17.42465
                        -----------------------------------------
Total Dipole Moment    :     -1.35709       1.48692      -0.07473
                        -----------------------------------------
Magnitude (a.u.)       :      2.01450
Magnitude (Debye)      :      5.12045

Rotational constants in cm-1:     0.001521     0.000192     0.000179
Rotational constants in MHz :    45.611726     5.746466     5.368123

                             ****ORCA TERMINATED NORMALLY****
TOTAL RUN TIME: 0 days 0 hours 12 minutes 20 seconds 785 msec
