                         Program Version 4.2.0 -  RELEASE  -
|  1> # ORCA input file
|  2> # SCF done       -207.875849653805          0.000856311039
|  3> ! CAM-B3LYP def2-SVP def2/J RIJCOSX Grid4 TightSCF
|  4> %maxcore 5000
|  5> %tddft
|  6>     Mode sTDDFT
|  7>     Ethresh 5.0
|  8>     maxcore 5000
|  9> end
| 10>
| 11> %pal
| 12>   nprocs 6
| 13>   end
| 14> * xyz 0 1
| 15>    C      -11.98021         1.27364        -0.78582
| 16>    C      -13.13250         1.31030        -1.52027
| 17>    F      -13.84613         2.44122        -1.59757
| 18>    C      -13.58446         0.16376        -2.20359
| 19>    F      -14.71735         0.22795        -2.91636
| 20>    C      -12.87728        -1.00439        -2.14284
| 21>    C      -11.68625        -1.07343        -1.39472
| 22>    C      -11.22773         0.08496        -0.70337
| 23>    C      -10.03419         0.03972         0.05439
| 24>    C       -9.32117        -1.12796         0.11948
| 25>    C       -9.78952        -2.27937        -0.57303
| 26>    C      -10.93582        -2.26746        -1.31338
| 27>    C       -8.85849        -3.39572        -0.33529
| 28>    O       -8.95467        -4.52193        -0.79281
| 29>    C       -7.81383        -2.87637         0.55066
| 30>    C       -8.07828        -1.47476         0.80851
| 31>    C       -7.31601        -0.60202         1.54192
| 32>    C       -6.09950        -0.90247         2.19078
| 33>    N       -5.10352        -1.05092         2.74334
| 34>    C       -7.64643         0.75546         1.74013
| 35>    N       -7.85773         1.86588         1.94007
| 36>    C       -6.77422        -3.60615         1.07532
| 37>    C       -6.43704        -4.95171         0.90087
| 38>    C       -5.32520        -5.54079         1.54360
| 39>    C       -5.18524        -6.90494         1.25483
| 40>    S       -3.85064        -7.93783         1.75015
| 41>    C       -3.37838        -7.08828         3.29004
| 42>    C       -2.94232        -5.67106         3.00520
| 43>    S       -4.34357        -4.57092         2.61152
| 44>    C       -6.17298        -7.35816         0.39062
| 45>    S       -7.26114        -6.10989        -0.10922
| 46>    C       -6.42616        -8.69926        -0.05217
| 47>    C       -6.36063        -9.81312         0.80647
| 48>    C       -6.67163       -11.14203         0.35034
| 49>    N       -6.57186       -12.17512         1.20051
| 50>    C       -6.22454       -11.96277         2.44252
| 51>    C       -6.00314       -10.62495         2.91621
| 52>    N       -6.08122        -9.60366         2.10501
| 53>    C       -5.68288       -10.37615         4.27472
| 54>    N       -5.39722       -10.17356         5.36515
| 55>    C       -6.09148       -13.05981         3.32989
| 56>    N       -5.97584       -13.91416         4.08357
| 57>    C       -7.08564       -11.41105        -0.97552
| 58>    C       -7.23352       -10.28438        -1.80770
| 59>    C       -6.90273        -8.95407        -1.34871
| 60>    N       -7.14129        -8.03302        -2.28578
| 61>    S       -7.75391        -8.74760        -3.57518
| 62>    N       -7.73992       -10.25760        -3.04378
| 63>    C       -7.43660       -12.74357        -1.36206
| 64>    C       -7.34119       -13.36233        -2.60428
| 65>    C       -7.90240       -14.65880        -2.61081
| 66>    S       -8.17453       -15.63757        -4.03438
| 67>    C       -6.81958       -15.06583        -5.10982
| 68>    C       -6.90276       -13.57850        -5.34791
| 69>    S       -6.39372       -12.62627        -3.87765
| 70>    C       -8.40751       -15.04258        -1.36708
| 71>    S       -8.16332       -13.78533        -0.18690
| 72>    C       -9.08286       -16.19502        -0.91171
| 73>    C       -9.17707       -17.48461        -1.35183
| 74>    C      -10.31080       -18.30375        -0.82634
| 75>    O      -11.05535       -18.00714         0.07773
| 76>    C      -10.34949       -19.50877        -1.67716
| 77>    C      -11.26293       -20.52227        -1.68797
| 78>    C      -11.11284       -21.57114        -2.62343
| 79>    C      -10.01345       -21.54667        -3.52980
| 80>    C       -9.87467       -22.59136        -4.46520
| 81>    C      -10.78312       -23.61215        -4.49855
| 82>    C      -11.86892       -23.63576        -3.60089
| 83>    C      -12.03109       -22.63719        -2.68159
| 84>    F      -12.74524       -24.64791        -3.65745
| 85>    F      -10.64920       -24.60305        -5.39013
| 86>    C       -9.07676       -20.48773        -3.48648
| 87>    C       -9.24211       -19.48330        -2.57151
| 88>    C       -8.44395       -18.29295        -2.28809
| 89>    C       -7.15306       -18.08376        -2.70708
| 90>    C       -6.32378       -17.06448        -2.20218
| 91>    N       -5.60997       -16.25053        -1.81858
| 92>    C       -6.48080       -18.89920        -3.63887
| 93>    N       -5.89159       -19.49724        -4.42177
| 94>    H      -11.64879         2.16078        -0.26906
| 95>    H      -13.23657        -1.87376        -2.67094
| 96>    H       -9.71827         0.93396         0.56619
| 97>    H      -11.26607        -3.15706        -1.82779
| 98>    H       -6.10411        -3.07948         1.74522
| 99>    H       -2.55172        -7.67212         3.69408
|100>    H       -4.22154        -7.13017         3.97977
|101>    H       -2.23689        -5.63657         2.17439
|102>    H       -2.48784        -5.21378         3.88468
|103>    H       -6.94799       -15.62310        -6.03785
|104>    H       -5.87611       -15.34687        -4.63984
|105>    H       -7.91132       -13.27263        -5.62727
|106>    H       -6.20189       -13.27023        -6.12388
|107>    H       -9.69422       -16.01015        -0.02984
|108>    H      -12.09028       -20.52370        -0.99481
|109>    H       -9.04791       -22.59085        -5.15828
|110>    H      -12.86757       -22.66922        -2.00116
|111>    H       -8.25711       -20.49305        -4.18717
|112> *
|113>
|114>                          ****END OF INPUT****

CARTESIAN COORDINATES (ANGSTROEM)
---------------------------------
  C    -11.980210    1.273640   -0.785820
  C    -13.132500    1.310300   -1.520270
  F    -13.846130    2.441220   -1.597570
  C    -13.584460    0.163760   -2.203590
  F    -14.717350    0.227950   -2.916360
  C    -12.877280   -1.004390   -2.142840
  C    -11.686250   -1.073430   -1.394720
  C    -11.227730    0.084960   -0.703370
  C    -10.034190    0.039720    0.054390
  C     -9.321170   -1.127960    0.119480
  C     -9.789520   -2.279370   -0.573030
  C    -10.935820   -2.267460   -1.313380
  C     -8.858490   -3.395720   -0.335290
  O     -8.954670   -4.521930   -0.792810
  C     -7.813830   -2.876370    0.550660
  C     -8.078280   -1.474760    0.808510
  C     -7.316010   -0.602020    1.541920
  C     -6.099500   -0.902470    2.190780
  N     -5.103520   -1.050920    2.743340
  C     -7.646430    0.755460    1.740130
  N     -7.857730    1.865880    1.940070
  C     -6.774220   -3.606150    1.075320
  C     -6.437040   -4.951710    0.900870
  C     -5.325200   -5.540790    1.543600
  C     -5.185240   -6.904940    1.254830
  S     -3.850640   -7.937830    1.750150
  C     -3.378380   -7.088280    3.290040
  C     -2.942320   -5.671060    3.005200
  S     -4.343570   -4.570920    2.611520
  C     -6.172980   -7.358160    0.390620
  S     -7.261140   -6.109890   -0.109220
  C     -6.426160   -8.699260   -0.052170
  C     -6.360630   -9.813120    0.806470
  C     -6.671630  -11.142030    0.350340
  N     -6.571860  -12.175120    1.200510
  C     -6.224540  -11.962770    2.442520
  C     -6.003140  -10.624950    2.916210
  N     -6.081220   -9.603660    2.105010
  C     -5.682880  -10.376150    4.274720
  N     -5.397220  -10.173560    5.365150
  C     -6.091480  -13.059810    3.329890
  N     -5.975840  -13.914160    4.083570
  C     -7.085640  -11.411050   -0.975520
  C     -7.233520  -10.284380   -1.807700
  C     -6.902730   -8.954070   -1.348710
  N     -7.141290   -8.033020   -2.285780
  S     -7.753910   -8.747600   -3.575180
  N     -7.739920  -10.257600   -3.043780
  C     -7.436600  -12.743570   -1.362060
  C     -7.341190  -13.362330   -2.604280
  C     -7.902400  -14.658800   -2.610810
  S     -8.174530  -15.637570   -4.034380
  C     -6.819580  -15.065830   -5.109820
  C     -6.902760  -13.578500   -5.347910
  S     -6.393720  -12.626270   -3.877650
  C     -8.407510  -15.042580   -1.367080
  S     -8.163320  -13.785330   -0.186900
  C     -9.082860  -16.195020   -0.911710
  C     -9.177070  -17.484610   -1.351830
  C    -10.310800  -18.303750   -0.826340
  O    -11.055350  -18.007140    0.077730
  C    -10.349490  -19.508770   -1.677160
  C    -11.262930  -20.522270   -1.687970
  C    -11.112840  -21.571140   -2.623430
  C    -10.013450  -21.546670   -3.529800
  C     -9.874670  -22.591360   -4.465200
  C    -10.783120  -23.612150   -4.498550
  C    -11.868920  -23.635760   -3.600890
  C    -12.031090  -22.637190   -2.681590
  F    -12.745240  -24.647910   -3.657450
  F    -10.649200  -24.603050   -5.390130
  C     -9.076760  -20.487730   -3.486480
  C     -9.242110  -19.483300   -2.571510
  C     -8.443950  -18.292950   -2.288090
  C     -7.153060  -18.083760   -2.707080
  C     -6.323780  -17.064480   -2.202180
  N     -5.609970  -16.250530   -1.818580
  C     -6.480800  -18.899200   -3.638870
  N     -5.891590  -19.497240   -4.421770
  H    -11.648790    2.160780   -0.269060
  H    -13.236570   -1.873760   -2.670940
  H     -9.718270    0.933960    0.566190
  H    -11.266070   -3.157060   -1.827790
  H     -6.104110   -3.079480    1.745220
  H     -2.551720   -7.672120    3.694080
  H     -4.221540   -7.130170    3.979770
  H     -2.236890   -5.636570    2.174390
  H     -2.487840   -5.213780    3.884680
  H     -6.947990  -15.623100   -6.037850
  H     -5.876110  -15.346870   -4.639840
  H     -7.911320  -13.272630   -5.627270
  H     -6.201890  -13.270230   -6.123880
  H     -9.694220  -16.010150   -0.029840
  H    -12.090280  -20.523700   -0.994810
  H     -9.047910  -22.590850   -5.158280
  H    -12.867570  -22.669220   -2.001160
  H     -8.257110  -20.493050   -4.187170

 Total Charge           Charge          ....    0
 Multiplicity           Mult            ....    1
 Number of Electrons    NEL             ....  588
 Basis Dimension        Dim             .... 1224

ORBITAL ENERGIES
----------------

  NO   OCC          E(Eh)            E(eV)
   0   2.0000     -89.057601     -2423.3805
   1   2.0000     -88.972057     -2421.0528
   2   2.0000     -88.970350     -2421.0063
   3   2.0000     -88.955742     -2420.6088
   4   2.0000     -88.948454     -2420.4105
   5   2.0000     -88.943383     -2420.2725
   6   2.0000     -88.940386     -2420.1909
   7   2.0000     -24.800117      -674.8455
   8   2.0000     -24.798734      -674.8079
   9   2.0000     -24.797755      -674.7812
  10   2.0000     -24.797622      -674.7776
  11   2.0000     -19.225062      -523.1405
  12   2.0000     -19.218905      -522.9730
  13   2.0000     -14.471103      -393.7787
  14   2.0000     -14.468837      -393.7171
  15   2.0000     -14.461953      -393.5297
  16   2.0000     -14.461267      -393.5111
  17   2.0000     -14.437442      -392.8628
  18   2.0000     -14.435929      -392.8216
  19   2.0000     -14.421494      -392.4288
  20   2.0000     -14.417992      -392.3335
  21   2.0000     -14.417535      -392.3211
  22   2.0000     -14.415267      -392.2594
  23   2.0000     -10.391305      -282.7618
  24   2.0000     -10.388673      -282.6902
  25   2.0000     -10.383152      -282.5399
  26   2.0000     -10.382206      -282.5142
  27   2.0000     -10.380891      -282.4784
  28   2.0000     -10.380499      -282.4677
  29   2.0000     -10.373055      -282.2652
  30   2.0000     -10.368726      -282.1474
  31   2.0000     -10.360059      -281.9115
  32   2.0000     -10.358151      -281.8596
  33   2.0000     -10.354759      -281.7673
  34   2.0000     -10.354324      -281.7555
  35   2.0000     -10.347064      -281.5579
  36   2.0000     -10.343174      -281.4521
  37   2.0000     -10.342567      -281.4356
  38   2.0000     -10.337713      -281.3035
  39   2.0000     -10.337301      -281.2923
  40   2.0000     -10.333316      -281.1838
  41   2.0000     -10.332217      -281.1539
  42   2.0000     -10.332047      -281.1493
  43   2.0000     -10.331256      -281.1278
  44   2.0000     -10.330931      -281.1189
  45   2.0000     -10.329265      -281.0736
  46   2.0000     -10.328703      -281.0583
  47   2.0000     -10.326569      -281.0002
  48   2.0000     -10.325676      -280.9759
  49   2.0000     -10.325637      -280.9749
  50   2.0000     -10.323940      -280.9287
  51   2.0000     -10.323934      -280.9285
  52   2.0000     -10.323243      -280.9097
  53   2.0000     -10.322482      -280.8890
  54   2.0000     -10.321295      -280.8567
  55   2.0000     -10.321213      -280.8545
  56   2.0000     -10.319685      -280.8129
  57   2.0000     -10.319638      -280.8116
  58   2.0000     -10.318813      -280.7892
  59   2.0000     -10.318545      -280.7819
  60   2.0000     -10.317519      -280.7540
  61   2.0000     -10.312092      -280.6063
  62   2.0000     -10.311695      -280.5955
  63   2.0000     -10.310479      -280.5624
  64   2.0000     -10.309681      -280.5407
  65   2.0000     -10.308704      -280.5141
  66   2.0000     -10.307595      -280.4839
  67   2.0000     -10.304761      -280.4068
  68   2.0000     -10.303311      -280.3673
  69   2.0000     -10.303299      -280.3670
  70   2.0000     -10.303074      -280.3609
  71   2.0000     -10.302936      -280.3571
  72   2.0000     -10.301817      -280.3267
  73   2.0000     -10.301168      -280.3090
  74   2.0000     -10.301132      -280.3081
  75   2.0000     -10.300682      -280.2958
  76   2.0000     -10.300196      -280.2826
  77   2.0000     -10.295172      -280.1459
  78   2.0000     -10.293323      -280.0955
  79   2.0000      -8.148832      -221.7410
  80   2.0000      -8.066978      -219.5136
  81   2.0000      -8.063352      -219.4150
  82   2.0000      -8.050477      -219.0646
  83   2.0000      -8.043723      -218.8808
  84   2.0000      -8.039034      -218.7532
  85   2.0000      -8.035693      -218.6623
  86   2.0000      -6.119709      -166.5258
  87   2.0000      -6.112068      -166.3178
  88   2.0000      -6.111890      -166.3130
  89   2.0000      -6.036425      -164.2595
  90   2.0000      -6.032828      -164.1616
  91   2.0000      -6.032167      -164.1436
  92   2.0000      -6.028754      -164.0507
  93   2.0000      -6.028334      -164.0393
  94   2.0000      -6.025273      -163.9560
  95   2.0000      -6.020776      -163.8337
  96   2.0000      -6.016609      -163.7203
  97   2.0000      -6.014059      -163.6509
  98   2.0000      -6.010482      -163.5535
  99   2.0000      -6.009772      -163.5342
 100   2.0000      -6.009580      -163.5290
 101   2.0000      -6.006244      -163.4382
 102   2.0000      -6.005360      -163.4142
 103   2.0000      -6.003694      -163.3688
 104   2.0000      -6.002212      -163.3285
 105   2.0000      -5.998406      -163.2249
 106   2.0000      -5.995011      -163.1325
 107   2.0000      -1.322358       -35.9832
 108   2.0000      -1.320562       -35.9343
 109   2.0000      -1.307474       -35.5782
 110   2.0000      -1.305744       -35.5311
 111   2.0000      -1.154194       -31.4072
 112   2.0000      -1.140450       -31.0332
 113   2.0000      -1.134594       -30.8739
 114   2.0000      -1.131110       -30.7791
 115   2.0000      -1.058827       -28.8121
 116   2.0000      -1.026960       -27.9450
 117   2.0000      -1.023501       -27.8509
 118   2.0000      -1.021306       -27.7911
 119   2.0000      -1.019384       -27.7388
 120   2.0000      -1.015739       -27.6397
 121   2.0000      -1.010224       -27.4896
 122   2.0000      -1.005953       -27.3734
 123   2.0000      -1.005508       -27.3613
 124   2.0000      -1.003362       -27.3029
 125   2.0000      -0.997977       -27.1563
 126   2.0000      -0.994936       -27.0736
 127   2.0000      -0.987057       -26.8592
 128   2.0000      -0.982904       -26.7462
 129   2.0000      -0.981472       -26.7072
 130   2.0000      -0.951287       -25.8858
 131   2.0000      -0.945631       -25.7319
 132   2.0000      -0.936878       -25.4937
 133   2.0000      -0.933585       -25.4041
 134   2.0000      -0.924544       -25.1581
 135   2.0000      -0.918665       -24.9981
 136   2.0000      -0.912787       -24.8382
 137   2.0000      -0.901869       -24.5411
 138   2.0000      -0.898758       -24.4565
 139   2.0000      -0.893132       -24.3034
 140   2.0000      -0.892747       -24.2929
 141   2.0000      -0.886469       -24.1220
 142   2.0000      -0.874725       -23.8025
 143   2.0000      -0.873113       -23.7586
 144   2.0000      -0.863253       -23.4903
 145   2.0000      -0.859105       -23.3774
 146   2.0000      -0.847036       -23.0490
 147   2.0000      -0.842180       -22.9169
 148   2.0000      -0.840737       -22.8776
 149   2.0000      -0.830401       -22.5964
 150   2.0000      -0.826100       -22.4793
 151   2.0000      -0.810916       -22.0661
 152   2.0000      -0.799629       -21.7590
 153   2.0000      -0.779626       -21.2147
 154   2.0000      -0.770395       -20.9635
 155   2.0000      -0.767040       -20.8722
 156   2.0000      -0.761165       -20.7123
 157   2.0000      -0.757780       -20.6203
 158   2.0000      -0.754277       -20.5249
 159   2.0000      -0.743397       -20.2289
 160   2.0000      -0.741657       -20.1815
 161   2.0000      -0.733619       -19.9628
 162   2.0000      -0.723183       -19.6788
 163   2.0000      -0.721287       -19.6272
 164   2.0000      -0.717275       -19.5180
 165   2.0000      -0.713888       -19.4259
 166   2.0000      -0.708350       -19.2752
 167   2.0000      -0.702922       -19.1275
 168   2.0000      -0.698880       -19.0175
 169   2.0000      -0.689380       -18.7590
 170   2.0000      -0.684851       -18.6357
 171   2.0000      -0.680598       -18.5200
 172   2.0000      -0.671459       -18.2713
 173   2.0000      -0.664162       -18.0728
 174   2.0000      -0.660887       -17.9837
 175   2.0000      -0.656351       -17.8602
 176   2.0000      -0.652732       -17.7617
 177   2.0000      -0.645053       -17.5528
 178   2.0000      -0.643320       -17.5056
 179   2.0000      -0.641811       -17.4646
 180   2.0000      -0.635486       -17.2925
 181   2.0000      -0.633086       -17.2272
 182   2.0000      -0.625250       -17.0139
 183   2.0000      -0.618120       -16.8199
 184   2.0000      -0.615630       -16.7521
 185   2.0000      -0.614457       -16.7202
 186   2.0000      -0.604390       -16.4463
 187   2.0000      -0.594486       -16.1768
 188   2.0000      -0.593834       -16.1591
 189   2.0000      -0.590310       -16.0631
 190   2.0000      -0.586944       -15.9716
 191   2.0000      -0.585231       -15.9250
 192   2.0000      -0.584731       -15.9113
 193   2.0000      -0.584246       -15.8982
 194   2.0000      -0.580221       -15.7886
 195   2.0000      -0.576658       -15.6917
 196   2.0000      -0.569772       -15.5043
 197   2.0000      -0.568215       -15.4619
 198   2.0000      -0.562707       -15.3120
 199   2.0000      -0.561067       -15.2674
 200   2.0000      -0.554886       -15.0992
 201   2.0000      -0.554647       -15.0927
 202   2.0000      -0.551758       -15.0141
 203   2.0000      -0.550685       -14.9849
 204   2.0000      -0.548739       -14.9320
 205   2.0000      -0.548580       -14.9276
 206   2.0000      -0.546818       -14.8797
 207   2.0000      -0.544556       -14.8181
 208   2.0000      -0.543180       -14.7807
 209   2.0000      -0.539634       -14.6842
 210   2.0000      -0.537467       -14.6252
 211   2.0000      -0.533911       -14.5285
 212   2.0000      -0.533600       -14.5200
 213   2.0000      -0.533397       -14.5145
 214   2.0000      -0.529925       -14.4200
 215   2.0000      -0.528482       -14.3807
 216   2.0000      -0.524680       -14.2773
 217   2.0000      -0.521938       -14.2027
 218   2.0000      -0.516277       -14.0486
 219   2.0000      -0.515972       -14.0403
 220   2.0000      -0.509763       -13.8714
 221   2.0000      -0.509112       -13.8536
 222   2.0000      -0.507217       -13.8021
 223   2.0000      -0.502592       -13.6762
 224   2.0000      -0.500782       -13.6270
 225   2.0000      -0.500252       -13.6125
 226   2.0000      -0.499126       -13.5819
 227   2.0000      -0.495712       -13.4890
 228   2.0000      -0.493612       -13.4319
 229   2.0000      -0.492957       -13.4140
 230   2.0000      -0.490311       -13.3420
 231   2.0000      -0.489486       -13.3196
 232   2.0000      -0.488228       -13.2854
 233   2.0000      -0.485221       -13.2035
 234   2.0000      -0.481874       -13.1125
 235   2.0000      -0.472441       -12.8558
 236   2.0000      -0.468053       -12.7364
 237   2.0000      -0.465811       -12.6754
 238   2.0000      -0.464119       -12.6293
 239   2.0000      -0.463239       -12.6054
 240   2.0000      -0.460838       -12.5400
 241   2.0000      -0.459284       -12.4978
 242   2.0000      -0.456768       -12.4293
 243   2.0000      -0.455303       -12.3894
 244   2.0000      -0.451336       -12.2815
 245   2.0000      -0.450069       -12.2470
 246   2.0000      -0.449320       -12.2266
 247   2.0000      -0.448134       -12.1944
 248   2.0000      -0.446826       -12.1588
 249   2.0000      -0.445358       -12.1188
 250   2.0000      -0.444870       -12.1055
 251   2.0000      -0.442651       -12.0451
 252   2.0000      -0.440068       -11.9749
 253   2.0000      -0.437597       -11.9076
 254   2.0000      -0.436032       -11.8650
 255   2.0000      -0.433692       -11.8014
 256   2.0000      -0.433156       -11.7868
 257   2.0000      -0.430304       -11.7092
 258   2.0000      -0.429864       -11.6972
 259   2.0000      -0.428776       -11.6676
 260   2.0000      -0.427852       -11.6424
 261   2.0000      -0.424482       -11.5507
 262   2.0000      -0.423355       -11.5201
 263   2.0000      -0.421616       -11.4728
 264   2.0000      -0.418979       -11.4010
 265   2.0000      -0.416835       -11.3427
 266   2.0000      -0.415574       -11.3083
 267   2.0000      -0.408929       -11.1275
 268   2.0000      -0.406151       -11.0519
 269   2.0000      -0.404850       -11.0165
 270   2.0000      -0.399608       -10.8739
 271   2.0000      -0.395638       -10.7659
 272   2.0000      -0.391961       -10.6658
 273   2.0000      -0.389551       -10.6002
 274   2.0000      -0.387087       -10.5332
 275   2.0000      -0.383392       -10.4326
 276   2.0000      -0.378547       -10.3008
 277   2.0000      -0.367789       -10.0081
 278   2.0000      -0.365828        -9.9547
 279   2.0000      -0.358186        -9.7467
 280   2.0000      -0.356942        -9.7129
 281   2.0000      -0.342508        -9.3201
 282   2.0000      -0.339340        -9.2339
 283   2.0000      -0.331111        -9.0100
 284   2.0000      -0.330477        -8.9927
 285   2.0000      -0.320654        -8.7254
 286   2.0000      -0.320016        -8.7081
 287   2.0000      -0.314532        -8.5588
 288   2.0000      -0.302939        -8.2434
 289   2.0000      -0.299814        -8.1584
 290   2.0000      -0.287808        -7.8317
 291   2.0000      -0.279412        -7.6032
 292   2.0000      -0.276296        -7.5184
 293   2.0000      -0.261296        -7.1102
 294   0.0000      -0.134983        -3.6731
 295   0.0000      -0.094282        -2.5655
 296   0.0000      -0.090743        -2.4692
 297   0.0000      -0.063635        -1.7316
 298   0.0000      -0.061514        -1.6739

MULLIKEN ATOMIC CHARGES
-----------------------
   0 C :   -0.109008
   1 C :    0.242460
   2 F :   -0.171133
   3 C :    0.239688
   4 F :   -0.171881
   5 C :   -0.107307
   6 C :    0.118184
   7 C :    0.114894
   8 C :   -0.085667
   9 C :    0.048224
  10 C :    0.001252
  11 C :   -0.085518
  12 C :    0.164946
  13 O :   -0.182659
  14 C :   -0.104009
  15 C :    0.331979
  16 C :   -0.353912
  17 C :   -0.194849
  18 N :    0.152365
  19 C :   -0.183624
  20 N :    0.145105
  21 C :   -0.047668
  22 C :   -0.083047
  23 C :   -0.018327
  24 C :    0.027182
  25 S :    0.010617
  26 C :   -0.075231
  27 C :   -0.019061
  28 S :    0.018120
  29 C :   -0.190696
  30 S :    0.253017
  31 C :    0.078097
  32 C :   -0.070502
  33 C :   -0.049416
  34 N :    0.039452
  35 C :   -0.112683
  36 C :   -0.144887
  37 N :    0.074383
  38 C :   -0.208485
  39 N :    0.242197
  40 C :   -0.213530
  41 N :    0.245257
  42 C :    0.110940
  43 C :   -0.014686
  44 C :   -0.009040
  45 N :   -0.267562
  46 S :    0.560379
  47 N :   -0.252293
  48 C :   -0.195966
  49 C :    0.021745
  50 C :   -0.035319
  51 S :    0.021289
  52 C :   -0.045390
  53 C :   -0.050207
  54 S :    0.033901
  55 C :   -0.113617
  56 S :    0.201247
  57 C :    0.043922
  58 C :   -0.135517
  59 C :    0.137000
  60 O :   -0.138320
  61 C :    0.013420
  62 C :   -0.082047
  63 C :    0.111393
  64 C :    0.116398
  65 C :   -0.109301
  66 C :    0.240358
  67 C :    0.236920
  68 C :   -0.103781
  69 F :   -0.173399
  70 F :   -0.172467
  71 C :   -0.096086
  72 C :    0.045952
  73 C :    0.304916
  74 C :   -0.332385
  75 C :   -0.198763
  76 N :    0.168677
  77 C :   -0.185995
  78 N :    0.152988
  79 H :    0.007969
  80 H :   -0.003260
  81 H :   -0.007594
  82 H :   -0.014433
  83 H :    0.035881
  84 H :    0.068783
  85 H :    0.083031
  86 H :    0.076876
  87 H :    0.070662
  88 H :    0.067716
  89 H :    0.082744
  90 H :    0.071384
  91 H :    0.064411
  92 H :    0.032076
  93 H :   -0.008161
  94 H :    0.005455
  95 H :    0.000065
  96 H :   -0.007222
Sum of atomic charges:   -0.0000000

LOEWDIN ATOMIC CHARGES
----------------------
   0 C :   -0.028645
   1 C :    0.066341
   2 F :   -0.048924
   3 C :    0.067215
   4 F :   -0.049840
   5 C :   -0.034098
   6 C :   -0.009517
   7 C :   -0.006653
   8 C :    0.017599
   9 C :   -0.021379
  10 C :   -0.051407
  11 C :    0.028016
  12 C :    0.083866
  13 O :   -0.169032
  14 C :   -0.108454
  15 C :    0.074778
  16 C :   -0.141644
  17 C :   -0.025730
  18 N :   -0.048477
  19 C :   -0.016822
  20 N :   -0.056160
  21 C :    0.053314
  22 C :   -0.211181
  23 C :   -0.169245
  24 C :   -0.205261
  25 S :    0.308450
  26 C :   -0.137320
  27 C :   -0.139917
  28 S :    0.344873
  29 C :   -0.173063
  30 S :    0.546275
  31 C :   -0.041101
  32 C :   -0.009564
  33 C :   -0.009326
  34 N :   -0.011772
  35 C :   -0.021407
  36 C :   -0.027496
  37 N :    0.007258
  38 C :   -0.034479
  39 N :   -0.007408
  40 C :   -0.036833
  41 N :    0.002749
  42 C :   -0.032356
  43 C :   -0.050266
  44 C :   -0.042280
  45 N :   -0.286922
  46 S :    0.698995
  47 N :   -0.279160
  48 C :   -0.177320
  49 C :   -0.185009
  50 C :   -0.187131
  51 S :    0.364937
  52 C :   -0.136081
  53 C :   -0.142866
  54 S :    0.332703
  55 C :   -0.193357
  56 S :    0.499502
  57 C :    0.033563
  58 C :   -0.090034
  59 C :    0.085450
  60 O :   -0.137299
  61 C :   -0.056124
  62 C :    0.032028
  63 C :   -0.011679
  64 C :   -0.004980
  65 C :   -0.032179
  66 C :    0.066874
  67 C :    0.065368
  68 C :   -0.032379
  69 F :   -0.050480
  70 F :   -0.049717
  71 C :    0.007153
  72 C :   -0.016613
  73 C :    0.049764
  74 C :   -0.140498
  75 C :   -0.025376
  76 N :   -0.051437
  77 C :   -0.019341
  78 N :   -0.055090
  79 H :    0.047993
  80 H :    0.043850
  81 H :    0.039953
  82 H :    0.038736
  83 H :    0.040357
  84 H :    0.038246
  85 H :    0.032931
  86 H :    0.029207
  87 H :    0.038489
  88 H :    0.037174
  89 H :    0.033121
  90 H :    0.027388
  91 H :    0.036178
  92 H :    0.046997
  93 H :    0.040766
  94 H :    0.046573
  95 H :    0.044809
  96 H :    0.038289

  Mayer bond orders larger than 0.100000
B(  0-C ,  1-C ) :   1.4382 B(  0-C ,  5-C ) :   0.1089 B(  0-C ,  7-C ) :   1.1897
B(  0-C , 79-H ) :   1.0072 B(  1-C ,  2-F ) :   1.1345 B(  1-C ,  3-C ) :   1.1933
B(  3-C ,  4-F ) :   1.1333 B(  3-C ,  5-C ) :   1.4419 B(  5-C ,  6-C ) :   1.1904
B(  5-C , 80-H ) :   1.0076 B(  6-C ,  7-C ) :   1.2593 B(  6-C , 11-C ) :   1.1856
B(  7-C ,  8-C ) :   1.2101 B(  8-C ,  9-C ) :   1.4558 B(  8-C , 81-H ) :   0.9900
B(  9-C , 10-C ) :   1.2231 B(  9-C , 15-C ) :   0.9762 B( 10-C , 11-C ) :   1.4682
B( 10-C , 12-C ) :   0.9555 B( 11-C , 82-H ) :   1.0171 B( 12-C , 13-O ) :   2.1266
B( 12-C , 14-C ) :   0.9777 B( 14-C , 15-C ) :   1.0866 B( 14-C , 21-C ) :   1.5192
B( 15-C , 16-C ) :   1.6186 B( 16-C , 17-C ) :   1.1430 B( 16-C , 19-C ) :   1.1520
B( 17-C , 18-N ) :   2.9666 B( 19-C , 20-N ) :   2.9580 B( 21-C , 22-C ) :   1.2793
B( 21-C , 83-H ) :   0.9263 B( 22-C , 23-C ) :   1.4029 B( 22-C , 29-C ) :   0.1108
B( 22-C , 30-S ) :   1.0861 B( 23-C , 24-C ) :   1.3384 B( 23-C , 28-S ) :   1.0657
B( 24-C , 25-S ) :   1.0048 B( 24-C , 29-C ) :   1.4890 B( 25-S , 26-C ) :   1.0223
B( 26-C , 27-C ) :   1.0203 B( 26-C , 84-H ) :   0.9477 B( 26-C , 85-H ) :   0.9461
B( 27-C , 28-S ) :   1.0063 B( 27-C , 86-H ) :   0.9465 B( 27-C , 87-H ) :   0.9430
B( 29-C , 30-S ) :   1.1414 B( 29-C , 31-C ) :   1.0738 B( 31-C , 32-C ) :   1.3165
B( 31-C , 42-C ) :   0.1303 B( 31-C , 44-C ) :   1.2371 B( 32-C , 33-C ) :   1.1085
B( 32-C , 37-N ) :   1.4199 B( 33-C , 34-N ) :   1.4125 B( 33-C , 42-C ) :   1.2814
B( 34-N , 35-C ) :   1.7392 B( 35-C , 36-C ) :   1.1885 B( 35-C , 40-C ) :   1.1547
B( 36-C , 37-N ) :   1.7322 B( 36-C , 38-C ) :   1.1637 B( 38-C , 39-N ) :   3.0419
B( 40-C , 41-N ) :   3.0418 B( 42-C , 43-C ) :   1.2431 B( 42-C , 48-C ) :   1.0880
B( 43-C , 44-C ) :   1.0917 B( 43-C , 47-N ) :   1.5030 B( 44-C , 45-N ) :   1.5090
B( 45-N , 46-S ) :   1.2977 B( 45-N , 47-N ) :   0.1549 B( 46-S , 47-N ) :   1.3043
B( 48-C , 49-C ) :   1.5400 B( 48-C , 55-C ) :   0.1088 B( 48-C , 56-S ) :   1.1397
B( 49-C , 50-C ) :   1.2674 B( 49-C , 54-S ) :   1.0417 B( 50-C , 51-S ) :   1.0496
B( 50-C , 55-C ) :   1.4785 B( 51-S , 52-C ) :   1.0116 B( 52-C , 53-C ) :   1.0206
B( 52-C , 88-H ) :   0.9438 B( 52-C , 89-H ) :   0.9421 B( 53-C , 54-S ) :   1.0269
B( 53-C , 90-H ) :   0.9473 B( 53-C , 91-H ) :   0.9453 B( 55-C , 56-S ) :   1.1144
B( 55-C , 57-C ) :   1.1517 B( 57-C , 58-C ) :   1.6359 B( 57-C , 92-H ) :   0.9146
B( 58-C , 59-C ) :   0.9348 B( 58-C , 73-C ) :   1.0723 B( 59-C , 60-O ) :   2.2647
B( 59-C , 61-C ) :   0.9194 B( 61-C , 62-C ) :   1.4790 B( 61-C , 72-C ) :   1.2171
B( 62-C , 63-C ) :   1.1908 B( 62-C , 93-H ) :   1.0160 B( 63-C , 64-C ) :   1.2584
B( 63-C , 68-C ) :   1.1950 B( 64-C , 65-C ) :   1.1920 B( 64-C , 71-C ) :   1.2099
B( 65-C , 66-C ) :   1.4403 B( 65-C , 68-C ) :   0.1081 B( 65-C , 94-H ) :   1.0065
B( 66-C , 67-C ) :   1.1934 B( 66-C , 70-F ) :   1.1333 B( 67-C , 68-C ) :   1.4429
B( 67-C , 69-F ) :   1.1311 B( 68-C , 95-H ) :   1.0066 B( 71-C , 72-C ) :   1.4623
B( 71-C , 96-H ) :   0.9929 B( 72-C , 73-C ) :   0.9965 B( 73-C , 74-C ) :   1.6116
B( 74-C , 75-C ) :   1.1703 B( 74-C , 77-C ) :   1.1435 B( 75-C , 76-N ) :   2.9627
B( 77-C , 78-N ) :   2.9775

-----------------------------------------------------------------------------
         ABSORPTION SPECTRUM VIA TRANSITION ELECTRIC DIPOLE MOMENTS
-----------------------------------------------------------------------------
State   Energy  Wavelength   fosc         T2         TX        TY        TZ
        (cm-1)    (nm)                  (au**2)     (au)      (au)      (au)
-----------------------------------------------------------------------------
   0   10550.4    947.8   0.402076302  12.54628  -0.10545  -3.38491  -1.03806
   1   13143.6    760.8   0.012563485   0.31468   0.16016  -0.50924  -0.17234
   2   14207.9    703.8   0.246635982   5.71482  -0.07552   2.38769  -0.08987
   3   17271.3    579.0   0.100153551   1.90905   0.83473   1.01200   0.43374
   4   20865.2    479.3   0.759948475  11.99052   1.18919  -3.25186   0.04178
   5   21642.8    462.0   0.210691152   3.20486   0.66609   1.38607   0.91651
   6   22124.2    452.0   0.006100157   0.09077   0.04056  -0.12398   0.27158
   7   22797.0    438.7   0.071889965   1.03816   0.29175   0.97562   0.03472
   8   23172.2    431.6   0.092888072   1.31968   0.13800   1.12911   0.16047
   9   23485.5    425.8   0.136222553   1.90953   0.47048   1.29210  -0.13660
  10   24460.6    408.8   0.008207014   0.11046  -0.09956  -0.24706  -0.19876
  11   25347.9    394.5   0.021665232   0.28138   0.22457  -0.42818   0.21820
  12   25908.1    386.0   0.007623959   0.09688   0.04335  -0.06174   0.30197
  13   26447.9    378.1   0.008655209   0.10774   0.07752   0.09736   0.30372
  14   26972.9    370.7   0.050881865   0.62103  -0.62086  -0.27014  -0.40322
  15   27118.8    368.7   0.020353951   0.24709   0.19254  -0.45321  -0.06794
  16   27612.1    362.2   0.006890699   0.08216  -0.09303  -0.22217  -0.15538
  17   27925.7    358.1   0.061918030   0.72994   0.68789   0.14208   0.48637
  18   28212.6    354.5   0.002622148   0.03060  -0.17264  -0.02807   0.00210
  19   28269.3    353.7   0.015138650   0.17630   0.01738   0.31643   0.27545
  20   28739.0    348.0   0.035893690   0.41117   0.63299  -0.07625   0.06842
  21   28797.2    347.3   0.006044508   0.06910  -0.06110  -0.00525  -0.25562
  22   29199.4    342.5   0.009893785   0.11155  -0.08821  -0.30072   0.11548
  23   29287.3    341.4   0.023334934   0.26230   0.33857  -0.36498   0.12026
  24   29773.0    335.9   0.032843642   0.36317   0.51867   0.09032   0.29324
  25   29953.7    333.8   0.017644483   0.19392   0.12656   0.31977  -0.27505
  26   30108.2    332.1   0.158862574   1.73705   0.59971   1.17094   0.07943
  27   30312.4    329.9   0.246358746   2.67561   1.39242  -0.23758   0.82483
  28   30334.9    329.7   0.094800046   1.02883   0.77052   0.30930   0.58263
  29   30904.2    323.6   0.008691192   0.09258  -0.14833  -0.22332   0.14391
  30   31147.4    321.1   0.061121313   0.64602   0.76991   0.17395  -0.15168
  31   31287.3    319.6   0.055905915   0.58825   0.19898   0.73653   0.07865
  32   31494.0    317.5   0.184201363   1.92549   0.04930  -1.00433   0.95623
  33   31692.0    315.5   0.270058853   2.80534   0.28300  -1.29817   1.01981
  34   31773.3    314.7   0.035413038   0.36692  -0.07402   0.26684  -0.53874
  35   32220.0    310.4   0.033205934   0.33929   0.16122  -0.53339  -0.16967
  36   32352.2    309.1   0.246220456   2.50551  -0.79154   0.04902  -1.36988
  37   32743.4    305.4   0.040863179   0.41085   0.46464   0.21102  -0.38785
  38   32996.3    303.1   0.018811361   0.18769  -0.11084   0.40478  -0.10747
  39   33296.9    300.3   0.082528047   0.81597   0.32309  -0.76752  -0.35000
  40   33554.8    298.0   0.094600288   0.92814  -0.33436   0.75058   0.50297
  41   34052.9    293.7   0.105751605   1.02237  -0.34056  -0.80395   0.50995
  42   34179.9    292.6   0.168324249   1.62126  -0.84275   0.26211  -0.91778
  43   34475.5    290.1   0.067403086   0.64364  -0.67444  -0.36880   0.22967
  44   34514.4    289.7   0.103204183   0.98440  -0.47286   0.02242  -0.87195
  45   34740.1    287.9   0.562848332   5.33379  -1.92449   0.67964  -1.08083
  46   34982.9    285.9   0.069351869   0.65265  -0.61829   0.04719  -0.51782
  47   35279.2    283.5   0.540762214   5.04619   1.56794   1.30435   0.94150
  48   35504.3    281.7   0.235112884   2.18008   0.79591   1.15489  -0.46134
  49   35878.0    278.7   0.215090836   1.97365  -0.96523  -1.01948  -0.05143
  50   36145.0    276.7   0.031809430   0.28972   0.40879   0.13290   0.32396
  51   36305.0    275.4   0.075518194   0.68480  -0.18325   0.00633   0.80695
  52   36361.0    275.0   0.027320544   0.24736   0.21411   0.44415   0.06517
  53   36444.1    274.4   0.052078651   0.47044  -0.24100   0.61255  -0.19272
  54   37016.7    270.1   0.092214691   0.82012  -0.00901   0.85837   0.28851
  55   37224.3    268.6   0.049435561   0.43721  -0.31380  -0.53608  -0.22662
  56   37559.1    266.2   0.018845404   0.16518  -0.21723  -0.33436   0.07876
  57   37641.6    265.7   0.003493211   0.03055  -0.08652  -0.02050  -0.15048
  58   37870.7    264.1   0.094867889   0.82469   0.46196   0.65434   0.42793
  59   38062.2    262.7   0.044054148   0.38104   0.44814  -0.35525  -0.23239
  60   38409.7    260.4   0.158111096   1.35518  -0.32549   1.10681   0.15563
  61   38560.0    259.3   0.077127190   0.65849  -0.54386   0.06245  -0.59900
  62   38881.1    257.2   0.003063526   0.02594   0.11731  -0.11020  -0.00590
  63   39035.5    256.2   0.053622801   0.45224   0.08552  -0.66626  -0.03192
  64   39152.3    255.4   0.012255953   0.10305   0.01884  -0.29955   0.11388
  65   39463.3    253.4   0.053021166   0.44232  -0.42346  -0.42212  -0.29123
  66   39490.9    253.2   0.074228285   0.61880   0.46085   0.39501   0.50038
  67   39898.8    250.6   0.084410272   0.69648   0.26484  -0.42277  -0.66903
  68   40127.4    249.2   0.021563614   0.17691  -0.12066  -0.10788  -0.38822
  69   40327.3    248.0   0.107401451   0.87677  -0.02650   0.03254   0.93542

FINAL SINGLE POINT ENERGY     -6024.475147258317

DIPOLE MOMENT
-------------
                                X             Y             Z
Electronic contribution:    -22.22632      -1.51923      -5.15263
Nuclear contribution   :     21.27699       1.25012       1.93650
                        -----------------------------------------
Total Dipole Moment    :     -0.94932      -0.26912      -3.21614
                        -----------------------------------------
Magnitude (a.u.)       :      3.36410
Magnitude (Debye)      :      8.55086

Rotational constants in cm-1:     0.001254     0.000241     0.000217
Rotational constants in MHz :    37.606800     7.232515     6.519967

                             ****ORCA TERMINATED NORMALLY****
TOTAL RUN TIME: 0 days 0 hours 11 minutes 55 seconds 357 msec
