                         Program Version 4.2.0 -  RELEASE  -
|  1> # ORCA input file
|  2> # SCF done       -215.667963755119          0.000389254363
|  3> ! CAM-B3LYP def2-SVP def2/J RIJCOSX Grid4 TightSCF
|  4> %maxcore 5000
|  5> %tddft
|  6>     Mode sTDDFT
|  7>     Ethresh 5.0
|  8>     maxcore 5000
|  9> end
| 10>
| 11> %pal
| 12>   nprocs 6
| 13>   end
| 14> * xyz 0 1
| 15>    C        3.49368         4.17420         3.64224
| 16>    C        3.97224         5.21369         2.88776
| 17>    C        4.98047         6.09620         3.32359
| 18>    N        5.78921         6.84601         3.64157
| 19>    C        3.56691         5.44726         1.55808
| 20>    N        3.27839         5.63610         0.46294
| 21>    C        4.06246         3.71140         4.90217
| 22>    C        3.69193         2.34694         5.08895
| 23>    C        4.11242         1.63456         6.17477
| 24>    C        4.92227         2.26926         7.14395
| 25>    C        5.28092         3.63760         6.97009
| 26>    C        4.84051         4.34842         5.82992
| 27>    C        6.07970         4.26041         7.95032
| 28>    C        6.50737         3.56656         9.04940
| 29>    C        6.15556         2.21920         9.21912
| 30>    C        5.38094         1.58431         8.28644
| 31>    C        2.82061         1.92070         3.97829
| 32>    O        2.36140         0.82325         3.76352
| 33>    C        2.55391         3.16587         3.19971
| 34>    C        1.48831         3.21289         2.35639
| 35>    C        0.77375         4.33599         1.87803
| 36>    C       -0.14005         4.33247         0.83441
| 37>    C       -0.74132         5.57354         0.65425
| 38>    C       -0.30886         6.53014         1.59563
| 39>    S        0.84367         5.90667         2.67738
| 40>    C       -0.98806         7.74925         1.35719
| 41>    C       -1.84565         7.56670         0.25647
| 42>    C       -1.72950         6.19457        -0.21231
| 43>    C       -2.43346         5.61179        -1.22502
| 44>    C       -3.41027         6.32085        -1.95545
| 45>    N       -4.21886         6.89023        -2.53627
| 46>    C       -2.25713         4.25932        -1.58651
| 47>    N       -2.12479         3.15984        -1.88285
| 48>    C       -2.55862         8.71607        -0.06858
| 49>    C       -2.26728         9.76810         0.78618
| 50>    S       -1.06958         9.33019         1.99575
| 51>    C       -2.81853        11.08666         0.81218
| 52>    C       -3.82778        11.56049        -0.03736
| 53>    O       -4.30379        10.70747        -0.97865
| 54>    C       -5.70266        10.63993        -1.22899
| 55>    C       -4.31302        12.89618         0.05693
| 56>    O       -5.21752        13.34959        -0.88090
| 57>    C       -4.64241        13.62044        -2.15186
| 58>    C       -3.93995        13.78883         1.05952
| 59>    C       -2.94050        13.31888         1.95188
| 60>    C       -2.37472        12.00651         1.79578
| 61>    N       -1.46572        11.85990         2.73864
| 62>    O       -1.45936        12.99590         3.43195
| 63>    N       -2.33554        13.88275         2.97720
| 64>    C       -4.50934        15.08857         1.18934
| 65>    C       -4.17667        16.04184         2.13970
| 66>    C       -4.95292        17.18921         2.01310
| 67>    C       -5.88449        17.10402         0.95948
| 68>    S       -5.79720        15.61610         0.12477
| 69>    C       -6.63315        18.30375         0.92637
| 70>    C       -6.17565        19.15300         1.95991
| 71>    C       -5.10929        18.47400         2.67941
| 72>    C       -4.41675        18.92809         3.76133
| 73>    C       -4.67323        20.17378         4.37627
| 74>    N       -4.86611        21.16713         4.91417
| 75>    C       -3.39096        18.17226         4.37084
| 76>    N       -2.55303        17.57494         4.87580
| 77>    C       -6.84817        20.36571         2.00952
| 78>    C       -7.82762        20.46307         1.02832
| 79>    S       -7.89925        18.99900         0.03282
| 80>    C       -8.78511        21.45186         0.72568
| 81>    C       -8.95572        22.71922         1.21142
| 82>    C      -10.08017        23.57467         0.86316
| 83>    C      -11.21385        23.21393         0.17989
| 84>    C      -12.27530        24.09763        -0.10988
| 85>    N      -13.17392        24.75712        -0.38506
| 86>    C      -11.51928        21.92809        -0.31301
| 87>    N      -11.85745        20.91412        -0.73491
| 88>    C       -9.83427        24.89382         1.43349
| 89>    C       -8.61049        24.85093         2.15786
| 90>    C       -8.02374        23.50534         2.06043
| 91>    O       -6.97014        23.15292         2.54749
| 92>    C       -8.11932        25.93941         2.81900
| 93>    C       -8.84768        27.14919         2.78618
| 94>    C      -10.07149        27.20447         2.05838
| 95>    C      -10.55242        26.05974         1.38213
| 96>    C      -10.78999        28.41715         2.03058
| 97>    C      -10.32477        29.52173         2.69084
| 98>    C       -9.12002        29.46564         3.40754
| 99>    C       -8.39700        28.30454         3.45415
|100>    H        3.82963         0.59944         6.29584
|101>    H        5.11673         5.38616         5.72411
|102>    H        6.35050         5.29699         7.81328
|103>    H        7.11970         4.05234         9.79423
|104>    H        6.50093         1.68692        10.09272
|105>    H        5.10696         0.54703         8.41221
|106>    H        1.06901         2.24833         2.08499
|107>    H       -0.32407         3.46119         0.23187
|108>    H       -3.24961         8.80020        -0.88423
|109>    H       -5.88965         9.60902        -1.53123
|110>    H       -6.00746        11.30881        -2.03515
|111>    H       -6.27772        10.87124        -0.33121
|112>    H       -5.46686        13.92179        -2.79457
|113>    H       -4.14700        12.73921        -2.56685
|114>    H       -3.91646        14.43657        -2.08226
|115>    H       -3.40863        15.87462         2.87246
|116>    H       -6.64982        21.15954         2.70691
|117>    H       -9.49950        21.12808        -0.02239
|118>    H       -7.18849        25.87471         3.36260
|119>    H      -11.47964        26.13849         0.83756
|120>    H      -11.71766        28.45532         1.47854
|121>    H      -10.88332        30.44538         2.66481
|122>    H       -8.76788        30.34690         3.92255
|123>    H       -7.46880        28.25462         4.00433
|124> *
|125>
|126>                          ****END OF INPUT****

CARTESIAN COORDINATES (ANGSTROEM)
---------------------------------
  C      3.493680    4.174200    3.642240
  C      3.972240    5.213690    2.887760
  C      4.980470    6.096200    3.323590
  N      5.789210    6.846010    3.641570
  C      3.566910    5.447260    1.558080
  N      3.278390    5.636100    0.462940
  C      4.062460    3.711400    4.902170
  C      3.691930    2.346940    5.088950
  C      4.112420    1.634560    6.174770
  C      4.922270    2.269260    7.143950
  C      5.280920    3.637600    6.970090
  C      4.840510    4.348420    5.829920
  C      6.079700    4.260410    7.950320
  C      6.507370    3.566560    9.049400
  C      6.155560    2.219200    9.219120
  C      5.380940    1.584310    8.286440
  C      2.820610    1.920700    3.978290
  O      2.361400    0.823250    3.763520
  C      2.553910    3.165870    3.199710
  C      1.488310    3.212890    2.356390
  C      0.773750    4.335990    1.878030
  C     -0.140050    4.332470    0.834410
  C     -0.741320    5.573540    0.654250
  C     -0.308860    6.530140    1.595630
  S      0.843670    5.906670    2.677380
  C     -0.988060    7.749250    1.357190
  C     -1.845650    7.566700    0.256470
  C     -1.729500    6.194570   -0.212310
  C     -2.433460    5.611790   -1.225020
  C     -3.410270    6.320850   -1.955450
  N     -4.218860    6.890230   -2.536270
  C     -2.257130    4.259320   -1.586510
  N     -2.124790    3.159840   -1.882850
  C     -2.558620    8.716070   -0.068580
  C     -2.267280    9.768100    0.786180
  S     -1.069580    9.330190    1.995750
  C     -2.818530   11.086660    0.812180
  C     -3.827780   11.560490   -0.037360
  O     -4.303790   10.707470   -0.978650
  C     -5.702660   10.639930   -1.228990
  C     -4.313020   12.896180    0.056930
  O     -5.217520   13.349590   -0.880900
  C     -4.642410   13.620440   -2.151860
  C     -3.939950   13.788830    1.059520
  C     -2.940500   13.318880    1.951880
  C     -2.374720   12.006510    1.795780
  N     -1.465720   11.859900    2.738640
  O     -1.459360   12.995900    3.431950
  N     -2.335540   13.882750    2.977200
  C     -4.509340   15.088570    1.189340
  C     -4.176670   16.041840    2.139700
  C     -4.952920   17.189210    2.013100
  C     -5.884490   17.104020    0.959480
  S     -5.797200   15.616100    0.124770
  C     -6.633150   18.303750    0.926370
  C     -6.175650   19.153000    1.959910
  C     -5.109290   18.474000    2.679410
  C     -4.416750   18.928090    3.761330
  C     -4.673230   20.173780    4.376270
  N     -4.866110   21.167130    4.914170
  C     -3.390960   18.172260    4.370840
  N     -2.553030   17.574940    4.875800
  C     -6.848170   20.365710    2.009520
  C     -7.827620   20.463070    1.028320
  S     -7.899250   18.999000    0.032820
  C     -8.785110   21.451860    0.725680
  C     -8.955720   22.719220    1.211420
  C    -10.080170   23.574670    0.863160
  C    -11.213850   23.213930    0.179890
  C    -12.275300   24.097630   -0.109880
  N    -13.173920   24.757120   -0.385060
  C    -11.519280   21.928090   -0.313010
  N    -11.857450   20.914120   -0.734910
  C     -9.834270   24.893820    1.433490
  C     -8.610490   24.850930    2.157860
  C     -8.023740   23.505340    2.060430
  O     -6.970140   23.152920    2.547490
  C     -8.119320   25.939410    2.819000
  C     -8.847680   27.149190    2.786180
  C    -10.071490   27.204470    2.058380
  C    -10.552420   26.059740    1.382130
  C    -10.789990   28.417150    2.030580
  C    -10.324770   29.521730    2.690840
  C     -9.120020   29.465640    3.407540
  C     -8.397000   28.304540    3.454150
  H      3.829630    0.599440    6.295840
  H      5.116730    5.386160    5.724110
  H      6.350500    5.296990    7.813280
  H      7.119700    4.052340    9.794230
  H      6.500930    1.686920   10.092720
  H      5.106960    0.547030    8.412210
  H      1.069010    2.248330    2.084990
  H     -0.324070    3.461190    0.231870
  H     -3.249610    8.800200   -0.884230
  H     -5.889650    9.609020   -1.531230
  H     -6.007460   11.308810   -2.035150
  H     -6.277720   10.871240   -0.331210
  H     -5.466860   13.921790   -2.794570
  H     -4.147000   12.739210   -2.566850
  H     -3.916460   14.436570   -2.082260
  H     -3.408630   15.874620    2.872460
  H     -6.649820   21.159540    2.706910
  H     -9.499500   21.128080   -0.022390
  H     -7.188490   25.874710    3.362600
  H    -11.479640   26.138490    0.837560
  H    -11.717660   28.455320    1.478540
  H    -10.883320   30.445380    2.664810
  H     -8.767880   30.346900    3.922550
  H     -7.468800   28.254620    4.004330

 Total Charge           Charge          ....    0
 Multiplicity           Mult            ....    1
 Number of Electrons    NEL             ....  594
 Basis Dimension        Dim             .... 1326

ORBITAL ENERGIES
----------------

  NO   OCC          E(Eh)            E(eV)
   0   2.0000     -88.997465     -2421.7441
   1   2.0000     -88.997364     -2421.7414
   2   2.0000     -88.995728     -2421.6969
   3   2.0000     -88.991407     -2421.5793
   4   2.0000     -19.372024      -527.1396
   5   2.0000     -19.283672      -524.7354
   6   2.0000     -19.280609      -524.6520
   7   2.0000     -19.217968      -522.9475
   8   2.0000     -19.214057      -522.8411
   9   2.0000     -14.499822      -394.5602
  10   2.0000     -14.496978      -394.4828
  11   2.0000     -14.435958      -392.8224
  12   2.0000     -14.432872      -392.7384
  13   2.0000     -14.430883      -392.6843
  14   2.0000     -14.429559      -392.6483
  15   2.0000     -14.418163      -392.3382
  16   2.0000     -14.416323      -392.2881
  17   2.0000     -14.415689      -392.2708
  18   2.0000     -14.413756      -392.2182
  19   2.0000     -10.383019      -282.5363
  20   2.0000     -10.378247      -282.4065
  21   2.0000     -10.369291      -282.1628
  22   2.0000     -10.368892      -282.1519
  23   2.0000     -10.367985      -282.1272
  24   2.0000     -10.366299      -282.0813
  25   2.0000     -10.356497      -281.8146
  26   2.0000     -10.354837      -281.7695
  27   2.0000     -10.351073      -281.6670
  28   2.0000     -10.347803      -281.5780
  29   2.0000     -10.347511      -281.5701
  30   2.0000     -10.346399      -281.5398
  31   2.0000     -10.345011      -281.5021
  32   2.0000     -10.344347      -281.4840
  33   2.0000     -10.342926      -281.4453
  34   2.0000     -10.342574      -281.4357
  35   2.0000     -10.341780      -281.4142
  36   2.0000     -10.341150      -281.3970
  37   2.0000     -10.338309      -281.3197
  38   2.0000     -10.336807      -281.2788
  39   2.0000     -10.336504      -281.2706
  40   2.0000     -10.335180      -281.2345
  41   2.0000     -10.334769      -281.2234
  42   2.0000     -10.333049      -281.1766
  43   2.0000     -10.331375      -281.1310
  44   2.0000     -10.330866      -281.1172
  45   2.0000     -10.330243      -281.1002
  46   2.0000     -10.329890      -281.0906
  47   2.0000     -10.328870      -281.0628
  48   2.0000     -10.328664      -281.0572
  49   2.0000     -10.328546      -281.0540
  50   2.0000     -10.324872      -280.9541
  51   2.0000     -10.321381      -280.8591
  52   2.0000     -10.318749      -280.7874
  53   2.0000     -10.317466      -280.7525
  54   2.0000     -10.317027      -280.7406
  55   2.0000     -10.314559      -280.6734
  56   2.0000     -10.312627      -280.6208
  57   2.0000     -10.310555      -280.5645
  58   2.0000     -10.308707      -280.5142
  59   2.0000     -10.307648      -280.4854
  60   2.0000     -10.307615      -280.4845
  61   2.0000     -10.306374      -280.4507
  62   2.0000     -10.304200      -280.3915
  63   2.0000     -10.302743      -280.3519
  64   2.0000     -10.302270      -280.3390
  65   2.0000     -10.302079      -280.3338
  66   2.0000     -10.299049      -280.2514
  67   2.0000     -10.298420      -280.2343
  68   2.0000     -10.298053      -280.2243
  69   2.0000     -10.297630      -280.2128
  70   2.0000     -10.297486      -280.2088
  71   2.0000     -10.296950      -280.1942
  72   2.0000     -10.296695      -280.1873
  73   2.0000     -10.296116      -280.1716
  74   2.0000     -10.295353      -280.1508
  75   2.0000     -10.290110      -280.0081
  76   2.0000     -10.287362      -279.9334
  77   2.0000     -10.286841      -279.9192
  78   2.0000     -10.286444      -279.9084
  79   2.0000     -10.286208      -279.9020
  80   2.0000     -10.285921      -279.8941
  81   2.0000     -10.285747      -279.8894
  82   2.0000     -10.285324      -279.8779
  83   2.0000     -10.285144      -279.8730
  84   2.0000     -10.284751      -279.8623
  85   2.0000      -8.092286      -220.2023
  86   2.0000      -8.090499      -220.1537
  87   2.0000      -8.090010      -220.1404
  88   2.0000      -8.085029      -220.0048
  89   2.0000      -6.061355      -164.9378
  90   2.0000      -6.059892      -164.8980
  91   2.0000      -6.059235      -164.8802
  92   2.0000      -6.057244      -164.8260
  93   2.0000      -6.055333      -164.7740
  94   2.0000      -6.054993      -164.7647
  95   2.0000      -6.054845      -164.7607
  96   2.0000      -6.054353      -164.7473
  97   2.0000      -6.053039      -164.7116
  98   2.0000      -6.052458      -164.6958
  99   2.0000      -6.049844      -164.6246
 100   2.0000      -6.047476      -164.5602
 101   2.0000      -1.327747       -36.1298
 102   2.0000      -1.197758       -32.5926
 103   2.0000      -1.171796       -31.8862
 104   2.0000      -1.133542       -30.8453
 105   2.0000      -1.129667       -30.7398
 106   2.0000      -1.051577       -28.6149
 107   2.0000      -1.050434       -28.5838
 108   2.0000      -1.034234       -28.1429
 109   2.0000      -1.027344       -27.9555
 110   2.0000      -1.025444       -27.9038
 111   2.0000      -1.022589       -27.8261
 112   2.0000      -1.019505       -27.7421
 113   2.0000      -1.019055       -27.7299
 114   2.0000      -1.011820       -27.5330
 115   2.0000      -1.007262       -27.4090
 116   2.0000      -1.004050       -27.3216
 117   2.0000      -0.999651       -27.2019
 118   2.0000      -0.998910       -27.1817
 119   2.0000      -0.998591       -27.1730
 120   2.0000      -0.993885       -27.0450
 121   2.0000      -0.993424       -27.0325
 122   2.0000      -0.972925       -26.4746
 123   2.0000      -0.971980       -26.4489
 124   2.0000      -0.964927       -26.2570
 125   2.0000      -0.962168       -26.1819
 126   2.0000      -0.937317       -25.5057
 127   2.0000      -0.931633       -25.3510
 128   2.0000      -0.927641       -25.2424
 129   2.0000      -0.923705       -25.1353
 130   2.0000      -0.917993       -24.9799
 131   2.0000      -0.907764       -24.7015
 132   2.0000      -0.898635       -24.4531
 133   2.0000      -0.892873       -24.2963
 134   2.0000      -0.882351       -24.0100
 135   2.0000      -0.880860       -23.9694
 136   2.0000      -0.877820       -23.8867
 137   2.0000      -0.877481       -23.8775
 138   2.0000      -0.869598       -23.6630
 139   2.0000      -0.862857       -23.4795
 140   2.0000      -0.862299       -23.4644
 141   2.0000      -0.858275       -23.3548
 142   2.0000      -0.837277       -22.7835
 143   2.0000      -0.829036       -22.5592
 144   2.0000      -0.828759       -22.5517
 145   2.0000      -0.827646       -22.5214
 146   2.0000      -0.820201       -22.3188
 147   2.0000      -0.813545       -22.1377
 148   2.0000      -0.800547       -21.7840
 149   2.0000      -0.783692       -21.3254
 150   2.0000      -0.781078       -21.2542
 151   2.0000      -0.775164       -21.0933
 152   2.0000      -0.762377       -20.7453
 153   2.0000      -0.762278       -20.7426
 154   2.0000      -0.757336       -20.6082
 155   2.0000      -0.753117       -20.4933
 156   2.0000      -0.739347       -20.1186
 157   2.0000      -0.728894       -19.8342
 158   2.0000      -0.715556       -19.4713
 159   2.0000      -0.709327       -19.3018
 160   2.0000      -0.706720       -19.2308
 161   2.0000      -0.704269       -19.1641
 162   2.0000      -0.701932       -19.1006
 163   2.0000      -0.699182       -19.0257
 164   2.0000      -0.693971       -18.8839
 165   2.0000      -0.691453       -18.8154
 166   2.0000      -0.687011       -18.6945
 167   2.0000      -0.683366       -18.5953
 168   2.0000      -0.677681       -18.4406
 169   2.0000      -0.674709       -18.3598
 170   2.0000      -0.665746       -18.1159
 171   2.0000      -0.663296       -18.0492
 172   2.0000      -0.658859       -17.9285
 173   2.0000      -0.652229       -17.7481
 174   2.0000      -0.646940       -17.6041
 175   2.0000      -0.637141       -17.3375
 176   2.0000      -0.633942       -17.2504
 177   2.0000      -0.631966       -17.1967
 178   2.0000      -0.627396       -17.0723
 179   2.0000      -0.626301       -17.0425
 180   2.0000      -0.623618       -16.9695
 181   2.0000      -0.621837       -16.9211
 182   2.0000      -0.619761       -16.8646
 183   2.0000      -0.610506       -16.6127
 184   2.0000      -0.607911       -16.5421
 185   2.0000      -0.606571       -16.5056
 186   2.0000      -0.604220       -16.4417
 187   2.0000      -0.597495       -16.2587
 188   2.0000      -0.592124       -16.1125
 189   2.0000      -0.590268       -16.0620
 190   2.0000      -0.585327       -15.9276
 191   2.0000      -0.577795       -15.7226
 192   2.0000      -0.576043       -15.6749
 193   2.0000      -0.574286       -15.6271
 194   2.0000      -0.558663       -15.2020
 195   2.0000      -0.557859       -15.1801
 196   2.0000      -0.556093       -15.1321
 197   2.0000      -0.553273       -15.0553
 198   2.0000      -0.552263       -15.0278
 199   2.0000      -0.547530       -14.8991
 200   2.0000      -0.546374       -14.8676
 201   2.0000      -0.546265       -14.8646
 202   2.0000      -0.543782       -14.7970
 203   2.0000      -0.541008       -14.7216
 204   2.0000      -0.538642       -14.6572
 205   2.0000      -0.537762       -14.6332
 206   2.0000      -0.536351       -14.5948
 207   2.0000      -0.532911       -14.5013
 208   2.0000      -0.526532       -14.3277
 209   2.0000      -0.523385       -14.2420
 210   2.0000      -0.523144       -14.2355
 211   2.0000      -0.518523       -14.1097
 212   2.0000      -0.517842       -14.0912
 213   2.0000      -0.516811       -14.0631
 214   2.0000      -0.512835       -13.9550
 215   2.0000      -0.511738       -13.9251
 216   2.0000      -0.510673       -13.8961
 217   2.0000      -0.509209       -13.8563
 218   2.0000      -0.508210       -13.8291
 219   2.0000      -0.507473       -13.8090
 220   2.0000      -0.504473       -13.7274
 221   2.0000      -0.503041       -13.6884
 222   2.0000      -0.501778       -13.6541
 223   2.0000      -0.499393       -13.5892
 224   2.0000      -0.498204       -13.5568
 225   2.0000      -0.495041       -13.4708
 226   2.0000      -0.492925       -13.4132
 227   2.0000      -0.492741       -13.4082
 228   2.0000      -0.491414       -13.3720
 229   2.0000      -0.486870       -13.2484
 230   2.0000      -0.484377       -13.1806
 231   2.0000      -0.478043       -13.0082
 232   2.0000      -0.476302       -12.9608
 233   2.0000      -0.473126       -12.8744
 234   2.0000      -0.468798       -12.7566
 235   2.0000      -0.467099       -12.7104
 236   2.0000      -0.465576       -12.6690
 237   2.0000      -0.464531       -12.6405
 238   2.0000      -0.462423       -12.5832
 239   2.0000      -0.460419       -12.5286
 240   2.0000      -0.459090       -12.4925
 241   2.0000      -0.456629       -12.4255
 242   2.0000      -0.455244       -12.3878
 243   2.0000      -0.452865       -12.3231
 244   2.0000      -0.451053       -12.2738
 245   2.0000      -0.450314       -12.2537
 246   2.0000      -0.448498       -12.2042
 247   2.0000      -0.447834       -12.1862
 248   2.0000      -0.445528       -12.1234
 249   2.0000      -0.445015       -12.1095
 250   2.0000      -0.444462       -12.0944
 251   2.0000      -0.444242       -12.0884
 252   2.0000      -0.442324       -12.0363
 253   2.0000      -0.440223       -11.9791
 254   2.0000      -0.439721       -11.9654
 255   2.0000      -0.439429       -11.9575
 256   2.0000      -0.438462       -11.9312
 257   2.0000      -0.434223       -11.8158
 258   2.0000      -0.433619       -11.7994
 259   2.0000      -0.433191       -11.7877
 260   2.0000      -0.432312       -11.7638
 261   2.0000      -0.431290       -11.7360
 262   2.0000      -0.428468       -11.6592
 263   2.0000      -0.427410       -11.6304
 264   2.0000      -0.426305       -11.6004
 265   2.0000      -0.425343       -11.5742
 266   2.0000      -0.421954       -11.4819
 267   2.0000      -0.421355       -11.4657
 268   2.0000      -0.419237       -11.4080
 269   2.0000      -0.418879       -11.3983
 270   2.0000      -0.416542       -11.3347
 271   2.0000      -0.407762       -11.0958
 272   2.0000      -0.407559       -11.0903
 273   2.0000      -0.405040       -11.0217
 274   2.0000      -0.400413       -10.8958
 275   2.0000      -0.398943       -10.8558
 276   2.0000      -0.389754       -10.6057
 277   2.0000      -0.386596       -10.5198
 278   2.0000      -0.385032       -10.4773
 279   2.0000      -0.376010       -10.2317
 280   2.0000      -0.373810       -10.1719
 281   2.0000      -0.361943        -9.8490
 282   2.0000      -0.357773        -9.7355
 283   2.0000      -0.355709        -9.6793
 284   2.0000      -0.349319        -9.5054
 285   2.0000      -0.341610        -9.2957
 286   2.0000      -0.338078        -9.1996
 287   2.0000      -0.333886        -9.0855
 288   2.0000      -0.326695        -8.8898
 289   2.0000      -0.324853        -8.8397
 290   2.0000      -0.318665        -8.6713
 291   2.0000      -0.316638        -8.6162
 292   2.0000      -0.309748        -8.4287
 293   2.0000      -0.295900        -8.0519
 294   2.0000      -0.293680        -7.9914
 295   2.0000      -0.277444        -7.5496
 296   2.0000      -0.253243        -6.8911
 297   0.0000      -0.122486        -3.3330
 298   0.0000      -0.111083        -3.0227
 299   0.0000      -0.092087        -2.5058
 300   0.0000      -0.089561        -2.4371
 301   0.0000      -0.081153        -2.2083

MULLIKEN ATOMIC CHARGES
-----------------------
   0 C :    0.243080
   1 C :   -0.319322
   2 C :   -0.174349
   3 N :    0.152296
   4 C :   -0.206852
   5 N :    0.169510
   6 C :    0.034360
   7 C :    0.013987
   8 C :   -0.081458
   9 C :    0.093572
  10 C :    0.094770
  11 C :   -0.078346
  12 C :   -0.016185
  13 C :    0.034831
  14 C :    0.035650
  15 C :   -0.015505
  16 C :    0.142338
  17 O :   -0.139846
  18 C :   -0.141293
  19 C :    0.047862
  20 C :   -0.090380
  21 C :    0.005957
  22 C :    0.020227
  23 C :   -0.081667
  24 S :    0.208983
  25 C :   -0.076200
  26 C :    0.037555
  27 C :    0.304121
  28 C :   -0.294699
  29 C :   -0.185868
  30 N :    0.164922
  31 C :   -0.192969
  32 N :    0.179609
  33 C :   -0.066592
  34 C :   -0.145933
  35 S :    0.216578
  36 C :    0.170756
  37 C :    0.087230
  38 O :   -0.324306
  39 C :    0.188816
  40 C :   -0.013568
  41 O :   -0.368498
  42 C :    0.183211
  43 C :    0.189727
  44 C :   -0.052755
  45 C :   -0.087513
  46 N :    0.007844
  47 O :   -0.076690
  48 N :    0.053984
  49 C :   -0.162616
  50 C :   -0.072495
  51 C :    0.043054
  52 C :   -0.083285
  53 S :    0.197762
  54 C :   -0.086176
  55 C :   -0.008947
  56 C :    0.315388
  57 C :   -0.298903
  58 C :   -0.193684
  59 N :    0.195486
  60 C :   -0.195929
  61 N :    0.185643
  62 C :   -0.005006
  63 C :   -0.110883
  64 S :    0.203260
  65 C :    0.031521
  66 C :   -0.090849
  67 C :    0.322731
  68 C :   -0.361916
  69 C :   -0.180579
  70 N :    0.144433
  71 C :   -0.193820
  72 N :    0.151651
  73 C :    0.045059
  74 C :   -0.002460
  75 C :    0.156277
  76 O :   -0.148512
  77 C :   -0.080032
  78 C :    0.098109
  79 C :    0.096382
  80 C :   -0.082261
  81 C :   -0.018784
  82 C :    0.035559
  83 C :    0.038073
  84 C :   -0.016496
  85 H :   -0.011246
  86 H :   -0.005689
  87 H :   -0.010715
  88 H :   -0.003911
  89 H :   -0.005105
  90 H :   -0.016835
  91 H :    0.032236
  92 H :    0.018734
  93 H :    0.013620
  94 H :    0.054698
  95 H :    0.028551
  96 H :    0.034295
  97 H :    0.050646
  98 H :    0.048443
  99 H :    0.032052
 100 H :    0.028091
 101 H :    0.040132
 102 H :    0.009039
 103 H :   -0.009503
 104 H :   -0.009414
 105 H :   -0.009536
 106 H :   -0.004783
 107 H :   -0.005261
 108 H :   -0.016278
Sum of atomic charges:   -0.0000000

LOEWDIN ATOMIC CHARGES
----------------------
   0 C :    0.059960
   1 C :   -0.145671
   2 C :   -0.020097
   3 N :   -0.050574
   4 C :   -0.036940
   5 N :   -0.048758
   6 C :   -0.023340
   7 C :   -0.056706
   8 C :    0.032692
   9 C :   -0.009015
  10 C :   -0.005517
  11 C :    0.015884
  12 C :   -0.006385
  13 C :   -0.012698
  14 C :   -0.012813
  15 C :   -0.009083
  16 C :    0.083551
  17 O :   -0.142512
  18 C :   -0.099744
  19 C :    0.050141
  20 C :   -0.177994
  21 C :    0.014221
  22 C :   -0.074346
  23 C :   -0.149008
  24 S :    0.514231
  25 C :   -0.190448
  26 C :   -0.062106
  27 C :    0.083400
  28 C :   -0.103198
  29 C :   -0.010885
  30 N :   -0.041205
  31 C :   -0.018724
  32 N :   -0.028919
  33 C :   -0.023497
  34 C :   -0.154298
  35 S :    0.523852
  36 C :   -0.068559
  37 C :    0.050746
  38 O :   -0.093292
  39 C :    0.088408
  40 C :    0.024862
  41 O :   -0.130547
  42 C :    0.077081
  43 C :   -0.053468
  44 C :   -0.047491
  45 C :   -0.053486
  46 N :   -0.046681
  47 O :    0.086006
  48 N :   -0.009921
  49 C :   -0.160485
  50 C :   -0.018595
  51 C :   -0.055896
  52 C :   -0.193151
  53 S :    0.504379
  54 C :   -0.160593
  55 C :   -0.072225
  56 C :    0.072989
  57 C :   -0.090640
  58 C :   -0.022431
  59 N :   -0.015374
  60 C :   -0.019891
  61 N :   -0.020897
  62 C :    0.017805
  63 C :   -0.174991
  64 S :    0.494108
  65 C :    0.041440
  66 C :   -0.095036
  67 C :    0.077760
  68 C :   -0.144566
  69 C :   -0.016950
  70 N :   -0.055762
  71 C :   -0.023919
  72 N :   -0.056735
  73 C :   -0.026956
  74 C :   -0.055460
  75 C :    0.086190
  76 O :   -0.137438
  77 C :    0.033823
  78 C :   -0.008039
  79 C :   -0.006425
  80 C :    0.019656
  81 C :   -0.005402
  82 C :   -0.013596
  83 C :   -0.011846
  84 C :   -0.008927
  85 H :    0.039655
  86 H :    0.038660
  87 H :    0.034338
  88 H :    0.033377
  89 H :    0.032853
  90 H :    0.032034
  91 H :    0.054803
  92 H :    0.047308
  93 H :    0.037827
  94 H :    0.032464
  95 H :    0.017798
  96 H :    0.022913
  97 H :    0.030963
  98 H :    0.022562
  99 H :    0.019110
 100 H :    0.041741
 101 H :    0.043830
 102 H :    0.042320
 103 H :    0.040467
 104 H :    0.038813
 105 H :    0.034668
 106 H :    0.033161
 107 H :    0.032823
 108 H :    0.032486

  Mayer bond orders larger than 0.100000
B(  0-C ,  1-C ) :   1.6541 B(  0-C ,  6-C ) :   1.0013 B(  0-C , 18-C ) :   1.0370
B(  1-C ,  2-C ) :   1.1340 B(  1-C ,  4-C ) :   1.1504 B(  2-C ,  3-N ) :   2.9917
B(  4-C ,  5-N ) :   3.0221 B(  6-C ,  7-C ) :   1.2151 B(  6-C , 11-C ) :   1.4600
B(  7-C ,  8-C ) :   1.4764 B(  7-C , 16-C ) :   0.9199 B(  8-C ,  9-C ) :   1.1850
B(  8-C , 85-H ) :   1.0156 B(  9-C , 10-C ) :   1.2571 B(  9-C , 15-C ) :   1.2455
B( 10-C , 11-C ) :   1.2030 B( 10-C , 12-C ) :   1.2416 B( 11-C , 86-H ) :   0.9944
B( 12-C , 13-C ) :   1.4890 B( 12-C , 87-H ) :   0.9972 B( 13-C , 14-C ) :   1.2610
B( 13-C , 88-H ) :   0.9888 B( 14-C , 15-C ) :   1.4895 B( 14-C , 89-H ) :   0.9887
B( 15-C , 90-H ) :   0.9973 B( 16-C , 17-O ) :   2.2750 B( 16-C , 18-C ) :   0.9360
B( 18-C , 19-C ) :   1.6354 B( 19-C , 20-C ) :   1.1477 B( 19-C , 91-H ) :   0.9478
B( 20-C , 21-C ) :   1.3998 B( 20-C , 24-S ) :   1.0829 B( 21-C , 22-C ) :   1.3054
B( 21-C , 92-H ) :   1.0013 B( 22-C , 23-C ) :   1.3947 B( 22-C , 27-C ) :   0.9924
B( 23-C , 24-S ) :   1.1633 B( 23-C , 25-C ) :   1.2055 B( 25-C , 26-C ) :   1.4115
B( 25-C , 35-S ) :   1.0989 B( 26-C , 27-C ) :   0.9943 B( 26-C , 33-C ) :   1.2696
B( 27-C , 28-C ) :   1.7124 B( 28-C , 29-C ) :   1.1385 B( 28-C , 31-C ) :   1.1303
B( 29-C , 30-N ) :   2.9887 B( 31-C , 32-N ) :   2.9975 B( 33-C , 34-C ) :   1.4260
B( 33-C , 93-H ) :   0.9974 B( 34-C , 35-S ) :   1.1199 B( 34-C , 36-C ) :   1.1412
B( 36-C , 37-C ) :   1.4242 B( 36-C , 43-C ) :   0.1136 B( 36-C , 45-C ) :   1.1238
B( 37-C , 38-O ) :   1.2014 B( 37-C , 40-C ) :   1.1353 B( 38-O , 39-C ) :   0.9059
B( 39-C , 94-H ) :   0.9763 B( 39-C , 95-H ) :   0.9743 B( 39-C , 96-H ) :   0.9710
B( 40-C , 41-O ) :   1.1111 B( 40-C , 43-C ) :   1.4441 B( 41-O , 42-C ) :   0.8962
B( 42-C , 97-H ) :   0.9807 B( 42-C , 98-H ) :   0.9699 B( 42-C , 99-H ) :   0.9654
B( 43-C , 44-C ) :   1.1179 B( 43-C , 49-C ) :   1.1432 B( 44-C , 45-C ) :   1.1399
B( 44-C , 48-N ) :   1.6036 B( 45-C , 46-N ) :   1.5778 B( 46-N , 47-O ) :   1.0635
B( 46-N , 48-N ) :   0.1761 B( 47-O , 48-N ) :   1.0701 B( 49-C , 50-C ) :   1.4532
B( 49-C , 53-S ) :   1.0983 B( 50-C , 51-C ) :   1.2653 B( 50-C ,100-H ) :   0.9829
B( 51-C , 52-C ) :   1.4218 B( 51-C , 56-C ) :   0.9901 B( 52-C , 53-S ) :   1.0817
B( 52-C , 54-C ) :   1.2023 B( 54-C , 55-C ) :   1.3830 B( 54-C , 64-S ) :   1.1631
B( 55-C , 56-C ) :   0.9939 B( 55-C , 62-C ) :   1.3146 B( 56-C , 57-C ) :   1.7176
B( 57-C , 58-C ) :   1.1347 B( 57-C , 60-C ) :   1.1402 B( 58-C , 59-N ) :   2.9971
B( 60-C , 61-N ) :   2.9885 B( 62-C , 63-C ) :   1.3977 B( 62-C ,101-H ) :   0.9698
B( 63-C , 64-S ) :   1.0766 B( 63-C , 65-C ) :   1.2135 B( 65-C , 66-C ) :   1.5918
B( 65-C ,102-H ) :   0.9114 B( 66-C , 67-C ) :   1.0821 B( 66-C , 75-C ) :   0.9355
B( 67-C , 68-C ) :   1.6164 B( 67-C , 73-C ) :   0.9845 B( 68-C , 69-C ) :   1.1494
B( 68-C , 71-C ) :   1.1417 B( 69-C , 70-N ) :   2.9613 B( 71-C , 72-N ) :   2.9714
B( 73-C , 74-C ) :   1.2163 B( 73-C , 80-C ) :   1.4469 B( 74-C , 75-C ) :   0.9518
B( 74-C , 77-C ) :   1.4709 B( 75-C , 76-O ) :   2.1756 B( 77-C , 78-C ) :   1.1749
B( 77-C ,103-H ) :   1.0170 B( 78-C , 79-C ) :   1.2576 B( 78-C , 84-C ) :   1.2438
B( 79-C , 80-C ) :   1.2068 B( 79-C , 81-C ) :   1.2396 B( 80-C ,104-H ) :   0.9891
B( 81-C , 82-C ) :   1.4893 B( 81-C ,105-H ) :   0.9970 B( 82-C , 83-C ) :   1.2599
B( 82-C ,106-H ) :   0.9883 B( 83-C , 84-C ) :   1.4884 B( 83-C ,107-H ) :   0.9887
B( 84-C ,108-H ) :   0.9978

-----------------------------------------------------------------------------
         ABSORPTION SPECTRUM VIA TRANSITION ELECTRIC DIPOLE MOMENTS
-----------------------------------------------------------------------------
State   Energy  Wavelength   fosc         T2         TX        TY        TZ
        (cm-1)    (nm)                  (au**2)     (au)      (au)      (au)
-----------------------------------------------------------------------------
   0   12624.5    792.1   0.926398045  24.15781   2.64665  -4.11271   0.48855
   1   14404.8    694.2   0.206498207   4.71939   0.97106  -1.93790  -0.14480
   2   18576.2    538.3   1.371174595  24.30029   2.80213  -4.01773   0.55335
   3   20868.7    479.2   0.251857326   3.97314  -0.20454  -1.76613  -0.90117
   4   21292.5    469.6   0.033485163   0.51773  -0.59277   0.04172  -0.40572
   5   22902.4    436.6   0.246596745   3.54473  -1.63376   0.54547  -0.76026
   6   23469.1    426.1   0.009888008   0.13870   0.36583   0.04425  -0.05400
   7   25084.2    398.7   0.059547950   0.78152   0.24638   0.10168   0.84290
   8   25195.2    396.9   0.051009806   0.66652  -0.20410   0.78745  -0.06913
   9   27178.2    367.9   0.011183403   0.13547   0.16207   0.32521  -0.05864
  10   27423.6    364.6   0.005855636   0.07030  -0.10783  -0.02165  -0.24125
  11   27678.5    361.3   0.006450776   0.07673   0.25205  -0.01017   0.11443
  12   28227.6    354.3   0.007582292   0.08843   0.20873  -0.12748   0.16915
  13   28473.1    351.2   0.055505640   0.64177  -0.05370  -0.70095  -0.38413
  14   29023.0    344.6   0.096714445   1.09705   0.34239  -0.40972   0.90108
  15   29150.1    343.1   0.065265028   0.73708   0.54796   0.08779   0.65507
  16   29255.9    341.8   0.031580872   0.35537   0.05764   0.14833   0.57450
  17   29497.9    339.0   0.022937614   0.25600   0.07771  -0.49924   0.02683
  18   29643.9    337.3   0.093113870   1.03408  -0.36783   0.84639  -0.42709
  19   30205.8    331.1   0.563724586   6.14402   1.22811   1.42823   1.61119
  20   30439.0    328.5   0.013846551   0.14976  -0.31818  -0.17487   0.13394
  21   30534.6    327.5   0.222525432   2.39918   0.95016  -0.06132   1.22172
  22   30842.3    324.2   0.457319227   4.88144   0.62732  -2.06778   0.46064
  23   31043.2    322.1   0.300447704   3.18623   1.03652  -0.00796   1.45320
  24   31626.5    316.2   0.129261061   1.34553  -0.34789   0.89064   0.65670
  25   32228.5    310.3   0.036442281   0.37226  -0.28930   0.44274  -0.30421
  26   32589.9    306.8   0.315371090   3.18577  -0.90755   0.67966  -1.37847
  27   32705.1    305.8   0.177878548   1.79054  -0.18931   1.32105   0.09764
  28   33088.3    302.2   0.137646369   1.36951  -0.07848   1.11732   0.33904
  29   33218.9    301.0   0.008660679   0.08583   0.29171   0.01917  -0.01918
  30   33642.7    297.2   0.149687988   1.46478   0.33468   0.79248   0.85131
  31   33805.7    295.8   0.196357959   1.91220   0.62368   0.72884   0.99601
  32   34102.8    293.2   0.344827381   3.32880   0.28387   1.54101   0.93461
  33   34294.4    291.6   0.122813378   1.17896   0.16695  -0.54863   0.92200
  34   34368.8    291.0   0.011357342   0.10879  -0.23766  -0.22631  -0.03302
  35   34432.0    290.4   0.003964234   0.03790   0.09711  -0.12849  -0.10937
  36   34716.2    288.1   0.367190478   3.48205  -1.02195   0.27569  -1.53677
  37   34773.0    287.6   0.154386023   1.46164  -0.13249   1.18418  -0.20447
  38   34848.9    287.0   0.377558331   3.56673   0.99153   1.09056   1.18080
  39   35112.4    284.8   0.153634905   1.44047   0.22770  -0.51094  -1.06187
  40   35526.6    281.5   0.015126382   0.14017  -0.09904   0.27665  -0.23200
  41   35831.6    279.1   0.123009114   1.13018  -0.35419  -0.95067   0.31774
  42   36041.9    277.5   0.057804035   0.52799   0.49547  -0.40605   0.34297
  43   36722.9    272.3   0.196047903   1.75752  -0.46313   0.64544  -1.06134
  44   36839.3    271.4   0.075776131   0.67717  -0.41519   0.70324   0.10115
  45   37148.9    269.2   0.000548215   0.00486   0.02373   0.06150  -0.02266
  46   37315.5    268.0   0.066711605   0.58856  -0.28319  -0.22190  -0.67758
  47   37375.3    267.6   0.002833632   0.02496   0.12018   0.08337  -0.05970
  48   37724.3    265.1   0.032852626   0.28670  -0.46246  -0.13905  -0.23130
  49   37885.8    264.0   0.000666305   0.00579   0.05961  -0.00092   0.04728
  50   37968.5    263.4   0.127825825   1.10833  -0.75687   0.05480  -0.72971
  51   38096.7    262.5   0.024808722   0.21438   0.23517  -0.39579   0.04924
  52   38235.2    261.5   0.014245153   0.12265   0.20398  -0.27742  -0.06389
  53   38527.8    259.6   0.112601633   0.96216   0.35813  -0.89569   0.17785
  54   38637.1    258.8   0.045184320   0.38500   0.24115   0.50818   0.26190
  55   38653.2    258.7   0.014945814   0.12729   0.24559   0.20752   0.15464
  56   38960.5    256.7   0.018502732   0.15635   0.10558  -0.34706   0.15731
  57   39156.5    255.4   0.024177618   0.20328   0.15254  -0.42178  -0.04594
  58   39310.2    254.4   0.012724329   0.10656  -0.28973   0.14748   0.02947
  59   39580.4    252.7   0.008658446   0.07202   0.11276  -0.23376   0.06823
  60   39612.3    252.4   0.198160735   1.64688  -1.16702   0.32333  -0.42475
  61   39822.9    251.1   0.035622542   0.29449   0.03408   0.53123  -0.10547
  62   39878.9    250.8   0.029815080   0.24613  -0.22393  -0.34804  -0.27359
  63   40104.2    249.4   0.037286721   0.30608  -0.44745  -0.20818  -0.25006

FINAL SINGLE POINT ENERGY     -5040.757733258674

DIPOLE MOMENT
-------------
                                X             Y             Z
Electronic contribution:      0.85139     -13.58788      -9.53841
Nuclear contribution   :     -0.91534      14.20962      10.58993
                        -----------------------------------------
Total Dipole Moment    :     -0.06396       0.62174       1.05152
                        -----------------------------------------
Magnitude (a.u.)       :      1.22325
Magnitude (Debye)      :      3.10926

Rotational constants in cm-1:     0.001568     0.000157     0.000145
Rotational constants in MHz :    47.000931     4.694375     4.332105

                             ****ORCA TERMINATED NORMALLY****
TOTAL RUN TIME: 0 days 0 hours 13 minutes 10 seconds 57 msec
