                         Program Version 4.2.0 -  RELEASE  -
|  1> # ORCA input file
|  2> # SCF done       -164.791132346990          0.001006770109
|  3> ! CAM-B3LYP def2-SVP def2/J RIJCOSX Grid4 TightSCF
|  4> %maxcore 5000
|  5> %tddft
|  6>     Mode sTDDFT
|  7>     Ethresh 5.0
|  8>     maxcore 5000
|  9> end
| 10>
| 11> %pal
| 12>   nprocs 6
| 13>   end
| 14> * xyz 0 1
| 15>    C       16.31304         3.74827        -4.67315
| 16>    C       16.82765         4.17406        -3.47652
| 17>    C       17.90204         5.04625        -3.28324
| 18>    N       18.78313         5.76427        -3.12754
| 19>    S       15.96980         3.49644        -2.12245
| 20>    C       14.90183         2.62925        -3.18068
| 21>    C       15.22067         2.87152        -4.51689
| 22>    C       14.54989         2.33280        -5.62855
| 23>    N       14.03501         1.92263        -6.56749
| 24>    C       13.86242         1.82229        -2.64650
| 25>    C       12.93055         1.05234        -3.32440
| 26>    C       12.04480         0.42435        -2.45154
| 27>    C       12.30356         0.71753        -1.09678
| 28>    S       13.63988         1.75565        -0.90059
| 29>    C       11.33226         0.08149        -0.29175
| 30>    C       10.45304        -0.62401        -1.14035
| 31>    C       10.87554        -0.43800        -2.52099
| 32>    C       10.28044        -0.95028        -3.63478
| 33>    C       10.76197        -0.70698        -4.93994
| 34>    N       11.13807        -0.52129        -6.00632
| 35>    C        9.12803        -1.76287        -3.55915
| 36>    N        8.18858        -2.41773        -3.50573
| 37>    C        9.42427        -1.24593        -0.44875
| 38>    C        9.50337        -1.01214         0.92025
| 39>    S       10.89288        -0.03152         1.35779
| 40>    C        8.55853        -1.39883         1.90342
| 41>    C        8.71262        -1.00586         3.25198
| 42>    C        7.67954        -1.20572         4.23394
| 43>    N        7.87078        -0.78553         5.48840
| 44>    C        8.99832        -0.20382         5.82060
| 45>    C       10.02452         0.00010         4.84215
| 46>    N        9.84989        -0.39744         3.60473
| 47>    C       11.24380         0.62762         5.19885
| 48>    N       12.22131         1.13562         5.51164
| 49>    C        9.19422         0.20979         7.16160
| 50>    N        9.38207         0.55040         8.23865
| 51>    C        6.44376        -1.81483         3.91586
| 52>    C        6.34006        -2.32616         2.60033
| 53>    C        7.37554        -2.11876         1.61219
| 54>    N        7.04471        -2.66030         0.43982
| 55>    S        5.60674        -3.35774         0.55712
| 56>    N        5.31209        -3.00626         2.09217
| 57>    C        5.37433        -1.82193         4.84526
| 58>    C        4.10824        -2.36774         4.66005
| 59>    C        3.26031        -2.07717         5.71851
| 60>    C        3.88248        -1.30024         6.71863
| 61>    S        5.52120        -0.96509         6.37269
| 62>    C        2.91597        -0.99863         7.70779
| 63>    C        1.68946        -1.58479         7.34212
| 64>    C        1.86512        -2.28379         6.08031
| 65>    C        0.92029        -2.95652         5.36391
| 66>    C        1.21920        -3.58922         4.13788
| 67>    N        1.45369        -4.10409         3.14080
| 68>    C       -0.42560        -3.04408         5.78181
| 69>    N       -1.52475        -3.09659         6.10242
| 70>    C        0.66590        -1.30684         8.24887
| 71>    C        1.10102        -0.49886         9.28096
| 72>    S        2.80410        -0.08927         9.14514
| 73>    C        0.31310         0.01279        10.36578
| 74>    C        0.57381         1.18620        11.05644
| 75>    C        1.60021         2.10454        10.82773
| 76>    N        2.42381         2.88412        10.64917
| 77>    S       -0.60666         1.51224        12.29075
| 78>    C       -1.44840         0.08261        11.89768
| 79>    C       -0.86895        -0.61772        10.87276
| 80>    C       -1.37165        -1.86028        10.43954
| 81>    N       -1.78552        -2.88049        10.12270
| 82>    H       16.69952         4.05235        -5.62983
| 83>    H       12.90393         0.96608        -4.39532
| 84>    H        8.63302        -1.83133        -0.87960
| 85>    H        3.85386        -2.92691         3.77846
| 86>    H       -0.34759        -1.65144         8.15232
| 87>    H       -2.33160        -0.19097        12.44175
| 88> *
| 89>
| 90>                          ****END OF INPUT****

CARTESIAN COORDINATES (ANGSTROEM)
---------------------------------
  C     16.313040    3.748270   -4.673150
  C     16.827650    4.174060   -3.476520
  C     17.902040    5.046250   -3.283240
  N     18.783130    5.764270   -3.127540
  S     15.969800    3.496440   -2.122450
  C     14.901830    2.629250   -3.180680
  C     15.220670    2.871520   -4.516890
  C     14.549890    2.332800   -5.628550
  N     14.035010    1.922630   -6.567490
  C     13.862420    1.822290   -2.646500
  C     12.930550    1.052340   -3.324400
  C     12.044800    0.424350   -2.451540
  C     12.303560    0.717530   -1.096780
  S     13.639880    1.755650   -0.900590
  C     11.332260    0.081490   -0.291750
  C     10.453040   -0.624010   -1.140350
  C     10.875540   -0.438000   -2.520990
  C     10.280440   -0.950280   -3.634780
  C     10.761970   -0.706980   -4.939940
  N     11.138070   -0.521290   -6.006320
  C      9.128030   -1.762870   -3.559150
  N      8.188580   -2.417730   -3.505730
  C      9.424270   -1.245930   -0.448750
  C      9.503370   -1.012140    0.920250
  S     10.892880   -0.031520    1.357790
  C      8.558530   -1.398830    1.903420
  C      8.712620   -1.005860    3.251980
  C      7.679540   -1.205720    4.233940
  N      7.870780   -0.785530    5.488400
  C      8.998320   -0.203820    5.820600
  C     10.024520    0.000100    4.842150
  N      9.849890   -0.397440    3.604730
  C     11.243800    0.627620    5.198850
  N     12.221310    1.135620    5.511640
  C      9.194220    0.209790    7.161600
  N      9.382070    0.550400    8.238650
  C      6.443760   -1.814830    3.915860
  C      6.340060   -2.326160    2.600330
  C      7.375540   -2.118760    1.612190
  N      7.044710   -2.660300    0.439820
  S      5.606740   -3.357740    0.557120
  N      5.312090   -3.006260    2.092170
  C      5.374330   -1.821930    4.845260
  C      4.108240   -2.367740    4.660050
  C      3.260310   -2.077170    5.718510
  C      3.882480   -1.300240    6.718630
  S      5.521200   -0.965090    6.372690
  C      2.915970   -0.998630    7.707790
  C      1.689460   -1.584790    7.342120
  C      1.865120   -2.283790    6.080310
  C      0.920290   -2.956520    5.363910
  C      1.219200   -3.589220    4.137880
  N      1.453690   -4.104090    3.140800
  C     -0.425600   -3.044080    5.781810
  N     -1.524750   -3.096590    6.102420
  C      0.665900   -1.306840    8.248870
  C      1.101020   -0.498860    9.280960
  S      2.804100   -0.089270    9.145140
  C      0.313100    0.012790   10.365780
  C      0.573810    1.186200   11.056440
  C      1.600210    2.104540   10.827730
  N      2.423810    2.884120   10.649170
  S     -0.606660    1.512240   12.290750
  C     -1.448400    0.082610   11.897680
  C     -0.868950   -0.617720   10.872760
  C     -1.371650   -1.860280   10.439540
  N     -1.785520   -2.880490   10.122700
  H     16.699520    4.052350   -5.629830
  H     12.903930    0.966080   -4.395320
  H      8.633020   -1.831330   -0.879600
  H      3.853860   -2.926910    3.778460
  H     -0.347590   -1.651440    8.152320
  H     -2.331600   -0.190970   12.441750

 Total Charge           Charge          ....    0
 Multiplicity           Mult            ....    1
 Number of Electrons    NEL             ....  492
 Basis Dimension        Dim             ....  996

ORBITAL ENERGIES
----------------

  NO   OCC          E(Eh)            E(eV)
   0   2.0000     -89.062630     -2423.5174
   1   2.0000     -89.011503     -2422.1261
   2   2.0000     -89.006615     -2421.9931
   3   2.0000     -89.004691     -2421.9408
   4   2.0000     -89.002245     -2421.8742
   5   2.0000     -88.996665     -2421.7224
   6   2.0000     -88.995964     -2421.7033
   7   2.0000     -14.487656      -394.2292
   8   2.0000     -14.487513      -394.2253
   9   2.0000     -14.471096      -393.7785
  10   2.0000     -14.470583      -393.7646
  11   2.0000     -14.448603      -393.1665
  12   2.0000     -14.447152      -393.1270
  13   2.0000     -14.437451      -392.8630
  14   2.0000     -14.435889      -392.8205
  15   2.0000     -14.434262      -392.7762
  16   2.0000     -14.433878      -392.7658
  17   2.0000     -14.432625      -392.7317
  18   2.0000     -14.427210      -392.5843
  19   2.0000     -14.422916      -392.4675
  20   2.0000     -14.422569      -392.4580
  21   2.0000     -10.405292      -283.1424
  22   2.0000     -10.404154      -283.1114
  23   2.0000     -10.373852      -282.2869
  24   2.0000     -10.371507      -282.2231
  25   2.0000     -10.368173      -282.1323
  26   2.0000     -10.367918      -282.1254
  27   2.0000     -10.363264      -281.9987
  28   2.0000     -10.363255      -281.9985
  29   2.0000     -10.362963      -281.9906
  30   2.0000     -10.360991      -281.9369
  31   2.0000     -10.359956      -281.9087
  32   2.0000     -10.358441      -281.8675
  33   2.0000     -10.355105      -281.7767
  34   2.0000     -10.353866      -281.7430
  35   2.0000     -10.349734      -281.6306
  36   2.0000     -10.349535      -281.6252
  37   2.0000     -10.347628      -281.5733
  38   2.0000     -10.347048      -281.5575
  39   2.0000     -10.343976      -281.4739
  40   2.0000     -10.341905      -281.4175
  41   2.0000     -10.341656      -281.4108
  42   2.0000     -10.341464      -281.4055
  43   2.0000     -10.340163      -281.3701
  44   2.0000     -10.339570      -281.3540
  45   2.0000     -10.338600      -281.3276
  46   2.0000     -10.337769      -281.3050
  47   2.0000     -10.337401      -281.2950
  48   2.0000     -10.337321      -281.2928
  49   2.0000     -10.336744      -281.2771
  50   2.0000     -10.336334      -281.2660
  51   2.0000     -10.335966      -281.2559
  52   2.0000     -10.334272      -281.2098
  53   2.0000     -10.333264      -281.1824
  54   2.0000     -10.333001      -281.1752
  55   2.0000     -10.327757      -281.0325
  56   2.0000     -10.327371      -281.0220
  57   2.0000     -10.324930      -280.9556
  58   2.0000     -10.322524      -280.8902
  59   2.0000     -10.319526      -280.8086
  60   2.0000     -10.318550      -280.7820
  61   2.0000     -10.315602      -280.7018
  62   2.0000     -10.314874      -280.6820
  63   2.0000     -10.312493      -280.6172
  64   2.0000     -10.310857      -280.5727
  65   2.0000     -10.309542      -280.5369
  66   2.0000     -10.309322      -280.5309
  67   2.0000      -8.153619      -221.8713
  68   2.0000      -8.106968      -220.6018
  69   2.0000      -8.101422      -220.4509
  70   2.0000      -8.100110      -220.4152
  71   2.0000      -8.096490      -220.3167
  72   2.0000      -8.089351      -220.1224
  73   2.0000      -8.088772      -220.1067
  74   2.0000      -6.124702      -166.6616
  75   2.0000      -6.116720      -166.4444
  76   2.0000      -6.116569      -166.4403
  77   2.0000      -6.076313      -165.3449
  78   2.0000      -6.071745      -165.2206
  79   2.0000      -6.070705      -165.1923
  80   2.0000      -6.069588      -165.1619
  81   2.0000      -6.069293      -165.1539
  82   2.0000      -6.066477      -165.0772
  83   2.0000      -6.065734      -165.0570
  84   2.0000      -6.065187      -165.0421
  85   2.0000      -6.063712      -165.0020
  86   2.0000      -6.062014      -164.9558
  87   2.0000      -6.061396      -164.9390
  88   2.0000      -6.058959      -164.8727
  89   2.0000      -6.058927      -164.8718
  90   2.0000      -6.058302      -164.8548
  91   2.0000      -6.054104      -164.7405
  92   2.0000      -6.053524      -164.7248
  93   2.0000      -6.051741      -164.6763
  94   2.0000      -6.051201      -164.6615
  95   2.0000      -1.160663       -31.5832
  96   2.0000      -1.146433       -31.1960
  97   2.0000      -1.075357       -29.2620
  98   2.0000      -1.057050       -28.7638
  99   2.0000      -1.055697       -28.7270
 100   2.0000      -1.046515       -28.4771
 101   2.0000      -1.040685       -28.3185
 102   2.0000      -1.033451       -28.1216
 103   2.0000      -1.028093       -27.9758
 104   2.0000      -1.027081       -27.9483
 105   2.0000      -1.023179       -27.8421
 106   2.0000      -1.017076       -27.6760
 107   2.0000      -1.015210       -27.6253
 108   2.0000      -1.013764       -27.5859
 109   2.0000      -1.012446       -27.5501
 110   2.0000      -1.011637       -27.5280
 111   2.0000      -1.007615       -27.4186
 112   2.0000      -1.005085       -27.3498
 113   2.0000      -1.003722       -27.3127
 114   2.0000      -0.997805       -27.1517
 115   2.0000      -0.991723       -26.9862
 116   2.0000      -0.968451       -26.3529
 117   2.0000      -0.963875       -26.2284
 118   2.0000      -0.933197       -25.3936
 119   2.0000      -0.930287       -25.3144
 120   2.0000      -0.925258       -25.1776
 121   2.0000      -0.910576       -24.7780
 122   2.0000      -0.902816       -24.5669
 123   2.0000      -0.898675       -24.4542
 124   2.0000      -0.891076       -24.2474
 125   2.0000      -0.885666       -24.1002
 126   2.0000      -0.877698       -23.8834
 127   2.0000      -0.872554       -23.7434
 128   2.0000      -0.865301       -23.5460
 129   2.0000      -0.863808       -23.5054
 130   2.0000      -0.855711       -23.2851
 131   2.0000      -0.828644       -22.5485
 132   2.0000      -0.826337       -22.4858
 133   2.0000      -0.799948       -21.7677
 134   2.0000      -0.791565       -21.5396
 135   2.0000      -0.787385       -21.4258
 136   2.0000      -0.779089       -21.2001
 137   2.0000      -0.760460       -20.6932
 138   2.0000      -0.755363       -20.5545
 139   2.0000      -0.750200       -20.4140
 140   2.0000      -0.737398       -20.0656
 141   2.0000      -0.733429       -19.9576
 142   2.0000      -0.726761       -19.7762
 143   2.0000      -0.721741       -19.6396
 144   2.0000      -0.709028       -19.2936
 145   2.0000      -0.708175       -19.2704
 146   2.0000      -0.702902       -19.1269
 147   2.0000      -0.696041       -18.9402
 148   2.0000      -0.688276       -18.7289
 149   2.0000      -0.681981       -18.5576
 150   2.0000      -0.673662       -18.3313
 151   2.0000      -0.669676       -18.2228
 152   2.0000      -0.648960       -17.6591
 153   2.0000      -0.646184       -17.5836
 154   2.0000      -0.641726       -17.4623
 155   2.0000      -0.638521       -17.3750
 156   2.0000      -0.633193       -17.2301
 157   2.0000      -0.627853       -17.0848
 158   2.0000      -0.622490       -16.9388
 159   2.0000      -0.617533       -16.8039
 160   2.0000      -0.605275       -16.4704
 161   2.0000      -0.602996       -16.4083
 162   2.0000      -0.600093       -16.3294
 163   2.0000      -0.591490       -16.0953
 164   2.0000      -0.577761       -15.7217
 165   2.0000      -0.576743       -15.6940
 166   2.0000      -0.570064       -15.5122
 167   2.0000      -0.567902       -15.4534
 168   2.0000      -0.559530       -15.2256
 169   2.0000      -0.557984       -15.1835
 170   2.0000      -0.553567       -15.0633
 171   2.0000      -0.551287       -15.0013
 172   2.0000      -0.547710       -14.9039
 173   2.0000      -0.545304       -14.8385
 174   2.0000      -0.544388       -14.8135
 175   2.0000      -0.539894       -14.6913
 176   2.0000      -0.529236       -14.4012
 177   2.0000      -0.526535       -14.3277
 178   2.0000      -0.519280       -14.1303
 179   2.0000      -0.513256       -13.9664
 180   2.0000      -0.509598       -13.8669
 181   2.0000      -0.508842       -13.8463
 182   2.0000      -0.508060       -13.8250
 183   2.0000      -0.506374       -13.7791
 184   2.0000      -0.504890       -13.7388
 185   2.0000      -0.504860       -13.7379
 186   2.0000      -0.501989       -13.6598
 187   2.0000      -0.495291       -13.4775
 188   2.0000      -0.490178       -13.3384
 189   2.0000      -0.489836       -13.3291
 190   2.0000      -0.485666       -13.2156
 191   2.0000      -0.482813       -13.1380
 192   2.0000      -0.482006       -13.1160
 193   2.0000      -0.479988       -13.0611
 194   2.0000      -0.477612       -12.9965
 195   2.0000      -0.475184       -12.9304
 196   2.0000      -0.471544       -12.8314
 197   2.0000      -0.470668       -12.8075
 198   2.0000      -0.468616       -12.7517
 199   2.0000      -0.467240       -12.7143
 200   2.0000      -0.466779       -12.7017
 201   2.0000      -0.464859       -12.6494
 202   2.0000      -0.461722       -12.5641
 203   2.0000      -0.461268       -12.5517
 204   2.0000      -0.460355       -12.5269
 205   2.0000      -0.460037       -12.5182
 206   2.0000      -0.457542       -12.4504
 207   2.0000      -0.455166       -12.3857
 208   2.0000      -0.453035       -12.3277
 209   2.0000      -0.450832       -12.2678
 210   2.0000      -0.447909       -12.1882
 211   2.0000      -0.445683       -12.1277
 212   2.0000      -0.445495       -12.1225
 213   2.0000      -0.444853       -12.1051
 214   2.0000      -0.444170       -12.0865
 215   2.0000      -0.443971       -12.0811
 216   2.0000      -0.443439       -12.0666
 217   2.0000      -0.439506       -11.9596
 218   2.0000      -0.436413       -11.8754
 219   2.0000      -0.434181       -11.8147
 220   2.0000      -0.433650       -11.8002
 221   2.0000      -0.433151       -11.7866
 222   2.0000      -0.432550       -11.7703
 223   2.0000      -0.429085       -11.6760
 224   2.0000      -0.426452       -11.6043
 225   2.0000      -0.423807       -11.5324
 226   2.0000      -0.419093       -11.4041
 227   2.0000      -0.418794       -11.3960
 228   2.0000      -0.416813       -11.3421
 229   2.0000      -0.406009       -11.0481
 230   2.0000      -0.398320       -10.8388
 231   2.0000      -0.396399       -10.7866
 232   2.0000      -0.394489       -10.7346
 233   2.0000      -0.372207       -10.1283
 234   2.0000      -0.369084       -10.0433
 235   2.0000      -0.367796       -10.0082
 236   2.0000      -0.362713        -9.8699
 237   2.0000      -0.357016        -9.7149
 238   2.0000      -0.355988        -9.6869
 239   2.0000      -0.349653        -9.5146
 240   2.0000      -0.344954        -9.3867
 241   2.0000      -0.331452        -9.0193
 242   2.0000      -0.328902        -8.9499
 243   2.0000      -0.316920        -8.6238
 244   2.0000      -0.287500        -7.8233
 245   2.0000      -0.252106        -6.8601
 246   0.0000      -0.148455        -4.0397
 247   0.0000      -0.113620        -3.0917
 248   0.0000      -0.108423        -2.9503
 249   0.0000      -0.075299        -2.0490
 250   0.0000      -0.070940        -1.9304

MULLIKEN ATOMIC CHARGES
-----------------------
   0 C :    0.095300
   1 C :   -0.251760
   2 C :   -0.132083
   3 N :    0.145873
   4 S :    0.210906
   5 C :   -0.032882
   6 C :   -0.072482
   7 C :   -0.199818
   8 N :    0.160671
   9 C :   -0.081033
  10 C :   -0.050889
  11 C :    0.018226
  12 C :   -0.095072
  13 S :    0.198773
  14 C :   -0.060947
  15 C :    0.038054
  16 C :    0.309748
  17 C :   -0.296301
  18 C :   -0.199238
  19 N :    0.201246
  20 C :   -0.185988
  21 N :    0.173748
  22 C :   -0.062703
  23 C :   -0.170276
  24 S :    0.206767
  25 C :    0.189043
  26 C :   -0.058134
  27 C :   -0.071088
  28 N :    0.000943
  29 C :   -0.104316
  30 C :   -0.100984
  31 N :   -0.004324
  32 C :   -0.237125
  33 N :    0.254127
  34 C :   -0.235466
  35 N :    0.254740
  36 C :    0.193964
  37 C :   -0.012039
  38 C :   -0.012765
  39 N :   -0.282946
  40 S :    0.591493
  41 N :   -0.280696
  42 C :   -0.171800
  43 C :   -0.060065
  44 C :    0.036631
  45 C :   -0.059520
  46 S :    0.211156
  47 C :   -0.094774
  48 C :    0.019668
  49 C :    0.307917
  50 C :   -0.296389
  51 C :   -0.186311
  52 N :    0.174943
  53 C :   -0.193126
  54 N :    0.186199
  55 C :   -0.027927
  56 C :   -0.165793
  57 S :    0.226019
  58 C :    0.339063
  59 C :   -0.350236
  60 C :   -0.233666
  61 N :    0.163630
  62 S :    0.243041
  63 C :   -0.047641
  64 C :   -0.127679
  65 C :   -0.188457
  66 N :    0.165954
  67 H :    0.018371
  68 H :    0.029970
  69 H :    0.022891
  70 H :    0.023924
  71 H :    0.028405
  72 H :    0.053333
Sum of atomic charges:   -0.0000000

LOEWDIN ATOMIC CHARGES
----------------------
   0 C :    0.020419
   1 C :   -0.218228
   2 C :   -0.056493
   3 N :   -0.035265
   4 S :    0.484853
   5 C :   -0.141427
   6 C :   -0.109675
   7 C :   -0.036011
   8 N :   -0.033590
   9 C :   -0.191208
  10 C :   -0.006658
  11 C :   -0.063207
  12 C :   -0.167301
  13 S :    0.477849
  14 C :   -0.182913
  15 C :   -0.066613
  16 C :    0.075078
  17 C :   -0.092028
  18 C :   -0.025587
  19 N :   -0.010605
  20 C :   -0.015038
  21 N :   -0.028623
  22 C :   -0.007901
  23 C :   -0.162131
  24 S :    0.510487
  25 C :   -0.039948
  26 C :   -0.014114
  27 C :   -0.015941
  28 N :   -0.015244
  29 C :   -0.021977
  30 C :   -0.019250
  31 N :   -0.017889
  32 C :   -0.039517
  33 N :    0.004612
  34 C :   -0.040270
  35 N :    0.005453
  36 C :   -0.033448
  37 C :   -0.037652
  38 C :   -0.035915
  39 N :   -0.271367
  40 S :    0.710497
  41 N :   -0.269593
  42 C :   -0.166085
  43 C :   -0.003749
  44 C :   -0.069872
  45 C :   -0.174874
  46 S :    0.513784
  47 C :   -0.174059
  48 C :   -0.063353
  49 C :    0.077207
  50 C :   -0.095964
  51 C :   -0.015932
  52 N :   -0.030259
  53 C :   -0.021041
  54 N :   -0.019450
  55 C :   -0.010334
  56 C :   -0.173890
  57 S :    0.517847
  58 C :   -0.016084
  59 C :   -0.233530
  60 C :   -0.077524
  61 N :   -0.032658
  62 S :    0.521039
  63 C :   -0.122489
  64 C :   -0.099256
  65 C :   -0.035972
  66 N :   -0.030511
  67 H :    0.052606
  68 H :    0.049130
  69 H :    0.039107
  70 H :    0.039462
  71 H :    0.046705
  72 H :    0.043378

  Mayer bond orders larger than 0.100000
B(  0-C ,  1-C ) :   1.5443 B(  0-C ,  6-C ) :   1.2744 B(  0-C , 67-H ) :   1.0070
B(  1-C ,  2-C ) :   1.1618 B(  1-C ,  4-S ) :   1.1096 B(  1-C ,  5-C ) :   0.1071
B(  2-C ,  3-N ) :   3.0212 B(  4-S ,  5-C ) :   1.1550 B(  5-C ,  6-C ) :   1.4895
B(  5-C ,  9-C ) :   1.1509 B(  6-C ,  7-C ) :   1.1091 B(  7-C ,  8-N ) :   2.9795
B(  9-C , 10-C ) :   1.4662 B(  9-C , 13-S ) :   1.0837 B( 10-C , 11-C ) :   1.2996
B( 10-C , 68-H ) :   0.9828 B( 11-C , 12-C ) :   1.4137 B( 11-C , 16-C ) :   0.9894
B( 12-C , 13-S ) :   1.1357 B( 12-C , 14-C ) :   1.2073 B( 14-C , 15-C ) :   1.4000
B( 14-C , 24-S ) :   1.0827 B( 15-C , 16-C ) :   0.9908 B( 15-C , 22-C ) :   1.2840
B( 16-C , 17-C ) :   1.7166 B( 17-C , 18-C ) :   1.1351 B( 17-C , 20-C ) :   1.1402
B( 18-C , 19-N ) :   2.9951 B( 20-C , 21-N ) :   2.9832 B( 22-C , 23-C ) :   1.4070
B( 22-C , 69-H ) :   0.9823 B( 23-C , 24-S ) :   1.0919 B( 23-C , 25-C ) :   1.2076
B( 25-C , 26-C ) :   1.2537 B( 25-C , 36-C ) :   0.1187 B( 25-C , 38-C ) :   1.1960
B( 26-C , 27-C ) :   1.1120 B( 26-C , 31-N ) :   1.3991 B( 27-C , 28-N ) :   1.4094
B( 27-C , 36-C ) :   1.2442 B( 28-N , 29-C ) :   1.6910 B( 29-C , 30-C ) :   1.2199
B( 29-C , 34-C ) :   1.1662 B( 30-C , 31-N ) :   1.6941 B( 30-C , 32-C ) :   1.1650
B( 32-C , 33-N ) :   3.0405 B( 34-C , 35-N ) :   3.0400 B( 36-C , 37-C ) :   1.1986
B( 36-C , 42-C ) :   1.2161 B( 37-C , 38-C ) :   1.1003 B( 37-C , 41-N ) :   1.5153
B( 38-C , 39-N ) :   1.5167 B( 39-N , 40-S ) :   1.2839 B( 39-N , 41-N ) :   0.1457
B( 40-S , 41-N ) :   1.2874 B( 42-C , 43-C ) :   1.4035 B( 42-C , 46-S ) :   1.0850
B( 43-C , 44-C ) :   1.2863 B( 43-C , 70-H ) :   0.9826 B( 44-C , 45-C ) :   1.3989
B( 44-C , 49-C ) :   0.9891 B( 45-C , 46-S ) :   1.0986 B( 45-C , 47-C ) :   1.1952
B( 47-C , 48-C ) :   1.4165 B( 47-C , 57-S ) :   1.1386 B( 48-C , 49-C ) :   0.9884
B( 48-C , 55-C ) :   1.2990 B( 49-C , 50-C ) :   1.7166 B( 50-C , 51-C ) :   1.1382
B( 50-C , 53-C ) :   1.1345 B( 51-C , 52-N ) :   2.9858 B( 53-C , 54-N ) :   2.9894
B( 55-C , 56-C ) :   1.4676 B( 55-C , 71-H ) :   0.9815 B( 56-C , 57-S ) :   1.1101
B( 56-C , 58-C ) :   1.0668 B( 58-C , 59-C ) :   1.4667 B( 58-C , 64-C ) :   1.2596
B( 59-C , 60-C ) :   1.2272 B( 59-C , 62-S ) :   1.1456 B( 60-C , 61-N ) :   2.9990
B( 62-S , 63-C ) :   1.2067 B( 63-C , 64-C ) :   1.5479 B( 63-C , 72-H ) :   0.9726
B( 64-C , 65-C ) :   1.0961 B( 65-C , 66-N ) :   3.0205

-----------------------------------------------------------------------------
         ABSORPTION SPECTRUM VIA TRANSITION ELECTRIC DIPOLE MOMENTS
-----------------------------------------------------------------------------
State   Energy  Wavelength   fosc         T2         TX        TY        TZ
        (cm-1)    (nm)                  (au**2)     (au)      (au)      (au)
-----------------------------------------------------------------------------
   0    7386.3   1353.9   0.552348973  24.61854  -3.58455  -0.74811   3.34811
   1   13472.7    742.2   0.024352870   0.59507  -0.25904  -0.63425   0.35454
   2   14369.4    695.9   0.033896514   0.77659   0.67374  -0.15561  -0.54631
   3   16490.0    606.4   0.030596613   0.61084  -0.21906   0.73712  -0.13965
   4   22241.1    449.6   0.037481826   0.55481  -0.71873   0.06381   0.18482
   5   22530.9    443.8   0.303211155   4.43039  -1.11823  -0.59373   1.68150
   6   23192.0    431.2   0.567250384   8.05216   2.25440   0.53054  -1.63963
   7   23534.0    424.9   0.076185166   1.06574  -0.51073  -0.07502   0.89402
   8   23847.7    419.3   0.121302672   1.67455  -1.16175  -0.42248   0.38261
   9   24867.6    402.1   0.012674771   0.16780   0.12172   0.23047   0.31601
  10   25198.7    396.8   0.036659939   0.47895  -0.56604  -0.03264   0.39684
  11   25333.2    394.7   0.005950608   0.07733   0.19415   0.16772  -0.10725
  12   25934.4    385.6   0.472730566   6.00085   1.84803   1.24600  -1.01642
  13   27818.9    359.5   0.344526230   4.07716   0.91972  -0.99209  -1.49901
  14   29333.8    340.9   0.034082820   0.38251  -0.49781  -0.33524   0.14936
  15   29926.0    334.2   0.317997537   3.49825   0.83152   1.25287   1.11226
  16   30208.2    331.0   0.052701460   0.57435  -0.60915  -0.08289   0.44318
  17   30834.3    324.3   0.002375338   0.02536   0.09338  -0.04800  -0.11974
  18   31055.6    322.0   0.432035030   4.57988  -0.49886  -0.85076  -1.89927
  19   31186.4    320.7   0.126410161   1.33442  -1.06391  -0.41711   0.16893
  20   31664.9    315.8   0.301479271   3.13440   1.22145   0.32076  -1.24079
  21   31885.9    313.6   0.038822168   0.40083  -0.02876  -0.02039  -0.63213
  22   32192.7    310.6   0.102962516   1.05293  -0.37833  -0.19169  -0.93437
  23   32297.3    309.6   0.793945311   8.09281  -1.64473  -1.05908  -2.06544
  24   32784.3    305.0   0.267483259   2.68601   1.46664   0.59972   0.41872
  25   33059.8    302.5   0.101775575   1.01349   0.42575   0.65509   0.63489
  26   33546.7    298.1   0.084343064   0.82770  -0.78022  -0.41073  -0.22421
  27   33888.2    295.1   0.054769545   0.53207  -0.10110  -0.52111  -0.50029
  28   33905.8    294.9   0.190461712   1.84931  -1.06929  -0.84016   0.00859
  29   34448.5    290.3   0.058375666   0.55787   0.13356   0.60522   0.41683
  30   34667.9    288.5   0.153345269   1.45619  -0.33957   0.40440   1.08506
  31   34830.7    287.1   0.154881491   1.46390  -0.98484  -0.27601   0.64638
  32   35365.3    282.8   0.067919648   0.63226  -0.20907   0.36227   0.67624
  33   36046.0    277.4   0.021243290   0.19402   0.21054  -0.35862  -0.14518
  34   36770.9    272.0   0.098940789   0.88582   0.44737   0.62824   0.53945
  35   36928.8    270.8   0.053424845   0.47627   0.25104  -0.18573  -0.61543
  36   37192.6    268.9   0.085687202   0.75846  -0.30718   0.45046   0.67911
  37   37629.8    265.7   0.070515854   0.61692   0.60004   0.47459   0.17786
  38   38005.8    263.1   0.030527020   0.26443  -0.24865  -0.19879  -0.40384
  39   38623.6    258.9   0.005196011   0.04429   0.11576   0.03754   0.17170
  40   38712.9    258.3   0.027602677   0.23473   0.00983   0.19373   0.44396
  41   39143.5    255.5   0.077550789   0.65223  -0.18944  -0.22337  -0.75263
  42   39421.1    253.7   0.018005260   0.15036  -0.14345  -0.10309  -0.34520
  43   39698.4    251.9   0.009034441   0.07492  -0.10221  -0.24287  -0.07409
  44   39705.6    251.9   0.054399198   0.45104  -0.45682  -0.30882  -0.38339
  45   40004.7    250.0   0.165739898   1.36393   0.70589   0.55812   0.74441
  46   40243.5    248.5   0.034772403   0.28446  -0.18237  -0.11314  -0.48826

FINAL SINGLE POINT ENERGY     -5306.082625419761

DIPOLE MOMENT
-------------
                                X             Y             Z
Electronic contribution:      3.63679       0.39634       6.98021
Nuclear contribution   :     -5.01024      -0.45828      -4.58718
                        -----------------------------------------
Total Dipole Moment    :     -1.37345      -0.06194       2.39303
                        -----------------------------------------
Magnitude (a.u.)       :      2.75986
Magnitude (Debye)      :      7.01500

Rotational constants in cm-1:     0.002060     0.000310     0.000280
Rotational constants in MHz :    61.747863     9.290480     8.397811

                             ****ORCA TERMINATED NORMALLY****
TOTAL RUN TIME: 0 days 0 hours 7 minutes 20 seconds 538 msec
