                         Program Version 4.2.0 -  RELEASE  -
|  1> # ORCA input file
|  2> # SCF done       -181.565448416206          0.000313177845
|  3> ! CAM-B3LYP def2-SVP def2/J RIJCOSX Grid4 TightSCF
|  4> %maxcore 5000
|  5> %tddft
|  6>     Mode sTDDFT
|  7>     Ethresh 5.0
|  8>     maxcore 5000
|  9> end
| 10>
| 11> %pal
| 12>   nprocs 6
| 13>   end
| 14> * xyz 0 1
| 15>    C       -3.37440        -3.23766        -3.56091
| 16>    C       -2.46120        -3.66375        -4.49051
| 17>    C       -1.70064        -4.84571        -4.37325
| 18>    N       -1.05835        -5.79686        -4.34210
| 19>    C       -2.14812        -2.98657        -5.68721
| 20>    N       -1.83798        -2.49287        -6.67682
| 21>    C       -3.67897        -3.89927        -2.29953
| 22>    C       -4.62930        -3.12148        -1.59080
| 23>    C       -5.12092        -3.49304        -0.36288
| 24>    C       -4.64740        -4.68266         0.19851
| 25>    C       -3.69810        -5.45255        -0.51582
| 26>    C       -3.20485        -5.08104        -1.76055
| 27>    S       -3.26185        -6.88473         0.36274
| 28>    C       -4.32995        -6.44888         1.65146
| 29>    C       -4.98637        -5.28691         1.44182
| 30>    C       -4.99003        -1.93668        -2.38767
| 31>    O       -5.87397        -1.14384        -2.14590
| 32>    C       -4.15863        -2.01763        -3.62072
| 33>    C       -4.27634        -1.16250        -4.67017
| 34>    C       -4.91245         0.11865        -4.60226
| 35>    C       -5.65690         0.63457        -5.65154
| 36>    C       -6.34358         1.84704        -5.58120
| 37>    C       -6.29914         2.69067        -4.47610
| 38>    C       -5.44714         2.25099        -3.41998
| 39>    C       -4.77874         0.97509        -3.47671
| 40>    N       -4.03573         0.87397        -2.39398
| 41>    O       -4.23454         1.99038        -1.70054
| 42>    N       -5.07950         2.83014        -2.29549
| 43>    C       -7.02836         3.90880        -4.36945
| 44>    N       -7.98276         4.29556        -5.29035
| 45>    C       -8.50324         5.48501        -4.89380
| 46>    C       -9.43865         6.45924        -5.21269
| 47>    C       -9.33076         7.43881        -4.21284
| 48>    N       -8.35231         7.06909        -3.31234
| 49>    C       -7.83754         5.87307        -3.69813
| 50>    C       -6.92145         4.88316        -3.36731
| 51>    C      -10.05761         8.64248        -4.05907
| 52>    C      -11.09345         9.01327        -4.85550
| 53>    C      -11.82838        10.20971        -4.71048
| 54>    S      -11.39790        11.41608        -3.53059
| 55>    C      -12.95387        10.59746        -5.44236
| 56>    C      -13.55401         9.77957        -6.51062
| 57>    O      -13.12259         8.69706        -6.87945
| 58>    C      -14.73232        10.40168        -7.09186
| 59>    C      -15.56354         9.93965        -8.08868
| 60>    N      -16.54364        10.85198        -8.29290
| 61>    C      -17.56903        10.75883        -9.30132
| 62>    C      -17.11093        11.39957       -10.60990
| 63>    C      -16.36251        11.90391        -7.46082
| 64>    C      -15.24625        11.66625        -6.68765
| 65>    C      -14.65260        12.48974        -5.64970
| 66>    O      -15.09830        13.57813        -5.32198
| 67>    C      -13.46154        11.86049        -5.04308
| 68>    C      -12.72175        12.44388        -4.01514
| 69>    C      -12.94343        13.69526        -3.40269
| 70>    C      -12.16186        14.22573        -2.42222
| 71>    C      -12.43449        15.49235        -1.86620
| 72>    C      -11.69251        16.10191        -0.89913
| 73>    C      -10.49267        15.58903        -0.25074
| 74>    O       -9.94290        14.52679        -0.44749
| 75>    N      -10.01618        16.51143         0.67778
| 76>    C      -10.72375        17.66381         0.80522
| 77>    C      -10.46304        18.72015         1.64111
| 78>    C       -9.39103        18.81541         2.54521
| 79>    N       -8.53870        18.95495         3.30231
| 80>    C      -11.31780        19.84216         1.63305
| 81>    N      -12.00738        20.75863         1.63354
| 82>    S      -12.10118        17.68747        -0.27084
| 83>    C       -8.82757        16.20717         1.43699
| 84>    H       -5.84651        -2.88052         0.14939
| 85>    H       -2.48814        -5.70530        -2.26761
| 86>    H       -4.40160        -7.10125         2.49999
| 87>    H       -5.69011        -4.85959         2.13303
| 88>    H       -3.89514        -1.44939        -5.64210
| 89>    H       -5.75550         0.04190        -6.54978
| 90>    H       -6.93230         2.13195        -6.44052
| 91>    H       -8.28172         3.75103        -6.07977
| 92>    H      -10.11278         6.48701        -6.04388
| 93>    H       -8.09302         7.60111        -2.49927
| 94>    H       -6.24961         4.82833        -2.53603
| 95>    H       -9.76318         9.29042        -3.24110
| 96>    H      -11.42160         8.36824        -5.65689
| 97>    H      -15.51264         9.02404        -8.64370
| 98>    H      -18.46639        11.26245        -8.93261
| 99>    H      -17.80181         9.70324        -9.46286
|100>    H      -16.88173        12.45131       -10.45656
|101>    H      -17.89464        11.31841       -11.35757
|102>    H      -16.21881        10.90234       -10.98297
|103>    H      -17.02563        12.74605        -7.45266
|104>    H      -13.79928        14.24603        -3.77202
|105>    H      -11.30364        13.68153        -2.05331
|106>    H      -13.30044        16.02321        -2.24280
|107>    H       -8.49368        15.22151         1.11104
|108>    H       -9.04426        16.18647         2.50533
|109>    H       -8.04544        16.94187         1.24406
|110> *
|111>
|112>                          ****END OF INPUT****

CARTESIAN COORDINATES (ANGSTROEM)
---------------------------------
  C     -3.374400   -3.237660   -3.560910
  C     -2.461200   -3.663750   -4.490510
  C     -1.700640   -4.845710   -4.373250
  N     -1.058350   -5.796860   -4.342100
  C     -2.148120   -2.986570   -5.687210
  N     -1.837980   -2.492870   -6.676820
  C     -3.678970   -3.899270   -2.299530
  C     -4.629300   -3.121480   -1.590800
  C     -5.120920   -3.493040   -0.362880
  C     -4.647400   -4.682660    0.198510
  C     -3.698100   -5.452550   -0.515820
  C     -3.204850   -5.081040   -1.760550
  S     -3.261850   -6.884730    0.362740
  C     -4.329950   -6.448880    1.651460
  C     -4.986370   -5.286910    1.441820
  C     -4.990030   -1.936680   -2.387670
  O     -5.873970   -1.143840   -2.145900
  C     -4.158630   -2.017630   -3.620720
  C     -4.276340   -1.162500   -4.670170
  C     -4.912450    0.118650   -4.602260
  C     -5.656900    0.634570   -5.651540
  C     -6.343580    1.847040   -5.581200
  C     -6.299140    2.690670   -4.476100
  C     -5.447140    2.250990   -3.419980
  C     -4.778740    0.975090   -3.476710
  N     -4.035730    0.873970   -2.393980
  O     -4.234540    1.990380   -1.700540
  N     -5.079500    2.830140   -2.295490
  C     -7.028360    3.908800   -4.369450
  N     -7.982760    4.295560   -5.290350
  C     -8.503240    5.485010   -4.893800
  C     -9.438650    6.459240   -5.212690
  C     -9.330760    7.438810   -4.212840
  N     -8.352310    7.069090   -3.312340
  C     -7.837540    5.873070   -3.698130
  C     -6.921450    4.883160   -3.367310
  C    -10.057610    8.642480   -4.059070
  C    -11.093450    9.013270   -4.855500
  C    -11.828380   10.209710   -4.710480
  S    -11.397900   11.416080   -3.530590
  C    -12.953870   10.597460   -5.442360
  C    -13.554010    9.779570   -6.510620
  O    -13.122590    8.697060   -6.879450
  C    -14.732320   10.401680   -7.091860
  C    -15.563540    9.939650   -8.088680
  N    -16.543640   10.851980   -8.292900
  C    -17.569030   10.758830   -9.301320
  C    -17.110930   11.399570  -10.609900
  C    -16.362510   11.903910   -7.460820
  C    -15.246250   11.666250   -6.687650
  C    -14.652600   12.489740   -5.649700
  O    -15.098300   13.578130   -5.321980
  C    -13.461540   11.860490   -5.043080
  C    -12.721750   12.443880   -4.015140
  C    -12.943430   13.695260   -3.402690
  C    -12.161860   14.225730   -2.422220
  C    -12.434490   15.492350   -1.866200
  C    -11.692510   16.101910   -0.899130
  C    -10.492670   15.589030   -0.250740
  O     -9.942900   14.526790   -0.447490
  N    -10.016180   16.511430    0.677780
  C    -10.723750   17.663810    0.805220
  C    -10.463040   18.720150    1.641110
  C     -9.391030   18.815410    2.545210
  N     -8.538700   18.954950    3.302310
  C    -11.317800   19.842160    1.633050
  N    -12.007380   20.758630    1.633540
  S    -12.101180   17.687470   -0.270840
  C     -8.827570   16.207170    1.436990
  H     -5.846510   -2.880520    0.149390
  H     -2.488140   -5.705300   -2.267610
  H     -4.401600   -7.101250    2.499990
  H     -5.690110   -4.859590    2.133030
  H     -3.895140   -1.449390   -5.642100
  H     -5.755500    0.041900   -6.549780
  H     -6.932300    2.131950   -6.440520
  H     -8.281720    3.751030   -6.079770
  H    -10.112780    6.487010   -6.043880
  H     -8.093020    7.601110   -2.499270
  H     -6.249610    4.828330   -2.536030
  H     -9.763180    9.290420   -3.241100
  H    -11.421600    8.368240   -5.656890
  H    -15.512640    9.024040   -8.643700
  H    -18.466390   11.262450   -8.932610
  H    -17.801810    9.703240   -9.462860
  H    -16.881730   12.451310  -10.456560
  H    -17.894640   11.318410  -11.357570
  H    -16.218810   10.902340  -10.982970
  H    -17.025630   12.746050   -7.452660
  H    -13.799280   14.246030   -3.772020
  H    -11.303640   13.681530   -2.053310
  H    -13.300440   16.023210   -2.242800
  H     -8.493680   15.221510    1.111040
  H     -9.044260   16.186470    2.505330
  H     -8.045440   16.941870    1.244060

 Total Charge           Charge          ....    0
 Multiplicity           Mult            ....    1
 Number of Electrons    NEL             ....  490
 Basis Dimension        Dim             .... 1108

ORBITAL ENERGIES
----------------

  NO   OCC          E(Eh)            E(eV)
   0   2.0000     -88.980182     -2421.2738
   1   2.0000     -88.971420     -2421.0354
   2   2.0000     -88.963829     -2420.8289
   3   2.0000     -19.350795      -526.5619
   4   2.0000     -19.221991      -523.0570
   5   2.0000     -19.209697      -522.7224
   6   2.0000     -19.206412      -522.6331
   7   2.0000     -19.202528      -522.5274
   8   2.0000     -14.496086      -394.4585
   9   2.0000     -14.492399      -394.3582
  10   2.0000     -14.478389      -393.9770
  11   2.0000     -14.472482      -393.8163
  12   2.0000     -14.468888      -393.7185
  13   2.0000     -14.468207      -393.6999
  14   2.0000     -14.413315      -392.2062
  15   2.0000     -14.412128      -392.1739
  16   2.0000     -14.403415      -391.9369
  17   2.0000     -14.402802      -391.9202
  18   2.0000     -10.409929      -283.2686
  19   2.0000     -10.396003      -282.8896
  20   2.0000     -10.366404      -282.0842
  21   2.0000     -10.363023      -281.9922
  22   2.0000     -10.360941      -281.9355
  23   2.0000     -10.339148      -281.3425
  24   2.0000     -10.338046      -281.3125
  25   2.0000     -10.337725      -281.3038
  26   2.0000     -10.333352      -281.1848
  27   2.0000     -10.326896      -281.0091
  28   2.0000     -10.326289      -280.9926
  29   2.0000     -10.324786      -280.9517
  30   2.0000     -10.321988      -280.8756
  31   2.0000     -10.320861      -280.8449
  32   2.0000     -10.320744      -280.8417
  33   2.0000     -10.318954      -280.7930
  34   2.0000     -10.318693      -280.7859
  35   2.0000     -10.318062      -280.7688
  36   2.0000     -10.317641      -280.7573
  37   2.0000     -10.317426      -280.7514
  38   2.0000     -10.316769      -280.7336
  39   2.0000     -10.316195      -280.7179
  40   2.0000     -10.315972      -280.7119
  41   2.0000     -10.314993      -280.6852
  42   2.0000     -10.314459      -280.6707
  43   2.0000     -10.311863      -280.6001
  44   2.0000     -10.310163      -280.5538
  45   2.0000     -10.306927      -280.4657
  46   2.0000     -10.306723      -280.4602
  47   2.0000     -10.306078      -280.4426
  48   2.0000     -10.303664      -280.3769
  49   2.0000     -10.303113      -280.3620
  50   2.0000     -10.302778      -280.3528
  51   2.0000     -10.300037      -280.2783
  52   2.0000     -10.298817      -280.2451
  53   2.0000     -10.298282      -280.2305
  54   2.0000     -10.297981      -280.2223
  55   2.0000     -10.297335      -280.2047
  56   2.0000     -10.296720      -280.1880
  57   2.0000     -10.295523      -280.1554
  58   2.0000     -10.294860      -280.1374
  59   2.0000     -10.289958      -280.0040
  60   2.0000     -10.288190      -279.9559
  61   2.0000     -10.286512      -279.9102
  62   2.0000     -10.286424      -279.9078
  63   2.0000     -10.286281      -279.9039
  64   2.0000     -10.281720      -279.7798
  65   2.0000     -10.274682      -279.5883
  66   2.0000     -10.274030      -279.5706
  67   2.0000     -10.273060      -279.5442
  68   2.0000     -10.272655      -279.5331
  69   2.0000      -8.076391      -219.7698
  70   2.0000      -8.066929      -219.5123
  71   2.0000      -8.060117      -219.3269
  72   2.0000      -6.046304      -164.5283
  73   2.0000      -6.042319      -164.4199
  74   2.0000      -6.036688      -164.2666
  75   2.0000      -6.035959      -164.2468
  76   2.0000      -6.032104      -164.1419
  77   2.0000      -6.029621      -164.0743
  78   2.0000      -6.029216      -164.0633
  79   2.0000      -6.025340      -163.9578
  80   2.0000      -6.021771      -163.8607
  81   2.0000      -1.304288       -35.4915
  82   2.0000      -1.167597       -31.7719
  83   2.0000      -1.125268       -30.6201
  84   2.0000      -1.124302       -30.5938
  85   2.0000      -1.118430       -30.4340
  86   2.0000      -1.111411       -30.2430
  87   2.0000      -1.101137       -29.9635
  88   2.0000      -1.096284       -29.8314
  89   2.0000      -1.065138       -28.9839
  90   2.0000      -1.016881       -27.6707
  91   2.0000      -1.008155       -27.4333
  92   2.0000      -1.005373       -27.3576
  93   2.0000      -1.001990       -27.2655
  94   2.0000      -0.999661       -27.2022
  95   2.0000      -0.999575       -27.1998
  96   2.0000      -0.991203       -26.9720
  97   2.0000      -0.983193       -26.7540
  98   2.0000      -0.980956       -26.6932
  99   2.0000      -0.964927       -26.2570
 100   2.0000      -0.942182       -25.6381
 101   2.0000      -0.929915       -25.3043
 102   2.0000      -0.929849       -25.3025
 103   2.0000      -0.921133       -25.0653
 104   2.0000      -0.919422       -25.0187
 105   2.0000      -0.911030       -24.7904
 106   2.0000      -0.906355       -24.6632
 107   2.0000      -0.889577       -24.2066
 108   2.0000      -0.884420       -24.0663
 109   2.0000      -0.878284       -23.8993
 110   2.0000      -0.877522       -23.8786
 111   2.0000      -0.873049       -23.7569
 112   2.0000      -0.860403       -23.4128
 113   2.0000      -0.844703       -22.9855
 114   2.0000      -0.844454       -22.9787
 115   2.0000      -0.838261       -22.8102
 116   2.0000      -0.825771       -22.4704
 117   2.0000      -0.820775       -22.3344
 118   2.0000      -0.819902       -22.3107
 119   2.0000      -0.801337       -21.8055
 120   2.0000      -0.787787       -21.4368
 121   2.0000      -0.779847       -21.2207
 122   2.0000      -0.770292       -20.9607
 123   2.0000      -0.763846       -20.7853
 124   2.0000      -0.755963       -20.5708
 125   2.0000      -0.753828       -20.5127
 126   2.0000      -0.748836       -20.3769
 127   2.0000      -0.740979       -20.1631
 128   2.0000      -0.719513       -19.5789
 129   2.0000      -0.709061       -19.2945
 130   2.0000      -0.704614       -19.1735
 131   2.0000      -0.701406       -19.0862
 132   2.0000      -0.697002       -18.9664
 133   2.0000      -0.693774       -18.8785
 134   2.0000      -0.686406       -18.6781
 135   2.0000      -0.683962       -18.6116
 136   2.0000      -0.680487       -18.5170
 137   2.0000      -0.671320       -18.2675
 138   2.0000      -0.665536       -18.1101
 139   2.0000      -0.658485       -17.9183
 140   2.0000      -0.654722       -17.8159
 141   2.0000      -0.649877       -17.6841
 142   2.0000      -0.641153       -17.4467
 143   2.0000      -0.638233       -17.3672
 144   2.0000      -0.627030       -17.0623
 145   2.0000      -0.626314       -17.0429
 146   2.0000      -0.621684       -16.9169
 147   2.0000      -0.621392       -16.9089
 148   2.0000      -0.615917       -16.7599
 149   2.0000      -0.604835       -16.4584
 150   2.0000      -0.602753       -16.4018
 151   2.0000      -0.599935       -16.3251
 152   2.0000      -0.594767       -16.1844
 153   2.0000      -0.591661       -16.0999
 154   2.0000      -0.588571       -16.0158
 155   2.0000      -0.580954       -15.8086
 156   2.0000      -0.575216       -15.6524
 157   2.0000      -0.574081       -15.6215
 158   2.0000      -0.570289       -15.5183
 159   2.0000      -0.566414       -15.4129
 160   2.0000      -0.561479       -15.2786
 161   2.0000      -0.551920       -15.0185
 162   2.0000      -0.550452       -14.9786
 163   2.0000      -0.548669       -14.9300
 164   2.0000      -0.545686       -14.8489
 165   2.0000      -0.541476       -14.7343
 166   2.0000      -0.537947       -14.6383
 167   2.0000      -0.536994       -14.6123
 168   2.0000      -0.534522       -14.5451
 169   2.0000      -0.530092       -14.4245
 170   2.0000      -0.526996       -14.3403
 171   2.0000      -0.526128       -14.3167
 172   2.0000      -0.524458       -14.2712
 173   2.0000      -0.522771       -14.2253
 174   2.0000      -0.521213       -14.1829
 175   2.0000      -0.514928       -14.0119
 176   2.0000      -0.513899       -13.9839
 177   2.0000      -0.510109       -13.8808
 178   2.0000      -0.509747       -13.8709
 179   2.0000      -0.507854       -13.8194
 180   2.0000      -0.505950       -13.7676
 181   2.0000      -0.501723       -13.6526
 182   2.0000      -0.498542       -13.5660
 183   2.0000      -0.497986       -13.5509
 184   2.0000      -0.495607       -13.4862
 185   2.0000      -0.493462       -13.4278
 186   2.0000      -0.489792       -13.3279
 187   2.0000      -0.487509       -13.2658
 188   2.0000      -0.485505       -13.2113
 189   2.0000      -0.485292       -13.2055
 190   2.0000      -0.483387       -13.1536
 191   2.0000      -0.481565       -13.1041
 192   2.0000      -0.479876       -13.0581
 193   2.0000      -0.476771       -12.9736
 194   2.0000      -0.473628       -12.8881
 195   2.0000      -0.471746       -12.8369
 196   2.0000      -0.465651       -12.6710
 197   2.0000      -0.464622       -12.6430
 198   2.0000      -0.461669       -12.5626
 199   2.0000      -0.458645       -12.4804
 200   2.0000      -0.455781       -12.4024
 201   2.0000      -0.455054       -12.3827
 202   2.0000      -0.451580       -12.2881
 203   2.0000      -0.450308       -12.2535
 204   2.0000      -0.448302       -12.1989
 205   2.0000      -0.446099       -12.1390
 206   2.0000      -0.442566       -12.0428
 207   2.0000      -0.441010       -12.0005
 208   2.0000      -0.437508       -11.9052
 209   2.0000      -0.435561       -11.8522
 210   2.0000      -0.433243       -11.7891
 211   2.0000      -0.432826       -11.7778
 212   2.0000      -0.430163       -11.7053
 213   2.0000      -0.427737       -11.6393
 214   2.0000      -0.425906       -11.5895
 215   2.0000      -0.420975       -11.4553
 216   2.0000      -0.419431       -11.4133
 217   2.0000      -0.418938       -11.3999
 218   2.0000      -0.416814       -11.3421
 219   2.0000      -0.408915       -11.1271
 220   2.0000      -0.407281       -11.0827
 221   2.0000      -0.402176       -10.9438
 222   2.0000      -0.401976       -10.9383
 223   2.0000      -0.395362       -10.7584
 224   2.0000      -0.387899       -10.5553
 225   2.0000      -0.379958       -10.3392
 226   2.0000      -0.371966       -10.1217
 227   2.0000      -0.367833       -10.0092
 228   2.0000      -0.366616        -9.9761
 229   2.0000      -0.360505        -9.8099
 230   2.0000      -0.346156        -9.4194
 231   2.0000      -0.343202        -9.3390
 232   2.0000      -0.334646        -9.1062
 233   2.0000      -0.332427        -9.0458
 234   2.0000      -0.330147        -8.9838
 235   2.0000      -0.329714        -8.9720
 236   2.0000      -0.329004        -8.9526
 237   2.0000      -0.314077        -8.5465
 238   2.0000      -0.309482        -8.4214
 239   2.0000      -0.308134        -8.3848
 240   2.0000      -0.299598        -8.1525
 241   2.0000      -0.296423        -8.0661
 242   2.0000      -0.289831        -7.8867
 243   2.0000      -0.267917        -7.2904
 244   2.0000      -0.229343        -6.2407
 245   0.0000      -0.101761        -2.7690
 246   0.0000      -0.088900        -2.4191
 247   0.0000      -0.067693        -1.8420
 248   0.0000      -0.055205        -1.5022
 249   0.0000      -0.036101        -0.9824

MULLIKEN ATOMIC CHARGES
-----------------------
   0 C :    0.303059
   1 C :   -0.344242
   2 C :   -0.187544
   3 N :    0.150060
   4 C :   -0.194244
   5 N :    0.154162
   6 C :    0.022084
   7 C :   -0.013947
   8 C :   -0.066875
   9 C :    0.117368
  10 C :   -0.093625
  11 C :   -0.028945
  12 S :    0.138748
  13 C :   -0.048271
  14 C :    0.022741
  15 C :    0.149162
  16 O :   -0.149016
  17 C :   -0.069506
  18 C :   -0.051579
  19 C :    0.069756
  20 C :   -0.010637
  21 C :   -0.090526
  22 C :    0.193181
  23 C :   -0.055109
  24 C :   -0.002852
  25 N :    0.050880
  26 O :   -0.094670
  27 N :    0.045521
  28 C :   -0.010649
  29 N :   -0.035650
  30 C :    0.130950
  31 C :   -0.173113
  32 C :    0.100941
  33 N :   -0.027731
  34 C :    0.136885
  35 C :   -0.161996
  36 C :    0.020034
  37 C :   -0.033206
  38 C :   -0.104053
  39 S :    0.129869
  40 C :    0.008378
  41 C :    0.136801
  42 O :   -0.177681
  43 C :   -0.013671
  44 C :    0.008511
  45 N :   -0.134129
  46 C :    0.088884
  47 C :   -0.000102
  48 C :    0.011656
  49 C :   -0.020951
  50 C :    0.133065
  51 O :   -0.171499
  52 C :    0.040716
  53 C :   -0.129545
  54 C :    0.011131
  55 C :   -0.003753
  56 C :    0.017873
  57 C :   -0.137201
  58 C :    0.227996
  59 O :   -0.186943
  60 N :   -0.241863
  61 C :    0.125189
  62 C :   -0.307900
  63 C :   -0.195929
  64 N :    0.167482
  65 C :   -0.219908
  66 N :    0.143085
  67 S :    0.157948
  68 C :    0.116308
  69 H :   -0.012549
  70 H :   -0.007178
  71 H :    0.038483
  72 H :   -0.006913
  73 H :    0.029101
  74 H :   -0.007942
  75 H :   -0.039020
  76 H :    0.125473
  77 H :   -0.016776
  78 H :    0.126017
  79 H :   -0.008890
  80 H :   -0.018764
  81 H :    0.022862
  82 H :    0.005837
  83 H :    0.034250
  84 H :    0.034435
  85 H :    0.031486
  86 H :    0.033106
  87 H :    0.030807
  88 H :    0.008343
  89 H :    0.025664
  90 H :    0.030571
  91 H :    0.007016
  92 H :    0.063676
  93 H :    0.064879
  94 H :    0.064662
Sum of atomic charges:   -0.0000000

LOEWDIN ATOMIC CHARGES
----------------------
   0 C :    0.077049
   1 C :   -0.138933
   2 C :   -0.018026
   3 N :   -0.053719
   4 C :   -0.020588
   5 N :   -0.053667
   6 C :   -0.022439
   7 C :   -0.048786
   8 C :    0.023364
   9 C :   -0.033935
  10 C :   -0.145529
  11 C :   -0.009103
  12 S :    0.427966
  13 C :   -0.149444
  14 C :   -0.058018
  15 C :    0.084318
  16 O :   -0.139575
  17 C :   -0.080769
  18 C :    0.071007
  19 C :   -0.050763
  20 C :    0.025211
  21 C :   -0.045244
  22 C :   -0.000710
  23 C :   -0.043355
  24 C :   -0.037476
  25 N :   -0.018509
  26 O :    0.077444
  27 N :   -0.022169
  28 C :   -0.003947
  29 N :    0.068717
  30 C :   -0.004690
  31 C :   -0.082053
  32 C :    0.006085
  33 N :    0.074403
  34 C :   -0.018829
  35 C :   -0.061891
  36 C :   -0.017638
  37 C :   -0.044494
  38 C :   -0.115164
  39 S :    0.456735
  40 C :   -0.096031
  41 C :    0.081091
  42 O :   -0.173670
  43 C :   -0.100116
  44 C :    0.029554
  45 N :    0.090156
  46 C :    0.043911
  47 C :   -0.057443
  48 C :    0.031929
  49 C :   -0.103046
  50 C :    0.082138
  51 O :   -0.167333
  52 C :   -0.069259
  53 C :   -0.142710
  54 C :    0.001302
  55 C :   -0.037338
  56 C :    0.021609
  57 C :   -0.222290
  58 C :    0.073904
  59 O :   -0.172157
  60 N :   -0.006761
  61 C :   -0.031474
  62 C :   -0.213235
  63 C :   -0.034142
  64 N :   -0.064393
  65 C :   -0.040867
  66 N :   -0.052534
  67 S :    0.427579
  68 C :    0.037558
  69 H :    0.040301
  70 H :    0.040459
  71 H :    0.029185
  72 H :    0.035207
  73 H :    0.046108
  74 H :    0.038469
  75 H :    0.024836
  76 H :    0.088242
  77 H :    0.031093
  78 H :    0.092641
  79 H :    0.030830
  80 H :    0.021571
  81 H :    0.038176
  82 H :    0.029170
  83 H :    0.033964
  84 H :    0.034030
  85 H :    0.030782
  86 H :    0.033849
  87 H :    0.030704
  88 H :    0.029815
  89 H :    0.040674
  90 H :    0.026298
  91 H :    0.041443
  92 H :    0.042180
  93 H :    0.040596
  94 H :    0.040607

  Mayer bond orders larger than 0.100000
B(  0-C ,  1-C ) :   1.6372 B(  0-C ,  6-C ) :   1.0101 B(  0-C , 17-C ) :   1.0651
B(  1-C ,  2-C ) :   1.1418 B(  1-C ,  4-C ) :   1.1454 B(  2-C ,  3-N ) :   2.9704
B(  4-C ,  5-N ) :   2.9750 B(  6-C ,  7-C ) :   1.2690 B(  6-C , 11-C ) :   1.4055
B(  7-C ,  8-C ) :   1.4274 B(  7-C , 15-C ) :   0.9480 B(  8-C ,  9-C ) :   1.2460
B(  8-C , 69-H ) :   1.0168 B(  9-C , 10-C ) :   1.3000 B(  9-C , 14-C ) :   1.1703
B( 10-C , 11-C ) :   1.3276 B( 10-C , 12-S ) :   1.0976 B( 11-C , 70-H ) :   0.9824
B( 12-S , 13-C ) :   1.1260 B( 13-C , 14-C ) :   1.6279 B( 13-C , 71-H ) :   0.9687
B( 14-C , 72-H ) :   1.0001 B( 15-C , 16-O ) :   2.2193 B( 15-C , 17-C ) :   0.9330
B( 17-C , 18-C ) :   1.6515 B( 18-C , 19-C ) :   1.0995 B( 18-C , 73-H ) :   0.9427
B( 19-C , 20-C ) :   1.4385 B( 19-C , 22-C ) :   0.1000 B( 19-C , 24-C ) :   1.1340
B( 20-C , 21-C ) :   1.2448 B( 20-C , 74-H ) :   0.9923 B( 21-C , 22-C ) :   1.4015
B( 21-C , 75-H ) :   1.0007 B( 22-C , 23-C ) :   1.1530 B( 22-C , 28-C ) :   1.0863
B( 23-C , 24-C ) :   1.1577 B( 23-C , 27-N ) :   1.6099 B( 24-C , 25-N ) :   1.6000
B( 25-N , 26-O ) :   1.0660 B( 25-N , 27-N ) :   0.1798 B( 26-O , 27-N ) :   1.0659
B( 28-C , 29-N ) :   1.1956 B( 28-C , 35-C ) :   1.4062 B( 29-N , 30-C ) :   1.1716
B( 29-N , 76-H ) :   0.9306 B( 30-C , 31-C ) :   1.2643 B( 30-C , 34-C ) :   1.2914
B( 31-C , 32-C ) :   1.3847 B( 31-C , 77-H ) :   1.0362 B( 32-C , 33-N ) :   1.1773
B( 32-C , 36-C ) :   1.1309 B( 33-N , 34-C ) :   1.1654 B( 33-N , 78-H ) :   0.9353
B( 34-C , 35-C ) :   1.2237 B( 35-C , 79-H ) :   1.0276 B( 36-C , 37-C ) :   1.5884
B( 36-C , 80-H ) :   0.9642 B( 37-C , 38-C ) :   1.1968 B( 37-C , 81-H ) :   0.9550
B( 38-C , 39-S ) :   1.1208 B( 38-C , 40-C ) :   1.4437 B( 39-S , 53-C ) :   1.1019
B( 40-C , 41-C ) :   0.9499 B( 40-C , 52-C ) :   1.1980 B( 41-C , 42-O ) :   2.1757
B( 41-C , 43-C ) :   1.0006 B( 43-C , 44-C ) :   1.4284 B( 43-C , 49-C ) :   1.2916
B( 44-C , 45-N ) :   1.2324 B( 44-C , 82-H ) :   0.9928 B( 45-N , 46-C ) :   0.9516
B( 45-N , 48-C ) :   1.2377 B( 46-C , 47-C ) :   1.1111 B( 46-C , 83-H ) :   0.9511
B( 46-C , 84-H ) :   0.9510 B( 47-C , 85-H ) :   0.9676 B( 47-C , 86-H ) :   0.9683
B( 47-C , 87-H ) :   0.9674 B( 48-C , 49-C ) :   1.4213 B( 48-C , 88-H ) :   0.9933
B( 49-C , 50-C ) :   1.0044 B( 50-C , 51-O ) :   2.1859 B( 50-C , 52-C ) :   0.9350
B( 52-C , 53-C ) :   1.4703 B( 53-C , 54-C ) :   1.1724 B( 54-C , 55-C ) :   1.5485
B( 54-C , 89-H ) :   0.9628 B( 55-C , 56-C ) :   1.1930 B( 55-C , 90-H ) :   0.9648
B( 56-C , 57-C ) :   1.6201 B( 56-C , 91-H ) :   0.9750 B( 57-C , 58-C ) :   0.9773
B( 57-C , 67-S ) :   1.0041 B( 58-C , 59-O ) :   2.0972 B( 58-C , 60-N ) :   1.0520
B( 60-N , 61-C ) :   1.2048 B( 60-N , 68-C ) :   0.9357 B( 61-C , 62-C ) :   1.5478
B( 61-C , 67-S ) :   1.0927 B( 62-C , 63-C ) :   1.1707 B( 62-C , 65-C ) :   1.1499
B( 63-C , 64-N ) :   3.0112 B( 65-C , 66-N ) :   3.0329 B( 68-C , 92-H ) :   0.9433
B( 68-C , 93-H ) :   0.9692 B( 68-C , 94-H ) :   0.9691

-----------------------------------------------------------------------------
         ABSORPTION SPECTRUM VIA TRANSITION ELECTRIC DIPOLE MOMENTS
-----------------------------------------------------------------------------
State   Energy  Wavelength   fosc         T2         TX        TY        TZ
        (cm-1)    (nm)                  (au**2)     (au)      (au)      (au)
-----------------------------------------------------------------------------
   0   13794.0    725.0   2.148096297  51.26711   3.10183  -6.43936  -0.42474
   1   17877.8    559.4   0.318745676   5.86958  -1.27786  -0.61839  -1.96322
   2   22075.3    453.0   0.174654461   2.60464  -1.40028   0.56443  -0.57034
   3   23934.0    417.8   0.382784403   5.26521  -0.98697  -1.13018  -1.73602
   4   24015.2    416.4   0.179440284   2.45985  -1.19489  -0.07817  -1.01291
   5   25805.4    387.5   0.265736976   3.39014   0.35712   1.35485   1.19456
   6   26632.6    375.5   0.090762724   1.12194   0.42228   0.76248  -0.60187
   7   27220.1    367.4   0.143675531   1.73767   0.72818   0.41686   1.01669
   8   27472.0    364.0   0.051485187   0.61698   0.07612  -0.72365   0.29581
   9   27888.0    358.6   0.066490090   0.78490  -0.36381  -0.60590   0.53426
  10   28720.0    348.2   0.000042973   0.00049   0.00736   0.00810  -0.01931
  11   29036.7    344.4   0.024774790   0.28089  -0.29855   0.19115   0.39398
  12   29896.5    334.5   0.071334142   0.78551   0.05287  -0.73283   0.49565
  13   30269.8    330.4   0.003276202   0.03563   0.08116  -0.11016   0.13003
  14   30495.2    327.9   0.031163520   0.33643  -0.46027  -0.21226  -0.28200
  15   31176.4    320.8   0.018815615   0.19869   0.34108   0.11369   0.26349
  16   31695.5    315.5   0.077218266   0.80204  -0.69232  -0.45959  -0.33393
  17   32357.2    309.1   0.132558947   1.34869  -0.26124  -0.46624   1.03105
  18   32446.8    308.2   0.044580716   0.45233  -0.05158   0.10733   0.66192
  19   32767.6    305.2   0.146349677   1.47036   0.10883   0.48587  -1.10564
  20   32962.0    303.4   0.332563069   3.32151  -0.74014  -0.51647   1.58334
  21   33691.0    296.8   0.000119213   0.00116   0.00463  -0.03368  -0.00298
  22   34231.4    292.1   0.064971386   0.62485  -0.58699   0.25832  -0.46212
  23   34355.5    291.1   0.013589917   0.13023  -0.03393   0.35491  -0.05579
  24   34807.9    287.3   0.016030654   0.15162  -0.12042   0.26934  -0.25412
  25   35095.1    284.9   0.096011134   0.90064   0.66444  -0.11895   0.66709
  26   35486.1    281.8   0.029165441   0.27057   0.28413   0.17648  -0.39838
  27   36326.8    275.3   0.229177722   2.07692   0.52838  -1.19041  -0.61698
  28   36764.1    272.0   0.076737458   0.68716  -0.08892   0.46449   0.68081
  29   36941.2    270.7   0.095417465   0.85034  -0.53208   0.03461  -0.75235
  30   37141.6    269.2   0.151071687   1.33906   0.99310  -0.23473   0.54562
  31   37230.0    268.6   0.001954270   0.01728  -0.12665   0.02170  -0.02773
  32   37298.9    268.1   0.017260202   0.15234  -0.27038   0.10978   0.25921
  33   37521.8    266.5   0.051368654   0.45070   0.28590  -0.43732  -0.42156
  34   37678.2    265.4   0.008533505   0.07456   0.08628   0.04084  -0.25583
  35   37883.8    264.0   0.044285677   0.38484  -0.33041   0.02958   0.52421
  36   38324.7    260.9   0.089639967   0.77001  -0.82198   0.30619  -0.02488
  37   38525.5    259.6   0.130905342   1.11862  -0.74122   0.73163   0.18422
  38   38718.9    258.3   0.107150859   0.91106  -0.58451   0.73996   0.14789
  39   38951.5    256.7   0.031173765   0.26348  -0.17641  -0.31306  -0.36654
  40   38989.4    256.5   0.049268749   0.41601  -0.43354   0.47700  -0.02286
  41   39361.6    254.1   0.024519668   0.20508  -0.19207   0.15085   0.38135
  42   39696.5    251.9   0.066260574   0.54951  -0.24035   0.12729   0.68960
  43   39826.0    251.1   0.017971223   0.14855  -0.16934  -0.18701   0.29138
  44   40033.6    249.8   0.073950435   0.60812  -0.26579   0.73303   0.01232

FINAL SINGLE POINT ENERGY     -4073.196949097460

DIPOLE MOMENT
-------------
                                X             Y             Z
Electronic contribution:     38.81694     -22.77869      27.38382
Nuclear contribution   :    -42.98064      20.73657     -29.97659
                        -----------------------------------------
Total Dipole Moment    :     -4.16370      -2.04212      -2.59277
                        -----------------------------------------
Magnitude (a.u.)       :      5.31311
Magnitude (Debye)      :     13.50485

Rotational constants in cm-1:     0.001195     0.000215     0.000190
Rotational constants in MHz :    35.830453     6.447388     5.696998

                             ****ORCA TERMINATED NORMALLY****
TOTAL RUN TIME: 0 days 0 hours 8 minutes 0 seconds 758 msec
