                         Program Version 4.2.0 -  RELEASE  -
|  1> # ORCA input file
|  2> # SCF done       -177.041208638161          0.000503095148
|  3> ! CAM-B3LYP def2-SVP def2/J RIJCOSX Grid4 TightSCF
|  4> %maxcore 5000
|  5> %tddft
|  6>     Mode sTDDFT
|  7>     Ethresh 5.0
|  8>     maxcore 5000
|  9> end
| 10>
| 11> %pal
| 12>   nprocs 6
| 13>   end
| 14> * xyz 0 1
| 15>    C       -2.24641        -0.71375        -8.80011
| 16>    C       -1.48113        -0.34381        -7.73793
| 17>    F       -0.20200         0.02881        -7.84874
| 18>    C       -2.17848        -0.39394        -6.51237
| 19>    C       -3.49667        -0.81432        -6.68604
| 20>    S       -3.85566        -1.14022        -8.34272
| 21>    C       -4.19562        -0.85788        -5.47010
| 22>    C       -3.39548        -0.47027        -4.39554
| 23>    S       -1.77309        -0.04985        -4.85800
| 24>    C       -4.08547        -0.50381        -3.17196
| 25>    F       -3.50418        -0.22493        -2.00424
| 26>    C       -5.39868        -0.90188        -3.29826
| 27>    S       -5.79408        -1.26356        -4.96753
| 28>    C       -6.40521        -1.02180        -2.29029
| 29>    C       -6.50374        -0.36297        -1.08325
| 30>    F       -5.63002         0.55509        -0.66750
| 31>    C       -7.65448        -0.70466        -0.35600
| 32>    C       -8.44993        -1.63901        -1.02207
| 33>    S       -7.76860        -2.09503        -2.53974
| 34>    C       -9.61030        -1.94582        -0.30110
| 35>    C       -9.68116        -1.23724         0.90005
| 36>    S       -8.31799        -0.19168         1.16789
| 37>    C      -10.85313        -1.51775         1.61296
| 38>    F      -11.14632        -0.95058         2.79076
| 39>    C      -11.68441        -2.43239         0.99446
| 40>    S      -10.98472        -2.96407        -0.52453
| 41>    C      -12.95904        -2.86987         1.45650
| 42>    S      -13.67655        -2.08266         2.83360
| 43>    C      -15.09966        -3.06994         2.70407
| 44>    C      -15.00939        -3.95770         1.65079
| 45>    C      -13.79176        -3.85124         0.94742
| 46>    C      -13.47151        -4.69858        -0.24259
| 47>    C      -14.46219        -5.84864        -0.39649
| 48>    C      -15.88882        -5.33956        -0.21741
| 49>    C      -16.91902        -6.36842        -0.60495
| 50>    O      -16.69826        -7.39245        -1.18381
| 51>    C      -16.09540        -4.89880         1.23428
| 52>    C      -16.17125        -2.83247         3.62246
| 53>    C      -17.10237        -3.69761         4.15350
| 54>    F      -17.11569        -5.01742         3.91731
| 55>    C      -18.01141        -3.08036         5.02712
| 56>    C      -17.76453        -1.71485         5.17508
| 57>    S      -16.41240        -1.20489         4.23505
| 58>    C      -18.67521        -1.10775         6.04948
| 59>    C      -19.60267        -2.02370         6.55268
| 60>    S      -19.36669        -3.64265         5.96220
| 61>    C      -20.52062        -1.42167         7.42201
| 62>    F      -21.51068        -2.08292         8.03526
| 63>    C      -20.31231        -0.06744         7.59048
| 64>    S      -18.94114         0.48602         6.65170
| 65>    C      -21.06851         0.82836         8.39896
| 66>    C      -20.86018         2.18238         8.56486
| 67>    F      -19.86933         2.84201         7.95134
| 68>    C      -21.78182         2.78726         9.42992
| 69>    C      -22.71082         1.87356         9.93155
| 70>    S      -22.44213         0.27798         9.33604
| 71>    C      -23.62908         2.48683        10.79747
| 72>    C      -23.38193         3.85207        10.93824
| 73>    S      -22.02020         4.40843        10.01234
| 74>    C      -24.30803         4.46389        11.80870
| 75>    F      -24.29107         5.76546        12.11450
| 76>    C      -25.22373         3.59030        12.30841
| 77>    S      -24.98889         1.97996        11.73225
| 78>    H       -1.95003        -0.75783        -9.82829
| 79>    H      -12.45725        -5.09543        -0.15409
| 80>    H      -13.49160        -4.06995        -1.13943
| 81>    H      -14.26553        -6.61470         0.35560
| 82>    H      -14.35080        -6.30920        -1.37817
| 83>    H      -16.05395        -4.47583        -0.87568
| 84>    H      -17.94981        -6.08624        -0.30901
| 85>    H      -16.07886        -5.78173         1.87953
| 86>    H      -17.06950        -4.41964         1.35950
| 87>    H      -26.02425         3.80821        12.98563
| 88> *
| 89>
| 90>                          ****END OF INPUT****

CARTESIAN COORDINATES (ANGSTROEM)
---------------------------------
  C     -2.246410   -0.713750   -8.800110
  C     -1.481130   -0.343810   -7.737930
  F     -0.202000    0.028810   -7.848740
  C     -2.178480   -0.393940   -6.512370
  C     -3.496670   -0.814320   -6.686040
  S     -3.855660   -1.140220   -8.342720
  C     -4.195620   -0.857880   -5.470100
  C     -3.395480   -0.470270   -4.395540
  S     -1.773090   -0.049850   -4.858000
  C     -4.085470   -0.503810   -3.171960
  F     -3.504180   -0.224930   -2.004240
  C     -5.398680   -0.901880   -3.298260
  S     -5.794080   -1.263560   -4.967530
  C     -6.405210   -1.021800   -2.290290
  C     -6.503740   -0.362970   -1.083250
  F     -5.630020    0.555090   -0.667500
  C     -7.654480   -0.704660   -0.356000
  C     -8.449930   -1.639010   -1.022070
  S     -7.768600   -2.095030   -2.539740
  C     -9.610300   -1.945820   -0.301100
  C     -9.681160   -1.237240    0.900050
  S     -8.317990   -0.191680    1.167890
  C    -10.853130   -1.517750    1.612960
  F    -11.146320   -0.950580    2.790760
  C    -11.684410   -2.432390    0.994460
  S    -10.984720   -2.964070   -0.524530
  C    -12.959040   -2.869870    1.456500
  S    -13.676550   -2.082660    2.833600
  C    -15.099660   -3.069940    2.704070
  C    -15.009390   -3.957700    1.650790
  C    -13.791760   -3.851240    0.947420
  C    -13.471510   -4.698580   -0.242590
  C    -14.462190   -5.848640   -0.396490
  C    -15.888820   -5.339560   -0.217410
  C    -16.919020   -6.368420   -0.604950
  O    -16.698260   -7.392450   -1.183810
  C    -16.095400   -4.898800    1.234280
  C    -16.171250   -2.832470    3.622460
  C    -17.102370   -3.697610    4.153500
  F    -17.115690   -5.017420    3.917310
  C    -18.011410   -3.080360    5.027120
  C    -17.764530   -1.714850    5.175080
  S    -16.412400   -1.204890    4.235050
  C    -18.675210   -1.107750    6.049480
  C    -19.602670   -2.023700    6.552680
  S    -19.366690   -3.642650    5.962200
  C    -20.520620   -1.421670    7.422010
  F    -21.510680   -2.082920    8.035260
  C    -20.312310   -0.067440    7.590480
  S    -18.941140    0.486020    6.651700
  C    -21.068510    0.828360    8.398960
  C    -20.860180    2.182380    8.564860
  F    -19.869330    2.842010    7.951340
  C    -21.781820    2.787260    9.429920
  C    -22.710820    1.873560    9.931550
  S    -22.442130    0.277980    9.336040
  C    -23.629080    2.486830   10.797470
  C    -23.381930    3.852070   10.938240
  S    -22.020200    4.408430   10.012340
  C    -24.308030    4.463890   11.808700
  F    -24.291070    5.765460   12.114500
  C    -25.223730    3.590300   12.308410
  S    -24.988890    1.979960   11.732250
  H     -1.950030   -0.757830   -9.828290
  H    -12.457250   -5.095430   -0.154090
  H    -13.491600   -4.069950   -1.139430
  H    -14.265530   -6.614700    0.355600
  H    -14.350800   -6.309200   -1.378170
  H    -16.053950   -4.475830   -0.875680
  H    -17.949810   -6.086240   -0.309010
  H    -16.078860   -5.781730    1.879530
  H    -17.069500   -4.419640    1.359500
  H    -26.024250    3.808210   12.985630

 Total Charge           Charge          ....    0
 Multiplicity           Mult            ....    1
 Number of Electrons    NEL             ....  544
 Basis Dimension        Dim             ....  984

ORBITAL ENERGIES
----------------

  NO   OCC          E(Eh)            E(eV)
   0   2.0000     -88.977262     -2421.1944
   1   2.0000     -88.975798     -2421.1546
   2   2.0000     -88.974762     -2421.1263
   3   2.0000     -88.974698     -2421.1246
   4   2.0000     -88.974638     -2421.1230
   5   2.0000     -88.974461     -2421.1182
   6   2.0000     -88.973776     -2421.0995
   7   2.0000     -88.973122     -2421.0817
   8   2.0000     -88.972117     -2421.0544
   9   2.0000     -88.971934     -2421.0494
  10   2.0000     -88.971398     -2421.0348
  11   2.0000     -88.970674     -2421.0151
  12   2.0000     -88.958446     -2420.6824
  13   2.0000     -24.805679      -674.9968
  14   2.0000     -24.805266      -674.9856
  15   2.0000     -24.802962      -674.9229
  16   2.0000     -24.801873      -674.8933
  17   2.0000     -24.796116      -674.7366
  18   2.0000     -24.795224      -674.7123
  19   2.0000     -24.790589      -674.5862
  20   2.0000     -24.790374      -674.5804
  21   2.0000     -19.217407      -522.9322
  22   2.0000     -10.375353      -282.3277
  23   2.0000     -10.374977      -282.3175
  24   2.0000     -10.374736      -282.3109
  25   2.0000     -10.374692      -282.3097
  26   2.0000     -10.373997      -282.2908
  27   2.0000     -10.372779      -282.2577
  28   2.0000     -10.369358      -282.1646
  29   2.0000     -10.368954      -282.1536
  30   2.0000     -10.355773      -281.7949
  31   2.0000     -10.325279      -280.9651
  32   2.0000     -10.324185      -280.9353
  33   2.0000     -10.323290      -280.9110
  34   2.0000     -10.323278      -280.9107
  35   2.0000     -10.322728      -280.8957
  36   2.0000     -10.322512      -280.8898
  37   2.0000     -10.321206      -280.8543
  38   2.0000     -10.321176      -280.8535
  39   2.0000     -10.320863      -280.8450
  40   2.0000     -10.320599      -280.8378
  41   2.0000     -10.320501      -280.8351
  42   2.0000     -10.318944      -280.7928
  43   2.0000     -10.318720      -280.7866
  44   2.0000     -10.318127      -280.7705
  45   2.0000     -10.317415      -280.7511
  46   2.0000     -10.317373      -280.7500
  47   2.0000     -10.316648      -280.7303
  48   2.0000     -10.316279      -280.7202
  49   2.0000     -10.315405      -280.6964
  50   2.0000     -10.314770      -280.6792
  51   2.0000     -10.313103      -280.6338
  52   2.0000     -10.312647      -280.6214
  53   2.0000     -10.311753      -280.5971
  54   2.0000     -10.308599      -280.5112
  55   2.0000     -10.302321      -280.3404
  56   2.0000     -10.301789      -280.3259
  57   2.0000     -10.284740      -279.8620
  58   2.0000     -10.283688      -279.8334
  59   2.0000     -10.281590      -279.7763
  60   2.0000     -10.281483      -279.7734
  61   2.0000     -10.277975      -279.6779
  62   2.0000     -10.268676      -279.4249
  63   2.0000      -8.071368      -219.6331
  64   2.0000      -8.070867      -219.6195
  65   2.0000      -8.069678      -219.5871
  66   2.0000      -8.069399      -219.5795
  67   2.0000      -8.069104      -219.5715
  68   2.0000      -8.068833      -219.5641
  69   2.0000      -8.068439      -219.5534
  70   2.0000      -8.068196      -219.5468
  71   2.0000      -8.066585      -219.5029
  72   2.0000      -8.066536      -219.5016
  73   2.0000      -8.066435      -219.4988
  74   2.0000      -8.065956      -219.4858
  75   2.0000      -8.053894      -219.1576
  76   2.0000      -6.041171      -164.3886
  77   2.0000      -6.040567      -164.3722
  78   2.0000      -6.039386      -164.3401
  79   2.0000      -6.039213      -164.3353
  80   2.0000      -6.039049      -164.3309
  81   2.0000      -6.038751      -164.3228
  82   2.0000      -6.038247      -164.3091
  83   2.0000      -6.037890      -164.2993
  84   2.0000      -6.036979      -164.2746
  85   2.0000      -6.036579      -164.2637
  86   2.0000      -6.036444      -164.2600
  87   2.0000      -6.036376      -164.2582
  88   2.0000      -6.036260      -164.2550
  89   2.0000      -6.035633      -164.2379
  90   2.0000      -6.035394      -164.2314
  91   2.0000      -6.035039      -164.2218
  92   2.0000      -6.034994      -164.2205
  93   2.0000      -6.034711      -164.2128
  94   2.0000      -6.034085      -164.1958
  95   2.0000      -6.033833      -164.1889
  96   2.0000      -6.032629      -164.1562
  97   2.0000      -6.032405      -164.1501
  98   2.0000      -6.032305      -164.1474
  99   2.0000      -6.032062      -164.1408
 100   2.0000      -6.032028      -164.1398
 101   2.0000      -6.031423      -164.1234
 102   2.0000      -6.030841      -164.1075
 103   2.0000      -6.030471      -164.0975
 104   2.0000      -6.029915      -164.0823
 105   2.0000      -6.029687      -164.0761
 106   2.0000      -6.029515      -164.0715
 107   2.0000      -6.029389      -164.0680
 108   2.0000      -6.028046      -164.0315
 109   2.0000      -6.027419      -164.0144
 110   2.0000      -6.027381      -164.0134
 111   2.0000      -6.027249      -164.0098
 112   2.0000      -6.023337      -163.9033
 113   2.0000      -6.019092      -163.7878
 114   2.0000      -6.015666      -163.6946
 115   2.0000      -1.319180       -35.8967
 116   2.0000      -1.318699       -35.8836
 117   2.0000      -1.316607       -35.8267
 118   2.0000      -1.314991       -35.7827
 119   2.0000      -1.314129       -35.7593
 120   2.0000      -1.308248       -35.5992
 121   2.0000      -1.305613       -35.5275
 122   2.0000      -1.305295       -35.5189
 123   2.0000      -1.132031       -30.8041
 124   2.0000      -1.034633       -28.1538
 125   2.0000      -1.034030       -28.1374
 126   2.0000      -1.029889       -28.0247
 127   2.0000      -1.029597       -28.0168
 128   2.0000      -1.005519       -27.3616
 129   2.0000      -0.997958       -27.1558
 130   2.0000      -0.992065       -26.9954
 131   2.0000      -0.984813       -26.7981
 132   2.0000      -0.979877       -26.6638
 133   2.0000      -0.947395       -25.7799
 134   2.0000      -0.943882       -25.6843
 135   2.0000      -0.931274       -25.3412
 136   2.0000      -0.930664       -25.3247
 137   2.0000      -0.924358       -25.1531
 138   2.0000      -0.885860       -24.1055
 139   2.0000      -0.876163       -23.8416
 140   2.0000      -0.874634       -23.8000
 141   2.0000      -0.863202       -23.4889
 142   2.0000      -0.860883       -23.4258
 143   2.0000      -0.848800       -23.0970
 144   2.0000      -0.846301       -23.0290
 145   2.0000      -0.844368       -22.9764
 146   2.0000      -0.840844       -22.8805
 147   2.0000      -0.837501       -22.7896
 148   2.0000      -0.828392       -22.5417
 149   2.0000      -0.825323       -22.4582
 150   2.0000      -0.815561       -22.1926
 151   2.0000      -0.805905       -21.9298
 152   2.0000      -0.800054       -21.7706
 153   2.0000      -0.797548       -21.7024
 154   2.0000      -0.792637       -21.5687
 155   2.0000      -0.785983       -21.3877
 156   2.0000      -0.769316       -20.9342
 157   2.0000      -0.748030       -20.3549
 158   2.0000      -0.741973       -20.1901
 159   2.0000      -0.727265       -19.7899
 160   2.0000      -0.715550       -19.4711
 161   2.0000      -0.707292       -19.2464
 162   2.0000      -0.688640       -18.7388
 163   2.0000      -0.680074       -18.5058
 164   2.0000      -0.679070       -18.4784
 165   2.0000      -0.677963       -18.4483
 166   2.0000      -0.675310       -18.3761
 167   2.0000      -0.672313       -18.2946
 168   2.0000      -0.670019       -18.2322
 169   2.0000      -0.668980       -18.2039
 170   2.0000      -0.664914       -18.0932
 171   2.0000      -0.660641       -17.9769
 172   2.0000      -0.654097       -17.7989
 173   2.0000      -0.652103       -17.7446
 174   2.0000      -0.639951       -17.4140
 175   2.0000      -0.634707       -17.2713
 176   2.0000      -0.628953       -17.1147
 177   2.0000      -0.619983       -16.8706
 178   2.0000      -0.616274       -16.7697
 179   2.0000      -0.608329       -16.5535
 180   2.0000      -0.603714       -16.4279
 181   2.0000      -0.600384       -16.3373
 182   2.0000      -0.595131       -16.1943
 183   2.0000      -0.591504       -16.0956
 184   2.0000      -0.588236       -16.0067
 185   2.0000      -0.580859       -15.8060
 186   2.0000      -0.580497       -15.7961
 187   2.0000      -0.578606       -15.7447
 188   2.0000      -0.576265       -15.6810
 189   2.0000      -0.574329       -15.6283
 190   2.0000      -0.572114       -15.5680
 191   2.0000      -0.571366       -15.5477
 192   2.0000      -0.568865       -15.4796
 193   2.0000      -0.565937       -15.3999
 194   2.0000      -0.562706       -15.3120
 195   2.0000      -0.562048       -15.2941
 196   2.0000      -0.561198       -15.2710
 197   2.0000      -0.553247       -15.0546
 198   2.0000      -0.551454       -15.0058
 199   2.0000      -0.548567       -14.9273
 200   2.0000      -0.544128       -14.8065
 201   2.0000      -0.539617       -14.6837
 202   2.0000      -0.539077       -14.6690
 203   2.0000      -0.529488       -14.4081
 204   2.0000      -0.526893       -14.3375
 205   2.0000      -0.515981       -14.0406
 206   2.0000      -0.515043       -14.0150
 207   2.0000      -0.513720       -13.9790
 208   2.0000      -0.512428       -13.9439
 209   2.0000      -0.510755       -13.8984
 210   2.0000      -0.509715       -13.8701
 211   2.0000      -0.508648       -13.8410
 212   2.0000      -0.506241       -13.7755
 213   2.0000      -0.504675       -13.7329
 214   2.0000      -0.503080       -13.6895
 215   2.0000      -0.500822       -13.6281
 216   2.0000      -0.499303       -13.5867
 217   2.0000      -0.495181       -13.4746
 218   2.0000      -0.493731       -13.4351
 219   2.0000      -0.491966       -13.3871
 220   2.0000      -0.487340       -13.2612
 221   2.0000      -0.487202       -13.2574
 222   2.0000      -0.478501       -13.0207
 223   2.0000      -0.475587       -12.9414
 224   2.0000      -0.474098       -12.9009
 225   2.0000      -0.472178       -12.8486
 226   2.0000      -0.470566       -12.8048
 227   2.0000      -0.467399       -12.7186
 228   2.0000      -0.466508       -12.6943
 229   2.0000      -0.466437       -12.6924
 230   2.0000      -0.463263       -12.6060
 231   2.0000      -0.461408       -12.5555
 232   2.0000      -0.456069       -12.4103
 233   2.0000      -0.451284       -12.2801
 234   2.0000      -0.449881       -12.2419
 235   2.0000      -0.447359       -12.1733
 236   2.0000      -0.439488       -11.9591
 237   2.0000      -0.435904       -11.8615
 238   2.0000      -0.432775       -11.7764
 239   2.0000      -0.431646       -11.7457
 240   2.0000      -0.426910       -11.6168
 241   2.0000      -0.424982       -11.5643
 242   2.0000      -0.422803       -11.5051
 243   2.0000      -0.422331       -11.4922
 244   2.0000      -0.419764       -11.4224
 245   2.0000      -0.417901       -11.3717
 246   2.0000      -0.415487       -11.3060
 247   2.0000      -0.414750       -11.2859
 248   2.0000      -0.412907       -11.2358
 249   2.0000      -0.405161       -11.0250
 250   2.0000      -0.404565       -11.0088
 251   2.0000      -0.403143       -10.9701
 252   2.0000      -0.398096       -10.8327
 253   2.0000      -0.379023       -10.3137
 254   2.0000      -0.373193       -10.1551
 255   2.0000      -0.360292        -9.8041
 256   2.0000      -0.342897        -9.3307
 257   2.0000      -0.338196        -9.2028
 258   2.0000      -0.337451        -9.1825
 259   2.0000      -0.334831        -9.1112
 260   2.0000      -0.333814        -9.0835
 261   2.0000      -0.327050        -8.8995
 262   2.0000      -0.320783        -8.7289
 263   2.0000      -0.314542        -8.5591
 264   2.0000      -0.300233        -8.1698
 265   2.0000      -0.293598        -7.9892
 266   2.0000      -0.293064        -7.9747
 267   2.0000      -0.289844        -7.8871
 268   2.0000      -0.289617        -7.8809
 269   2.0000      -0.273800        -7.4505
 270   2.0000      -0.252093        -6.8598
 271   2.0000      -0.234306        -6.3758
 272   0.0000      -0.062782        -1.7084
 273   0.0000      -0.048086        -1.3085
 274   0.0000      -0.024696        -0.6720
 275   0.0000      -0.006333        -0.1723
 276   0.0000       0.013509         0.3676

MULLIKEN ATOMIC CHARGES
-----------------------
   0 C :   -0.161410
   1 C :    0.258418
   2 F :   -0.176882
   3 C :   -0.102976
   4 C :   -0.102075
   5 S :    0.164433
   6 C :   -0.076403
   7 C :   -0.094764
   8 S :    0.201637
   9 C :    0.208048
  10 F :   -0.163809
  11 C :   -0.154609
  12 S :    0.168946
  13 C :   -0.151151
  14 C :    0.204054
  15 F :   -0.163879
  16 C :   -0.090697
  17 C :   -0.076583
  18 S :    0.170417
  19 C :   -0.065696
  20 C :   -0.065787
  21 S :    0.206039
  22 C :    0.172864
  23 F :   -0.175250
  24 C :   -0.153446
  25 S :    0.139077
  26 C :   -0.080363
  27 S :    0.147890
  28 C :   -0.111612
  29 C :   -0.049074
  30 C :   -0.136246
  31 C :    0.106695
  32 C :    0.090765
  33 C :   -0.144203
  34 C :    0.156742
  35 O :   -0.166467
  36 C :    0.146239
  37 C :   -0.189315
  38 C :    0.201406
  39 F :   -0.176783
  40 C :   -0.080867
  41 C :   -0.082233
  42 S :    0.177652
  43 C :   -0.081964
  44 C :   -0.069593
  45 S :    0.200136
  46 C :    0.165028
  47 F :   -0.177091
  48 C :   -0.132264
  49 S :    0.195697
  50 C :   -0.136147
  51 C :    0.168911
  52 F :   -0.176917
  53 C :   -0.074491
  54 C :   -0.078646
  55 S :    0.192214
  56 C :   -0.104605
  57 C :   -0.101241
  58 S :    0.198067
  59 C :    0.256912
  60 F :   -0.177788
  61 C :   -0.160923
  62 S :    0.165277
  63 H :    0.034449
  64 H :    0.026603
  65 H :    0.021412
  66 H :    0.010221
  67 H :    0.014056
  68 H :    0.026762
  69 H :   -0.010567
  70 H :    0.030040
  71 H :    0.013205
  72 H :    0.034503
Sum of atomic charges:   -0.0000000

LOEWDIN ATOMIC CHARGES
----------------------
   0 C :   -0.217767
   1 C :    0.031509
   2 F :   -0.057198
   3 C :   -0.221097
   4 C :   -0.215423
   5 S :    0.439354
   6 C :   -0.210811
   7 C :   -0.217299
   8 S :    0.437406
   9 C :    0.037262
  10 F :   -0.044806
  11 C :   -0.222747
  12 S :    0.431603
  13 C :   -0.221438
  14 C :    0.037002
  15 F :   -0.044624
  16 C :   -0.217055
  17 C :   -0.210928
  18 S :    0.431374
  19 C :   -0.216840
  20 C :   -0.213753
  21 S :    0.438207
  22 C :    0.024470
  23 F :   -0.053554
  24 C :   -0.209326
  25 S :    0.456915
  26 C :   -0.189012
  27 S :    0.444547
  28 C :   -0.200699
  29 C :   -0.050717
  30 C :   -0.058634
  31 C :   -0.040660
  32 C :   -0.015007
  33 C :   -0.074567
  34 C :    0.118590
  35 O :   -0.119119
  36 C :   -0.019517
  37 C :   -0.216618
  38 C :    0.031142
  39 F :   -0.050209
  40 C :   -0.217474
  41 C :   -0.212800
  42 S :    0.437626
  43 C :   -0.214154
  44 C :   -0.216205
  45 S :    0.432917
  46 C :    0.026889
  47 F :   -0.054660
  48 C :   -0.214440
  49 S :    0.453982
  50 C :   -0.217125
  51 C :    0.028341
  52 F :   -0.054331
  53 C :   -0.217421
  54 C :   -0.212788
  55 S :    0.452519
  56 C :   -0.214994
  57 C :   -0.221306
  58 S :    0.433530
  59 C :    0.031302
  60 F :   -0.057720
  61 C :   -0.218037
  62 S :    0.440326
  63 H :    0.031982
  64 H :    0.026559
  65 H :    0.028052
  66 H :    0.027699
  67 H :    0.030390
  68 H :    0.040817
  69 H :   -0.007391
  70 H :    0.034924
  71 H :    0.031110
  72 H :    0.031927

  Mayer bond orders larger than 0.100000
B(  0-C ,  1-C ) :   1.5780 B(  0-C ,  5-S ) :   1.1074 B(  0-C , 63-H ) :   0.9626
B(  1-C ,  2-F ) :   1.1583 B(  1-C ,  3-C ) :   1.2285 B(  3-C ,  4-C ) :   1.4874
B(  3-C ,  8-S ) :   1.0401 B(  4-C ,  5-S ) :   1.0895 B(  4-C ,  6-C ) :   1.3147
B(  6-C ,  7-C ) :   1.5122 B(  6-C , 11-C ) :   0.1038 B(  6-C , 12-S ) :   1.0696
B(  7-C ,  8-S ) :   1.0340 B(  7-C ,  9-C ) :   1.2427 B(  9-C , 10-F ) :   1.2035
B(  9-C , 11-C ) :   1.5285 B( 11-C , 12-S ) :   1.0757 B( 11-C , 13-C ) :   1.0574
B( 13-C , 14-C ) :   1.5263 B( 13-C , 17-C ) :   0.1032 B( 13-C , 18-S ) :   1.0731
B( 14-C , 15-F ) :   1.2024 B( 14-C , 16-C ) :   1.2475 B( 16-C , 17-C ) :   1.5042
B( 16-C , 21-S ) :   1.0302 B( 17-C , 18-S ) :   1.0671 B( 17-C , 19-C ) :   1.3059
B( 19-C , 20-C ) :   1.4914 B( 19-C , 25-S ) :   1.0610 B( 20-C , 21-S ) :   1.0315
B( 20-C , 22-C ) :   1.2696 B( 22-C , 23-F ) :   1.1567 B( 22-C , 24-C ) :   1.4836
B( 24-C , 25-S ) :   1.0761 B( 24-C , 26-C ) :   1.1448 B( 26-C , 27-S ) :   1.1219
B( 26-C , 28-C ) :   0.1143 B( 26-C , 30-C ) :   1.5224 B( 27-S , 28-C ) :   1.1058
B( 28-C , 29-C ) :   1.5642 B( 28-C , 37-C ) :   1.0479 B( 29-C , 30-C ) :   1.3052
B( 29-C , 36-C ) :   1.0668 B( 30-C , 31-C ) :   1.0460 B( 31-C , 32-C ) :   1.0913
B( 31-C , 64-H ) :   0.9084 B( 31-C , 65-H ) :   0.9058 B( 32-C , 33-C ) :   1.0322
B( 32-C , 66-H ) :   0.9389 B( 32-C , 67-H ) :   0.9257 B( 33-C , 34-C ) :   0.9230
B( 33-C , 36-C ) :   1.0358 B( 33-C , 68-H ) :   0.8988 B( 34-C , 35-O ) :   2.2223
B( 34-C , 69-H ) :   0.9520 B( 36-C , 70-H ) :   0.9026 B( 36-C , 71-H ) :   0.9055
B( 37-C , 38-C ) :   1.5285 B( 37-C , 41-C ) :   0.1041 B( 37-C , 42-S ) :   1.0777
B( 38-C , 39-F ) :   1.1610 B( 38-C , 40-C ) :   1.2487 B( 40-C , 41-C ) :   1.5062
B( 40-C , 45-S ) :   1.0294 B( 41-C , 42-S ) :   1.0653 B( 41-C , 43-C ) :   1.3159
B( 43-C , 44-C ) :   1.5024 B( 43-C , 49-S ) :   1.0537 B( 44-C , 45-S ) :   1.0286
B( 44-C , 46-C ) :   1.2652 B( 46-C , 47-F ) :   1.1612 B( 46-C , 48-C ) :   1.4916
B( 48-C , 49-S ) :   1.0824 B( 48-C , 50-C ) :   1.1621 B( 50-C , 51-C ) :   1.4933
B( 50-C , 55-S ) :   1.0827 B( 51-C , 52-F ) :   1.1605 B( 51-C , 53-C ) :   1.2634
B( 53-C , 54-C ) :   1.5071 B( 53-C , 58-S ) :   1.0303 B( 54-C , 55-S ) :   1.0555
B( 54-C , 56-C ) :   1.3186 B( 56-C , 57-C ) :   1.4889 B( 56-C , 62-S ) :   1.0894
B( 57-C , 58-S ) :   1.0363 B( 57-C , 59-C ) :   1.2288 B( 59-C , 60-F ) :   1.1572
B( 59-C , 61-C ) :   1.5777 B( 61-C , 62-S ) :   1.1076 B( 61-C , 72-H ) :   0.9626

-----------------------------------------------------------------------------
         ABSORPTION SPECTRUM VIA TRANSITION ELECTRIC DIPOLE MOMENTS
-----------------------------------------------------------------------------
State   Energy  Wavelength   fosc         T2         TX        TY        TZ
        (cm-1)    (nm)                  (au**2)     (au)      (au)      (au)
-----------------------------------------------------------------------------
   0   22670.4    441.1   3.115279693  45.23907  -5.30330   0.67573   4.08136
   1   26917.6    371.5   0.482678629   5.90333  -0.51045  -2.37543   0.01106
   2   29563.9    338.3   0.016231444   0.18075  -0.13708   0.37485   0.14645
   3   31348.3    319.0   0.717012719   7.52989   1.06157  -1.33964  -2.14670
   4   32966.9    303.3   0.002709986   0.02706  -0.12777  -0.00447   0.10352
   5   35001.7    285.7   0.111701900   1.05062  -0.49240  -0.83594   0.33071
   6   35283.4    283.4   0.216348258   2.01864  -0.51875  -0.91331  -0.95677
   7   35459.5    282.0   0.030862719   0.28653  -0.23017   0.44530  -0.18779
   8   36141.2    276.7   0.167106974   1.52218   1.11045   0.43533  -0.31556
   9   36396.1    274.8   0.150923273   1.36514   0.32217   1.11191  -0.15812
  10   36815.7    271.6   0.254652259   2.27714  -0.80361  -0.47251  -1.18663
  11   37258.0    268.4   0.090994441   0.80403   0.72063   0.49134  -0.20811
  12   38726.9    258.2   0.006691771   0.05689  -0.22200  -0.08439   0.02195
  13   39645.5    252.2   0.022415383   0.18613   0.21740   0.27395   0.25263
  14   40089.0    249.4   0.030017685   0.24651  -0.18980  -0.43194  -0.15463

FINAL SINGLE POINT ENERGY     -7614.337764035338

DIPOLE MOMENT
-------------
                                X             Y             Z
Electronic contribution:     17.21889      36.70152      23.83399
Nuclear contribution   :    -18.03129     -36.61975     -24.34784
                        -----------------------------------------
Total Dipole Moment    :     -0.81240       0.08176      -0.51385
                        -----------------------------------------
Magnitude (a.u.)       :      0.96474
Magnitude (Debye)      :      2.45218

Rotational constants in cm-1:     0.001915     0.000177     0.000166
Rotational constants in MHz :    57.405347     5.314517     4.963368

                             ****ORCA TERMINATED NORMALLY****
TOTAL RUN TIME: 0 days 0 hours 6 minutes 22 seconds 300 msec
