                         Program Version 4.2.0 -  RELEASE  -
|  1> # ORCA input file
|  2> # SCF done       -177.253516740685          0.000894016920
|  3> ! CAM-B3LYP def2-SVP def2/J RIJCOSX Grid4 TightSCF
|  4> %maxcore 5000
|  5> %tddft
|  6>     Mode sTDDFT
|  7>     Ethresh 5.0
|  8>     maxcore 5000
|  9> end
| 10>
| 11> %pal
| 12>   nprocs 6
| 13>   end
| 14> * xyz 0 1
| 15>    C      -12.28652       -13.90716        -6.61264
| 16>    N      -11.18288       -13.56246        -7.21223
| 17>    N      -10.00622       -13.57418        -6.63089
| 18>    C       -9.83426       -13.94116        -5.36691
| 19>    C      -10.97706       -14.33906        -4.60543
| 20>    C      -12.25871       -14.32154        -5.25893
| 21>    N      -13.15115       -14.72148        -4.37367
| 22>    O      -12.47287       -14.96908        -3.25257
| 23>    N      -11.16072       -14.74507        -3.36962
| 24>    C       -8.53470       -13.92884        -4.81078
| 25>    S       -8.24570       -14.39286        -3.15963
| 26>    C       -6.52532       -14.11081        -3.28458
| 27>    C       -6.21920       -13.67725        -4.56664
| 28>    C       -7.33720       -13.57116        -5.43228
| 29>    C       -6.98161       -13.12908        -6.72623
| 30>    C       -5.63972       -12.90978        -6.82933
| 31>    C       -4.86572       -12.45306        -7.98742
| 32>    O       -3.67097       -12.28180        -7.97396
| 33>    O       -5.64269       -12.25150        -9.05819
| 34>    C       -4.97287       -11.81130       -10.23072
| 35>    S       -4.74613       -13.22929        -5.35990
| 36>    C       -5.65698       -14.32116        -2.19124
| 37>    N       -6.11143       -14.75909        -0.96627
| 38>    C       -5.04771       -14.87225        -0.13171
| 39>    C       -4.65683       -15.23635         1.14960
| 40>    C       -3.26409       -15.06708         1.19336
| 41>    N       -2.81799       -14.60715        -0.02884
| 42>    C       -3.88592       -14.48076        -0.85520
| 43>    C       -4.26752       -14.13445        -2.14492
| 44>    C       -2.40654       -15.37107         2.27424
| 45>    C       -1.05424       -15.24849         2.25615
| 46>    C       -0.20441       -15.69427         3.29173
| 47>    S       -0.84957       -16.39165         4.75896
| 48>    C        1.18305       -15.77024         3.27104
| 49>    C        2.01543       -15.33267         2.13913
| 50>    O        1.56833       -14.82450         1.11971
| 51>    C        3.42560       -15.60018         2.35194
| 52>    C        4.48923       -15.38278         1.50380
| 53>    N        5.61878       -15.82680         2.10222
| 54>    C        6.94434       -15.72484         1.54664
| 55>    C        7.57739       -14.37607         1.88299
| 56>    C        5.32018       -16.31897         3.32587
| 57>    C        3.96138       -16.20455         3.52716
| 58>    C        3.15713       -16.64708         4.64907
| 59>    O        3.60141       -17.16023         5.66133
| 60>    C        1.71422       -16.41257         4.42671
| 61>    C        0.73764       -16.85796         5.29781
| 62>    C        0.91969       -17.69193         6.45225
| 63>    C        0.17676       -18.78007         6.75053
| 64>    C       -0.87448       -19.36514         5.97120
| 65>    C       -1.01803       -19.44930         4.62283
| 66>    C       -2.36731       -19.68694         4.03804
| 67>    O       -3.33851       -20.14013         4.59287
| 68>    C       -2.27371       -19.16633         2.65192
| 69>    C       -0.94211       -18.80907         2.37121
| 70>    C       -0.11773       -19.11839         3.53379
| 71>    C        1.24563       -19.23160         3.55170
| 72>    C        1.94684       -19.80127         4.63765
| 73>    N        2.53369       -20.33166         5.46698
| 74>    C        2.08483       -18.89838         2.47056
| 75>    N        2.81656       -18.60690         1.63509
| 76>    C       -0.61957       -18.25355         1.14149
| 77>    C       -1.62849       -18.07270         0.20860
| 78>    C       -2.93402       -18.44492         0.49935
| 79>    C       -3.28191       -18.99509         1.72558
| 80>   Br       -4.27554       -18.20007        -0.82204
| 81>    H      -13.19864       -13.86120        -7.18504
| 82>    H       -7.68978       -12.98738        -7.52080
| 83>    H       -5.74323       -11.67496       -10.98481
| 84>    H       -4.24501       -12.55823       -10.55463
| 85>    H       -4.44964       -10.87213       -10.03921
| 86>    H       -7.06827       -14.99689        -0.76730
| 87>    H       -5.26400       -15.58765         1.95929
| 88>    H       -1.85962       -14.39404        -0.24577
| 89>    H       -3.65702       -13.79616        -2.95648
| 90>    H       -2.88902       -15.76759         3.15883
| 91>    H       -0.53476       -14.84598         1.39837
| 92>    H        4.49385       -14.95654         0.52038
| 93>    H        6.87701       -15.84672         0.46261
| 94>    H        7.55337       -16.53624         1.95238
| 95>    H        6.97711       -13.56426         1.47924
| 96>    H        8.57493       -14.31747         1.45727
| 97>    H        7.64955       -14.24968         2.96057
| 98>    H        6.06653       -16.73232         3.97480
| 99>    H        1.74882       -17.42588         7.09458
|100>    H        0.35489       -19.26153         7.70331
|101>    H       -1.70234       -19.77805         6.54105
|102>    H        0.38813       -17.95163         0.90495
|103>    H       -1.39836       -17.64052        -0.75306
|104>    H       -4.29669       -19.28231         1.95310
|105> *
|106>
|107>                          ****END OF INPUT****

CARTESIAN COORDINATES (ANGSTROEM)
---------------------------------
  C    -12.286520  -13.907160   -6.612640
  N    -11.182880  -13.562460   -7.212230
  N    -10.006220  -13.574180   -6.630890
  C     -9.834260  -13.941160   -5.366910
  C    -10.977060  -14.339060   -4.605430
  C    -12.258710  -14.321540   -5.258930
  N    -13.151150  -14.721480   -4.373670
  O    -12.472870  -14.969080   -3.252570
  N    -11.160720  -14.745070   -3.369620
  C     -8.534700  -13.928840   -4.810780
  S     -8.245700  -14.392860   -3.159630
  C     -6.525320  -14.110810   -3.284580
  C     -6.219200  -13.677250   -4.566640
  C     -7.337200  -13.571160   -5.432280
  C     -6.981610  -13.129080   -6.726230
  C     -5.639720  -12.909780   -6.829330
  C     -4.865720  -12.453060   -7.987420
  O     -3.670970  -12.281800   -7.973960
  O     -5.642690  -12.251500   -9.058190
  C     -4.972870  -11.811300  -10.230720
  S     -4.746130  -13.229290   -5.359900
  C     -5.656980  -14.321160   -2.191240
  N     -6.111430  -14.759090   -0.966270
  C     -5.047710  -14.872250   -0.131710
  C     -4.656830  -15.236350    1.149600
  C     -3.264090  -15.067080    1.193360
  N     -2.817990  -14.607150   -0.028840
  C     -3.885920  -14.480760   -0.855200
  C     -4.267520  -14.134450   -2.144920
  C     -2.406540  -15.371070    2.274240
  C     -1.054240  -15.248490    2.256150
  C     -0.204410  -15.694270    3.291730
  S     -0.849570  -16.391650    4.758960
  C      1.183050  -15.770240    3.271040
  C      2.015430  -15.332670    2.139130
  O      1.568330  -14.824500    1.119710
  C      3.425600  -15.600180    2.351940
  C      4.489230  -15.382780    1.503800
  N      5.618780  -15.826800    2.102220
  C      6.944340  -15.724840    1.546640
  C      7.577390  -14.376070    1.882990
  C      5.320180  -16.318970    3.325870
  C      3.961380  -16.204550    3.527160
  C      3.157130  -16.647080    4.649070
  O      3.601410  -17.160230    5.661330
  C      1.714220  -16.412570    4.426710
  C      0.737640  -16.857960    5.297810
  C      0.919690  -17.691930    6.452250
  C      0.176760  -18.780070    6.750530
  C     -0.874480  -19.365140    5.971200
  C     -1.018030  -19.449300    4.622830
  C     -2.367310  -19.686940    4.038040
  O     -3.338510  -20.140130    4.592870
  C     -2.273710  -19.166330    2.651920
  C     -0.942110  -18.809070    2.371210
  C     -0.117730  -19.118390    3.533790
  C      1.245630  -19.231600    3.551700
  C      1.946840  -19.801270    4.637650
  N      2.533690  -20.331660    5.466980
  C      2.084830  -18.898380    2.470560
  N      2.816560  -18.606900    1.635090
  C     -0.619570  -18.253550    1.141490
  C     -1.628490  -18.072700    0.208600
  C     -2.934020  -18.444920    0.499350
  C     -3.281910  -18.995090    1.725580
  Br    -4.275540  -18.200070   -0.822040
  H    -13.198640  -13.861200   -7.185040
  H     -7.689780  -12.987380   -7.520800
  H     -5.743230  -11.674960  -10.984810
  H     -4.245010  -12.558230  -10.554630
  H     -4.449640  -10.872130  -10.039210
  H     -7.068270  -14.996890   -0.767300
  H     -5.264000  -15.587650    1.959290
  H     -1.859620  -14.394040   -0.245770
  H     -3.657020  -13.796160   -2.956480
  H     -2.889020  -15.767590    3.158830
  H     -0.534760  -14.845980    1.398370
  H      4.493850  -14.956540    0.520380
  H      6.877010  -15.846720    0.462610
  H      7.553370  -16.536240    1.952380
  H      6.977110  -13.564260    1.479240
  H      8.574930  -14.317470    1.457270
  H      7.649550  -14.249680    2.960570
  H      6.066530  -16.732320    3.974800
  H      1.748820  -17.425880    7.094580
  H      0.354890  -19.261530    7.703310
  H     -1.702340  -19.778050    6.541050
  H      0.388130  -17.951630    0.904950
  H     -1.398360  -17.640520   -0.753060
  H     -4.296690  -19.282310    1.953100

 Total Charge           Charge          ....    0
 Multiplicity           Mult            ....    1
 Number of Electrons    NEL             ....  500
 Basis Dimension        Dim             .... 1074

ORBITAL ENERGIES
----------------

  NO   OCC          E(Eh)            E(eV)
   0   2.0000    -482.870097    -13139.5633
   1   2.0000     -88.979185     -2421.2467
   2   2.0000     -88.970089     -2420.9992
   3   2.0000     -88.962334     -2420.7882
   4   2.0000     -62.547388     -1702.0009
   5   2.0000     -56.381241     -1534.2116
   6   2.0000     -56.378736     -1534.1434
   7   2.0000     -56.378726     -1534.1431
   8   2.0000     -19.371522      -527.1259
   9   2.0000     -19.261823      -524.1408
  10   2.0000     -19.217890      -522.9454
  11   2.0000     -19.206756      -522.6424
  12   2.0000     -19.197369      -522.3870
  13   2.0000     -19.196268      -522.3570
  14   2.0000     -14.500912      -394.5899
  15   2.0000     -14.496432      -394.4680
  16   2.0000     -14.481656      -394.0659
  17   2.0000     -14.471011      -393.7762
  18   2.0000     -14.465386      -393.6232
  19   2.0000     -14.447042      -393.1240
  20   2.0000     -14.439013      -392.9055
  21   2.0000     -14.417715      -392.3260
  22   2.0000     -14.407375      -392.0446
  23   2.0000     -10.406199      -283.1671
  24   2.0000     -10.368143      -282.1315
  25   2.0000     -10.356255      -281.8080
  26   2.0000     -10.355842      -281.7968
  27   2.0000     -10.351034      -281.6660
  28   2.0000     -10.342961      -281.4463
  29   2.0000     -10.341215      -281.3988
  30   2.0000     -10.341039      -281.3940
  31   2.0000     -10.338686      -281.3300
  32   2.0000     -10.335000      -281.2297
  33   2.0000     -10.331580      -281.1366
  34   2.0000     -10.328151      -281.0433
  35   2.0000     -10.326173      -280.9895
  36   2.0000     -10.325976      -280.9841
  37   2.0000     -10.322425      -280.8875
  38   2.0000     -10.321657      -280.8666
  39   2.0000     -10.319421      -280.8057
  40   2.0000     -10.318958      -280.7931
  41   2.0000     -10.315419      -280.6968
  42   2.0000     -10.315085      -280.6877
  43   2.0000     -10.313681      -280.6495
  44   2.0000     -10.310863      -280.5728
  45   2.0000     -10.310508      -280.5632
  46   2.0000     -10.308280      -280.5026
  47   2.0000     -10.307438      -280.4796
  48   2.0000     -10.306270      -280.4479
  49   2.0000     -10.305817      -280.4356
  50   2.0000     -10.305203      -280.4188
  51   2.0000     -10.304825      -280.4085
  52   2.0000     -10.302318      -280.3403
  53   2.0000     -10.301331      -280.3135
  54   2.0000     -10.299078      -280.2522
  55   2.0000     -10.299019      -280.2506
  56   2.0000     -10.296491      -280.1818
  57   2.0000     -10.296468      -280.1811
  58   2.0000     -10.296406      -280.1794
  59   2.0000     -10.294836      -280.1367
  60   2.0000     -10.290590      -280.0212
  61   2.0000     -10.290340      -280.0144
  62   2.0000     -10.288058      -279.9523
  63   2.0000     -10.283021      -279.8152
  64   2.0000     -10.279928      -279.7311
  65   2.0000     -10.278923      -279.7037
  66   2.0000     -10.278057      -279.6801
  67   2.0000     -10.276379      -279.6345
  68   2.0000     -10.262512      -279.2572
  69   2.0000     -10.262223      -279.2493
  70   2.0000      -8.776492      -238.8205
  71   2.0000      -8.073518      -219.6916
  72   2.0000      -8.064634      -219.4499
  73   2.0000      -8.057097      -219.2448
  74   2.0000      -6.612266      -179.9289
  75   2.0000      -6.598549      -179.5556
  76   2.0000      -6.598302      -179.5489
  77   2.0000      -6.042959      -164.4373
  78   2.0000      -6.038645      -164.3199
  79   2.0000      -6.035630      -164.2378
  80   2.0000      -6.033903      -164.1908
  81   2.0000      -6.029814      -164.0796
  82   2.0000      -6.026865      -163.9993
  83   2.0000      -6.026851      -163.9990
  84   2.0000      -6.022602      -163.8833
  85   2.0000      -6.018394      -163.7688
  86   2.0000      -2.728264       -74.2398
  87   2.0000      -2.724410       -74.1350
  88   2.0000      -2.724209       -74.1295
  89   2.0000      -2.713332       -73.8335
  90   2.0000      -2.713329       -73.8334
  91   2.0000      -1.322392       -35.9841
  92   2.0000      -1.193911       -32.4880
  93   2.0000      -1.133367       -30.8405
  94   2.0000      -1.122251       -30.5380
  95   2.0000      -1.115524       -30.3549
  96   2.0000      -1.110922       -30.2297
  97   2.0000      -1.102167       -29.9915
  98   2.0000      -1.101687       -29.9784
  99   2.0000      -1.100353       -29.9421
 100   2.0000      -1.066094       -29.0099
 101   2.0000      -1.029743       -28.0207
 102   2.0000      -1.019136       -27.7321
 103   2.0000      -1.016721       -27.6664
 104   2.0000      -1.000482       -27.2245
 105   2.0000      -0.997000       -27.1298
 106   2.0000      -0.989719       -26.9316
 107   2.0000      -0.986866       -26.8540
 108   2.0000      -0.961606       -26.1666
 109   2.0000      -0.960261       -26.1300
 110   2.0000      -0.939771       -25.5725
 111   2.0000      -0.932538       -25.3757
 112   2.0000      -0.925119       -25.1738
 113   2.0000      -0.908411       -24.7191
 114   2.0000      -0.907132       -24.6843
 115   2.0000      -0.892696       -24.2915
 116   2.0000      -0.887978       -24.1631
 117   2.0000      -0.878248       -23.8983
 118   2.0000      -0.873744       -23.7758
 119   2.0000      -0.870418       -23.6853
 120   2.0000      -0.859086       -23.3769
 121   2.0000      -0.852112       -23.1871
 122   2.0000      -0.845302       -23.0018
 123   2.0000      -0.834743       -22.7145
 124   2.0000      -0.833221       -22.6731
 125   2.0000      -0.831708       -22.6319
 126   2.0000      -0.827281       -22.5115
 127   2.0000      -0.813531       -22.1373
 128   2.0000      -0.802785       -21.8449
 129   2.0000      -0.783711       -21.3259
 130   2.0000      -0.778406       -21.1815
 131   2.0000      -0.774419       -21.0730
 132   2.0000      -0.763955       -20.7883
 133   2.0000      -0.762007       -20.7353
 134   2.0000      -0.754055       -20.5189
 135   2.0000      -0.739208       -20.1149
 136   2.0000      -0.723892       -19.6981
 137   2.0000      -0.715824       -19.4786
 138   2.0000      -0.704405       -19.1678
 139   2.0000      -0.703565       -19.1450
 140   2.0000      -0.700666       -19.0661
 141   2.0000      -0.695928       -18.9372
 142   2.0000      -0.694215       -18.8906
 143   2.0000      -0.681367       -18.5409
 144   2.0000      -0.673414       -18.3245
 145   2.0000      -0.673291       -18.3212
 146   2.0000      -0.670779       -18.2528
 147   2.0000      -0.658355       -17.9148
 148   2.0000      -0.650513       -17.7013
 149   2.0000      -0.645345       -17.5607
 150   2.0000      -0.644272       -17.5315
 151   2.0000      -0.639434       -17.3999
 152   2.0000      -0.628173       -17.0935
 153   2.0000      -0.621646       -16.9159
 154   2.0000      -0.617043       -16.7906
 155   2.0000      -0.615154       -16.7392
 156   2.0000      -0.612513       -16.6673
 157   2.0000      -0.608207       -16.5501
 158   2.0000      -0.597595       -16.2614
 159   2.0000      -0.594863       -16.1870
 160   2.0000      -0.591738       -16.1020
 161   2.0000      -0.582689       -15.8558
 162   2.0000      -0.573522       -15.6063
 163   2.0000      -0.572622       -15.5818
 164   2.0000      -0.569873       -15.5070
 165   2.0000      -0.567109       -15.4318
 166   2.0000      -0.565677       -15.3929
 167   2.0000      -0.561722       -15.2852
 168   2.0000      -0.555169       -15.1069
 169   2.0000      -0.554038       -15.0761
 170   2.0000      -0.551183       -14.9985
 171   2.0000      -0.549174       -14.9438
 172   2.0000      -0.548737       -14.9319
 173   2.0000      -0.546227       -14.8636
 174   2.0000      -0.542567       -14.7640
 175   2.0000      -0.538498       -14.6533
 176   2.0000      -0.535483       -14.5712
 177   2.0000      -0.533641       -14.5211
 178   2.0000      -0.532490       -14.4898
 179   2.0000      -0.527023       -14.3410
 180   2.0000      -0.526503       -14.3269
 181   2.0000      -0.521100       -14.1799
 182   2.0000      -0.517442       -14.0803
 183   2.0000      -0.516369       -14.0511
 184   2.0000      -0.513393       -13.9701
 185   2.0000      -0.511524       -13.9193
 186   2.0000      -0.509460       -13.8631
 187   2.0000      -0.506622       -13.7859
 188   2.0000      -0.503456       -13.6997
 189   2.0000      -0.499205       -13.5840
 190   2.0000      -0.493534       -13.4297
 191   2.0000      -0.491839       -13.3836
 192   2.0000      -0.487283       -13.2596
 193   2.0000      -0.486416       -13.2361
 194   2.0000      -0.483905       -13.1677
 195   2.0000      -0.480709       -13.0808
 196   2.0000      -0.477676       -12.9982
 197   2.0000      -0.475548       -12.9403
 198   2.0000      -0.475264       -12.9326
 199   2.0000      -0.472710       -12.8631
 200   2.0000      -0.469786       -12.7835
 201   2.0000      -0.468248       -12.7417
 202   2.0000      -0.466551       -12.6955
 203   2.0000      -0.462404       -12.5826
 204   2.0000      -0.454857       -12.3773
 205   2.0000      -0.454064       -12.3557
 206   2.0000      -0.451278       -12.2799
 207   2.0000      -0.447213       -12.1693
 208   2.0000      -0.446536       -12.1509
 209   2.0000      -0.445177       -12.1139
 210   2.0000      -0.444605       -12.0983
 211   2.0000      -0.444574       -12.0975
 212   2.0000      -0.442682       -12.0460
 213   2.0000      -0.437536       -11.9060
 214   2.0000      -0.434366       -11.8197
 215   2.0000      -0.431268       -11.7354
 216   2.0000      -0.428462       -11.6590
 217   2.0000      -0.425396       -11.5756
 218   2.0000      -0.423636       -11.5277
 219   2.0000      -0.422203       -11.4887
 220   2.0000      -0.418357       -11.3841
 221   2.0000      -0.417643       -11.3646
 222   2.0000      -0.410340       -11.1659
 223   2.0000      -0.406183       -11.0528
 224   2.0000      -0.403856       -10.9895
 225   2.0000      -0.402154       -10.9432
 226   2.0000      -0.397915       -10.8278
 227   2.0000      -0.392801       -10.6887
 228   2.0000      -0.387818       -10.5531
 229   2.0000      -0.379750       -10.3335
 230   2.0000      -0.370530       -10.0826
 231   2.0000      -0.362821        -9.8729
 232   2.0000      -0.360414        -9.8073
 233   2.0000      -0.350757        -9.5446
 234   2.0000      -0.346172        -9.4198
 235   2.0000      -0.342066        -9.3081
 236   2.0000      -0.337852        -9.1934
 237   2.0000      -0.335075        -9.1178
 238   2.0000      -0.329400        -8.9634
 239   2.0000      -0.326488        -8.8842
 240   2.0000      -0.323661        -8.8073
 241   2.0000      -0.320466        -8.7203
 242   2.0000      -0.317923        -8.6511
 243   2.0000      -0.307490        -8.3672
 244   2.0000      -0.299784        -8.1575
 245   2.0000      -0.297687        -8.1005
 246   2.0000      -0.294732        -8.0201
 247   2.0000      -0.293233        -7.9793
 248   2.0000      -0.271781        -7.3955
 249   2.0000      -0.225951        -6.1484
 250   0.0000      -0.098872        -2.6905
 251   0.0000      -0.082971        -2.2577
 252   0.0000      -0.064976        -1.7681
 253   0.0000      -0.056020        -1.5244
 254   0.0000      -0.037188        -1.0119

MULLIKEN ATOMIC CHARGES
-----------------------
   0 C :   -0.035299
   1 N :   -0.032358
   2 N :   -0.084577
   3 C :    0.037296
   4 C :   -0.074001
   5 C :    0.007500
   6 N :    0.071303
   7 O :   -0.094629
   8 N :    0.050283
   9 C :   -0.158348
  10 S :    0.163891
  11 C :   -0.088311
  12 C :   -0.053119
  13 C :    0.121124
  14 C :    0.002153
  15 C :   -0.114781
  16 C :    0.204601
  17 O :   -0.202242
  18 O :   -0.292817
  19 C :    0.189365
  20 S :    0.156749
  21 C :    0.048734
  22 N :   -0.039443
  23 C :    0.135985
  24 C :   -0.173787
  25 C :    0.087600
  26 N :   -0.028044
  27 C :    0.114963
  28 C :   -0.160990
  29 C :    0.033856
  30 C :   -0.000954
  31 C :   -0.160685
  32 S :    0.143652
  33 C :   -0.000314
  34 C :    0.137604
  35 O :   -0.190442
  36 C :    0.002550
  37 C :    0.015376
  38 N :   -0.131245
  39 C :    0.091776
  40 C :    0.001780
  41 C :    0.018106
  42 C :   -0.024131
  43 C :    0.116254
  44 O :   -0.154806
  45 C :    0.113035
  46 C :   -0.270805
  47 C :    0.085501
  48 C :   -0.016828
  49 C :    0.034811
  50 C :   -0.119498
  51 C :    0.141307
  52 O :   -0.132482
  53 C :   -0.017727
  54 C :    0.047036
  55 C :    0.245581
  56 C :   -0.300698
  57 C :   -0.219033
  58 N :    0.195874
  59 C :   -0.199170
  60 N :    0.163893
  61 C :   -0.007446
  62 C :    0.040558
  63 C :    0.007438
  64 C :   -0.030329
  65 Br:   -0.021580
  66 H :    0.008745
  67 H :    0.020286
  68 H :    0.038989
  69 H :    0.034638
  70 H :    0.034086
  71 H :    0.132053
  72 H :   -0.030740
  73 H :    0.136455
  74 H :   -0.022376
  75 H :   -0.008163
  76 H :   -0.008137
  77 H :    0.000912
  78 H :    0.035414
  79 H :    0.035020
  80 H :    0.028571
  81 H :    0.029242
  82 H :    0.030478
  83 H :    0.006277
  84 H :    0.044181
  85 H :    0.024276
  86 H :    0.030901
  87 H :    0.006547
  88 H :   -0.002234
  89 H :   -0.002038
Sum of atomic charges:   -0.0000000

LOEWDIN ATOMIC CHARGES
----------------------
   0 C :   -0.010778
   1 N :   -0.026923
   2 N :   -0.077041
   3 C :   -0.010422
   4 C :   -0.074149
   5 C :   -0.072862
   6 N :   -0.007898
   7 O :    0.080829
   8 N :   -0.023873
   9 C :   -0.202450
  10 S :    0.467416
  11 C :   -0.170185
  12 C :   -0.192141
  13 C :   -0.039748
  14 C :   -0.005067
  15 C :   -0.189050
  16 C :    0.063644
  17 O :   -0.177811
  18 O :   -0.085953
  19 C :    0.083505
  20 S :    0.438426
  21 C :   -0.019029
  22 N :    0.070280
  23 C :   -0.016780
  24 C :   -0.079071
  25 C :   -0.000457
  26 N :    0.075621
  27 C :   -0.009931
  28 C :   -0.082963
  29 C :   -0.011238
  30 C :   -0.065879
  31 C :   -0.116411
  32 S :    0.471657
  33 C :   -0.105371
  34 C :    0.081694
  35 O :   -0.186126
  36 C :   -0.096239
  37 C :    0.036207
  38 N :    0.093260
  39 C :    0.045008
  40 C :   -0.057948
  41 C :    0.036880
  42 C :   -0.102558
  43 C :    0.072631
  44 O :   -0.154032
  45 C :   -0.071381
  46 C :   -0.146395
  47 C :    0.004520
  48 C :   -0.029521
  49 C :    0.048390
  50 C :   -0.088810
  51 C :    0.085161
  52 O :   -0.133473
  53 C :   -0.045587
  54 C :   -0.012785
  55 C :    0.047831
  56 C :   -0.122945
  57 C :   -0.021039
  58 N :   -0.032368
  59 C :   -0.016521
  60 N :   -0.049520
  61 C :    0.008490
  62 C :   -0.011085
  63 C :   -0.101022
  64 C :   -0.003495
  65 Br:    0.123542
  66 H :    0.034401
  67 H :    0.044445
  68 H :    0.027924
  69 H :    0.024472
  70 H :    0.024273
  71 H :    0.085987
  72 H :    0.027559
  73 H :    0.094710
  74 H :    0.021411
  75 H :    0.027745
  76 H :    0.027121
  77 H :    0.028185
  78 H :    0.034357
  79 H :    0.034627
  80 H :    0.029715
  81 H :    0.032578
  82 H :    0.030502
  83 H :    0.030124
  84 H :    0.049564
  85 H :    0.044454
  86 H :    0.046933
  87 H :    0.041373
  88 H :    0.037193
  89 H :    0.041690

  Mayer bond orders larger than 0.100000
B(  0-C ,  1-N ) :   1.7499 B(  0-C ,  5-C ) :   1.0832 B(  0-C , 66-H ) :   1.0193
B(  1-N ,  2-N ) :   1.1824 B(  2-N ,  3-C ) :   1.6987 B(  3-C ,  4-C ) :   1.0322
B(  3-C ,  9-C ) :   1.2335 B(  4-C ,  5-C ) :   1.1815 B(  4-C ,  8-N ) :   1.6094
B(  5-C ,  6-N ) :   1.6026 B(  6-N ,  7-O ) :   1.0743 B(  6-N ,  8-N ) :   0.1805
B(  7-O ,  8-N ) :   1.0656 B(  9-C , 10-S ) :   1.1108 B(  9-C , 11-C ) :   0.1144
B(  9-C , 13-C ) :   1.3228 B( 10-S , 11-C ) :   1.1142 B( 11-C , 12-C ) :   1.4857
B( 11-C , 21-C ) :   1.1332 B( 12-C , 13-C ) :   1.2649 B( 12-C , 20-S ) :   1.0559
B( 13-C , 14-C ) :   1.1644 B( 14-C , 15-C ) :   1.5496 B( 14-C , 67-H ) :   1.0103
B( 15-C , 16-C ) :   0.9555 B( 15-C , 20-S ) :   1.0788 B( 16-C , 17-O ) :   2.1385
B( 16-C , 18-O ) :   1.2582 B( 18-O , 19-C ) :   0.9197 B( 19-C , 68-H ) :   0.9810
B( 19-C , 69-H ) :   0.9764 B( 19-C , 70-H ) :   0.9757 B( 21-C , 22-N ) :   1.2033
B( 21-C , 28-C ) :   1.3963 B( 22-N , 23-C ) :   1.1672 B( 22-N , 71-H ) :   0.9285
B( 23-C , 24-C ) :   1.2457 B( 23-C , 27-C ) :   1.2971 B( 24-C , 25-C ) :   1.3366
B( 24-C , 72-H ) :   1.0467 B( 25-C , 26-N ) :   1.1987 B( 25-C , 29-C ) :   1.1824
B( 26-N , 27-C ) :   1.1757 B( 26-N , 73-H ) :   0.9273 B( 27-C , 28-C ) :   1.2868
B( 28-C , 74-H ) :   1.0157 B( 29-C , 30-C ) :   1.5300 B( 29-C , 75-H ) :   0.9583
B( 30-C , 31-C ) :   1.2177 B( 30-C , 76-H ) :   0.9506 B( 31-C , 32-S ) :   1.1059
B( 31-C , 33-C ) :   1.4644 B( 32-S , 46-C ) :   1.1318 B( 33-C , 34-C ) :   0.9566
B( 33-C , 45-C ) :   1.1656 B( 34-C , 35-O ) :   2.1536 B( 34-C , 36-C ) :   1.0055
B( 35-O , 76-H ) :   0.1013 B( 36-C , 37-C ) :   1.4246 B( 36-C , 42-C ) :   1.2917
B( 37-C , 38-N ) :   1.2342 B( 37-C , 77-H ) :   0.9921 B( 38-N , 39-C ) :   0.9517
B( 38-N , 41-C ) :   1.2383 B( 39-C , 40-C ) :   1.1120 B( 39-C , 78-H ) :   0.9509
B( 39-C , 79-H ) :   0.9509 B( 40-C , 80-H ) :   0.9676 B( 40-C , 81-H ) :   0.9681
B( 40-C , 82-H ) :   0.9672 B( 41-C , 42-C ) :   1.4242 B( 41-C , 83-H ) :   0.9920
B( 42-C , 43-C ) :   0.9962 B( 43-C , 44-O ) :   2.2178 B( 43-C , 45-C ) :   0.9247
B( 45-C , 46-C ) :   1.4828 B( 46-C , 47-C ) :   1.0929 B( 47-C , 48-C ) :   1.7530
B( 47-C , 84-H ) :   0.9441 B( 48-C , 49-C ) :   1.0976 B( 48-C , 85-H ) :   0.9478
B( 49-C , 50-C ) :   1.7280 B( 49-C , 86-H ) :   0.9295 B( 50-C , 51-C ) :   0.9336
B( 50-C , 55-C ) :   1.0306 B( 51-C , 52-O ) :   2.2824 B( 51-C , 53-C ) :   0.9156
B( 53-C , 54-C ) :   1.3300 B( 53-C , 64-C ) :   1.3708 B( 54-C , 55-C ) :   1.0104
B( 54-C , 61-C ) :   1.3732 B( 55-C , 56-C ) :   1.6665 B( 56-C , 57-C ) :   1.1608
B( 56-C , 59-C ) :   1.1296 B( 57-C , 58-N ) :   3.0101 B( 59-C , 60-N ) :   2.9527
B( 61-C , 62-C ) :   1.3754 B( 61-C , 87-H ) :   0.9874 B( 62-C , 63-C ) :   1.3801
B( 62-C , 88-H ) :   0.9890 B( 63-C , 64-C ) :   1.3359 B( 63-C , 65-Br) :   0.9911
B( 64-C , 89-H ) :   1.0081

-----------------------------------------------------------------------------
         ABSORPTION SPECTRUM VIA TRANSITION ELECTRIC DIPOLE MOMENTS
-----------------------------------------------------------------------------
State   Energy  Wavelength   fosc         T2         TX        TY        TZ
        (cm-1)    (nm)                  (au**2)     (au)      (au)      (au)
-----------------------------------------------------------------------------
   0   13527.9    739.2   1.307429207  31.81734   4.40417  -1.24702   3.29630
   1   16794.9    595.4   0.174344226   3.41748  -1.42267  -1.08915  -0.45523
   2   19582.9    510.6   0.014705017   0.24721  -0.00489  -0.02486  -0.49656
   3   20553.0    486.5   0.000061371   0.00098   0.00048  -0.03042  -0.00757
   4   22296.2    448.5   0.400202300   5.90914   1.79624  -0.34063   1.60207
   5   23031.5    434.2   0.101413930   1.44961  -0.94757  -0.43378  -0.60296
   6   24719.9    404.5   0.108791716   1.44885  -0.40867  -0.16525   1.12006
   7   26062.3    383.7   0.044807509   0.56600   0.28620  -0.45862   0.52322
   8   26791.5    373.3   0.055726298   0.68476  -0.31031  -0.05978   0.76479
   9   27170.9    368.0   0.031490151   0.38155   0.05294   0.15777  -0.59486
  10   27851.4    359.0   0.019350986   0.22873  -0.24176   0.39501  -0.11939
  11   28199.9    354.6   0.029037494   0.33899  -0.29113  -0.22616   0.45065
  12   28896.2    346.1   0.004067606   0.04634  -0.05037   0.00552   0.20922
  13   28976.8    345.1   0.003343866   0.03799   0.00305   0.11208  -0.15944
  14   29247.8    341.9   0.036162089   0.40704   0.32234   0.14801  -0.53031
  15   29717.1    336.5   0.095954456   1.06300   0.96792   0.35221   0.04552
  16   29966.1    333.7   0.025071121   0.27543  -0.49232  -0.18108  -0.01639
  17   30684.6    325.9   0.071380717   0.76584  -0.70116  -0.16109   0.49826
  18   30994.4    322.6   0.008659970   0.09198  -0.05984   0.25909  -0.14585
  19   31712.3    315.3   0.060308782   0.62608   0.55286   0.25276  -0.50649
  20   32002.5    312.5   0.017735895   0.18245  -0.34312  -0.17907  -0.18070
  21   32268.9    309.9   0.104143777   1.06249   0.98356   0.09260  -0.29415
  22   32517.1    307.5   0.240632324   2.43623   0.93527  -0.22273   1.22959
  23   32913.4    303.8   0.225698197   2.25751  -1.44065  -0.36004  -0.22896
  24   33226.3    301.0   0.037705298   0.37359  -0.14490  -0.25122   0.53803
  25   33297.2    300.3   0.016403256   0.16218  -0.36061  -0.15528  -0.08961
  26   33507.8    298.4   0.007473011   0.07342   0.17017   0.14699   0.15119
  27   33543.4    298.1   0.048837116   0.47931  -0.54433  -0.42449  -0.05321
  28   33845.0    295.5   0.018254485   0.17756  -0.25971   0.28109  -0.17635
  29   34177.0    292.6   0.006693360   0.06447   0.03211  -0.24128  -0.07228
  30   34271.6    291.8   0.017639197   0.16944   0.26619   0.14829  -0.27675
  31   34329.1    291.3   0.005838335   0.05599   0.11601  -0.14240  -0.14917
  32   34768.3    287.6   0.035495041   0.33609   0.41620   0.00759  -0.40350
  33   34864.6    286.8   0.132508335   1.25122  -0.66788   0.23435  -0.86617
  34   34992.8    285.8   0.016833347   0.15837   0.04686  -0.20927  -0.33523
  35   35113.1    284.8   0.006108744   0.05727   0.01751   0.13057   0.19980
  36   35625.7    280.7   0.079830737   0.73770  -0.03598   0.61122  -0.60235
  37   35817.8    279.2   0.023998950   0.22058   0.16672   0.34697   0.26906
  38   36312.8    275.4   0.042716477   0.38727  -0.29049  -0.00460   0.55033
  39   36456.7    274.3   0.027362393   0.24709  -0.26492   0.14963  -0.39309
  40   36861.2    271.3   0.005168760   0.04616   0.17513   0.12237  -0.02276
  41   37100.8    269.5   0.009207250   0.08170  -0.28273   0.03448   0.02393
  42   37266.9    268.3   0.000853909   0.00754   0.06001   0.02771  -0.05634
  43   37490.4    266.7   0.002485071   0.02182  -0.05305   0.13779   0.00454
  44   37783.1    264.7   0.060214484   0.52466   0.66096   0.17488  -0.23918
  45   37903.4    263.8   0.002030313   0.01763  -0.08313   0.03329  -0.09806
  46   38083.4    262.6   0.018026649   0.15583   0.36504  -0.01866  -0.14910
  47   38196.9    261.8   0.110166480   0.94950  -0.94959  -0.03718  -0.21540
  48   38427.5    260.2   0.056663739   0.48544   0.23006   0.24595   0.60994
  49   38709.0    258.3   0.236476283   2.01118  -1.39270   0.15906  -0.21509
  50   39103.8    255.7   0.041999828   0.35359  -0.16159   0.15418  -0.55110
  51   39160.3    255.4   0.035843334   0.30133   0.04141  -0.21326   0.50412
  52   39705.9    251.9   0.026540052   0.22005   0.37432   0.14618   0.24201
  53   39841.3    251.0   0.004574450   0.03780   0.02238  -0.18330  -0.06081
  54   40216.0    248.7   0.058517282   0.47903   0.68545  -0.05592   0.07787

FINAL SINGLE POINT ENERGY     -6514.150334323656

DIPOLE MOMENT
-------------
                                X             Y             Z
Electronic contribution:    -64.83148     -32.51254      -5.38091
Nuclear contribution   :     65.84347      33.93057       4.70372
                        -----------------------------------------
Total Dipole Moment    :      1.01199       1.41802      -0.67719
                        -----------------------------------------
Magnitude (a.u.)       :      1.86909
Magnitude (Debye)      :      4.75084

Rotational constants in cm-1:     0.001944     0.000421     0.000367
Rotational constants in MHz :    58.267356    12.617260    11.001651

                             ****ORCA TERMINATED NORMALLY****
TOTAL RUN TIME: 0 days 0 hours 9 minutes 28 seconds 576 msec
