                         Program Version 4.2.0 -  RELEASE  -
|  1> # ORCA input file
|  2> # SCF done       -186.321048278166          0.002089628651
|  3> ! CAM-B3LYP def2-SVP def2/J RIJCOSX Grid4 TightSCF
|  4> %maxcore 5000
|  5> %tddft
|  6>     Mode sTDDFT
|  7>     Ethresh 5.0
|  8>     maxcore 5000
|  9> end
| 10>
| 11> %pal
| 12>   nprocs 6
| 13>   end
| 14> * xyz 0 1
| 15>    C        0.14608        -3.03310         2.17428
| 16>    C       -1.15997        -3.26433         2.46655
| 17>    S       -1.99500        -1.78104         2.76492
| 18>    C       -0.56173        -0.81921         2.47900
| 19>    C       -0.57494         0.65822         2.57067
| 20>    C        0.48033        -1.64071         2.18703
| 21>    C        1.89666        -1.47682         1.83821
| 22>    O        2.48339        -0.43359         1.62955
| 23>    C        2.42201        -2.85714         1.70374
| 24>    C        1.31980        -3.78861         1.79175
| 25>    C        1.30595        -5.14134         1.53354
| 26>    C        0.16872        -5.92956         1.78571
| 27>    N       -0.73824        -6.60992         1.97482
| 28>    C        2.33398        -5.88578         0.94208
| 29>    N        3.10262        -6.57955         0.43735
| 30>    C        3.72476        -3.26147         1.50335
| 31>    C        4.95739        -2.60910         1.54445
| 32>    S        6.27461        -3.56446         0.86798
| 33>    C        7.47654        -2.32899         1.13096
| 34>    C        6.85445        -1.24497         1.76601
| 35>    C        5.47204        -1.38755         2.02997
| 36>    C        4.98596        -0.30359         2.79459
| 37>    C        5.95247         0.62729         3.04614
| 38>    C        5.84530         1.88105         3.79307
| 39>    O        6.74949         2.67030         3.92240
| 40>    O        4.62655         2.04346         4.32650
| 41>    C        4.43721         3.24003         5.06701
| 42>    S        7.51328         0.22304         2.38401
| 43>    C        8.81850        -2.44169         0.77903
| 44>    C        9.42346        -3.57830         0.27220
| 45>    C       10.77641        -3.74836        -0.09613
| 46>    C       11.09016        -5.01310        -0.51945
| 47>    C        9.99946        -5.89745        -0.49192
| 48>    S        8.55497        -5.07141         0.04759
| 49>    C        9.88846        -7.25412        -0.77918
| 50>    C       10.78829        -8.18455        -1.33014
| 51>    C       10.26088        -9.44087        -1.46842
| 52>    C        8.92678        -9.56876        -1.01726
| 53>    S        8.37007        -8.02186        -0.41246
| 54>    C        8.09838       -10.67064        -1.10417
| 55>    C        6.79026       -10.70799        -0.60121
| 56>    C        6.22042        -9.87228         0.36316
| 57>    C        4.86156       -10.06529         0.49495
| 58>    C        4.34952       -11.07821        -0.34738
| 59>    S        5.58815       -11.81946        -1.27116
| 60>    C        2.94754       -11.08898        -0.21641
| 61>    C        2.57081       -10.07686         0.70202
| 62>    C        3.76226        -9.44907         1.22248
| 63>    C        3.86194        -8.47376         2.17159
| 64>    C        5.08992        -7.86857         2.51251
| 65>    N        6.07236        -7.35043         2.79699
| 66>    C        2.76243        -7.99146         2.91051
| 67>    N        1.90605        -7.57903         3.55299
| 68>    C        1.19736        -9.86427         0.73704
| 69>    C        0.51313       -10.72709        -0.10248
| 70>    S        1.59416       -11.85055        -0.92161
| 71>    C       -0.88308       -10.77992        -0.34077
| 72>    C       -1.74083        -9.72437        -0.35213
| 73>    C       -3.20840        -9.96216        -0.18032
| 74>    O       -3.77187       -11.03321        -0.21551
| 75>    C       -3.76660        -8.63432         0.07791
| 76>    C       -4.98508        -8.12642         0.40762
| 77>    S       -4.86548        -6.38955         0.55649
| 78>    C       -3.18760        -6.38174         0.15453
| 79>    C       -2.73730        -7.64449        -0.06446
| 80>    C       -1.50047        -8.29483        -0.44202
| 81>    C       -0.42796        -7.64986        -1.00368
| 82>    C       -0.38204        -6.24593        -1.09650
| 83>    N       -0.30979        -5.10122        -1.16144
| 84>    C        0.67718        -8.27813        -1.60628
| 85>    N        1.56722        -8.73569        -2.16966
| 86>    C       -6.25916        -8.84758         0.62249
| 87>    H       -1.69407        -4.19032         2.53916
| 88>    H       -0.84197         0.97985         3.57723
| 89>    H       -1.30552         1.07990         1.88119
| 90>    H        0.41367         1.03730         2.32133
| 91>    H        3.83478        -4.31085         1.24811
| 92>    H        3.97801        -0.18794         3.13921
| 93>    H        4.52816         4.10934         4.41260
| 94>    H        5.18446         3.31815         5.85946
| 95>    H        3.43663         3.18112         5.48671
| 96>    H        9.43413        -1.56664         0.94034
| 97>    H       11.48142        -2.93843        -0.03279
| 98>    H       12.07334        -5.32335        -0.82562
| 99>    H       11.78389        -7.90969        -1.62983
|100>    H       10.79586       -10.27747        -1.88260
|101>    H        8.45419       -11.52604        -1.66207
|102>    H        6.78605        -9.18456         0.96194
|103>    H        0.70197        -9.12918         1.34802
|104>    H       -1.32919       -11.75847        -0.48724
|105>    H       -2.65603        -5.45213         0.12698
|106>    H       -6.09363        -9.91352         0.48281
|107>    H       -7.01712        -8.50681        -0.08229
|108>    H       -6.63671        -8.67037         1.62911
|109> *
|110>
|111>                          ****END OF INPUT****

CARTESIAN COORDINATES (ANGSTROEM)
---------------------------------
  C      0.146080   -3.033100    2.174280
  C     -1.159970   -3.264330    2.466550
  S     -1.995000   -1.781040    2.764920
  C     -0.561730   -0.819210    2.479000
  C     -0.574940    0.658220    2.570670
  C      0.480330   -1.640710    2.187030
  C      1.896660   -1.476820    1.838210
  O      2.483390   -0.433590    1.629550
  C      2.422010   -2.857140    1.703740
  C      1.319800   -3.788610    1.791750
  C      1.305950   -5.141340    1.533540
  C      0.168720   -5.929560    1.785710
  N     -0.738240   -6.609920    1.974820
  C      2.333980   -5.885780    0.942080
  N      3.102620   -6.579550    0.437350
  C      3.724760   -3.261470    1.503350
  C      4.957390   -2.609100    1.544450
  S      6.274610   -3.564460    0.867980
  C      7.476540   -2.328990    1.130960
  C      6.854450   -1.244970    1.766010
  C      5.472040   -1.387550    2.029970
  C      4.985960   -0.303590    2.794590
  C      5.952470    0.627290    3.046140
  C      5.845300    1.881050    3.793070
  O      6.749490    2.670300    3.922400
  O      4.626550    2.043460    4.326500
  C      4.437210    3.240030    5.067010
  S      7.513280    0.223040    2.384010
  C      8.818500   -2.441690    0.779030
  C      9.423460   -3.578300    0.272200
  C     10.776410   -3.748360   -0.096130
  C     11.090160   -5.013100   -0.519450
  C      9.999460   -5.897450   -0.491920
  S      8.554970   -5.071410    0.047590
  C      9.888460   -7.254120   -0.779180
  C     10.788290   -8.184550   -1.330140
  C     10.260880   -9.440870   -1.468420
  C      8.926780   -9.568760   -1.017260
  S      8.370070   -8.021860   -0.412460
  C      8.098380  -10.670640   -1.104170
  C      6.790260  -10.707990   -0.601210
  C      6.220420   -9.872280    0.363160
  C      4.861560  -10.065290    0.494950
  C      4.349520  -11.078210   -0.347380
  S      5.588150  -11.819460   -1.271160
  C      2.947540  -11.088980   -0.216410
  C      2.570810  -10.076860    0.702020
  C      3.762260   -9.449070    1.222480
  C      3.861940   -8.473760    2.171590
  C      5.089920   -7.868570    2.512510
  N      6.072360   -7.350430    2.796990
  C      2.762430   -7.991460    2.910510
  N      1.906050   -7.579030    3.552990
  C      1.197360   -9.864270    0.737040
  C      0.513130  -10.727090   -0.102480
  S      1.594160  -11.850550   -0.921610
  C     -0.883080  -10.779920   -0.340770
  C     -1.740830   -9.724370   -0.352130
  C     -3.208400   -9.962160   -0.180320
  O     -3.771870  -11.033210   -0.215510
  C     -3.766600   -8.634320    0.077910
  C     -4.985080   -8.126420    0.407620
  S     -4.865480   -6.389550    0.556490
  C     -3.187600   -6.381740    0.154530
  C     -2.737300   -7.644490   -0.064460
  C     -1.500470   -8.294830   -0.442020
  C     -0.427960   -7.649860   -1.003680
  C     -0.382040   -6.245930   -1.096500
  N     -0.309790   -5.101220   -1.161440
  C      0.677180   -8.278130   -1.606280
  N      1.567220   -8.735690   -2.169660
  C     -6.259160   -8.847580    0.622490
  H     -1.694070   -4.190320    2.539160
  H     -0.841970    0.979850    3.577230
  H     -1.305520    1.079900    1.881190
  H      0.413670    1.037300    2.321330
  H      3.834780   -4.310850    1.248110
  H      3.978010   -0.187940    3.139210
  H      4.528160    4.109340    4.412600
  H      5.184460    3.318150    5.859460
  H      3.436630    3.181120    5.486710
  H      9.434130   -1.566640    0.940340
  H     11.481420   -2.938430   -0.032790
  H     12.073340   -5.323350   -0.825620
  H     11.783890   -7.909690   -1.629830
  H     10.795860  -10.277470   -1.882600
  H      8.454190  -11.526040   -1.662070
  H      6.786050   -9.184560    0.961940
  H      0.701970   -9.129180    1.348020
  H     -1.329190  -11.758470   -0.487240
  H     -2.656030   -5.452130    0.126980
  H     -6.093630   -9.913520    0.482810
  H     -7.017120   -8.506810   -0.082290
  H     -6.636710   -8.670370    1.629110

 Total Charge           Charge          ....    0
 Multiplicity           Mult            ....    1
 Number of Electrons    NEL             ....  548
 Basis Dimension        Dim             .... 1150

ORBITAL ENERGIES
----------------

  NO   OCC          E(Eh)            E(eV)
   0   2.0000     -88.984256     -2421.3847
   1   2.0000     -88.982262     -2421.3304
   2   2.0000     -88.965805     -2420.8826
   3   2.0000     -88.965031     -2420.8616
   4   2.0000     -88.960750     -2420.7451
   5   2.0000     -88.958726     -2420.6900
   6   2.0000     -88.958286     -2420.6780
   7   2.0000     -88.957164     -2420.6475
   8   2.0000     -19.256101      -523.9851
   9   2.0000     -19.205729      -522.6145
  10   2.0000     -19.200113      -522.4616
  11   2.0000     -19.197668      -522.3951
  12   2.0000     -14.419952      -392.3869
  13   2.0000     -14.419312      -392.3694
  14   2.0000     -14.406078      -392.0093
  15   2.0000     -14.404013      -391.9531
  16   2.0000     -14.401551      -391.8861
  17   2.0000     -14.397639      -391.7797
  18   2.0000     -10.399791      -282.9927
  19   2.0000     -10.359887      -281.9069
  20   2.0000     -10.353925      -281.7446
  21   2.0000     -10.352266      -281.6995
  22   2.0000     -10.336103      -281.2597
  23   2.0000     -10.330972      -281.1200
  24   2.0000     -10.329728      -281.0862
  25   2.0000     -10.328997      -281.0663
  26   2.0000     -10.327301      -281.0202
  27   2.0000     -10.327087      -281.0143
  28   2.0000     -10.326121      -280.9880
  29   2.0000     -10.324116      -280.9335
  30   2.0000     -10.323279      -280.9107
  31   2.0000     -10.323027      -280.9039
  32   2.0000     -10.322997      -280.9030
  33   2.0000     -10.320209      -280.8272
  34   2.0000     -10.319394      -280.8050
  35   2.0000     -10.319342      -280.8036
  36   2.0000     -10.318509      -280.7809
  37   2.0000     -10.317474      -280.7527
  38   2.0000     -10.316446      -280.7248
  39   2.0000     -10.315213      -280.6912
  40   2.0000     -10.314144      -280.6621
  41   2.0000     -10.312234      -280.6102
  42   2.0000     -10.312173      -280.6085
  43   2.0000     -10.309812      -280.5442
  44   2.0000     -10.309289      -280.5300
  45   2.0000     -10.306863      -280.4640
  46   2.0000     -10.305721      -280.4329
  47   2.0000     -10.304595      -280.4023
  48   2.0000     -10.304576      -280.4018
  49   2.0000     -10.304513      -280.4000
  50   2.0000     -10.304418      -280.3975
  51   2.0000     -10.304372      -280.3962
  52   2.0000     -10.304270      -280.3935
  53   2.0000     -10.302965      -280.3579
  54   2.0000     -10.301603      -280.3209
  55   2.0000     -10.300344      -280.2866
  56   2.0000     -10.299094      -280.2526
  57   2.0000     -10.298115      -280.2260
  58   2.0000     -10.296804      -280.1903
  59   2.0000     -10.295211      -280.1469
  60   2.0000     -10.294365      -280.1239
  61   2.0000     -10.293605      -280.1032
  62   2.0000     -10.293397      -280.0976
  63   2.0000     -10.292448      -280.0717
  64   2.0000     -10.285816      -279.8913
  65   2.0000     -10.282826      -279.8099
  66   2.0000     -10.280871      -279.7567
  67   2.0000     -10.277908      -279.6761
  68   2.0000     -10.275391      -279.6076
  69   2.0000     -10.273009      -279.5428
  70   2.0000     -10.272685      -279.5340
  71   2.0000     -10.267053      -279.3807
  72   2.0000      -8.078806      -219.8355
  73   2.0000      -8.076898      -219.7836
  74   2.0000      -8.061690      -219.3697
  75   2.0000      -8.059820      -219.3189
  76   2.0000      -8.056718      -219.2344
  77   2.0000      -8.054887      -219.1846
  78   2.0000      -8.054624      -219.1775
  79   2.0000      -8.052435      -219.1179
  80   2.0000      -6.048088      -164.5768
  81   2.0000      -6.046175      -164.5248
  82   2.0000      -6.044066      -164.4674
  83   2.0000      -6.041982      -164.4107
  84   2.0000      -6.040966      -164.3831
  85   2.0000      -6.039213      -164.3353
  86   2.0000      -6.030920      -164.1097
  87   2.0000      -6.029134      -164.0611
  88   2.0000      -6.026390      -163.9864
  89   2.0000      -6.026052      -163.9772
  90   2.0000      -6.024906      -163.9460
  91   2.0000      -6.024595      -163.9376
  92   2.0000      -6.024271      -163.9288
  93   2.0000      -6.024236      -163.9278
  94   2.0000      -6.022017      -163.8674
  95   2.0000      -6.021918      -163.8647
  96   2.0000      -6.021474      -163.8526
  97   2.0000      -6.020308      -163.8209
  98   2.0000      -6.019979      -163.8120
  99   2.0000      -6.019124      -163.7887
 100   2.0000      -6.017795      -163.7525
 101   2.0000      -6.015964      -163.7027
 102   2.0000      -6.015832      -163.6991
 103   2.0000      -6.014018      -163.6497
 104   2.0000      -1.187819       -32.3222
 105   2.0000      -1.120895       -30.5011
 106   2.0000      -1.113274       -30.2937
 107   2.0000      -1.093947       -29.7678
 108   2.0000      -1.037300       -28.2264
 109   2.0000      -1.014879       -27.6163
 110   2.0000      -1.014628       -27.6094
 111   2.0000      -1.011575       -27.5263
 112   2.0000      -1.009014       -27.4567
 113   2.0000      -1.005476       -27.3604
 114   2.0000      -0.997842       -27.1527
 115   2.0000      -0.994763       -27.0689
 116   2.0000      -0.993680       -27.0394
 117   2.0000      -0.991594       -26.9827
 118   2.0000      -0.986087       -26.8328
 119   2.0000      -0.982670       -26.7398
 120   2.0000      -0.979448       -26.6521
 121   2.0000      -0.955478       -25.9999
 122   2.0000      -0.953389       -25.9430
 123   2.0000      -0.946678       -25.7604
 124   2.0000      -0.944010       -25.6878
 125   2.0000      -0.917213       -24.9586
 126   2.0000      -0.908561       -24.7232
 127   2.0000      -0.895198       -24.3596
 128   2.0000      -0.886356       -24.1190
 129   2.0000      -0.881267       -23.9805
 130   2.0000      -0.872588       -23.7443
 131   2.0000      -0.869965       -23.6730
 132   2.0000      -0.861843       -23.4519
 133   2.0000      -0.860396       -23.4126
 134   2.0000      -0.857484       -23.3333
 135   2.0000      -0.850491       -23.1430
 136   2.0000      -0.849024       -23.1031
 137   2.0000      -0.844251       -22.9732
 138   2.0000      -0.838392       -22.8138
 139   2.0000      -0.832444       -22.6520
 140   2.0000      -0.819175       -22.2909
 141   2.0000      -0.802617       -21.8403
 142   2.0000      -0.791585       -21.5401
 143   2.0000      -0.786629       -21.4053
 144   2.0000      -0.783328       -21.3154
 145   2.0000      -0.779704       -21.2168
 146   2.0000      -0.773791       -21.0559
 147   2.0000      -0.765361       -20.8265
 148   2.0000      -0.746958       -20.3258
 149   2.0000      -0.731900       -19.9160
 150   2.0000      -0.724680       -19.7196
 151   2.0000      -0.721504       -19.6331
 152   2.0000      -0.713552       -19.4167
 153   2.0000      -0.702111       -19.1054
 154   2.0000      -0.693054       -18.8590
 155   2.0000      -0.687051       -18.6956
 156   2.0000      -0.680083       -18.5060
 157   2.0000      -0.675421       -18.3792
 158   2.0000      -0.672742       -18.3062
 159   2.0000      -0.660417       -17.9708
 160   2.0000      -0.657767       -17.8987
 161   2.0000      -0.653418       -17.7804
 162   2.0000      -0.650211       -17.6931
 163   2.0000      -0.647220       -17.6118
 164   2.0000      -0.637814       -17.3558
 165   2.0000      -0.636543       -17.3212
 166   2.0000      -0.630321       -17.1519
 167   2.0000      -0.626061       -17.0360
 168   2.0000      -0.617832       -16.8121
 169   2.0000      -0.607658       -16.5352
 170   2.0000      -0.606893       -16.5144
 171   2.0000      -0.604827       -16.4582
 172   2.0000      -0.596456       -16.2304
 173   2.0000      -0.593999       -16.1635
 174   2.0000      -0.592046       -16.1104
 175   2.0000      -0.583437       -15.8761
 176   2.0000      -0.580914       -15.8075
 177   2.0000      -0.572899       -15.5894
 178   2.0000      -0.570534       -15.5250
 179   2.0000      -0.567206       -15.4344
 180   2.0000      -0.557985       -15.1836
 181   2.0000      -0.551720       -15.0131
 182   2.0000      -0.550348       -14.9757
 183   2.0000      -0.548872       -14.9356
 184   2.0000      -0.543415       -14.7871
 185   2.0000      -0.535648       -14.5757
 186   2.0000      -0.533828       -14.5262
 187   2.0000      -0.531733       -14.4692
 188   2.0000      -0.529032       -14.3957
 189   2.0000      -0.527387       -14.3509
 190   2.0000      -0.520838       -14.1727
 191   2.0000      -0.517940       -14.0939
 192   2.0000      -0.516848       -14.0641
 193   2.0000      -0.515485       -14.0271
 194   2.0000      -0.513303       -13.9677
 195   2.0000      -0.510806       -13.8997
 196   2.0000      -0.508175       -13.8282
 197   2.0000      -0.506464       -13.7816
 198   2.0000      -0.505253       -13.7486
 199   2.0000      -0.503784       -13.7086
 200   2.0000      -0.501767       -13.6538
 201   2.0000      -0.500990       -13.6326
 202   2.0000      -0.500295       -13.6137
 203   2.0000      -0.495859       -13.4930
 204   2.0000      -0.495287       -13.4774
 205   2.0000      -0.492766       -13.4088
 206   2.0000      -0.491175       -13.3655
 207   2.0000      -0.489881       -13.3303
 208   2.0000      -0.484595       -13.1865
 209   2.0000      -0.480462       -13.0740
 210   2.0000      -0.475938       -12.9509
 211   2.0000      -0.474273       -12.9056
 212   2.0000      -0.472559       -12.8590
 213   2.0000      -0.470059       -12.7910
 214   2.0000      -0.469158       -12.7664
 215   2.0000      -0.465587       -12.6693
 216   2.0000      -0.463461       -12.6114
 217   2.0000      -0.462883       -12.5957
 218   2.0000      -0.460041       -12.5184
 219   2.0000      -0.453370       -12.3368
 220   2.0000      -0.451982       -12.2990
 221   2.0000      -0.450136       -12.2488
 222   2.0000      -0.448687       -12.2094
 223   2.0000      -0.446505       -12.1500
 224   2.0000      -0.445631       -12.1262
 225   2.0000      -0.443693       -12.0735
 226   2.0000      -0.442349       -12.0369
 227   2.0000      -0.440333       -11.9821
 228   2.0000      -0.439097       -11.9484
 229   2.0000      -0.436931       -11.8895
 230   2.0000      -0.433997       -11.8096
 231   2.0000      -0.433231       -11.7888
 232   2.0000      -0.432476       -11.7683
 233   2.0000      -0.430552       -11.7159
 234   2.0000      -0.430273       -11.7083
 235   2.0000      -0.428871       -11.6702
 236   2.0000      -0.426899       -11.6165
 237   2.0000      -0.426377       -11.6023
 238   2.0000      -0.425051       -11.5662
 239   2.0000      -0.422799       -11.5049
 240   2.0000      -0.420535       -11.4433
 241   2.0000      -0.419026       -11.4023
 242   2.0000      -0.416445       -11.3320
 243   2.0000      -0.415500       -11.3063
 244   2.0000      -0.413727       -11.2581
 245   2.0000      -0.410573       -11.1723
 246   2.0000      -0.407809       -11.0970
 247   2.0000      -0.404195       -10.9987
 248   2.0000      -0.400162       -10.8890
 249   2.0000      -0.396172       -10.7804
 250   2.0000      -0.392359       -10.6766
 251   2.0000      -0.388364       -10.5679
 252   2.0000      -0.387171       -10.5355
 253   2.0000      -0.380553       -10.3554
 254   2.0000      -0.374335       -10.1862
 255   2.0000      -0.365102        -9.9349
 256   2.0000      -0.354137        -9.6365
 257   2.0000      -0.351844        -9.5742
 258   2.0000      -0.343697        -9.3525
 259   2.0000      -0.341156        -9.2833
 260   2.0000      -0.334085        -9.0909
 261   2.0000      -0.328081        -8.9275
 262   2.0000      -0.327794        -8.9197
 263   2.0000      -0.321635        -8.7521
 264   2.0000      -0.317727        -8.6458
 265   2.0000      -0.315348        -8.5811
 266   2.0000      -0.312952        -8.5159
 267   2.0000      -0.309697        -8.4273
 268   2.0000      -0.305972        -8.3259
 269   2.0000      -0.293654        -7.9907
 270   2.0000      -0.288840        -7.8597
 271   2.0000      -0.278094        -7.5673
 272   2.0000      -0.250916        -6.8278
 273   2.0000      -0.214957        -5.8493
 274   0.0000      -0.114045        -3.1033
 275   0.0000      -0.096948        -2.6381
 276   0.0000      -0.077067        -2.0971
 277   0.0000      -0.061976        -1.6865
 278   0.0000      -0.035574        -0.9680

MULLIKEN ATOMIC CHARGES
-----------------------
   0 C :    0.052874
   1 C :   -0.145453
   2 S :    0.130601
   3 C :   -0.319547
   4 C :    0.116141
   5 C :    0.050979
   6 C :    0.134933
   7 O :   -0.171959
   8 C :   -0.099262
   9 C :    0.309497
  10 C :   -0.359116
  11 C :   -0.174933
  12 N :    0.125592
  13 C :   -0.161103
  14 N :    0.117508
  15 C :    0.023593
  16 C :   -0.122294
  17 S :    0.130776
  18 C :   -0.074616
  19 C :   -0.067103
  20 C :    0.166838
  21 C :    0.041451
  22 C :   -0.160303
  23 C :    0.206680
  24 O :   -0.205668
  25 O :   -0.296884
  26 C :    0.192412
  27 S :    0.172918
  28 C :   -0.022885
  29 C :   -0.017558
  30 C :    0.025289
  31 C :    0.040612
  32 C :   -0.030875
  33 S :    0.080765
  34 C :   -0.031460
  35 C :    0.032055
  36 C :    0.047801
  37 C :   -0.047654
  38 S :    0.084787
  39 C :    0.051999
  40 C :   -0.104988
  41 C :   -0.034026
  42 C :   -0.002506
  43 C :   -0.088718
  44 S :    0.190786
  45 C :   -0.081660
  46 C :   -0.003154
  47 C :    0.347891
  48 C :   -0.293679
  49 C :   -0.190887
  50 N :    0.178184
  51 C :   -0.218112
  52 N :    0.189307
  53 C :    0.020263
  54 C :   -0.143296
  55 S :    0.210519
  56 C :    0.067710
  57 C :   -0.139152
  58 C :    0.129051
  59 O :   -0.151553
  60 C :    0.057233
  61 C :   -0.316322
  62 S :    0.139418
  63 C :   -0.120494
  64 C :    0.052472
  65 C :    0.302350
  66 C :   -0.354436
  67 C :   -0.183014
  68 N :    0.142258
  69 C :   -0.178285
  70 N :    0.168940
  71 C :    0.115230
  72 H :    0.038816
  73 H :    0.031927
  74 H :    0.033808
  75 H :    0.045147
  76 H :   -0.001820
  77 H :    0.005416
  78 H :    0.032964
  79 H :    0.034229
  80 H :    0.032980
  81 H :   -0.004337
  82 H :   -0.005420
  83 H :   -0.008562
  84 H :   -0.007784
  85 H :   -0.004030
  86 H :   -0.003642
  87 H :    0.037514
  88 H :    0.025474
  89 H :    0.026967
  90 H :    0.037220
  91 H :    0.046935
  92 H :    0.035927
  93 H :    0.035514
Sum of atomic charges:   -0.0000000

LOEWDIN ATOMIC CHARGES
----------------------
   0 C :   -0.055203
   1 C :   -0.157047
   2 S :    0.443805
   3 C :   -0.133805
   4 C :   -0.058949
   5 C :   -0.099338
   6 C :    0.081075
   7 O :   -0.156147
   8 C :   -0.110411
   9 C :    0.089565
  10 C :   -0.164058
  11 C :    0.000071
  12 N :   -0.086842
  13 C :   -0.007950
  14 N :   -0.080766
  15 C :    0.028484
  16 C :   -0.175791
  17 S :    0.469379
  18 C :   -0.158638
  19 C :   -0.192672
  20 C :   -0.047537
  21 C :    0.001336
  22 C :   -0.198389
  23 C :    0.065259
  24 O :   -0.180766
  25 O :   -0.088662
  26 C :    0.082840
  27 S :    0.446670
  28 C :   -0.086907
  29 C :   -0.133507
  30 C :   -0.039617
  31 C :   -0.023423
  32 C :   -0.188306
  33 S :    0.408196
  34 C :   -0.157218
  35 C :   -0.038612
  36 C :   -0.016435
  37 C :   -0.150915
  38 S :    0.427908
  39 C :   -0.050320
  40 C :   -0.168551
  41 C :   -0.034576
  42 C :   -0.046500
  43 C :   -0.178072
  44 S :    0.466486
  45 C :   -0.159309
  46 C :   -0.058193
  47 C :    0.079066
  48 C :   -0.086294
  49 C :   -0.012526
  50 N :   -0.037061
  51 C :   -0.017383
  52 N :   -0.027722
  53 C :    0.003256
  54 C :   -0.178292
  55 S :    0.490758
  56 C :    0.041679
  57 C :   -0.077826
  58 C :    0.084171
  59 O :   -0.152045
  60 C :   -0.102827
  61 C :   -0.132533
  62 S :    0.458586
  63 C :   -0.145408
  64 C :   -0.052174
  65 C :    0.078309
  66 C :   -0.142156
  67 C :   -0.008501
  68 N :   -0.064359
  69 C :   -0.017646
  70 N :   -0.057071
  71 C :   -0.058446
  72 H :    0.029625
  73 H :    0.039661
  74 H :    0.040986
  75 H :    0.046545
  76 H :    0.040376
  77 H :    0.036129
  78 H :    0.024041
  79 H :    0.023763
  80 H :    0.025681
  81 H :    0.039450
  82 H :    0.035683
  83 H :    0.034981
  84 H :    0.034796
  85 H :    0.036542
  86 H :    0.037664
  87 H :    0.027765
  88 H :    0.046267
  89 H :    0.045733
  90 H :    0.029775
  91 H :    0.047816
  92 H :    0.041797
  93 H :    0.041733

  Mayer bond orders larger than 0.100000
B(  0-C ,  1-C ) :   1.5592 B(  0-C ,  5-C ) :   1.1995 B(  0-C ,  9-C ) :   0.9852
B(  1-C ,  2-S ) :   1.1446 B(  1-C , 72-H ) :   0.9524 B(  2-S ,  3-C ) :   1.1512
B(  3-C ,  4-C ) :   1.0834 B(  3-C ,  5-C ) :   1.5675 B(  4-C , 73-H ) :   0.9448
B(  4-C , 74-H ) :   0.9430 B(  4-C , 75-H ) :   0.9459 B(  5-C ,  6-C ) :   0.9432
B(  6-C ,  7-O ) :   2.1535 B(  6-C ,  8-C ) :   0.9723 B(  8-C ,  9-C ) :   1.1556
B(  8-C , 15-C ) :   1.4730 B(  9-C , 10-C ) :   1.5473 B( 10-C , 11-C ) :   1.1897
B( 10-C , 13-C ) :   1.1783 B( 11-C , 12-N ) :   2.8598 B( 13-C , 14-N ) :   2.8378
B( 15-C , 16-C ) :   1.3536 B( 15-C , 76-H ) :   0.8997 B( 16-C , 17-S ) :   1.0897
B( 16-C , 20-C ) :   1.2126 B( 17-S , 18-C ) :   1.1385 B( 18-C , 19-C ) :   1.3418
B( 18-C , 28-C ) :   1.2705 B( 19-C , 20-C ) :   1.3207 B( 19-C , 27-S ) :   1.0739
B( 20-C , 21-C ) :   1.1876 B( 21-C , 22-C ) :   1.5744 B( 21-C , 77-H ) :   0.9878
B( 22-C , 23-C ) :   0.9614 B( 22-C , 27-S ) :   1.0926 B( 23-C , 24-O ) :   2.1367
B( 23-C , 25-O ) :   1.2454 B( 25-O , 26-C ) :   0.9231 B( 26-C , 78-H ) :   0.9774
B( 26-C , 79-H ) :   0.9744 B( 26-C , 80-H ) :   0.9812 B( 28-C , 29-C ) :   1.4704
B( 28-C , 81-H ) :   0.9712 B( 29-C , 30-C ) :   1.1852 B( 29-C , 33-S ) :   1.0831
B( 30-C , 31-C ) :   1.5389 B( 30-C , 82-H ) :   1.0008 B( 31-C , 32-C ) :   1.2300
B( 31-C , 83-H ) :   0.9953 B( 32-C , 33-S ) :   1.0516 B( 32-C , 34-C ) :   1.4349
B( 34-C , 35-C ) :   1.2165 B( 34-C , 38-S ) :   1.0808 B( 35-C , 36-C ) :   1.5575
B( 35-C , 84-H ) :   0.9957 B( 36-C , 37-C ) :   1.1752 B( 36-C , 85-H ) :   0.9962
B( 37-C , 38-S ) :   1.0447 B( 37-C , 39-C ) :   1.5502 B( 39-C , 40-C ) :   1.1943
B( 39-C , 86-H ) :   0.9607 B( 40-C , 41-C ) :   1.3770 B( 40-C , 44-S ) :   1.0883
B( 41-C , 42-C ) :   1.3774 B( 41-C , 87-H ) :   0.9554 B( 42-C , 43-C ) :   1.3988
B( 42-C , 47-C ) :   1.0029 B( 43-C , 44-S ) :   1.1105 B( 43-C , 45-C ) :   1.2397
B( 45-C , 46-C ) :   1.3938 B( 45-C , 55-S ) :   1.1369 B( 46-C , 47-C ) :   1.0103
B( 46-C , 53-C ) :   1.3305 B( 47-C , 48-C ) :   1.7083 B( 48-C , 49-C ) :   1.1346
B( 48-C , 51-C ) :   1.1491 B( 49-C , 50-N ) :   2.9931 B( 51-C , 52-N ) :   2.9681
B( 53-C , 54-C ) :   1.4336 B( 53-C , 88-H ) :   0.9955 B( 54-C , 55-S ) :   1.0919
B( 54-C , 56-C ) :   1.0844 B( 56-C , 57-C ) :   1.7007 B( 56-C , 89-H ) :   0.9358
B( 57-C , 58-C ) :   0.9482 B( 57-C , 65-C ) :   1.0443 B( 58-C , 59-O ) :   2.2324
B( 58-C , 60-C ) :   0.9459 B( 60-C , 61-C ) :   1.5489 B( 60-C , 64-C ) :   1.2088
B( 61-C , 62-S ) :   1.1629 B( 61-C , 71-C ) :   1.0865 B( 62-S , 63-C ) :   1.1527
B( 63-C , 64-C ) :   1.5554 B( 63-C , 90-H ) :   0.9526 B( 64-C , 65-C ) :   1.0109
B( 65-C , 66-C ) :   1.6526 B( 66-C , 67-C ) :   1.1561 B( 66-C , 69-C ) :   1.1606
B( 67-C , 68-N ) :   2.9363 B( 69-C , 70-N ) :   2.9965 B( 71-C , 91-H ) :   0.9460
B( 71-C , 92-H ) :   0.9437 B( 71-C , 93-H ) :   0.9433

-----------------------------------------------------------------------------
         ABSORPTION SPECTRUM VIA TRANSITION ELECTRIC DIPOLE MOMENTS
-----------------------------------------------------------------------------
State   Energy  Wavelength   fosc         T2         TX        TY        TZ
        (cm-1)    (nm)                  (au**2)     (au)      (au)      (au)
-----------------------------------------------------------------------------
   0    7943.2   1258.9   0.264872575  10.97788   0.03639   3.19805   0.86548
   1   10157.3    984.5   0.127337828   4.12718  -1.90247   0.57036   0.42715
   2   14950.0    668.9   0.115729512   2.54846  -1.39783   0.62511   0.45140
   3   16964.7    589.5   0.990374076  19.21892  -4.35878   0.45202   0.12492
   4   17751.7    563.3   0.202774024   3.76052  -1.27027  -1.46254  -0.08887
   5   19464.7    513.8   0.753556325  12.74511   3.03023   1.87136  -0.24666
   6   21459.1    466.0   0.119849495   1.83865   1.08131   0.81623  -0.05660
   7   21831.1    458.1   0.295276355   4.45275   0.11965   2.09122  -0.25539
   8   23512.9    425.3   0.194166440   2.71859  -0.08763  -1.56133  -0.52265
   9   24255.3    412.3   0.065593836   0.89029  -0.16510   0.76345   0.52931
  10   24661.6    405.5   0.109850228   1.46641   0.95626  -0.58164  -0.46225
  11   25261.1    395.9   0.020369056   0.26546   0.39790  -0.32529   0.03633
  12   26503.2    377.3   0.039036524   0.48489  -0.02046   0.53712   0.44269
  13   26621.9    375.6   0.014038236   0.17360  -0.31841   0.21431   0.16214
  14   26861.8    372.3   0.198730980   2.43560   1.00824  -1.03115  -0.59646
  15   26876.6    372.1   0.006847855   0.08388   0.22272  -0.15611  -0.09952
  16   27439.0    364.4   0.256255132   3.07454   1.23271  -0.80544  -0.95196
  17   27772.0    360.1   0.099096920   1.17470  -0.18801  -0.79086  -0.71687
  18   28202.5    354.6   0.022760467   0.26569   0.30323  -0.06335   0.41198
  19   28495.8    350.9   0.042552488   0.49161  -0.34268   0.60378   0.09810
  20   28880.3    346.3   0.006421770   0.07320  -0.23266  -0.10760   0.08658
  21   28975.5    345.1   0.009121458   0.10364   0.18032   0.15055  -0.22012
  22   29555.1    338.4   0.096245975   1.07208   0.36986   0.62889   0.73469
  23   29782.6    335.8   0.052141779   0.57637  -0.52585   0.53706   0.10684
  24   30001.3    333.3   0.008726367   0.09576   0.29763   0.07475  -0.03981
  25   30516.8    327.7   0.055975019   0.60385  -0.12235  -0.40426  -0.65227
  26   30539.1    327.4   0.079792854   0.86017  -0.39223   0.52793   0.65392
  27   30884.5    323.8   0.094403999   1.00629   0.03316   0.70928   0.70860
  28   31035.2    322.2   0.047001477   0.49858  -0.42897   0.19825   0.52465
  29   31466.4    317.8   0.041610821   0.43535  -0.08965  -0.54249  -0.36472
  30   31674.7    315.7   0.031669345   0.32916   0.24015  -0.43469  -0.28728
  31   32056.7    311.9   0.138685231   1.42425  -0.98354  -0.66147  -0.13917
  32   32068.7    311.8   0.128400875   1.31814  -1.13256   0.16859   0.08385
  33   32251.6    310.1   0.092402200   0.94321   0.88172  -0.30718  -0.26723
  34   32662.5    306.2   0.090008299   0.90721   0.34580   0.75865   0.46052
  35   32867.8    304.2   0.009995716   0.10012   0.21641   0.19133  -0.12915
  36   33153.8    301.6   0.055467308   0.55078  -0.62165   0.33424   0.22936
  37   33328.5    300.0   0.144906920   1.43136   1.15557  -0.23040  -0.20721
  38   33533.8    298.2   0.163852933   1.60860   1.26763  -0.03445   0.02318
  39   33848.3    295.4   0.093197413   0.90645  -0.04137   0.71916   0.62253
  40   34052.2    293.7   0.060937247   0.58913   0.41453  -0.61656  -0.19275
  41   34273.4    291.8   0.111078017   1.06696  -0.53030  -0.67728  -0.57187
  42   34752.3    287.8   0.027114234   0.25686   0.47457   0.17694   0.01809
  43   34988.5    285.8   0.003366351   0.03167  -0.11835   0.09242  -0.09554
  44   35352.6    282.9   0.022220426   0.20692   0.39368   0.02226   0.22680
  45   35579.3    281.1   0.018714850   0.17317   0.36017   0.20626   0.02999
  46   35866.9    278.8   0.005662263   0.05197  -0.21140  -0.07933  -0.03144
  47   35953.6    278.1   0.018615573   0.17045   0.30470  -0.27478  -0.04588
  48   36074.6    277.2   0.092382682   0.84307  -0.78542  -0.43670   0.18834
  49   36234.2    276.0   0.009016990   0.08193  -0.23693  -0.15924   0.02083
  50   36543.8    273.6   0.030378817   0.27367  -0.52015   0.00383  -0.05568
  51   36660.4    272.8   0.014833618   0.13321   0.18660   0.30147  -0.08660
  52   36823.8    271.6   0.007056136   0.06308   0.13930   0.15490  -0.14030
  53   37030.5    270.0   0.029551517   0.26272  -0.03093   0.50269   0.09525
  54   37262.6    268.4   0.293100083   2.58951  -1.14188   1.11114   0.22581
  55   37535.7    266.4   0.196926747   1.72717  -1.17019   0.48796   0.34601
  56   37589.2    266.0   0.002245491   0.01967   0.04648  -0.11051  -0.07276
  57   37753.5    264.9   0.145016597   1.26455   1.06898   0.30701  -0.16605
  58   37986.5    263.3   0.094577652   0.81966   0.76131   0.36828  -0.32317
  59   38350.3    260.8   0.002274681   0.01953  -0.10587  -0.04356   0.08014
  60   38354.1    260.7   0.115957033   0.99531   0.93221  -0.19408  -0.29770
  61   38486.2    259.8   0.021458478   0.18356  -0.39973   0.09669   0.12011
  62   38948.0    256.8   0.030415197   0.25709  -0.04244   0.24325   0.44285
  63   39005.0    256.4   0.054699085   0.46167  -0.50193   0.29515   0.35018
  64   39099.1    255.8   0.008385913   0.07061  -0.19358   0.14409   0.11124
  65   39275.4    254.6   0.032175242   0.26970   0.23571  -0.19249  -0.42082
  66   39443.8    253.5   0.008099597   0.06760   0.15707  -0.00506  -0.20714
  67   39560.9    252.8   0.058196774   0.48429  -0.17522   0.65226   0.16777
  68   39756.5    251.5   0.110355909   0.91383  -0.22108  -0.92283  -0.11545
  69   39826.3    251.1   0.016583945   0.13709   0.23847  -0.23059  -0.16446
  70   40077.6    249.5   0.006205959   0.05098  -0.19447   0.11384   0.01416
  71   40185.5    248.8   0.047012136   0.38514   0.17111   0.55410   0.22097

FINAL SINGLE POINT ENERGY     -5881.338154408138

DIPOLE MOMENT
-------------
                                X             Y             Z
Electronic contribution:      6.78892     -29.17449     -10.26414
Nuclear contribution   :     -5.21474      28.35023      10.00650
                        -----------------------------------------
Total Dipole Moment    :      1.57418      -0.82427      -0.25764
                        -----------------------------------------
Magnitude (a.u.)       :      1.79551
Magnitude (Debye)      :      4.56382

Rotational constants in cm-1:     0.000915     0.000704     0.000418
Rotational constants in MHz :    27.435345    21.103820    12.524636

                             ****ORCA TERMINATED NORMALLY****
TOTAL RUN TIME: 0 days 0 hours 11 minutes 56 seconds 615 msec
