                         Program Version 4.2.0 -  RELEASE  -
|  1> # ORCA input file
|  2> # SCF done       -158.670186007524          0.000760867719
|  3> ! CAM-B3LYP def2-SVP def2/J RIJCOSX Grid4 TightSCF
|  4> %maxcore 5000
|  5> %tddft
|  6>     Mode sTDDFT
|  7>     Ethresh 5.0
|  8>     maxcore 5000
|  9> end
| 10>
| 11> %pal
| 12>   nprocs 6
| 13>   end
| 14> * xyz 0 1
| 15>    C       -7.62222        -1.14695        -0.77501
| 16>    O       -8.09375        -2.24210        -0.97442
| 17>    C       -8.16405         0.13585        -1.27242
| 18>    C       -7.37412         1.20492        -0.81506
| 19>    C       -7.70770         2.50455        -1.17349
| 20>    C       -8.82123         2.71093        -1.97204
| 21>    C       -9.59291         1.63911        -2.40652
| 22>    C       -9.27613         0.33121        -2.06601
| 23>   Br      -11.11426         1.97445        -3.49076
| 24>    C       -6.29798         0.67070         0.00961
| 25>    C       -5.43711         1.40336         0.77823
| 26>    C       -5.41818         2.81522         0.80880
| 27>    N       -5.35700         3.95955         0.86292
| 28>    C       -4.49801         0.86001         1.68398
| 29>    N       -3.74303         0.49860         2.46861
| 30>    C       -6.37506        -0.78559        -0.04493
| 31>    C       -5.35923        -1.61486         0.31300
| 32>    C       -5.31333        -3.04494         0.35201
| 33>    C       -6.37349        -3.91496         0.53924
| 34>    C       -6.21587        -5.30583         0.61404
| 35>    C       -4.99593        -5.95601         0.52030
| 36>    C       -3.86892        -5.09892         0.34769
| 37>    C       -4.03523        -3.66831         0.27370
| 38>    N       -2.83930        -3.14023         0.11299
| 39>    O       -1.98452        -4.15330         0.09201
| 40>    N       -2.57613        -5.33611         0.22885
| 41>    C       -4.86453        -7.39271         0.60584
| 42>    C       -3.64046        -8.03765         0.55637
| 43>    C       -3.48933        -9.42730         0.65045
| 44>    C       -4.54833       -10.30689         0.79491
| 45>    C       -5.83311        -9.69215         0.84028
| 46>    C       -5.98868        -8.25622         0.75364
| 47>    N       -7.28068        -8.00565         0.83930
| 48>    O       -7.88909        -9.17788         0.96884
| 49>    N       -7.04284       -10.20083         0.97280
| 50>    C       -4.37211       -11.73770         0.89475
| 51>    C       -5.43526       -12.62427         0.92893
| 52>    C       -5.28155       -14.01290         1.01889
| 53>    C       -4.05134       -14.64566         1.04113
| 54>    C       -2.92902       -13.77400         1.04394
| 55>    C       -3.08254       -12.33991         0.97601
| 56>    N       -1.86938       -11.82639         1.03408
| 57>    O       -1.02630       -12.84618         1.13582
| 58>    N       -1.63911       -14.02660         1.14465
| 59>    C       -3.94519       -16.07215         1.12840
| 60>    C       -2.93051       -16.88805         0.75952
| 61>    C       -2.88903       -18.27987         1.30538
| 62>    O       -3.78860       -18.86788         1.85251
| 63>    C       -1.50218       -18.73535         1.07414
| 64>    C       -0.80977       -17.77160         0.31631
| 65>    C       -1.72498       -16.68741        -0.02312
| 66>    C       -1.56341       -15.80636        -1.05505
| 67>    C       -0.39833       -15.72766        -1.84804
| 68>    N        0.52445       -15.61570        -2.52002
| 69>    C       -2.57300       -14.92553        -1.49472
| 70>    N       -3.37417       -14.20700        -1.89314
| 71>    C        0.52739       -17.97143         0.00459
| 72>    C        1.14719       -19.13063         0.44378
| 73>    C        0.44167       -20.07773         1.17724
| 74>    C       -0.89463       -19.89607         1.50829
| 75>   Br        1.33117       -21.65506         1.74539
| 76>    H       -7.12068         3.34913        -0.85225
| 77>    H       -9.09451         3.71410        -2.26108
| 78>    H       -9.86884        -0.50601        -2.40064
| 79>    H       -4.40807        -1.15968         0.56665
| 80>    H       -7.36917        -3.52005         0.64847
| 81>    H       -7.10151        -5.90489         0.75568
| 82>    H       -2.75082        -7.43840         0.44215
| 83>    H       -2.49017        -9.83096         0.60972
| 84>    H       -6.43581       -12.22428         0.88282
| 85>    H       -6.17338       -14.62181         1.03296
| 86>    H       -4.77936       -16.57115         1.61353
| 87>    H        1.09057       -17.24261        -0.55524
| 88>    H        2.18792       -19.30254         0.21564
| 89>    H       -1.44356       -20.62702         2.08153
| 90> *
| 91>
| 92>                          ****END OF INPUT****

CARTESIAN COORDINATES (ANGSTROEM)
---------------------------------
  C     -7.622220   -1.146950   -0.775010
  O     -8.093750   -2.242100   -0.974420
  C     -8.164050    0.135850   -1.272420
  C     -7.374120    1.204920   -0.815060
  C     -7.707700    2.504550   -1.173490
  C     -8.821230    2.710930   -1.972040
  C     -9.592910    1.639110   -2.406520
  C     -9.276130    0.331210   -2.066010
  Br   -11.114260    1.974450   -3.490760
  C     -6.297980    0.670700    0.009610
  C     -5.437110    1.403360    0.778230
  C     -5.418180    2.815220    0.808800
  N     -5.357000    3.959550    0.862920
  C     -4.498010    0.860010    1.683980
  N     -3.743030    0.498600    2.468610
  C     -6.375060   -0.785590   -0.044930
  C     -5.359230   -1.614860    0.313000
  C     -5.313330   -3.044940    0.352010
  C     -6.373490   -3.914960    0.539240
  C     -6.215870   -5.305830    0.614040
  C     -4.995930   -5.956010    0.520300
  C     -3.868920   -5.098920    0.347690
  C     -4.035230   -3.668310    0.273700
  N     -2.839300   -3.140230    0.112990
  O     -1.984520   -4.153300    0.092010
  N     -2.576130   -5.336110    0.228850
  C     -4.864530   -7.392710    0.605840
  C     -3.640460   -8.037650    0.556370
  C     -3.489330   -9.427300    0.650450
  C     -4.548330  -10.306890    0.794910
  C     -5.833110   -9.692150    0.840280
  C     -5.988680   -8.256220    0.753640
  N     -7.280680   -8.005650    0.839300
  O     -7.889090   -9.177880    0.968840
  N     -7.042840  -10.200830    0.972800
  C     -4.372110  -11.737700    0.894750
  C     -5.435260  -12.624270    0.928930
  C     -5.281550  -14.012900    1.018890
  C     -4.051340  -14.645660    1.041130
  C     -2.929020  -13.774000    1.043940
  C     -3.082540  -12.339910    0.976010
  N     -1.869380  -11.826390    1.034080
  O     -1.026300  -12.846180    1.135820
  N     -1.639110  -14.026600    1.144650
  C     -3.945190  -16.072150    1.128400
  C     -2.930510  -16.888050    0.759520
  C     -2.889030  -18.279870    1.305380
  O     -3.788600  -18.867880    1.852510
  C     -1.502180  -18.735350    1.074140
  C     -0.809770  -17.771600    0.316310
  C     -1.724980  -16.687410   -0.023120
  C     -1.563410  -15.806360   -1.055050
  C     -0.398330  -15.727660   -1.848040
  N      0.524450  -15.615700   -2.520020
  C     -2.573000  -14.925530   -1.494720
  N     -3.374170  -14.207000   -1.893140
  C      0.527390  -17.971430    0.004590
  C      1.147190  -19.130630    0.443780
  C      0.441670  -20.077730    1.177240
  C     -0.894630  -19.896070    1.508290
  Br     1.331170  -21.655060    1.745390
  H     -7.120680    3.349130   -0.852250
  H     -9.094510    3.714100   -2.261080
  H     -9.868840   -0.506010   -2.400640
  H     -4.408070   -1.159680    0.566650
  H     -7.369170   -3.520050    0.648470
  H     -7.101510   -5.904890    0.755680
  H     -2.750820   -7.438400    0.442150
  H     -2.490170   -9.830960    0.609720
  H     -6.435810  -12.224280    0.882820
  H     -6.173380  -14.621810    1.032960
  H     -4.779360  -16.571150    1.613530
  H      1.090570  -17.242610   -0.555240
  H      2.187920  -19.302540    0.215640
  H     -1.443560  -20.627020    2.081530

 Total Charge           Charge          ....    0
 Multiplicity           Mult            ....    1
 Number of Electrons    NEL             ....  458
 Basis Dimension        Dim             ....  960

ORBITAL ENERGIES
----------------

  NO   OCC          E(Eh)            E(eV)
   0   2.0000    -482.879923    -13139.8307
   1   2.0000    -482.876922    -13139.7491
   2   2.0000     -62.557642     -1702.2800
   3   2.0000     -62.554640     -1702.1983
   4   2.0000     -56.391492     -1534.4905
   5   2.0000     -56.388949     -1534.4213
   6   2.0000     -56.388934     -1534.4209
   7   2.0000     -56.388485     -1534.4087
   8   2.0000     -56.385948     -1534.3396
   9   2.0000     -56.385939     -1534.3394
  10   2.0000     -19.374293      -527.2013
  11   2.0000     -19.371937      -527.1372
  12   2.0000     -19.370009      -527.0848
  13   2.0000     -19.236301      -523.4464
  14   2.0000     -19.230827      -523.2974
  15   2.0000     -14.500114      -394.5682
  16   2.0000     -14.499969      -394.5642
  17   2.0000     -14.498440      -394.5226
  18   2.0000     -14.496108      -394.4591
  19   2.0000     -14.495103      -394.4318
  20   2.0000     -14.494266      -394.4090
  21   2.0000     -14.426256      -392.5584
  22   2.0000     -14.425763      -392.5450
  23   2.0000     -14.424824      -392.5194
  24   2.0000     -14.423188      -392.4749
  25   2.0000     -10.387511      -282.6585
  26   2.0000     -10.380711      -282.4735
  27   2.0000     -10.357634      -281.8456
  28   2.0000     -10.354368      -281.7567
  29   2.0000     -10.353448      -281.7316
  30   2.0000     -10.353280      -281.7271
  31   2.0000     -10.350791      -281.6593
  32   2.0000     -10.349832      -281.6332
  33   2.0000     -10.346694      -281.5478
  34   2.0000     -10.346453      -281.5413
  35   2.0000     -10.344181      -281.4795
  36   2.0000     -10.343124      -281.4507
  37   2.0000     -10.342287      -281.4279
  38   2.0000     -10.340237      -281.3721
  39   2.0000     -10.332805      -281.1699
  40   2.0000     -10.332511      -281.1619
  41   2.0000     -10.332421      -281.1595
  42   2.0000     -10.329159      -281.0707
  43   2.0000     -10.329012      -281.0667
  44   2.0000     -10.328965      -281.0654
  45   2.0000     -10.328088      -281.0416
  46   2.0000     -10.327173      -281.0167
  47   2.0000     -10.327086      -281.0143
  48   2.0000     -10.326378      -280.9950
  49   2.0000     -10.324927      -280.9556
  50   2.0000     -10.323579      -280.9189
  51   2.0000     -10.321559      -280.8639
  52   2.0000     -10.319898      -280.8187
  53   2.0000     -10.318612      -280.7837
  54   2.0000     -10.317990      -280.7668
  55   2.0000     -10.314329      -280.6672
  56   2.0000     -10.313968      -280.6573
  57   2.0000     -10.313682      -280.6495
  58   2.0000     -10.313627      -280.6481
  59   2.0000     -10.312423      -280.6153
  60   2.0000     -10.311659      -280.5945
  61   2.0000     -10.310606      -280.5659
  62   2.0000     -10.310496      -280.5629
  63   2.0000     -10.309070      -280.5241
  64   2.0000     -10.308909      -280.5197
  65   2.0000     -10.308731      -280.5148
  66   2.0000     -10.308564      -280.5103
  67   2.0000     -10.307590      -280.4838
  68   2.0000     -10.306885      -280.4646
  69   2.0000      -8.786940      -239.1048
  70   2.0000      -8.783932      -239.0229
  71   2.0000      -6.622849      -180.2169
  72   2.0000      -6.619817      -180.1344
  73   2.0000      -6.609024      -179.8407
  74   2.0000      -6.608567      -179.8283
  75   2.0000      -6.606027      -179.7591
  76   2.0000      -6.605580      -179.7470
  77   2.0000      -2.738750       -74.5252
  78   2.0000      -2.735737       -74.4432
  79   2.0000      -2.735015       -74.4236
  80   2.0000      -2.734639       -74.4133
  81   2.0000      -2.731966       -74.3406
  82   2.0000      -2.731652       -74.3320
  83   2.0000      -2.723669       -74.1148
  84   2.0000      -2.723654       -74.1144
  85   2.0000      -2.720683       -74.0336
  86   2.0000      -2.720663       -74.0330
  87   2.0000      -1.330204       -36.1967
  88   2.0000      -1.326824       -36.1047
  89   2.0000      -1.325485       -36.0683
  90   2.0000      -1.152388       -31.3581
  91   2.0000      -1.146592       -31.2004
  92   2.0000      -1.034980       -28.1632
  93   2.0000      -1.034787       -28.1580
  94   2.0000      -1.032054       -28.0836
  95   2.0000      -1.031565       -28.0703
  96   2.0000      -1.027269       -27.9534
  97   2.0000      -1.023518       -27.8513
  98   2.0000      -1.017282       -27.6816
  99   2.0000      -1.011991       -27.5377
 100   2.0000      -1.010104       -27.4863
 101   2.0000      -1.008578       -27.4448
 102   2.0000      -1.003675       -27.3114
 103   2.0000      -1.001877       -27.2625
 104   2.0000      -0.975511       -26.5450
 105   2.0000      -0.972053       -26.4509
 106   2.0000      -0.941421       -25.6174
 107   2.0000      -0.939762       -25.5722
 108   2.0000      -0.937735       -25.5171
 109   2.0000      -0.935800       -25.4644
 110   2.0000      -0.921357       -25.0714
 111   2.0000      -0.918758       -25.0007
 112   2.0000      -0.917073       -24.9548
 113   2.0000      -0.904114       -24.6022
 114   2.0000      -0.895595       -24.3704
 115   2.0000      -0.883016       -24.0281
 116   2.0000      -0.870957       -23.6999
 117   2.0000      -0.864062       -23.5123
 118   2.0000      -0.852222       -23.1901
 119   2.0000      -0.837972       -22.8024
 120   2.0000      -0.806909       -21.9571
 121   2.0000      -0.795604       -21.6495
 122   2.0000      -0.785225       -21.3671
 123   2.0000      -0.781050       -21.2535
 124   2.0000      -0.778627       -21.1875
 125   2.0000      -0.777017       -21.1437
 126   2.0000      -0.775118       -21.0920
 127   2.0000      -0.774162       -21.0660
 128   2.0000      -0.762905       -20.7597
 129   2.0000      -0.753222       -20.4962
 130   2.0000      -0.740677       -20.1548
 131   2.0000      -0.722044       -19.6478
 132   2.0000      -0.709991       -19.3198
 133   2.0000      -0.706962       -19.2374
 134   2.0000      -0.703171       -19.1343
 135   2.0000      -0.693997       -18.8846
 136   2.0000      -0.690359       -18.7856
 137   2.0000      -0.674484       -18.3537
 138   2.0000      -0.671060       -18.2605
 139   2.0000      -0.665042       -18.0967
 140   2.0000      -0.662227       -18.0201
 141   2.0000      -0.654109       -17.7992
 142   2.0000      -0.641468       -17.4552
 143   2.0000      -0.630123       -17.1465
 144   2.0000      -0.627262       -17.0687
 145   2.0000      -0.625762       -17.0278
 146   2.0000      -0.625487       -17.0204
 147   2.0000      -0.623719       -16.9723
 148   2.0000      -0.621792       -16.9198
 149   2.0000      -0.620333       -16.8801
 150   2.0000      -0.610078       -16.6011
 151   2.0000      -0.608085       -16.5468
 152   2.0000      -0.597427       -16.2568
 153   2.0000      -0.594358       -16.1733
 154   2.0000      -0.586853       -15.9691
 155   2.0000      -0.586636       -15.9632
 156   2.0000      -0.584500       -15.9051
 157   2.0000      -0.582396       -15.8478
 158   2.0000      -0.559575       -15.2268
 159   2.0000      -0.557209       -15.1624
 160   2.0000      -0.555979       -15.1290
 161   2.0000      -0.551507       -15.0073
 162   2.0000      -0.550664       -14.9843
 163   2.0000      -0.547394       -14.8953
 164   2.0000      -0.546790       -14.8789
 165   2.0000      -0.544220       -14.8090
 166   2.0000      -0.540065       -14.6959
 167   2.0000      -0.537194       -14.6178
 168   2.0000      -0.533542       -14.5184
 169   2.0000      -0.529182       -14.3998
 170   2.0000      -0.520538       -14.1646
 171   2.0000      -0.516690       -14.0599
 172   2.0000      -0.515215       -14.0197
 173   2.0000      -0.509585       -13.8665
 174   2.0000      -0.506619       -13.7858
 175   2.0000      -0.505208       -13.7474
 176   2.0000      -0.503227       -13.6935
 177   2.0000      -0.495797       -13.4913
 178   2.0000      -0.491679       -13.3793
 179   2.0000      -0.490001       -13.3336
 180   2.0000      -0.487347       -13.2614
 181   2.0000      -0.485146       -13.2015
 182   2.0000      -0.484815       -13.1925
 183   2.0000      -0.479795       -13.0559
 184   2.0000      -0.477876       -13.0037
 185   2.0000      -0.475437       -12.9373
 186   2.0000      -0.472767       -12.8646
 187   2.0000      -0.469800       -12.7839
 188   2.0000      -0.463588       -12.6149
 189   2.0000      -0.461238       -12.5509
 190   2.0000      -0.458712       -12.4822
 191   2.0000      -0.457523       -12.4498
 192   2.0000      -0.457075       -12.4377
 193   2.0000      -0.451969       -12.2987
 194   2.0000      -0.450100       -12.2478
 195   2.0000      -0.440130       -11.9766
 196   2.0000      -0.437094       -11.8939
 197   2.0000      -0.436271       -11.8715
 198   2.0000      -0.434364       -11.8196
 199   2.0000      -0.434107       -11.8126
 200   2.0000      -0.432971       -11.7817
 201   2.0000      -0.430293       -11.7089
 202   2.0000      -0.426796       -11.6137
 203   2.0000      -0.424529       -11.5520
 204   2.0000      -0.421160       -11.4604
 205   2.0000      -0.419646       -11.4191
 206   2.0000      -0.415792       -11.3143
 207   2.0000      -0.413116       -11.2415
 208   2.0000      -0.408194       -11.1075
 209   2.0000      -0.407055       -11.0765
 210   2.0000      -0.405041       -11.0217
 211   2.0000      -0.397683       -10.8215
 212   2.0000      -0.392283       -10.6746
 213   2.0000      -0.381183       -10.3725
 214   2.0000      -0.378991       -10.3129
 215   2.0000      -0.378127       -10.2894
 216   2.0000      -0.374301       -10.1853
 217   2.0000      -0.371897       -10.1198
 218   2.0000      -0.368314       -10.0223
 219   2.0000      -0.362213        -9.8563
 220   2.0000      -0.361501        -9.8370
 221   2.0000      -0.358066        -9.7435
 222   2.0000      -0.356567        -9.7027
 223   2.0000      -0.349790        -9.5183
 224   2.0000      -0.341800        -9.3008
 225   2.0000      -0.320724        -8.7273
 226   2.0000      -0.313545        -8.5320
 227   2.0000      -0.311257        -8.4697
 228   2.0000      -0.281826        -7.6689
 229   0.0000      -0.127747        -3.4762
 230   0.0000      -0.103956        -2.8288
 231   0.0000      -0.083309        -2.2669
 232   0.0000      -0.075041        -2.0420
 233   0.0000      -0.065465        -1.7814

MULLIKEN ATOMIC CHARGES
-----------------------
   0 C :    0.157139
   1 O :   -0.139535
   2 C :   -0.030718
   3 C :    0.040933
   4 C :   -0.022482
   5 C :    0.052124
   6 C :   -0.005028
   7 C :   -0.006209
   8 Br:   -0.011091
   9 C :    0.277502
  10 C :   -0.322015
  11 C :   -0.186803
  12 N :    0.162527
  13 C :   -0.203170
  14 N :    0.174553
  15 C :   -0.063674
  16 C :   -0.045816
  17 C :    0.064225
  18 C :    0.023236
  19 C :   -0.065575
  20 C :    0.102515
  21 C :   -0.039060
  22 C :   -0.047696
  23 N :    0.059703
  24 O :   -0.081557
  25 N :    0.039728
  26 C :    0.102701
  27 C :   -0.051737
  28 C :   -0.047186
  29 C :    0.103464
  30 C :   -0.052913
  31 C :   -0.050719
  32 N :    0.040973
  33 O :   -0.077954
  34 N :    0.037953
  35 C :    0.097262
  36 C :   -0.046209
  37 C :   -0.002489
  38 C :    0.107309
  39 C :   -0.066948
  40 C :   -0.023592
  41 N :    0.044842
  42 O :   -0.082299
  43 N :    0.047967
  44 C :   -0.005946
  45 C :   -0.104283
  46 C :    0.133697
  47 O :   -0.128416
  48 C :   -0.002408
  49 C :    0.017602
  50 C :    0.297528
  51 C :   -0.303868
  52 C :   -0.189276
  53 N :    0.167434
  54 C :   -0.205328
  55 N :    0.165085
  56 C :   -0.021307
  57 C :    0.052216
  58 C :   -0.006601
  59 C :   -0.012970
  60 Br:   -0.014383
  61 H :    0.011585
  62 H :    0.009055
  63 H :    0.005607
  64 H :    0.047140
  65 H :    0.010889
  66 H :    0.013395
  67 H :    0.014443
  68 H :    0.013937
  69 H :    0.011191
  70 H :    0.002607
  71 H :    0.025878
  72 H :    0.015283
  73 H :    0.009187
  74 H :    0.006843
Sum of atomic charges:    0.0000000

LOEWDIN ATOMIC CHARGES
----------------------
   0 C :    0.086524
   1 O :   -0.126172
   2 C :   -0.039271
   3 C :   -0.015115
   4 C :    0.009777
   5 C :   -0.008637
   6 C :   -0.097184
   7 C :    0.002537
   8 Br:    0.122231
   9 C :    0.071097
  10 C :   -0.123535
  11 C :   -0.018086
  12 N :   -0.040900
  13 C :   -0.027532
  14 N :   -0.033896
  15 C :   -0.077235
  16 C :    0.077818
  17 C :   -0.042196
  18 C :    0.045478
  19 C :    0.002630
  20 C :   -0.004984
  21 C :   -0.044388
  22 C :   -0.045113
  23 N :   -0.016285
  24 O :    0.085898
  25 N :   -0.023079
  26 C :   -0.020986
  27 C :    0.015379
  28 C :    0.015912
  29 C :   -0.018654
  30 C :   -0.038322
  31 C :   -0.038612
  32 N :   -0.019757
  33 O :    0.083271
  34 N :   -0.021379
  35 C :   -0.001570
  36 C :    0.006432
  37 C :    0.035037
  38 C :   -0.035649
  39 C :   -0.046244
  40 C :   -0.036489
  41 N :   -0.016775
  42 O :    0.083727
  43 N :   -0.021023
  44 C :    0.063155
  45 C :   -0.069414
  46 C :    0.087902
  47 O :   -0.126794
  48 C :   -0.041676
  49 C :   -0.007710
  50 C :    0.072533
  51 C :   -0.123075
  52 C :   -0.018879
  53 N :   -0.041164
  54 C :   -0.017854
  55 N :   -0.048775
  56 C :    0.009225
  57 C :   -0.007897
  58 C :   -0.098987
  59 C :    0.002598
  60 Br:    0.119945
  61 H :    0.043999
  62 H :    0.041820
  63 H :    0.045059
  64 H :    0.052057
  65 H :    0.040735
  66 H :    0.037838
  67 H :    0.039158
  68 H :    0.039373
  69 H :    0.037571
  70 H :    0.042883
  71 H :    0.050210
  72 H :    0.044563
  73 H :    0.041670
  74 H :    0.045252

  Mayer bond orders larger than 0.100000
B(  0-C ,  1-O ) :   2.2146 B(  0-C ,  2-C ) :   0.9485 B(  0-C , 15-C ) :   0.9315
B(  2-C ,  3-C ) :   1.3283 B(  2-C ,  7-C ) :   1.3791 B(  3-C ,  4-C ) :   1.3571
B(  3-C ,  9-C ) :   1.0034 B(  4-C ,  5-C ) :   1.3896 B(  4-C , 61-H ) :   0.9846
B(  5-C ,  6-C ) :   1.3818 B(  5-C , 62-H ) :   0.9849 B(  6-C ,  7-C ) :   1.3404
B(  6-C ,  8-Br) :   0.9977 B(  7-C , 63-H ) :   1.0067 B(  9-C , 10-C ) :   1.6723
B(  9-C , 15-C ) :   1.0372 B( 10-C , 11-C ) :   1.1359 B( 10-C , 13-C ) :   1.1321
B( 11-C , 12-N ) :   2.9824 B( 13-C , 14-N ) :   3.0018 B( 15-C , 16-C ) :   1.6259
B( 16-C , 17-C ) :   1.1351 B( 16-C , 64-H ) :   0.9458 B( 17-C , 18-C ) :   1.4559
B( 17-C , 20-C ) :   0.1067 B( 17-C , 22-C ) :   1.1148 B( 18-C , 19-C ) :   1.1999
B( 18-C , 65-H ) :   0.9812 B( 19-C , 20-C ) :   1.4951 B( 19-C , 66-H ) :   0.9719
B( 20-C , 21-C ) :   1.1236 B( 20-C , 26-C ) :   1.0924 B( 21-C , 22-C ) :   1.1485
B( 21-C , 25-N ) :   1.5863 B( 22-C , 23-N ) :   1.6250 B( 23-N , 24-O ) :   1.0707
B( 23-N , 25-N ) :   0.1788 B( 24-O , 25-N ) :   1.0664 B( 26-C , 27-C ) :   1.4954
B( 26-C , 29-C ) :   0.1132 B( 26-C , 31-C ) :   1.1195 B( 27-C , 28-C ) :   1.1715
B( 27-C , 67-H ) :   0.9721 B( 28-C , 29-C ) :   1.4923 B( 28-C , 68-H ) :   0.9745
B( 29-C , 30-C ) :   1.1234 B( 29-C , 35-C ) :   1.0878 B( 30-C , 31-C ) :   1.1499
B( 30-C , 34-N ) :   1.5943 B( 31-C , 32-N ) :   1.5951 B( 32-N , 33-O ) :   1.0672
B( 32-N , 34-N ) :   0.1761 B( 33-O , 34-N ) :   1.0686 B( 35-C , 36-C ) :   1.5045
B( 35-C , 38-C ) :   0.1051 B( 35-C , 40-C ) :   1.1275 B( 36-C , 37-C ) :   1.1852
B( 36-C , 69-H ) :   0.9696 B( 37-C , 38-C ) :   1.4553 B( 37-C , 70-H ) :   0.9973
B( 38-C , 39-C ) :   1.1273 B( 38-C , 44-C ) :   1.0576 B( 39-C , 40-C ) :   1.1513
B( 39-C , 43-N ) :   1.5980 B( 40-C , 41-N ) :   1.5922 B( 41-N , 42-O ) :   1.0721
B( 41-N , 43-N ) :   0.1743 B( 42-O , 43-N ) :   1.0631 B( 44-C , 45-C ) :   1.7226
B( 44-C , 71-H ) :   0.9430 B( 45-C , 46-C ) :   0.9310 B( 45-C , 50-C ) :   1.0144
B( 46-C , 47-O ) :   2.2767 B( 46-C , 48-C ) :   0.9229 B( 48-C , 49-C ) :   1.3279
B( 48-C , 59-C ) :   1.3766 B( 49-C , 50-C ) :   1.0147 B( 49-C , 56-C ) :   1.3670
B( 50-C , 51-C ) :   1.6722 B( 51-C , 52-C ) :   1.1333 B( 51-C , 54-C ) :   1.1626
B( 52-C , 53-N ) :   2.9995 B( 54-C , 55-N ) :   3.0006 B( 56-C , 57-C ) :   1.3837
B( 56-C , 72-H ) :   0.9859 B( 57-C , 58-C ) :   1.3839 B( 57-C , 73-H ) :   0.9854
B( 58-C , 59-C ) :   1.3451 B( 58-C , 60-Br) :   0.9967 B( 59-C , 74-H ) :   1.0071

-----------------------------------------------------------------------------
         ABSORPTION SPECTRUM VIA TRANSITION ELECTRIC DIPOLE MOMENTS
-----------------------------------------------------------------------------
State   Energy  Wavelength   fosc         T2         TX        TY        TZ
        (cm-1)    (nm)                  (au**2)     (au)      (au)      (au)
-----------------------------------------------------------------------------
   0   18308.4    546.2   1.860479499  33.45410   1.33620  -5.62671   0.09371
   1   23453.2    426.4   0.068188310   0.95716  -0.36081  -0.73045   0.54168
   2   24958.2    400.7   0.057087784   0.75302  -0.27528   0.73662  -0.36692
   3   25972.7    385.0   0.065175765   0.82612  -0.50586   0.69020  -0.30635
   4   27568.9    362.7   0.016341650   0.19514  -0.15747   0.30220  -0.28111
   5   27848.3    359.1   0.037772549   0.44653  -0.36212  -0.12317   0.54793
   6   28411.2    352.0   0.070004038   0.81117  -0.55971  -0.13467  -0.69264
   7   29420.8    339.9   0.011560218   0.12936   0.19744  -0.29995  -0.02014
   8   29710.8    336.6   0.028460521   0.31536  -0.41729   0.09124  -0.36456
   9   30693.1    325.8   0.015036703   0.16128  -0.26065  -0.28404   0.11256
  10   32273.5    309.9   0.161224049   1.64460   0.93859  -0.87359  -0.02219
  11   32731.2    305.5   0.026124833   0.26276  -0.48582   0.14167  -0.08167
  12   33037.2    302.7   0.029244376   0.29142  -0.01612  -0.02915  -0.53880
  13   33433.0    299.1   0.067400356   0.66369  -0.17456  -0.75881   0.23963
  14   33686.6    296.9   0.171736751   1.67835  -0.67333   0.85580  -0.70184
  15   34154.4    292.8   0.136070935   1.31158   0.57148  -0.85832   0.49827
  16   34257.8    291.9   0.374455967   3.59846  -1.42389  -0.64528  -1.07453
  17   34441.7    290.3   0.315438087   3.01512  -0.70909   1.32149  -0.87520
  18   34713.7    288.1   0.074208858   0.70377   0.01529   0.81801  -0.18547
  19   35901.2    278.5   0.243985366   2.23733  -1.04139   0.03465  -1.07315
  20   36132.0    276.8   0.172985928   1.57614   0.24917   1.09031  -0.57034
  21   36168.4    276.5   0.081735948   0.74398   0.64999  -0.47977   0.30218
  22   36260.9    275.8   0.025394966   0.23056  -0.11283   0.40124  -0.23841
  23   36536.3    273.7   0.019893115   0.17925   0.34649   0.14500   0.19536
  24   36737.5    272.2   0.025388218   0.22751   0.06492   0.40268   0.24727
  25   37037.8    270.0   0.038834484   0.34518  -0.55205   0.15084  -0.13291
  26   37550.9    266.3   0.013648838   0.11966   0.12777   0.29429  -0.12935
  27   37927.0    263.7   0.162808219   1.41320  -1.17468  -0.17938   0.03375
  28   38499.4    259.7   0.071126320   0.60821  -0.17035  -0.29577   0.70122
  29   38870.2    257.3   0.026590037   0.22520   0.00510  -0.09677   0.46456
  30   39665.9    252.1   0.015595216   0.12943  -0.04650   0.26807   0.23540
  31   39949.5    250.3   0.008858526   0.07300   0.02320  -0.18647   0.19414

FINAL SINGLE POINT ENERGY     -7753.089364692686

DIPOLE MOMENT
-------------
                                X             Y             Z
Electronic contribution:     -7.07854     -21.92804     -19.11560
Nuclear contribution   :      5.44123      20.86147      19.26599
                        -----------------------------------------
Total Dipole Moment    :     -1.63731      -1.06658       0.15039
                        -----------------------------------------
Magnitude (a.u.)       :      1.95985
Magnitude (Debye)      :      4.98153

Rotational constants in cm-1:     0.003485     0.000234     0.000226
Rotational constants in MHz :   104.478584     7.005077     6.776526

                             ****ORCA TERMINATED NORMALLY****
TOTAL RUN TIME: 0 days 0 hours 7 minutes 28 seconds 352 msec
