                         Program Version 4.2.0 -  RELEASE  -
|  1> # ORCA input file
|  2> # SCF done       -159.665374462403          0.000552633924
|  3> ! CAM-B3LYP def2-SVP def2/J RIJCOSX Grid4 TightSCF
|  4> %maxcore 5000
|  5> %tddft
|  6>     Mode sTDDFT
|  7>     Ethresh 5.0
|  8>     maxcore 5000
|  9> end
| 10>
| 11> %pal
| 12>   nprocs 6
| 13>   end
| 14> * xyz 0 1
| 15>    C        1.97980        -0.23016         1.24715
| 16>    C        1.63385         1.05658         0.86379
| 17>    F        2.23658         2.09335         1.45496
| 18>    C        0.67750         1.29417        -0.12517
| 19>    F        0.37114         2.55324        -0.45845
| 20>    C        0.04579         0.24130        -0.76705
| 21>    C        0.39621        -1.04144        -0.39333
| 22>    C        1.35130        -1.28825         0.60952
| 23>    C        1.47455        -2.73243         0.79886
| 24>    C        1.96796        -3.34733         1.91788
| 25>    C        2.59735        -2.66104         2.97703
| 26>    N        3.13207        -2.14577         3.85179
| 27>    C        1.82634        -4.72608         2.18213
| 28>    N        1.68567        -5.82390         2.48508
| 29>    C        0.74156        -3.36761        -0.27977
| 30>    C       -0.09785        -2.32888        -0.93454
| 31>    O       -0.95810        -2.50231        -1.76429
| 32>    C        0.77900        -4.62712        -0.78262
| 33>    C        1.76485        -5.64779        -0.55751
| 34>    C        1.38458        -6.99811        -0.61861
| 35>    C        2.32555        -7.97116        -0.39975
| 36>    C        3.67120        -7.62800        -0.17267
| 37>    C        4.06595        -6.29627        -0.15683
| 38>    C        3.11104        -5.31947        -0.33468
| 39>    C        4.43469        -8.84278        -0.01197
| 40>    C        3.56323        -9.93923        -0.13119
| 41>    C        2.14677        -9.47021        -0.36634
| 42>    C        1.21862        -9.88611         0.79191
| 43>    C        1.70242        -9.39238         2.14996
| 44>    C        1.58784       -10.00417        -1.69801
| 45>    C        2.45966        -9.63958        -2.89384
| 46>    C        4.03663       -11.22484        -0.03936
| 47>    C        5.40751       -11.44874         0.16993
| 48>    C        6.26072       -10.34165         0.29816
| 49>    C        5.78918        -9.04956         0.21192
| 50>    C        5.94906       -12.78416         0.23832
| 51>    N        5.22152       -13.89536        -0.13109
| 52>    C        6.00554       -14.99800         0.01209
| 53>    C        6.04909       -16.37671        -0.14193
| 54>    C        7.33816       -16.77184         0.25580
| 55>    N        8.05394       -15.65818         0.64718
| 56>    C        7.26377       -14.56647         0.50517
| 57>    C        7.22432       -13.18123         0.64466
| 58>    C        7.86658       -18.08147         0.24788
| 59>    C        9.14084       -18.40632         0.60019
| 60>    C        9.69786       -19.70164         0.57030
| 61>    C        9.06950       -20.97504         0.19294
| 62>    N        9.85816       -22.00522         0.25336
| 63>    C       11.07048       -21.51742         0.67128
| 64>    C       10.99291       -20.07090         0.88205
| 65>    C       12.26330       -19.56190         1.30987
| 66>    S       12.65741       -18.00084         1.66504
| 67>    C       13.11444       -20.72554         1.35199
| 68>    C       12.35169       -21.91666         0.95437
| 69>    N       13.15065       -23.02690         0.98305
| 70>    C       14.32155       -22.60373         1.35876
| 71>    C       14.39507       -21.15797         1.61327
| 72>    C       15.52072       -20.39337         2.02506
| 73>    C       16.75999       -20.88454         2.24218
| 74>    C       17.86297       -20.06480         2.65078
| 75>    C       19.09396       -20.53568         2.85840
| 76>    H        2.72582        -0.36613         2.01324
| 77>    H       -0.69302         0.42350        -1.53110
| 78>    H       -0.00678        -4.86316        -1.49387
| 79>    H        0.34896        -7.24764        -0.79603
| 80>    H        5.10079        -6.02893        -0.00628
| 81>    H        3.40590        -4.27979        -0.34882
| 82>    H        1.14616       -10.97633         0.80388
| 83>    H        0.22086        -9.48810         0.59695
| 84>    H        2.69335        -9.78324         2.37145
| 85>    H        1.02057        -9.72625         2.92845
| 86>    H        1.74558        -8.30680         2.17625
| 87>    H        0.58463        -9.59912        -1.84367
| 88>    H        1.49944       -11.09068        -1.63105
| 89>    H        2.54285        -8.55965        -2.99322
| 90>    H        2.02584       -10.03649        -3.80866
| 91>    H        3.46087       -10.04998        -2.78085
| 92>    H        3.34875       -12.05445        -0.11418
| 93>    H        7.31428       -10.50875         0.45262
| 94>    H        6.46553        -8.21405         0.30992
| 95>    H        4.28864       -13.87656        -0.50299
| 96>    H        5.28099       -17.03602        -0.49372
| 97>    H        9.00267       -15.67321         0.97879
| 98>    H        8.00341       -12.54292         1.00728
| 99>    H        7.18773       -18.85586        -0.07939
|100>    H        9.82648       -17.63440         0.92504
|101>    H        8.04546       -21.09950        -0.11412
|102>    H       15.13656       -23.29856         1.46089
|103>    H       15.33804       -19.33456         2.16249
|104>    H       16.96158       -21.93859         2.10705
|105>    H       17.65452       -19.01153         2.78806
|106>    H       19.32743       -21.57972         2.72748
|107>    H       19.90409       -19.89692         3.16407
|108> *
|109>
|110>                          ****END OF INPUT****

CARTESIAN COORDINATES (ANGSTROEM)
---------------------------------
  C      1.979800   -0.230160    1.247150
  C      1.633850    1.056580    0.863790
  F      2.236580    2.093350    1.454960
  C      0.677500    1.294170   -0.125170
  F      0.371140    2.553240   -0.458450
  C      0.045790    0.241300   -0.767050
  C      0.396210   -1.041440   -0.393330
  C      1.351300   -1.288250    0.609520
  C      1.474550   -2.732430    0.798860
  C      1.967960   -3.347330    1.917880
  C      2.597350   -2.661040    2.977030
  N      3.132070   -2.145770    3.851790
  C      1.826340   -4.726080    2.182130
  N      1.685670   -5.823900    2.485080
  C      0.741560   -3.367610   -0.279770
  C     -0.097850   -2.328880   -0.934540
  O     -0.958100   -2.502310   -1.764290
  C      0.779000   -4.627120   -0.782620
  C      1.764850   -5.647790   -0.557510
  C      1.384580   -6.998110   -0.618610
  C      2.325550   -7.971160   -0.399750
  C      3.671200   -7.628000   -0.172670
  C      4.065950   -6.296270   -0.156830
  C      3.111040   -5.319470   -0.334680
  C      4.434690   -8.842780   -0.011970
  C      3.563230   -9.939230   -0.131190
  C      2.146770   -9.470210   -0.366340
  C      1.218620   -9.886110    0.791910
  C      1.702420   -9.392380    2.149960
  C      1.587840  -10.004170   -1.698010
  C      2.459660   -9.639580   -2.893840
  C      4.036630  -11.224840   -0.039360
  C      5.407510  -11.448740    0.169930
  C      6.260720  -10.341650    0.298160
  C      5.789180   -9.049560    0.211920
  C      5.949060  -12.784160    0.238320
  N      5.221520  -13.895360   -0.131090
  C      6.005540  -14.998000    0.012090
  C      6.049090  -16.376710   -0.141930
  C      7.338160  -16.771840    0.255800
  N      8.053940  -15.658180    0.647180
  C      7.263770  -14.566470    0.505170
  C      7.224320  -13.181230    0.644660
  C      7.866580  -18.081470    0.247880
  C      9.140840  -18.406320    0.600190
  C      9.697860  -19.701640    0.570300
  C      9.069500  -20.975040    0.192940
  N      9.858160  -22.005220    0.253360
  C     11.070480  -21.517420    0.671280
  C     10.992910  -20.070900    0.882050
  C     12.263300  -19.561900    1.309870
  S     12.657410  -18.000840    1.665040
  C     13.114440  -20.725540    1.351990
  C     12.351690  -21.916660    0.954370
  N     13.150650  -23.026900    0.983050
  C     14.321550  -22.603730    1.358760
  C     14.395070  -21.157970    1.613270
  C     15.520720  -20.393370    2.025060
  C     16.759990  -20.884540    2.242180
  C     17.862970  -20.064800    2.650780
  C     19.093960  -20.535680    2.858400
  H      2.725820   -0.366130    2.013240
  H     -0.693020    0.423500   -1.531100
  H     -0.006780   -4.863160   -1.493870
  H      0.348960   -7.247640   -0.796030
  H      5.100790   -6.028930   -0.006280
  H      3.405900   -4.279790   -0.348820
  H      1.146160  -10.976330    0.803880
  H      0.220860   -9.488100    0.596950
  H      2.693350   -9.783240    2.371450
  H      1.020570   -9.726250    2.928450
  H      1.745580   -8.306800    2.176250
  H      0.584630   -9.599120   -1.843670
  H      1.499440  -11.090680   -1.631050
  H      2.542850   -8.559650   -2.993220
  H      2.025840  -10.036490   -3.808660
  H      3.460870  -10.049980   -2.780850
  H      3.348750  -12.054450   -0.114180
  H      7.314280  -10.508750    0.452620
  H      6.465530   -8.214050    0.309920
  H      4.288640  -13.876560   -0.502990
  H      5.280990  -17.036020   -0.493720
  H      9.002670  -15.673210    0.978790
  H      8.003410  -12.542920    1.007280
  H      7.187730  -18.855860   -0.079390
  H      9.826480  -17.634400    0.925040
  H      8.045460  -21.099500   -0.114120
  H     15.136560  -23.298560    1.460890
  H     15.338040  -19.334560    2.162490
  H     16.961580  -21.938590    2.107050
  H     17.654520  -19.011530    2.788060
  H     19.327430  -21.579720    2.727480
  H     19.904090  -19.896920    3.164070

 Total Charge           Charge          ....    0
 Multiplicity           Mult            ....    1
 Number of Electrons    NEL             ....  422
 Basis Dimension        Dim             .... 1018

ORBITAL ENERGIES
----------------

  NO   OCC          E(Eh)            E(eV)
   0   2.0000     -88.885352     -2418.6934
   1   2.0000     -24.806439      -675.0175
   2   2.0000     -24.806038      -675.0066
   3   2.0000     -19.224659      -523.1296
   4   2.0000     -14.461149      -393.5079
   5   2.0000     -14.457809      -393.4170
   6   2.0000     -14.423500      -392.4834
   7   2.0000     -14.421621      -392.4323
   8   2.0000     -14.406992      -392.0342
   9   2.0000     -14.403236      -391.9320
  10   2.0000     -10.392778      -282.8019
  11   2.0000     -10.392109      -282.7837
  12   2.0000     -10.376383      -282.3557
  13   2.0000     -10.352631      -281.7094
  14   2.0000     -10.351524      -281.6793
  15   2.0000     -10.326392      -280.9954
  16   2.0000     -10.325576      -280.9732
  17   2.0000     -10.324898      -280.9548
  18   2.0000     -10.323834      -280.9258
  19   2.0000     -10.323584      -280.9190
  20   2.0000     -10.321419      -280.8601
  21   2.0000     -10.319686      -280.8129
  22   2.0000     -10.315779      -280.7066
  23   2.0000     -10.315014      -280.6858
  24   2.0000     -10.314896      -280.6826
  25   2.0000     -10.312091      -280.6063
  26   2.0000     -10.311616      -280.5933
  27   2.0000     -10.309220      -280.5281
  28   2.0000     -10.306408      -280.4516
  29   2.0000     -10.302989      -280.3586
  30   2.0000     -10.297031      -280.1965
  31   2.0000     -10.294552      -280.1290
  32   2.0000     -10.294422      -280.1255
  33   2.0000     -10.293522      -280.1010
  34   2.0000     -10.292961      -280.0857
  35   2.0000     -10.291375      -280.0425
  36   2.0000     -10.290802      -280.0270
  37   2.0000     -10.288080      -279.9529
  38   2.0000     -10.286585      -279.9122
  39   2.0000     -10.286553      -279.9114
  40   2.0000     -10.284924      -279.8670
  41   2.0000     -10.283225      -279.8208
  42   2.0000     -10.280791      -279.7545
  43   2.0000     -10.280678      -279.7515
  44   2.0000     -10.280348      -279.7425
  45   2.0000     -10.279327      -279.7147
  46   2.0000     -10.278231      -279.6849
  47   2.0000     -10.277073      -279.6534
  48   2.0000     -10.276757      -279.6448
  49   2.0000     -10.276737      -279.6442
  50   2.0000     -10.275594      -279.6131
  51   2.0000     -10.275566      -279.6124
  52   2.0000     -10.273554      -279.5576
  53   2.0000     -10.272070      -279.5172
  54   2.0000     -10.271331      -279.4971
  55   2.0000     -10.270978      -279.4875
  56   2.0000     -10.268297      -279.4146
  57   2.0000     -10.265456      -279.3373
  58   2.0000     -10.265032      -279.3257
  59   2.0000     -10.253889      -279.0225
  60   2.0000     -10.238119      -278.5934
  61   2.0000      -7.980766      -217.1677
  62   2.0000      -5.949657      -161.8984
  63   2.0000      -5.948877      -161.8772
  64   2.0000      -5.940553      -161.6507
  65   2.0000      -1.330202       -36.1966
  66   2.0000      -1.314955       -35.7817
  67   2.0000      -1.140346       -31.0304
  68   2.0000      -1.092531       -29.7293
  69   2.0000      -1.069374       -29.0992
  70   2.0000      -1.056254       -28.7421
  71   2.0000      -1.050741       -28.5921
  72   2.0000      -1.028526       -27.9876
  73   2.0000      -1.009004       -27.4564
  74   2.0000      -1.001746       -27.2589
  75   2.0000      -0.997109       -27.1327
  76   2.0000      -0.967345       -26.3228
  77   2.0000      -0.954333       -25.9687
  78   2.0000      -0.948344       -25.8058
  79   2.0000      -0.928153       -25.2563
  80   2.0000      -0.912326       -24.8256
  81   2.0000      -0.910724       -24.7821
  82   2.0000      -0.910325       -24.7712
  83   2.0000      -0.897683       -24.4272
  84   2.0000      -0.882469       -24.0132
  85   2.0000      -0.880931       -23.9713
  86   2.0000      -0.871121       -23.7044
  87   2.0000      -0.868686       -23.6382
  88   2.0000      -0.865167       -23.5424
  89   2.0000      -0.848306       -23.0836
  90   2.0000      -0.845943       -23.0193
  91   2.0000      -0.841488       -22.8980
  92   2.0000      -0.836888       -22.7729
  93   2.0000      -0.835499       -22.7351
  94   2.0000      -0.825687       -22.4681
  95   2.0000      -0.806737       -21.9524
  96   2.0000      -0.797013       -21.6878
  97   2.0000      -0.780880       -21.2488
  98   2.0000      -0.774085       -21.0639
  99   2.0000      -0.766627       -20.8610
 100   2.0000      -0.759696       -20.6724
 101   2.0000      -0.744702       -20.2644
 102   2.0000      -0.732817       -19.9410
 103   2.0000      -0.730915       -19.8892
 104   2.0000      -0.719438       -19.5769
 105   2.0000      -0.709558       -19.3081
 106   2.0000      -0.699185       -19.0258
 107   2.0000      -0.696710       -18.9584
 108   2.0000      -0.696067       -18.9410
 109   2.0000      -0.690764       -18.7967
 110   2.0000      -0.688230       -18.7277
 111   2.0000      -0.686970       -18.6934
 112   2.0000      -0.678305       -18.4576
 113   2.0000      -0.676134       -18.3985
 114   2.0000      -0.673111       -18.3163
 115   2.0000      -0.660954       -17.9855
 116   2.0000      -0.654719       -17.8158
 117   2.0000      -0.648566       -17.6484
 118   2.0000      -0.644162       -17.5285
 119   2.0000      -0.641075       -17.4445
 120   2.0000      -0.631938       -17.1959
 121   2.0000      -0.627659       -17.0795
 122   2.0000      -0.615077       -16.7371
 123   2.0000      -0.610203       -16.6045
 124   2.0000      -0.603537       -16.4231
 125   2.0000      -0.602422       -16.3927
 126   2.0000      -0.596600       -16.2343
 127   2.0000      -0.594873       -16.1873
 128   2.0000      -0.588184       -16.0053
 129   2.0000      -0.580598       -15.7989
 130   2.0000      -0.574409       -15.6305
 131   2.0000      -0.566807       -15.4236
 132   2.0000      -0.558935       -15.2094
 133   2.0000      -0.558113       -15.1870
 134   2.0000      -0.557671       -15.1750
 135   2.0000      -0.554774       -15.0962
 136   2.0000      -0.551569       -15.0089
 137   2.0000      -0.548137       -14.9156
 138   2.0000      -0.544442       -14.8150
 139   2.0000      -0.540986       -14.7210
 140   2.0000      -0.538806       -14.6616
 141   2.0000      -0.536872       -14.6090
 142   2.0000      -0.535834       -14.5808
 143   2.0000      -0.533701       -14.5227
 144   2.0000      -0.530092       -14.4245
 145   2.0000      -0.529330       -14.4038
 146   2.0000      -0.529224       -14.4009
 147   2.0000      -0.525730       -14.3058
 148   2.0000      -0.521052       -14.1786
 149   2.0000      -0.518194       -14.1008
 150   2.0000      -0.514226       -13.9928
 151   2.0000      -0.510935       -13.9033
 152   2.0000      -0.506822       -13.7913
 153   2.0000      -0.502147       -13.6641
 154   2.0000      -0.500892       -13.6300
 155   2.0000      -0.499800       -13.6002
 156   2.0000      -0.492149       -13.3921
 157   2.0000      -0.490742       -13.3538
 158   2.0000      -0.485901       -13.2220
 159   2.0000      -0.484390       -13.1809
 160   2.0000      -0.483542       -13.1579
 161   2.0000      -0.481842       -13.1116
 162   2.0000      -0.477699       -12.9988
 163   2.0000      -0.472981       -12.8705
 164   2.0000      -0.472931       -12.8691
 165   2.0000      -0.469185       -12.7672
 166   2.0000      -0.464284       -12.6338
 167   2.0000      -0.460821       -12.5396
 168   2.0000      -0.459990       -12.5170
 169   2.0000      -0.459473       -12.5029
 170   2.0000      -0.456604       -12.4248
 171   2.0000      -0.454190       -12.3591
 172   2.0000      -0.452919       -12.3245
 173   2.0000      -0.452271       -12.3069
 174   2.0000      -0.449142       -12.2218
 175   2.0000      -0.446712       -12.1556
 176   2.0000      -0.442606       -12.0439
 177   2.0000      -0.435453       -11.8493
 178   2.0000      -0.433124       -11.7859
 179   2.0000      -0.431753       -11.7486
 180   2.0000      -0.430998       -11.7281
 181   2.0000      -0.428168       -11.6511
 182   2.0000      -0.423844       -11.5334
 183   2.0000      -0.421092       -11.4585
 184   2.0000      -0.419737       -11.4216
 185   2.0000      -0.418406       -11.3854
 186   2.0000      -0.413584       -11.2542
 187   2.0000      -0.411547       -11.1988
 188   2.0000      -0.407582       -11.0909
 189   2.0000      -0.397334       -10.8120
 190   2.0000      -0.396332       -10.7847
 191   2.0000      -0.394366       -10.7312
 192   2.0000      -0.388924       -10.5831
 193   2.0000      -0.382202       -10.4002
 194   2.0000      -0.362197        -9.8559
 195   2.0000      -0.355822        -9.6824
 196   2.0000      -0.349837        -9.5195
 197   2.0000      -0.347405        -9.4534
 198   2.0000      -0.343699        -9.3525
 199   2.0000      -0.340120        -9.2551
 200   2.0000      -0.339743        -9.2449
 201   2.0000      -0.331464        -9.0196
 202   2.0000      -0.324317        -8.8251
 203   2.0000      -0.320588        -8.7236
 204   2.0000      -0.309228        -8.4145
 205   2.0000      -0.301511        -8.2045
 206   2.0000      -0.291697        -7.9375
 207   2.0000      -0.278181        -7.5697
 208   2.0000      -0.275861        -7.5065
 209   2.0000      -0.266266        -7.2455
 210   2.0000      -0.223126        -6.0716
 211   0.0000      -0.099351        -2.7035
 212   0.0000      -0.092721        -2.5231
 213   0.0000      -0.073376        -1.9967
 214   0.0000      -0.065094        -1.7713
 215   0.0000      -0.027597        -0.7510

MULLIKEN ATOMIC CHARGES
-----------------------
   0 C :   -0.086913
   1 C :    0.237663
   2 F :   -0.164249
   3 C :    0.233563
   4 F :   -0.166954
   5 C :   -0.101908
   6 C :    0.008218
   7 C :    0.025807
   8 C :    0.249428
   9 C :   -0.328323
  10 C :   -0.186837
  11 N :    0.165106
  12 C :   -0.192136
  13 N :    0.201001
  14 C :   -0.117899
  15 C :    0.136115
  16 O :   -0.134956
  17 C :    0.036667
  18 C :    0.044057
  19 C :   -0.065301
  20 C :    0.016838
  21 C :    0.129902
  22 C :   -0.048756
  23 C :    0.022883
  24 C :    0.100271
  25 C :    0.003317
  26 C :   -0.139448
  27 C :    0.068940
  28 C :    0.015624
  29 C :    0.065855
  30 C :    0.026956
  31 C :   -0.119974
  32 C :    0.158813
  33 C :   -0.029443
  34 C :   -0.034802
  35 C :    0.069415
  36 N :   -0.038726
  37 C :    0.117173
  38 C :   -0.163022
  39 C :    0.079539
  40 N :   -0.032326
  41 C :    0.115718
  42 C :   -0.171721
  43 C :    0.050701
  44 C :   -0.047456
  45 C :    0.004763
  46 C :    0.051925
  47 N :   -0.028882
  48 C :    0.011462
  49 C :   -0.013540
  50 C :    0.002967
  51 S :   -0.171325
  52 C :   -0.000175
  53 C :   -0.006036
  54 N :   -0.027279
  55 C :    0.045820
  56 C :    0.001216
  57 C :   -0.024281
  58 C :    0.018486
  59 C :    0.004360
  60 C :   -0.009213
  61 H :    0.018719
  62 H :    0.016066
  63 H :    0.026621
  64 H :   -0.030806
  65 H :   -0.029665
  66 H :   -0.011770
  67 H :   -0.006895
  68 H :   -0.002061
  69 H :    0.015168
  70 H :    0.006653
  71 H :    0.037727
  72 H :   -0.000673
  73 H :   -0.006052
  74 H :    0.019838
  75 H :    0.010476
  76 H :    0.020367
  77 H :   -0.061936
  78 H :   -0.026417
  79 H :   -0.032173
  80 H :    0.124488
  81 H :   -0.034849
  82 H :    0.134025
  83 H :   -0.033569
  84 H :   -0.020069
  85 H :   -0.036624
  86 H :    0.003966
  87 H :    0.002854
  88 H :   -0.004880
  89 H :   -0.012118
  90 H :    0.000164
  91 H :    0.017664
  92 H :    0.027076
Sum of atomic charges:   -0.0000000

LOEWDIN ATOMIC CHARGES
----------------------
   0 C :   -0.019764
   1 C :    0.075323
   2 F :   -0.042050
   3 C :    0.070940
   4 F :   -0.044036
   5 C :   -0.004232
   6 C :   -0.046622
   7 C :   -0.013289
   8 C :    0.067059
   9 C :   -0.131175
  10 C :   -0.021947
  11 N :   -0.044610
  12 C :   -0.008722
  13 N :   -0.032262
  14 C :   -0.097377
  15 C :    0.084129
  16 O :   -0.135468
  17 C :    0.087664
  18 C :   -0.047369
  19 C :    0.005068
  20 C :    0.008475
  21 C :    0.008885
  22 C :   -0.015956
  23 C :   -0.000288
  24 C :   -0.027210
  25 C :    0.014021
  26 C :   -0.035845
  27 C :   -0.010457
  28 C :   -0.061984
  29 C :   -0.012259
  30 C :   -0.058062
  31 C :   -0.035371
  32 C :   -0.016424
  33 C :   -0.013925
  34 C :   -0.008273
  35 C :    0.013380
  36 N :    0.069313
  37 C :   -0.027287
  38 C :   -0.076379
  39 C :   -0.009462
  40 N :    0.074540
  41 C :   -0.007982
  42 C :   -0.097218
  43 C :   -0.001983
  44 C :   -0.051024
  45 C :   -0.029800
  46 C :    0.082381
  47 N :   -0.078589
  48 C :    0.037796
  49 C :   -0.064039
  50 C :   -0.135234
  51 S :    0.004155
  52 C :   -0.041859
  53 C :    0.023991
  54 N :   -0.080355
  55 C :    0.075994
  56 C :   -0.035028
  57 C :   -0.020678
  58 C :   -0.004129
  59 C :   -0.025199
  60 C :   -0.032131
  61 H :    0.051686
  62 H :    0.053302
  63 H :    0.047408
  64 H :    0.028851
  65 H :    0.029899
  66 H :    0.028881
  67 H :    0.017001
  68 H :    0.020148
  69 H :    0.023115
  70 H :    0.024712
  71 H :    0.026239
  72 H :    0.020665
  73 H :    0.018349
  74 H :    0.024888
  75 H :    0.024547
  76 H :    0.025025
  77 H :    0.016298
  78 H :    0.028465
  79 H :    0.028950
  80 H :    0.086008
  81 H :    0.025397
  82 H :    0.092875
  83 H :    0.024435
  84 H :    0.033699
  85 H :    0.018555
  86 H :    0.021190
  87 H :    0.020901
  88 H :    0.031072
  89 H :    0.025624
  90 H :    0.032446
  91 H :    0.022902
  92 H :    0.026707

  Mayer bond orders larger than 0.100000
B(  0-C ,  1-C ) :   1.3388 B(  0-C ,  5-C ) :   0.1041 B(  0-C ,  7-C ) :   1.3153
B(  0-C , 61-H ) :   0.9957 B(  1-C ,  2-F ) :   1.1433 B(  1-C ,  3-C ) :   1.2847
B(  3-C ,  4-F ) :   1.1336 B(  3-C ,  5-C ) :   1.3229 B(  5-C ,  6-C ) :   1.3217
B(  5-C , 62-H ) :   1.0199 B(  6-C ,  7-C ) :   1.3435 B(  6-C , 15-C ) :   0.9266
B(  7-C ,  8-C ) :   1.0202 B(  8-C ,  9-C ) :   1.6737 B(  8-C , 14-C ) :   1.0255
B(  9-C , 10-C ) :   1.1293 B(  9-C , 12-C ) :   1.1498 B( 10-C , 11-N ) :   2.9978
B( 12-C , 13-N ) :   3.0051 B( 14-C , 15-C ) :   0.9386 B( 14-C , 17-C ) :   1.6885
B( 15-C , 16-O ) :   2.2793 B( 17-C , 18-C ) :   1.0436 B( 17-C , 63-H ) :   0.9481
B( 18-C , 19-C ) :   1.2841 B( 18-C , 23-C ) :   1.3340 B( 19-C , 20-C ) :   1.3941
B( 19-C , 64-H ) :   1.0114 B( 20-C , 21-C ) :   1.3543 B( 20-C , 26-C ) :   0.9130
B( 21-C , 22-C ) :   1.3323 B( 21-C , 24-C ) :   1.0057 B( 22-C , 23-C ) :   1.4004
B( 22-C , 65-H ) :   0.9926 B( 23-C , 66-H ) :   0.9839 B( 24-C , 25-C ) :   1.3682
B( 24-C , 34-C ) :   1.3219 B( 25-C , 26-C ) :   0.9132 B( 25-C , 31-C ) :   1.4224
B( 26-C , 27-C ) :   1.0329 B( 26-C , 29-C ) :   1.0406 B( 27-C , 28-C ) :   1.1005
B( 27-C , 67-H ) :   0.9389 B( 27-C , 68-H ) :   0.9389 B( 28-C , 69-H ) :   0.9609
B( 28-C , 70-H ) :   0.9589 B( 28-C , 71-H ) :   0.9539 B( 29-C , 30-C ) :   1.1000
B( 29-C , 72-H ) :   0.9388 B( 29-C , 73-H ) :   0.9383 B( 30-C , 74-H ) :   0.9640
B( 30-C , 75-H ) :   0.9644 B( 30-C , 76-H ) :   0.9642 B( 31-C , 32-C ) :   1.2755
B( 31-C , 77-H ) :   0.9939 B( 32-C , 33-C ) :   1.3529 B( 32-C , 35-C ) :   1.0139
B( 33-C , 34-C ) :   1.4000 B( 33-C , 78-H ) :   0.9870 B( 34-C , 79-H ) :   0.9911
B( 35-C , 36-N ) :   1.2182 B( 35-C , 42-C ) :   1.4268 B( 36-N , 37-C ) :   1.1501
B( 36-N , 80-H ) :   0.9309 B( 37-C , 38-C ) :   1.2633 B( 37-C , 41-C ) :   1.3114
B( 38-C , 39-C ) :   1.3286 B( 38-C , 81-H ) :   1.0400 B( 39-C , 40-N ) :   1.1916
B( 39-C , 43-C ) :   1.1859 B( 40-N , 41-C ) :   1.1845 B( 40-N , 82-H ) :   0.9291
B( 41-C , 42-C ) :   1.2433 B( 42-C , 83-H ) :   1.0274 B( 43-C , 44-C ) :   1.5414
B( 43-C , 84-H ) :   0.9609 B( 44-C , 45-C ) :   1.1863 B( 44-C , 85-H ) :   0.9592
B( 45-C , 46-C ) :   1.0005 B( 45-C , 49-C ) :   1.4578 B( 46-C , 47-N ) :   1.7516
B( 46-C , 86-H ) :   0.9871 B( 47-N , 48-C ) :   1.2390 B( 48-C , 49-C ) :   1.0844
B( 48-C , 53-C ) :   1.5302 B( 49-C , 50-C ) :   1.0628 B( 50-C , 51-S ) :   1.6480
B( 50-C , 52-C ) :   1.0330 B( 52-C , 53-C ) :   1.0832 B( 52-C , 56-C ) :   1.5153
B( 53-C , 54-N ) :   1.2527 B( 54-N , 55-C ) :   1.7411 B( 55-C , 56-C ) :   1.0095
B( 55-C , 87-H ) :   0.9890 B( 56-C , 57-C ) :   1.0997 B( 57-C , 58-C ) :   1.6712
B( 57-C , 88-H ) :   0.9746 B( 58-C , 59-C ) :   1.1141 B( 58-C , 89-H ) :   0.9736
B( 59-C , 60-C ) :   1.8933 B( 59-C , 90-H ) :   0.9773 B( 60-C , 91-H ) :   0.9582
B( 60-C , 92-H ) :   0.9513

-----------------------------------------------------------------------------
         ABSORPTION SPECTRUM VIA TRANSITION ELECTRIC DIPOLE MOMENTS
-----------------------------------------------------------------------------
State   Energy  Wavelength   fosc         T2         TX        TY        TZ
        (cm-1)    (nm)                  (au**2)     (au)      (au)      (au)
-----------------------------------------------------------------------------
   0   12517.0    798.9   0.530697335  13.95802  -2.59167   2.66246  -0.39058
   1   16802.3    595.2   1.319277427  25.84900  -3.05750   4.05513  -0.23791
   2   17381.6    575.3   0.000088666   0.00168  -0.01408   0.01917   0.03337
   3   18400.4    543.5   0.067971890   1.21613   0.93183   0.44173   0.39075
   4   18656.2    536.0   0.044072996   0.77772  -0.72850   0.00940  -0.49692
   5   19057.6    524.7   0.000078835   0.00136  -0.02498   0.02154  -0.01654
   6   23522.9    425.1   0.152541458   2.13487   0.85907  -1.17441   0.13275
   7   24528.5    407.7   0.121045159   1.62462  -0.64788   0.94922  -0.55123
   8   25181.4    397.1   0.367348000   4.80256  -0.95102   1.92603   0.43420
   9   25582.8    390.9   0.184799310   2.37809   1.45745  -0.00609   0.50389
  10   26290.3    380.4   0.002427451   0.03040   0.07896   0.02190  -0.15389
  11   26918.5    371.5   0.000934112   0.01142   0.06459  -0.03368   0.07822
  12   27742.5    360.5   0.267577946   3.17526  -1.54013   0.85073  -0.28197
  13   28495.8    350.9   0.353173455   4.08022  -1.90928   0.47347  -0.45903
  14   29705.4    336.6   0.351248174   3.89273  -0.16966   1.95855  -0.16745
  15   30465.1    328.2   0.029941985   0.32356  -0.22248   0.36342   0.37681
  16   31044.4    322.1   0.126252383   1.33885  -0.05925  -1.12772   0.25218
  17   31509.8    317.4   0.035429081   0.37016   0.35363   0.47455   0.14109
  18   31975.3    312.7   0.045637502   0.46988  -0.57313   0.35750   0.11661
  19   32359.1    309.0   0.017648638   0.17955   0.06902  -0.12512   0.39891
  20   32772.5    305.1   0.016248062   0.16322  -0.27705   0.05175  -0.28945
  21   33004.9    303.0   0.430924734   4.29832   0.78602  -1.78350   0.70684
  22   33232.7    300.9   0.055242374   0.54725  -0.56891   0.32789  -0.34070
  23   33612.8    297.5   0.001121021   0.01098   0.09659  -0.02926   0.02819
  24   33646.4    297.2   0.079420366   0.77709  -0.85277   0.10967  -0.19453
  25   34192.6    292.5   0.051103279   0.49203   0.53093  -0.43754   0.13677
  26   34562.2    289.3   0.023150816   0.22052  -0.42143   0.17954  -0.10334
  27   35347.7    282.9   0.077740426   0.72404   0.59736   0.58120   0.17147
  28   35447.3    282.1   0.019451157   0.18065  -0.02402   0.22871   0.35744
  29   35892.2    278.6   0.000218918   0.00201  -0.01515   0.00321   0.04205
  30   36141.2    276.7   0.252578942   2.30075  -0.01129  -1.47389  -0.35816
  31   36420.0    274.6   0.004809930   0.04348   0.04082  -0.14044  -0.14863
  32   36727.7    272.3   0.494483941   4.43235  -0.95263   1.41513  -1.23379
  33   36891.5    271.1   0.044147651   0.39396   0.30483   0.54717  -0.04063
  34   37707.2    265.2   0.085414553   0.74573   0.82320  -0.02805   0.25939
  35   38308.5    261.0   0.050636581   0.43516   0.52184  -0.08908   0.39358
  36   38465.6    260.0   0.009371743   0.08021  -0.14558   0.21940   0.10431
  37   38583.8    259.2   0.042516546   0.36277   0.01619   0.43852   0.41256
  38   38863.5    257.3   0.000107284   0.00091  -0.02426  -0.00411   0.01742
  39   38895.1    257.1   0.077920532   0.65953   0.41218  -0.64435   0.27284
  40   39124.8    255.6   0.185327922   1.55943   0.35193   1.18790   0.15645
  41   39585.1    252.6   0.024191435   0.20119  -0.10861  -0.15381  -0.40710
  42   40008.2    249.9   0.057963796   0.47696   0.61577   0.17173   0.26135
  43   40262.0    248.4   0.010466073   0.08558   0.27824  -0.08938  -0.01311

FINAL SINGLE POINT ENERGY     -2960.812056170043

DIPOLE MOMENT
-------------
                                X             Y             Z
Electronic contribution:    -18.11478      65.25994       5.78616
Nuclear contribution   :     17.62338     -64.53160      -7.18984
                        -----------------------------------------
Total Dipole Moment    :     -0.49140       0.72834      -1.40368
                        -----------------------------------------
Magnitude (a.u.)       :      1.65598
Magnitude (Debye)      :      4.20916

Rotational constants in cm-1:     0.003550     0.000246     0.000235
Rotational constants in MHz :   106.419418     7.388703     7.039584

                             ****ORCA TERMINATED NORMALLY****
TOTAL RUN TIME: 0 days 0 hours 7 minutes 56 seconds 535 msec
