                         Program Version 4.2.0 -  RELEASE  -
|  1> # ORCA input file
|  2> # SCF done       -182.254027973862          0.000410489126
|  3> ! CAM-B3LYP def2-SVP def2/J RIJCOSX Grid4 TightSCF
|  4> %maxcore 5000
|  5> %tddft
|  6>     Mode sTDDFT
|  7>     Ethresh 5.0
|  8>     maxcore 5000
|  9> end
| 10>
| 11> %pal
| 12>   nprocs 6
| 13>   end
| 14> * xyz 0 1
| 15>    C       -2.81972         0.94991         4.34042
| 16>    C       -2.55066         0.42031         3.10919
| 17>    F       -2.29755         1.23747         2.07710
| 18>    C       -2.52596        -0.96881         2.86395
| 19>    F       -2.26625        -1.34410         1.60372
| 20>    C       -2.78025        -1.91961         3.84366
| 21>    C       -3.07223        -1.38539         5.13300
| 22>    C       -3.08250         0.03726         5.37216
| 23>    N       -3.36027         0.33208         6.64183
| 24>    S       -3.58111        -1.03280         7.45264
| 25>    N       -3.33934        -2.06492         6.24594
| 26>    C       -2.75361        -3.33720         3.59121
| 27>    C       -2.19241        -3.99437         2.52593
| 28>    C       -2.39682        -5.40315         2.68845
| 29>    C       -3.14096        -5.53898         3.94168
| 30>    C       -3.35167        -4.33335         4.48887
| 31>    F       -3.53708        -6.71784         4.43912
| 32>    C       -1.98524        -6.42095         1.86291
| 33>    C       -2.19854        -7.82000         2.01520
| 34>    C       -1.61661        -8.49004         0.95293
| 35>    C       -0.99435        -7.49310         0.07316
| 36>    C       -1.21880        -6.28805         0.61625
| 37>    F       -0.81236        -5.11464         0.12797
| 38>    C       -1.63207        -9.88528         0.76791
| 39>    C       -1.04731       -10.52667        -0.28876
| 40>    C       -1.04321       -11.92208        -0.50789
| 41>    C       -0.38454       -12.44638        -1.65646
| 42>    C       -0.33068       -13.85407        -1.95308
| 43>    N        0.28743       -14.25738        -3.07229
| 44>    C        0.84666       -13.38110        -3.86883
| 45>    C        0.81025       -11.98533        -3.55938
| 46>    N        0.20059       -11.56342        -2.47926
| 47>    C        1.43000       -11.04392        -4.41904
| 48>    N        1.94142       -10.30981        -5.13400
| 49>    C        1.49376       -13.83596        -5.04571
| 50>    N        2.02743       -14.17201        -6.00155
| 51>    C       -0.93773       -14.83127        -1.11128
| 52>    C       -1.60152       -14.30346         0.02934
| 53>    C       -1.65014       -12.89014         0.32817
| 54>    N       -2.31688       -12.64807         1.45705
| 55>    S       -2.82375       -14.03537         2.08350
| 56>    N       -2.23153       -15.01401         0.96548
| 57>    C       -0.90041       -16.22786        -1.37057
| 58>    C       -1.63448       -17.19724        -0.70345
| 59>    C       -1.32913       -18.47633        -1.24350
| 60>    C       -0.33698       -18.22004        -2.29079
| 61>    C       -0.08070       -16.90684        -2.38206
| 62>    F        0.21557       -19.18577        -3.03033
| 63>    C       -1.84642       -19.69912        -0.88198
| 64>    C       -1.54183       -20.98024        -1.42247
| 65>    C       -2.29277       -21.93755        -0.77486
| 66>    C       -3.12417       -21.26490         0.23212
| 67>    C       -2.85095       -19.95468         0.15901
| 68>    F       -3.39731       -18.98936         0.90740
| 69>    C       -2.25537       -23.32731        -1.05259
| 70>    C       -3.02329       -24.24889        -0.41948
| 71>    C       -3.05170       -25.66465        -0.64679
| 72>    C       -2.26928       -26.39007        -1.53531
| 73>    F       -1.35323       -25.77897        -2.30327
| 74>    C       -2.37998       -27.78881        -1.68503
| 75>    F       -1.57000       -28.38054        -2.57512
| 76>    C       -3.26505       -28.55009        -0.97123
| 77>    C       -4.08271       -27.87195        -0.05498
| 78>    C       -3.97630       -26.44597         0.10666
| 79>    N       -4.82961       -25.98587         1.01778
| 80>    S       -5.67555       -27.21966         1.60751
| 81>    N       -5.01053       -28.39721         0.74525
| 82>    H       -2.83111         2.01223         4.51219
| 83>    H       -1.66366        -3.55940         1.70229
| 84>    H       -3.85756        -4.10233         5.40357
| 85>    H       -2.73100        -8.27770         2.82575
| 86>    H       -0.46131        -7.69927        -0.83346
| 87>    H       -2.14284       -10.47307         1.51796
| 88>    H       -0.53099        -9.95316        -1.04518
| 89>    H       -2.33446       -17.01556         0.08619
| 90>    H        0.59871       -16.42685        -3.05482
| 91>    H       -0.83837       -21.16380        -2.21070
| 92>    H       -3.81544       -21.74249         0.89736
| 93>    H       -1.56231       -23.62118        -1.82691
| 94>    H       -3.71663       -23.93053         0.34612
| 95>    H       -3.33042       -29.61585        -1.10557
| 96> *
| 97>
| 98>                          ****END OF INPUT****

CARTESIAN COORDINATES (ANGSTROEM)
---------------------------------
  C     -2.819720    0.949910    4.340420
  C     -2.550660    0.420310    3.109190
  F     -2.297550    1.237470    2.077100
  C     -2.525960   -0.968810    2.863950
  F     -2.266250   -1.344100    1.603720
  C     -2.780250   -1.919610    3.843660
  C     -3.072230   -1.385390    5.133000
  C     -3.082500    0.037260    5.372160
  N     -3.360270    0.332080    6.641830
  S     -3.581110   -1.032800    7.452640
  N     -3.339340   -2.064920    6.245940
  C     -2.753610   -3.337200    3.591210
  C     -2.192410   -3.994370    2.525930
  C     -2.396820   -5.403150    2.688450
  C     -3.140960   -5.538980    3.941680
  C     -3.351670   -4.333350    4.488870
  F     -3.537080   -6.717840    4.439120
  C     -1.985240   -6.420950    1.862910
  C     -2.198540   -7.820000    2.015200
  C     -1.616610   -8.490040    0.952930
  C     -0.994350   -7.493100    0.073160
  C     -1.218800   -6.288050    0.616250
  F     -0.812360   -5.114640    0.127970
  C     -1.632070   -9.885280    0.767910
  C     -1.047310  -10.526670   -0.288760
  C     -1.043210  -11.922080   -0.507890
  C     -0.384540  -12.446380   -1.656460
  C     -0.330680  -13.854070   -1.953080
  N      0.287430  -14.257380   -3.072290
  C      0.846660  -13.381100   -3.868830
  C      0.810250  -11.985330   -3.559380
  N      0.200590  -11.563420   -2.479260
  C      1.430000  -11.043920   -4.419040
  N      1.941420  -10.309810   -5.134000
  C      1.493760  -13.835960   -5.045710
  N      2.027430  -14.172010   -6.001550
  C     -0.937730  -14.831270   -1.111280
  C     -1.601520  -14.303460    0.029340
  C     -1.650140  -12.890140    0.328170
  N     -2.316880  -12.648070    1.457050
  S     -2.823750  -14.035370    2.083500
  N     -2.231530  -15.014010    0.965480
  C     -0.900410  -16.227860   -1.370570
  C     -1.634480  -17.197240   -0.703450
  C     -1.329130  -18.476330   -1.243500
  C     -0.336980  -18.220040   -2.290790
  C     -0.080700  -16.906840   -2.382060
  F      0.215570  -19.185770   -3.030330
  C     -1.846420  -19.699120   -0.881980
  C     -1.541830  -20.980240   -1.422470
  C     -2.292770  -21.937550   -0.774860
  C     -3.124170  -21.264900    0.232120
  C     -2.850950  -19.954680    0.159010
  F     -3.397310  -18.989360    0.907400
  C     -2.255370  -23.327310   -1.052590
  C     -3.023290  -24.248890   -0.419480
  C     -3.051700  -25.664650   -0.646790
  C     -2.269280  -26.390070   -1.535310
  F     -1.353230  -25.778970   -2.303270
  C     -2.379980  -27.788810   -1.685030
  F     -1.570000  -28.380540   -2.575120
  C     -3.265050  -28.550090   -0.971230
  C     -4.082710  -27.871950   -0.054980
  C     -3.976300  -26.445970    0.106660
  N     -4.829610  -25.985870    1.017780
  S     -5.675550  -27.219660    1.607510
  N     -5.010530  -28.397210    0.745250
  H     -2.831110    2.012230    4.512190
  H     -1.663660   -3.559400    1.702290
  H     -3.857560   -4.102330    5.403570
  H     -2.731000   -8.277700    2.825750
  H     -0.461310   -7.699270   -0.833460
  H     -2.142840  -10.473070    1.517960
  H     -0.530990   -9.953160   -1.045180
  H     -2.334460  -17.015560    0.086190
  H      0.598710  -16.426850   -3.054820
  H     -0.838370  -21.163800   -2.210700
  H     -3.815440  -21.742490    0.897360
  H     -1.562310  -23.621180   -1.826910
  H     -3.716630  -23.930530    0.346120
  H     -3.330420  -29.615850   -1.105570

 Total Charge           Charge          ....    0
 Multiplicity           Mult            ....    1
 Number of Electrons    NEL             ....  480
 Basis Dimension        Dim             .... 1020

ORBITAL ENERGIES
----------------

  NO   OCC          E(Eh)            E(eV)
   0   2.0000     -89.050418     -2423.1851
   1   2.0000     -89.030427     -2422.6411
   2   2.0000     -89.029701     -2422.6213
   3   2.0000     -24.807573      -675.0484
   4   2.0000     -24.805407      -674.9894
   5   2.0000     -24.798429      -674.7996
   6   2.0000     -24.798274      -674.7953
   7   2.0000     -24.793877      -674.6757
   8   2.0000     -24.792682      -674.6432
   9   2.0000     -24.788007      -674.5160
  10   2.0000     -24.786471      -674.4742
  11   2.0000     -14.464709      -393.6047
  12   2.0000     -14.462643      -393.5485
  13   2.0000     -14.459056      -393.4509
  14   2.0000     -14.457224      -393.4011
  15   2.0000     -14.445582      -393.0843
  16   2.0000     -14.445527      -393.0828
  17   2.0000     -14.443778      -393.0352
  18   2.0000     -14.443084      -393.0163
  19   2.0000     -14.430692      -392.6791
  20   2.0000     -14.430449      -392.6725
  21   2.0000     -10.386767      -282.6383
  22   2.0000     -10.386439      -282.6294
  23   2.0000     -10.385184      -282.5952
  24   2.0000     -10.385003      -282.5903
  25   2.0000     -10.383314      -282.5443
  26   2.0000     -10.382795      -282.5302
  27   2.0000     -10.360577      -281.9256
  28   2.0000     -10.359952      -281.9086
  29   2.0000     -10.353573      -281.7350
  30   2.0000     -10.351509      -281.6789
  31   2.0000     -10.351245      -281.6717
  32   2.0000     -10.350310      -281.6463
  33   2.0000     -10.347554      -281.5713
  34   2.0000     -10.347304      -281.5645
  35   2.0000     -10.337642      -281.3015
  36   2.0000     -10.334775      -281.2235
  37   2.0000     -10.334771      -281.2234
  38   2.0000     -10.334053      -281.2039
  39   2.0000     -10.323844      -280.9261
  40   2.0000     -10.323781      -280.9244
  41   2.0000     -10.321629      -280.8658
  42   2.0000     -10.319877      -280.8181
  43   2.0000     -10.316725      -280.7324
  44   2.0000     -10.314894      -280.6825
  45   2.0000     -10.311605      -280.5930
  46   2.0000     -10.310962      -280.5755
  47   2.0000     -10.309050      -280.5235
  48   2.0000     -10.305768      -280.4342
  49   2.0000     -10.301790      -280.3260
  50   2.0000     -10.301234      -280.3108
  51   2.0000     -10.299639      -280.2674
  52   2.0000     -10.298301      -280.2310
  53   2.0000     -10.295073      -280.1432
  54   2.0000     -10.295005      -280.1413
  55   2.0000     -10.294303      -280.1222
  56   2.0000     -10.290745      -280.0254
  57   2.0000     -10.290017      -280.0056
  58   2.0000     -10.289463      -279.9905
  59   2.0000     -10.278476      -279.6915
  60   2.0000     -10.277236      -279.6578
  61   2.0000     -10.275383      -279.6074
  62   2.0000     -10.271686      -279.5068
  63   2.0000     -10.270481      -279.4740
  64   2.0000     -10.270054      -279.4624
  65   2.0000     -10.269547      -279.4486
  66   2.0000     -10.267124      -279.3827
  67   2.0000      -8.141698      -221.5469
  68   2.0000      -8.122362      -221.0207
  69   2.0000      -8.121669      -221.0018
  70   2.0000      -6.112824      -166.3384
  71   2.0000      -6.104841      -166.1212
  72   2.0000      -6.104577      -166.1140
  73   2.0000      -6.093594      -165.8151
  74   2.0000      -6.092849      -165.7949
  75   2.0000      -6.085776      -165.6024
  76   2.0000      -6.085150      -165.5854
  77   2.0000      -6.084741      -165.5742
  78   2.0000      -6.084028      -165.5548
  79   2.0000      -1.327379       -36.1198
  80   2.0000      -1.326686       -36.1010
  81   2.0000      -1.308368       -35.6025
  82   2.0000      -1.308113       -35.5956
  83   2.0000      -1.306594       -35.5542
  84   2.0000      -1.306412       -35.5493
  85   2.0000      -1.300128       -35.3783
  86   2.0000      -1.299832       -35.3702
  87   2.0000      -1.147719       -31.2310
  88   2.0000      -1.132764       -30.8241
  89   2.0000      -1.131804       -30.7980
  90   2.0000      -1.123592       -30.5745
  91   2.0000      -1.049423       -28.5562
  92   2.0000      -1.015239       -27.6261
  93   2.0000      -1.005916       -27.3724
  94   2.0000      -1.001767       -27.2595
  95   2.0000      -0.995919       -27.1003
  96   2.0000      -0.992269       -27.0010
  97   2.0000      -0.987820       -26.8799
  98   2.0000      -0.986843       -26.8534
  99   2.0000      -0.982281       -26.7292
 100   2.0000      -0.979508       -26.6538
 101   2.0000      -0.976949       -26.5841
 102   2.0000      -0.966592       -26.3023
 103   2.0000      -0.965015       -26.2594
 104   2.0000      -0.915370       -24.9085
 105   2.0000      -0.910535       -24.7769
 106   2.0000      -0.906827       -24.6760
 107   2.0000      -0.886782       -24.1306
 108   2.0000      -0.876083       -23.8394
 109   2.0000      -0.866628       -23.5821
 110   2.0000      -0.865971       -23.5643
 111   2.0000      -0.864383       -23.5211
 112   2.0000      -0.848264       -23.0824
 113   2.0000      -0.839877       -22.8542
 114   2.0000      -0.835892       -22.7458
 115   2.0000      -0.814347       -22.1595
 116   2.0000      -0.810597       -22.0575
 117   2.0000      -0.805765       -21.9260
 118   2.0000      -0.803722       -21.8704
 119   2.0000      -0.788738       -21.4627
 120   2.0000      -0.782189       -21.2845
 121   2.0000      -0.767044       -20.8723
 122   2.0000      -0.756743       -20.5920
 123   2.0000      -0.748034       -20.3550
 124   2.0000      -0.741160       -20.1680
 125   2.0000      -0.728815       -19.8321
 126   2.0000      -0.725861       -19.7517
 127   2.0000      -0.719904       -19.5896
 128   2.0000      -0.715011       -19.4564
 129   2.0000      -0.708027       -19.2664
 130   2.0000      -0.706126       -19.2147
 131   2.0000      -0.692271       -18.8376
 132   2.0000      -0.685564       -18.6552
 133   2.0000      -0.679965       -18.5028
 134   2.0000      -0.674928       -18.3657
 135   2.0000      -0.669972       -18.2309
 136   2.0000      -0.666782       -18.1441
 137   2.0000      -0.664998       -18.0955
 138   2.0000      -0.655594       -17.8396
 139   2.0000      -0.653462       -17.7816
 140   2.0000      -0.652706       -17.7610
 141   2.0000      -0.643684       -17.5155
 142   2.0000      -0.642247       -17.4764
 143   2.0000      -0.637815       -17.3558
 144   2.0000      -0.636393       -17.3171
 145   2.0000      -0.632583       -17.2134
 146   2.0000      -0.629881       -17.1399
 147   2.0000      -0.626902       -17.0589
 148   2.0000      -0.624745       -17.0002
 149   2.0000      -0.622771       -16.9465
 150   2.0000      -0.618294       -16.8246
 151   2.0000      -0.610346       -16.6084
 152   2.0000      -0.597373       -16.2553
 153   2.0000      -0.592217       -16.1151
 154   2.0000      -0.592143       -16.1130
 155   2.0000      -0.582631       -15.8542
 156   2.0000      -0.579489       -15.7687
 157   2.0000      -0.573240       -15.5986
 158   2.0000      -0.563028       -15.3208
 159   2.0000      -0.562933       -15.3182
 160   2.0000      -0.562879       -15.3167
 161   2.0000      -0.561380       -15.2759
 162   2.0000      -0.560319       -15.2471
 163   2.0000      -0.558346       -15.1934
 164   2.0000      -0.554990       -15.1020
 165   2.0000      -0.554079       -15.0772
 166   2.0000      -0.553117       -15.0511
 167   2.0000      -0.552315       -15.0293
 168   2.0000      -0.551251       -15.0003
 169   2.0000      -0.551066       -14.9953
 170   2.0000      -0.550739       -14.9864
 171   2.0000      -0.549535       -14.9536
 172   2.0000      -0.549417       -14.9504
 173   2.0000      -0.548574       -14.9274
 174   2.0000      -0.545367       -14.8402
 175   2.0000      -0.543511       -14.7897
 176   2.0000      -0.533083       -14.5059
 177   2.0000      -0.530006       -14.4222
 178   2.0000      -0.528244       -14.3742
 179   2.0000      -0.524665       -14.2769
 180   2.0000      -0.517712       -14.0877
 181   2.0000      -0.511109       -13.9080
 182   2.0000      -0.506364       -13.7789
 183   2.0000      -0.501982       -13.6596
 184   2.0000      -0.498210       -13.5570
 185   2.0000      -0.490741       -13.3537
 186   2.0000      -0.490265       -13.3408
 187   2.0000      -0.487908       -13.2766
 188   2.0000      -0.487466       -13.2646
 189   2.0000      -0.487322       -13.2607
 190   2.0000      -0.484504       -13.1840
 191   2.0000      -0.478269       -13.0144
 192   2.0000      -0.476384       -12.9631
 193   2.0000      -0.475629       -12.9425
 194   2.0000      -0.474857       -12.9215
 195   2.0000      -0.472588       -12.8598
 196   2.0000      -0.472197       -12.8491
 197   2.0000      -0.467186       -12.7128
 198   2.0000      -0.463209       -12.6045
 199   2.0000      -0.462675       -12.5900
 200   2.0000      -0.459985       -12.5168
 201   2.0000      -0.456581       -12.4242
 202   2.0000      -0.455363       -12.3911
 203   2.0000      -0.454337       -12.3631
 204   2.0000      -0.451934       -12.2977
 205   2.0000      -0.449125       -12.2213
 206   2.0000      -0.446375       -12.1465
 207   2.0000      -0.444702       -12.1010
 208   2.0000      -0.440633       -11.9902
 209   2.0000      -0.436125       -11.8676
 210   2.0000      -0.435807       -11.8589
 211   2.0000      -0.429736       -11.6937
 212   2.0000      -0.425992       -11.5918
 213   2.0000      -0.424707       -11.5569
 214   2.0000      -0.421427       -11.4676
 215   2.0000      -0.419375       -11.4118
 216   2.0000      -0.416609       -11.3365
 217   2.0000      -0.415699       -11.3118
 218   2.0000      -0.409524       -11.1437
 219   2.0000      -0.408272       -11.1097
 220   2.0000      -0.406145       -11.0518
 221   2.0000      -0.404429       -11.0051
 222   2.0000      -0.383361       -10.4318
 223   2.0000      -0.379762       -10.3339
 224   2.0000      -0.378038       -10.2869
 225   2.0000      -0.375657       -10.2222
 226   2.0000      -0.373962       -10.1760
 227   2.0000      -0.359682        -9.7874
 228   2.0000      -0.352848        -9.6015
 229   2.0000      -0.345794        -9.4095
 230   2.0000      -0.335396        -9.1266
 231   2.0000      -0.331673        -9.0253
 232   2.0000      -0.330480        -8.9928
 233   2.0000      -0.317551        -8.6410
 234   2.0000      -0.310017        -8.4360
 235   2.0000      -0.305947        -8.3252
 236   2.0000      -0.289699        -7.8831
 237   2.0000      -0.277026        -7.5383
 238   2.0000      -0.268582        -7.3085
 239   2.0000      -0.241533        -6.5725
 240   0.0000      -0.138298        -3.7633
 241   0.0000      -0.101610        -2.7649
 242   0.0000      -0.094977        -2.5845
 243   0.0000      -0.063660        -1.7323
 244   0.0000      -0.060955        -1.6587

MULLIKEN ATOMIC CHARGES
-----------------------
   0 C :   -0.116113
   1 C :    0.264403
   2 F :   -0.173678
   3 C :    0.135553
   4 F :   -0.161246
   5 C :    0.107328
   6 C :   -0.004363
   7 C :    0.054974
   8 N :   -0.269029
   9 S :    0.512528
  10 N :   -0.292808
  11 C :    0.013047
  12 C :   -0.087812
  13 C :    0.019025
  14 C :    0.253601
  15 C :   -0.060355
  16 F :   -0.180311
  17 C :    0.002504
  18 C :   -0.074960
  19 C :    0.114755
  20 C :   -0.074393
  21 C :    0.259856
  22 F :   -0.168404
  23 C :    0.026697
  24 C :   -0.091448
  25 C :    0.115860
  26 C :   -0.051827
  27 C :   -0.071636
  28 N :    0.045138
  29 C :   -0.119868
  30 C :   -0.139285
  31 N :    0.053587
  32 C :   -0.216654
  33 N :    0.242995
  34 C :   -0.224314
  35 N :    0.245764
  36 C :    0.206173
  37 C :   -0.002207
  38 C :    0.006985
  39 N :   -0.286609
  40 S :    0.559626
  41 N :   -0.287454
  42 C :   -0.060988
  43 C :   -0.086365
  44 C :    0.037148
  45 C :    0.262138
  46 C :   -0.065144
  47 F :   -0.174127
  48 C :    0.008236
  49 C :   -0.086948
  50 C :    0.110137
  51 C :   -0.075675
  52 C :    0.257019
  53 F :   -0.172486
  54 C :    0.019695
  55 C :   -0.046562
  56 C :    0.071821
  57 C :    0.144915
  58 F :   -0.168130
  59 C :    0.272475
  60 F :   -0.175218
  61 C :   -0.123635
  62 C :    0.073063
  63 C :   -0.018872
  64 N :   -0.284584
  65 S :    0.507152
  66 N :   -0.267742
  67 H :   -0.001847
  68 H :   -0.002578
  69 H :   -0.005138
  70 H :   -0.007536
  71 H :   -0.006445
  72 H :    0.003931
  73 H :   -0.003141
  74 H :    0.001738
  75 H :   -0.006196
  76 H :   -0.007709
  77 H :   -0.010700
  78 H :    0.000467
  79 H :    0.005336
  80 H :   -0.003129
Sum of atomic charges:    0.0000000

LOEWDIN ATOMIC CHARGES
----------------------
   0 C :   -0.041651
   1 C :    0.069575
   2 F :   -0.048689
   3 C :    0.078385
   4 F :   -0.033636
   5 C :   -0.047722
   6 C :   -0.042445
   7 C :   -0.054086
   8 N :   -0.284692
   9 S :    0.646704
  10 N :   -0.282534
  11 C :    0.000541
  12 C :   -0.041478
  13 C :    0.007706
  14 C :    0.067551
  15 C :   -0.044867
  16 F :   -0.055951
  17 C :    0.002391
  18 C :   -0.032700
  19 C :   -0.002219
  20 C :   -0.054257
  21 C :    0.081088
  22 F :   -0.045339
  23 C :    0.015446
  24 C :   -0.015007
  25 C :   -0.016399
  26 C :   -0.005574
  27 C :   -0.004093
  28 N :    0.011323
  29 C :   -0.027582
  30 C :   -0.029813
  31 N :    0.004202
  32 C :   -0.037333
  33 N :   -0.004152
  34 C :   -0.038496
  35 N :   -0.002626
  36 C :   -0.015924
  37 C :   -0.032761
  38 C :   -0.038605
  39 N :   -0.274790
  40 S :    0.683266
  41 N :   -0.267139
  42 C :   -0.006618
  43 C :   -0.019130
  44 C :   -0.004109
  45 C :    0.070531
  46 C :   -0.052319
  47 F :   -0.050619
  48 C :    0.011533
  49 C :   -0.049181
  50 C :    0.005654
  51 C :   -0.054351
  52 C :    0.081384
  53 F :   -0.050399
  54 C :   -0.000739
  55 C :   -0.007572
  56 C :   -0.051715
  57 C :    0.072451
  58 F :   -0.039656
  59 C :    0.070693
  60 F :   -0.049824
  61 C :   -0.044229
  62 C :   -0.055055
  63 C :   -0.047078
  64 N :   -0.289507
  65 S :    0.645208
  66 N :   -0.285852
  67 H :    0.051415
  68 H :    0.022520
  69 H :    0.029578
  70 H :    0.026682
  71 H :    0.033440
  72 H :    0.032484
  73 H :    0.031583
  74 H :    0.020571
  75 H :    0.029064
  76 H :    0.026674
  77 H :    0.031914
  78 H :    0.032772
  79 H :    0.035318
  80 H :    0.050868

  Mayer bond orders larger than 0.100000
B(  0-C ,  1-C ) :   1.4494 B(  0-C ,  5-C ) :   0.1272 B(  0-C ,  7-C ) :   1.1467
B(  0-C , 67-H ) :   1.0477 B(  1-C ,  2-F ) :   1.1124 B(  1-C ,  3-C ) :   1.1451
B(  3-C ,  4-F ) :   1.1514 B(  3-C ,  5-C ) :   1.3991 B(  5-C ,  6-C ) :   1.1670
B(  5-C , 11-C ) :   1.0506 B(  6-C ,  7-C ) :   1.1501 B(  6-C , 10-N ) :   1.5395
B(  7-C ,  8-N ) :   1.5168 B(  8-N ,  9-S ) :   1.2761 B(  8-N , 10-N ) :   0.1473
B(  9-S , 10-N ) :   1.2572 B( 11-C , 12-C ) :   1.5856 B( 11-C , 15-C ) :   1.0374
B( 12-C , 13-C ) :   1.0890 B( 12-C , 68-H ) :   1.0141 B( 13-C , 14-C ) :   1.0211
B( 13-C , 17-C ) :   1.4683 B( 14-C , 15-C ) :   1.6398 B( 14-C , 16-F ) :   1.1203
B( 15-C , 69-H ) :   1.0106 B( 17-C , 18-C ) :   1.1140 B( 17-C , 21-C ) :   1.0138
B( 18-C , 19-C ) :   1.4863 B( 18-C , 70-H ) :   1.0239 B( 19-C , 20-C ) :   1.0118
B( 19-C , 23-C ) :   1.1451 B( 20-C , 21-C ) :   1.6711 B( 20-C , 71-H ) :   1.0145
B( 21-C , 22-F ) :   1.1325 B( 23-C , 24-C ) :   1.5047 B( 23-C , 72-H ) :   0.9690
B( 24-C , 25-C ) :   1.2339 B( 24-C , 73-H ) :   0.9577 B( 25-C , 26-C ) :   1.2144
B( 25-C , 36-C ) :   0.1321 B( 25-C , 38-C ) :   1.1564 B( 26-C , 27-C ) :   1.1107
B( 26-C , 31-N ) :   1.4460 B( 27-C , 28-N ) :   1.4478 B( 27-C , 36-C ) :   1.2375
B( 28-N , 29-C ) :   1.7320 B( 29-C , 30-C ) :   1.2095 B( 29-C , 34-C ) :   1.1496
B( 30-C , 31-N ) :   1.7392 B( 30-C , 32-C ) :   1.1569 B( 32-C , 33-N ) :   3.0497
B( 34-C , 35-N ) :   3.0486 B( 36-C , 37-C ) :   1.1883 B( 36-C , 42-C ) :   1.1342
B( 37-C , 38-C ) :   1.1041 B( 37-C , 41-N ) :   1.5177 B( 38-C , 39-N ) :   1.5084
B( 39-N , 40-S ) :   1.2786 B( 39-N , 41-N ) :   0.1485 B( 40-S , 41-N ) :   1.2865
B( 42-C , 43-C ) :   1.5102 B( 42-C , 46-C ) :   1.0233 B( 43-C , 44-C ) :   1.0961
B( 43-C , 74-H ) :   1.0015 B( 44-C , 45-C ) :   1.0207 B( 44-C , 48-C ) :   1.4497
B( 45-C , 46-C ) :   1.6275 B( 45-C , 47-F ) :   1.1295 B( 46-C , 75-H ) :   1.0160
B( 48-C , 49-C ) :   1.1191 B( 48-C , 52-C ) :   1.0139 B( 49-C , 50-C ) :   1.5082
B( 49-C , 76-H ) :   1.0252 B( 50-C , 51-C ) :   1.0095 B( 50-C , 54-C ) :   1.1337
B( 51-C , 52-C ) :   1.6730 B( 51-C , 77-H ) :   1.0144 B( 52-C , 53-F ) :   1.1276
B( 54-C , 55-C ) :   1.5954 B( 54-C , 78-H ) :   0.9816 B( 55-C , 56-C ) :   1.1371
B( 55-C , 79-H ) :   0.9766 B( 56-C , 57-C ) :   1.3699 B( 56-C , 61-C ) :   0.1252
B( 56-C , 63-C ) :   1.1505 B( 57-C , 58-F ) :   1.1327 B( 57-C , 59-C ) :   1.1541
B( 59-C , 60-F ) :   1.1111 B( 59-C , 61-C ) :   1.4521 B( 61-C , 62-C ) :   1.1456
B( 61-C , 80-H ) :   1.0447 B( 62-C , 63-C ) :   1.1575 B( 62-C , 66-N ) :   1.5168
B( 63-C , 64-N ) :   1.5588 B( 64-N , 65-S ) :   1.2566 B( 64-N , 66-N ) :   0.1491
B( 65-S , 66-N ) :   1.2753

-----------------------------------------------------------------------------
         ABSORPTION SPECTRUM VIA TRANSITION ELECTRIC DIPOLE MOMENTS
-----------------------------------------------------------------------------
State   Energy  Wavelength   fosc         T2         TX        TY        TZ
        (cm-1)    (nm)                  (au**2)     (au)      (au)      (au)
-----------------------------------------------------------------------------
   0    8684.9   1151.4   0.964966102  36.57825  -0.00294  -5.91808  -1.24682
   1   14541.1    687.7   0.094729351   2.14469  -0.82640  -0.77085   0.93142
   2   15239.4    656.2   0.126854169   2.74040  -0.48472   1.25102   0.96974
   3   15645.9    639.1   0.200353431   4.21571   0.38769   2.01590  -0.03962
   4   16422.1    608.9   0.142414902   2.85498  -0.40882   1.37437   0.89385
   5   17043.5    586.7   0.027201415   0.52542  -0.27640  -0.62653   0.23768
   6   20131.5    496.7   0.271304967   4.43666   0.11440   2.08834   0.24981
   7   21729.7    460.2   0.382259786   5.79135   0.04848  -2.31944  -0.63967
   8   22981.9    435.1   0.227775647   3.26285  -0.97883  -1.05744   1.08929
   9   23742.9    421.2   0.116070930   1.60940   0.68512   0.72113  -0.78739
  10   24802.6    403.2   0.355562403   4.71948   0.14496  -2.06050  -0.67290
  11   25217.9    396.5   0.011971036   0.15628   0.13490   0.32299  -0.18374
  12   25511.4    392.0   0.011874802   0.15324   0.12271  -0.28522  -0.23839
  13   25867.3    386.6   0.241923117   3.07894   0.08506   1.68750   0.47333
  14   26028.0    384.2   0.092506395   1.17006   0.02831  -1.04514  -0.27739
  15   26151.7    382.4   0.134929476   1.69857   0.10279  -1.28710  -0.17712
  16   26390.6    378.9   0.016881255   0.21059   0.12319   0.43395   0.08425
  17   26891.3    371.9   0.017812515   0.21807  -0.07414  -0.46052   0.02207
  18   28697.5    348.5   0.056943609   0.65325   0.12343  -0.73823  -0.30501
  19   29359.6    340.6   0.023200833   0.26015  -0.06511   0.44826   0.23446
  20   29903.6    334.4   0.010644339   0.11718  -0.18823  -0.19986   0.20447
  21   29961.6    333.8   0.001061388   0.01166  -0.08254  -0.01215   0.06857
  22   30364.7    329.3   0.154322533   1.67315  -0.07169   1.19765   0.48336
  23   31016.4    322.4   0.009976646   0.10589  -0.02971   0.29091   0.14277
  24   31029.6    322.3   0.049597335   0.52621  -0.09081  -0.55670   0.45612
  25   31410.0    318.4   0.495740544   5.19592   1.18989   0.87721  -1.73510
  26   31575.1    316.7   0.179337736   1.86983  -0.69351  -0.28375   1.14383
  27   31844.3    314.0   0.202319695   2.09162   0.73893  -0.14292  -1.23498
  28   32078.4    311.7   0.110340197   1.13239   0.51560  -0.46506  -0.80639
  29   32359.9    309.0   0.071259880   0.72496  -0.34893  -0.77363   0.06863
  30   33705.0    296.7   0.024523514   0.23953   0.23922   0.06437  -0.42209
  31   34206.7    292.3   0.014614969   0.14066  -0.14734  -0.31826   0.13288
  32   35107.1    284.8   0.124379355   1.16635  -0.14297   1.00236   0.37575
  33   35575.1    281.1   0.071365007   0.66041   0.18174  -0.70693  -0.35725
  34   35796.6    279.4   0.030117549   0.27698   0.25230   0.09817  -0.45132
  35   35994.3    277.8   0.038082965   0.34831   0.28328   0.30059  -0.42156
  36   36293.0    275.5   0.016311903   0.14796  -0.23724  -0.21483   0.21338
  37   36777.6    271.9   0.006225855   0.05573  -0.09390   0.06164   0.20764
  38   36930.5    270.8   0.008614455   0.07679  -0.04872   0.26332   0.07128
  39   37132.2    269.3   0.109678115   0.97240   0.25505   0.95253   0.00514
  40   37278.9    268.2   0.004870617   0.04301  -0.14614  -0.04242   0.14091
  41   37398.2    267.4   0.071912344   0.63304  -0.34303  -0.66800   0.26293
  42   37614.6    265.9   0.014148289   0.12383  -0.01724  -0.20517   0.28537
  43   37854.6    264.2   0.023878297   0.20766  -0.01284  -0.45321   0.04582
  44   38064.5    262.7   0.068480273   0.59227  -0.18123  -0.09468   0.74193
  45   38318.2    261.0   0.011252302   0.09667   0.08470   0.29682  -0.03741
  46   38425.6    260.2   0.057130356   0.48947   0.39508   0.20412  -0.54010
  47   38719.3    258.3   0.058283001   0.49555   0.48046  -0.06836  -0.50994
  48   38865.4    257.3   0.093603439   0.79287   0.62974   0.34153  -0.52883
  49   39088.6    255.8   0.045519593   0.38338   0.42929  -0.26014  -0.36250
  50   39234.0    254.9   0.004413530   0.03703  -0.04663  -0.05255   0.17916
  51   39375.1    254.0   0.149147230   1.24701   0.05380   1.08351   0.26479
  52   39673.7    252.1   0.007694091   0.06385   0.06108  -0.12571  -0.21050
  53   39902.6    250.6   0.043304590   0.35728   0.29758  -0.00640  -0.51835
  54   40089.3    249.4   0.010508523   0.08630  -0.16605  -0.02442   0.24109
  55   40199.4    248.8   0.056456124   0.46235  -0.33647  -0.25800   0.53157

FINAL SINGLE POINT ENERGY     -4297.798431318815

DIPOLE MOMENT
-------------
                                X             Y             Z
Electronic contribution:     -0.31685       9.41457       0.95228
Nuclear contribution   :     -1.72701     -10.17403       2.28914
                        -----------------------------------------
Total Dipole Moment    :     -2.04385      -0.75945       3.24142
                        -----------------------------------------
Magnitude (a.u.)       :      3.90652
Magnitude (Debye)      :      9.92959

Rotational constants in cm-1:     0.002058     0.000203     0.000186
Rotational constants in MHz :    61.703117     6.100424     5.572027

                             ****ORCA TERMINATED NORMALLY****
TOTAL RUN TIME: 0 days 0 hours 7 minutes 49 seconds 840 msec
