                         Program Version 4.2.0 -  RELEASE  -
|  1> # ORCA input file
|  2> # SCF done       -224.645386020978          0.000399148655
|  3> ! CAM-B3LYP def2-SVP def2/J RIJCOSX Grid4 TightSCF
|  4> %maxcore 5000
|  5> %tddft
|  6>     Mode sTDDFT
|  7>     Ethresh 5.0
|  8>     maxcore 5000
|  9> end
| 10>
| 11> %pal
| 12>   nprocs 6
| 13>   end
| 14> * xyz 0 1
| 15>    C       -0.32951        -1.66926        -0.87633
| 16>    C       -0.69885        -0.41836        -1.34661
| 17>    F       -0.86006         0.58116        -0.47310
| 18>    C       -0.90174        -0.17754        -2.70668
| 19>    F       -1.26454         1.04431        -3.11393
| 20>    C       -0.72778        -1.18803        -3.63833
| 21>    C       -0.34991        -2.43233        -3.17258
| 22>    C       -0.15539        -2.68533        -1.80276
| 23>    C        0.19235        -4.09489        -1.62819
| 24>    C        0.05205        -4.80714        -0.46857
| 25>    C       -0.27002        -4.22530         0.77535
| 26>    N       -0.50861        -3.79211         1.81071
| 27>    C        0.12393        -6.21507        -0.39874
| 28>    N        0.10022        -7.35684        -0.28983
| 29>    C        0.43969        -4.63991        -2.94997
| 30>    C       -0.07023        -3.66311        -3.94839
| 31>    O       -0.18469        -3.82876        -5.13932
| 32>    C        1.08305        -5.75969        -3.36570
| 33>    C        1.94569        -6.62960        -2.61604
| 34>    C        2.01940        -7.98725        -2.96721
| 35>    C        2.82775        -8.82608        -2.24367
| 36>    C        3.62250        -8.32627        -1.19512
| 37>    C        3.59742        -6.97477        -0.87578
| 38>    C        2.75168        -6.14187        -1.57587
| 39>    C        4.37526        -9.42246        -0.62624
| 40>    C        4.04472       -10.59739        -1.32243
| 41>    C        3.02375       -10.31455        -2.39722
| 42>    C        1.71216       -11.07754        -2.12455
| 43>    C        1.11913       -10.77211        -0.75469
| 44>    C        3.55391       -10.67889        -3.79567
| 45>    C        4.85451        -9.96236        -4.13916
| 46>    C        4.61537       -11.79928        -0.98112
| 47>    C        5.53404       -11.84825         0.07392
| 48>    C        5.85146       -10.67595         0.76596
| 49>    C        5.28130        -9.46485         0.42321
| 50>    C        6.10555       -13.13904         0.46392
| 51>    C        7.41147       -13.31359         0.90020
| 52>    O        8.17983       -12.19424         0.92446
| 53>    C        9.56571       -12.22312         0.64467
| 54>    C        7.90583       -14.59812         1.35254
| 55>    O        9.20559       -14.59003         1.76133
| 56>    C       10.00966       -15.73738         1.58250
| 57>    C        7.10815       -15.72429         1.37664
| 58>    C        5.81242       -15.58247         0.82788
| 59>    C        5.31095       -14.30772         0.38784
| 60>    N        4.07502       -14.50251        -0.03214
| 61>    O        3.82218       -15.80090         0.13311
| 62>    N        4.85252       -16.46982         0.65404
| 63>    C        7.41261       -17.00286         2.03328
| 64>    C        7.14166       -18.20153         1.37014
| 65>    C        7.29555       -19.39126         2.04256
| 66>    C        7.76078       -19.39877         3.36965
| 67>    C        8.03612       -18.21147         4.03072
| 68>    C        7.84712       -17.01759         3.36004
| 69>    C        7.87893       -20.77225         3.80843
| 70>    C        7.48236       -21.61160         2.75292
| 71>    C        7.03556       -20.79752         1.55910
| 72>    C        5.52484       -21.06682         1.35585
| 73>    C        4.82170       -20.19385         0.32454
| 74>    C        7.85173       -21.13706         0.30238
| 75>    C        9.35232       -20.98256         0.52503
| 76>    C        7.49363       -22.97509         2.90546
| 77>    C        7.96497       -23.52910         4.10547
| 78>    C        8.34617       -22.67991         5.15517
| 79>    C        8.29254       -21.30945         5.02034
| 80>    C        7.99435       -24.95899         4.25158
| 81>    C        8.84093       -25.71511         4.99261
| 82>    C        8.47753       -27.11548         5.33993
| 83>    O        7.59416       -27.78112         4.85606
| 84>    C        9.39592       -27.48672         6.44137
| 85>    C       10.32642       -26.45220         6.64775
| 86>    C       11.27503       -26.56026         7.65260
| 87>    C       11.27026       -27.70898         8.42889
| 88>    C       10.35084       -28.73694         8.21078
| 89>    C        9.39895       -28.63489         7.20933
| 90>    F       10.38864       -29.83016         8.98035
| 91>    F       12.16740       -27.83051         9.41246
| 92>    C       10.09327       -25.40308         5.65656
| 93>    C       11.00738       -24.46405         5.26453
| 94>    C       10.85591       -23.64911         4.12190
| 95>    N       10.82661       -23.00829         3.17065
| 96>    C       12.24769       -24.26106         5.90515
| 97>    N       13.25603       -24.04479         6.40794
| 98>    H       -0.18159        -1.80837         0.18230
| 99>    H       -0.88339        -1.00332        -4.68928
|100>    H        0.96900        -5.98819        -4.42128
|101>    H        1.40408        -8.35881        -3.77316
|102>    H        4.22437        -6.58153        -0.08994
|103>    H        2.73672        -5.08429        -1.35297
|104>    H        1.91587       -12.14753        -2.19927
|105>    H        0.98946       -10.81588        -2.90029
|106>    H        1.81504       -11.05044         0.03338
|107>    H        0.20229       -11.33989        -0.61614
|108>    H        0.88579        -9.71513        -0.65536
|109>    H        2.79303       -10.42614        -4.53685
|110>    H        3.71301       -11.75807        -3.83547
|111>    H        4.71457        -8.88351        -4.12931
|112>    H        5.19367       -10.25578        -5.12998
|113>    H        5.63147       -10.21319        -3.42033
|114>    H        4.35992       -12.70263        -1.51049
|115>    H        6.53654       -10.72516         1.59613
|116>    H        5.53096        -8.57051         0.97422
|117>    H        9.80399       -11.21069         0.31585
|118>    H        9.80525       -12.92555        -0.15611
|119>    H       10.15286       -12.46374         1.53272
|120>    H       11.01678       -15.36741         1.38249
|121>    H        9.66711       -16.33997         0.73878
|122>    H       10.02754       -16.36004         2.48009
|123>    H        6.82240       -18.17305         0.34138
|124>    H        8.38191       -18.21443         5.05346
|125>    H        8.01395       -16.07936         3.87020
|126>    H        5.02902       -20.93336         2.32097
|127>    H        5.41477       -22.11582         1.07103
|128>    H        4.80255       -19.15301         0.63491
|129>    H        3.79278       -20.53061         0.21785
|130>    H        5.29913       -20.26772        -0.64901
|131>    H        7.53944       -20.48015        -0.51056
|132>    H        7.63191       -22.16495         0.00742
|133>    H        9.59441       -19.95975         0.80733
|134>    H        9.89093       -21.22251        -0.38881
|135>    H        9.70119       -21.64563         1.31250
|136>    H        7.19203       -23.63227         2.10353
|137>    H        8.64588       -23.11338         6.09880
|138>    H        8.57151       -20.66840         5.84282
|139>    H        7.20271       -25.50987         3.75253
|140>    H       12.00169       -25.79130         7.85902
|141>    H        8.68759       -29.42746         7.04028
|142> *
|143>
|144>                          ****END OF INPUT****

CARTESIAN COORDINATES (ANGSTROEM)
---------------------------------
  C     -0.329510   -1.669260   -0.876330
  C     -0.698850   -0.418360   -1.346610
  F     -0.860060    0.581160   -0.473100
  C     -0.901740   -0.177540   -2.706680
  F     -1.264540    1.044310   -3.113930
  C     -0.727780   -1.188030   -3.638330
  C     -0.349910   -2.432330   -3.172580
  C     -0.155390   -2.685330   -1.802760
  C      0.192350   -4.094890   -1.628190
  C      0.052050   -4.807140   -0.468570
  C     -0.270020   -4.225300    0.775350
  N     -0.508610   -3.792110    1.810710
  C      0.123930   -6.215070   -0.398740
  N      0.100220   -7.356840   -0.289830
  C      0.439690   -4.639910   -2.949970
  C     -0.070230   -3.663110   -3.948390
  O     -0.184690   -3.828760   -5.139320
  C      1.083050   -5.759690   -3.365700
  C      1.945690   -6.629600   -2.616040
  C      2.019400   -7.987250   -2.967210
  C      2.827750   -8.826080   -2.243670
  C      3.622500   -8.326270   -1.195120
  C      3.597420   -6.974770   -0.875780
  C      2.751680   -6.141870   -1.575870
  C      4.375260   -9.422460   -0.626240
  C      4.044720  -10.597390   -1.322430
  C      3.023750  -10.314550   -2.397220
  C      1.712160  -11.077540   -2.124550
  C      1.119130  -10.772110   -0.754690
  C      3.553910  -10.678890   -3.795670
  C      4.854510   -9.962360   -4.139160
  C      4.615370  -11.799280   -0.981120
  C      5.534040  -11.848250    0.073920
  C      5.851460  -10.675950    0.765960
  C      5.281300   -9.464850    0.423210
  C      6.105550  -13.139040    0.463920
  C      7.411470  -13.313590    0.900200
  O      8.179830  -12.194240    0.924460
  C      9.565710  -12.223120    0.644670
  C      7.905830  -14.598120    1.352540
  O      9.205590  -14.590030    1.761330
  C     10.009660  -15.737380    1.582500
  C      7.108150  -15.724290    1.376640
  C      5.812420  -15.582470    0.827880
  C      5.310950  -14.307720    0.387840
  N      4.075020  -14.502510   -0.032140
  O      3.822180  -15.800900    0.133110
  N      4.852520  -16.469820    0.654040
  C      7.412610  -17.002860    2.033280
  C      7.141660  -18.201530    1.370140
  C      7.295550  -19.391260    2.042560
  C      7.760780  -19.398770    3.369650
  C      8.036120  -18.211470    4.030720
  C      7.847120  -17.017590    3.360040
  C      7.878930  -20.772250    3.808430
  C      7.482360  -21.611600    2.752920
  C      7.035560  -20.797520    1.559100
  C      5.524840  -21.066820    1.355850
  C      4.821700  -20.193850    0.324540
  C      7.851730  -21.137060    0.302380
  C      9.352320  -20.982560    0.525030
  C      7.493630  -22.975090    2.905460
  C      7.964970  -23.529100    4.105470
  C      8.346170  -22.679910    5.155170
  C      8.292540  -21.309450    5.020340
  C      7.994350  -24.958990    4.251580
  C      8.840930  -25.715110    4.992610
  C      8.477530  -27.115480    5.339930
  O      7.594160  -27.781120    4.856060
  C      9.395920  -27.486720    6.441370
  C     10.326420  -26.452200    6.647750
  C     11.275030  -26.560260    7.652600
  C     11.270260  -27.708980    8.428890
  C     10.350840  -28.736940    8.210780
  C      9.398950  -28.634890    7.209330
  F     10.388640  -29.830160    8.980350
  F     12.167400  -27.830510    9.412460
  C     10.093270  -25.403080    5.656560
  C     11.007380  -24.464050    5.264530
  C     10.855910  -23.649110    4.121900
  N     10.826610  -23.008290    3.170650
  C     12.247690  -24.261060    5.905150
  N     13.256030  -24.044790    6.407940
  H     -0.181590   -1.808370    0.182300
  H     -0.883390   -1.003320   -4.689280
  H      0.969000   -5.988190   -4.421280
  H      1.404080   -8.358810   -3.773160
  H      4.224370   -6.581530   -0.089940
  H      2.736720   -5.084290   -1.352970
  H      1.915870  -12.147530   -2.199270
  H      0.989460  -10.815880   -2.900290
  H      1.815040  -11.050440    0.033380
  H      0.202290  -11.339890   -0.616140
  H      0.885790   -9.715130   -0.655360
  H      2.793030  -10.426140   -4.536850
  H      3.713010  -11.758070   -3.835470
  H      4.714570   -8.883510   -4.129310
  H      5.193670  -10.255780   -5.129980
  H      5.631470  -10.213190   -3.420330
  H      4.359920  -12.702630   -1.510490
  H      6.536540  -10.725160    1.596130
  H      5.530960   -8.570510    0.974220
  H      9.803990  -11.210690    0.315850
  H      9.805250  -12.925550   -0.156110
  H     10.152860  -12.463740    1.532720
  H     11.016780  -15.367410    1.382490
  H      9.667110  -16.339970    0.738780
  H     10.027540  -16.360040    2.480090
  H      6.822400  -18.173050    0.341380
  H      8.381910  -18.214430    5.053460
  H      8.013950  -16.079360    3.870200
  H      5.029020  -20.933360    2.320970
  H      5.414770  -22.115820    1.071030
  H      4.802550  -19.153010    0.634910
  H      3.792780  -20.530610    0.217850
  H      5.299130  -20.267720   -0.649010
  H      7.539440  -20.480150   -0.510560
  H      7.631910  -22.164950    0.007420
  H      9.594410  -19.959750    0.807330
  H      9.890930  -21.222510   -0.388810
  H      9.701190  -21.645630    1.312500
  H      7.192030  -23.632270    2.103530
  H      8.645880  -23.113380    6.098800
  H      8.571510  -20.668400    5.842820
  H      7.202710  -25.509870    3.752530
  H     12.001690  -25.791300    7.859020
  H      8.687590  -29.427460    7.040280

 Total Charge           Charge          ....    0
 Multiplicity           Mult            ....    1
 Number of Electrons    NEL             ....  570
 Basis Dimension        Dim             .... 1382

ORBITAL ENERGIES
----------------

  NO   OCC          E(Eh)            E(eV)
   0   2.0000     -24.806953      -675.0315
   1   2.0000     -24.806504      -675.0193
   2   2.0000     -24.803649      -674.9416
   3   2.0000     -24.803251      -674.9308
   4   2.0000     -19.343446      -526.3619
   5   2.0000     -19.265671      -524.2456
   6   2.0000     -19.253299      -523.9089
   7   2.0000     -19.225145      -523.1428
   8   2.0000     -19.221077      -523.0321
   9   2.0000     -14.471278      -393.7835
  10   2.0000     -14.469939      -393.7471
  11   2.0000     -14.424548      -392.5119
  12   2.0000     -14.422373      -392.4527
  13   2.0000     -14.420115      -392.3913
  14   2.0000     -14.417049      -392.3079
  15   2.0000     -10.393322      -282.8167
  16   2.0000     -10.392580      -282.7965
  17   2.0000     -10.389650      -282.7167
  18   2.0000     -10.388944      -282.6975
  19   2.0000     -10.376734      -282.3653
  20   2.0000     -10.372663      -282.2545
  21   2.0000     -10.363238      -281.9981
  22   2.0000     -10.357296      -281.8363
  23   2.0000     -10.353503      -281.7331
  24   2.0000     -10.352277      -281.6998
  25   2.0000     -10.348875      -281.6072
  26   2.0000     -10.347670      -281.5744
  27   2.0000     -10.331982      -281.1475
  28   2.0000     -10.326644      -281.0023
  29   2.0000     -10.324590      -280.9464
  30   2.0000     -10.324452      -280.9426
  31   2.0000     -10.324341      -280.9396
  32   2.0000     -10.322254      -280.8828
  33   2.0000     -10.321406      -280.8597
  34   2.0000     -10.320496      -280.8350
  35   2.0000     -10.319812      -280.8164
  36   2.0000     -10.318856      -280.7903
  37   2.0000     -10.318462      -280.7796
  38   2.0000     -10.317250      -280.7467
  39   2.0000     -10.315592      -280.7015
  40   2.0000     -10.315317      -280.6941
  41   2.0000     -10.311913      -280.6014
  42   2.0000     -10.311747      -280.5969
  43   2.0000     -10.309697      -280.5411
  44   2.0000     -10.305793      -280.4349
  45   2.0000     -10.303393      -280.3696
  46   2.0000     -10.300262      -280.2844
  47   2.0000     -10.298780      -280.2440
  48   2.0000     -10.295962      -280.1674
  49   2.0000     -10.294416      -280.1253
  50   2.0000     -10.291870      -280.0560
  51   2.0000     -10.289310      -279.9864
  52   2.0000     -10.287523      -279.9377
  53   2.0000     -10.285604      -279.8855
  54   2.0000     -10.285267      -279.8763
  55   2.0000     -10.283303      -279.8229
  56   2.0000     -10.282788      -279.8089
  57   2.0000     -10.282555      -279.8026
  58   2.0000     -10.281269      -279.7676
  59   2.0000     -10.280916      -279.7579
  60   2.0000     -10.280336      -279.7422
  61   2.0000     -10.279997      -279.7330
  62   2.0000     -10.279710      -279.7251
  63   2.0000     -10.279370      -279.7159
  64   2.0000     -10.278380      -279.6889
  65   2.0000     -10.277585      -279.6673
  66   2.0000     -10.276666      -279.6423
  67   2.0000     -10.275706      -279.6162
  68   2.0000     -10.274051      -279.5711
  69   2.0000     -10.272308      -279.5237
  70   2.0000     -10.269261      -279.4408
  71   2.0000     -10.268741      -279.4267
  72   2.0000     -10.265138      -279.3286
  73   2.0000     -10.264771      -279.3186
  74   2.0000     -10.263840      -279.2933
  75   2.0000     -10.263759      -279.2911
  76   2.0000     -10.263222      -279.2765
  77   2.0000     -10.260766      -279.2096
  78   2.0000     -10.252718      -278.9906
  79   2.0000     -10.245910      -278.8054
  80   2.0000     -10.243878      -278.7501
  81   2.0000     -10.240949      -278.6704
  82   2.0000     -10.226992      -278.2906
  83   2.0000      -1.330812       -36.2132
  84   2.0000      -1.327348       -36.1190
  85   2.0000      -1.315525       -35.7973
  86   2.0000      -1.312090       -35.7038
  87   2.0000      -1.296765       -35.2868
  88   2.0000      -1.176233       -32.0069
  89   2.0000      -1.149515       -31.2799
  90   2.0000      -1.140985       -31.0478
  91   2.0000      -1.136747       -30.9325
  92   2.0000      -1.029217       -28.0064
  93   2.0000      -1.024765       -27.8853
  94   2.0000      -1.009726       -27.4760
  95   2.0000      -1.005386       -27.3579
  96   2.0000      -1.004495       -27.3337
  97   2.0000      -1.002368       -27.2758
  98   2.0000      -0.998613       -27.1737
  99   2.0000      -0.997389       -27.1403
 100   2.0000      -0.993651       -27.0386
 101   2.0000      -0.987974       -26.8841
 102   2.0000      -0.967537       -26.3280
 103   2.0000      -0.962820       -26.1997
 104   2.0000      -0.954523       -25.9739
 105   2.0000      -0.946879       -25.7659
 106   2.0000      -0.928828       -25.2747
 107   2.0000      -0.921150       -25.0658
 108   2.0000      -0.911176       -24.7944
 109   2.0000      -0.908653       -24.7257
 110   2.0000      -0.906267       -24.6608
 111   2.0000      -0.897108       -24.4116
 112   2.0000      -0.891179       -24.2502
 113   2.0000      -0.884354       -24.0645
 114   2.0000      -0.881577       -23.9889
 115   2.0000      -0.877889       -23.8886
 116   2.0000      -0.866888       -23.5892
 117   2.0000      -0.851819       -23.1792
 118   2.0000      -0.845523       -23.0079
 119   2.0000      -0.839142       -22.8342
 120   2.0000      -0.838299       -22.8113
 121   2.0000      -0.833392       -22.6777
 122   2.0000      -0.832525       -22.6542
 123   2.0000      -0.831069       -22.6145
 124   2.0000      -0.825539       -22.4641
 125   2.0000      -0.815633       -22.1945
 126   2.0000      -0.811514       -22.0824
 127   2.0000      -0.800543       -21.7839
 128   2.0000      -0.788373       -21.4527
 129   2.0000      -0.781978       -21.2787
 130   2.0000      -0.776778       -21.1372
 131   2.0000      -0.772529       -21.0216
 132   2.0000      -0.768103       -20.9011
 133   2.0000      -0.757132       -20.6026
 134   2.0000      -0.745935       -20.2979
 135   2.0000      -0.739733       -20.1292
 136   2.0000      -0.731049       -19.8928
 137   2.0000      -0.728381       -19.8203
 138   2.0000      -0.722097       -19.6493
 139   2.0000      -0.721270       -19.6268
 140   2.0000      -0.711486       -19.3605
 141   2.0000      -0.710159       -19.3244
 142   2.0000      -0.701213       -19.0810
 143   2.0000      -0.696824       -18.9616
 144   2.0000      -0.693523       -18.8717
 145   2.0000      -0.689150       -18.7527
 146   2.0000      -0.688099       -18.7241
 147   2.0000      -0.681262       -18.5381
 148   2.0000      -0.676747       -18.4152
 149   2.0000      -0.674180       -18.3454
 150   2.0000      -0.668007       -18.1774
 151   2.0000      -0.666107       -18.1257
 152   2.0000      -0.659860       -17.9557
 153   2.0000      -0.656650       -17.8684
 154   2.0000      -0.655068       -17.8253
 155   2.0000      -0.649119       -17.6634
 156   2.0000      -0.646102       -17.5813
 157   2.0000      -0.645239       -17.5579
 158   2.0000      -0.640150       -17.4194
 159   2.0000      -0.636169       -17.3110
 160   2.0000      -0.625504       -17.0208
 161   2.0000      -0.619698       -16.8628
 162   2.0000      -0.614343       -16.7171
 163   2.0000      -0.610908       -16.6236
 164   2.0000      -0.610592       -16.6150
 165   2.0000      -0.606128       -16.4936
 166   2.0000      -0.601826       -16.3765
 167   2.0000      -0.600649       -16.3445
 168   2.0000      -0.598519       -16.2865
 169   2.0000      -0.595539       -16.2054
 170   2.0000      -0.594618       -16.1804
 171   2.0000      -0.593040       -16.1374
 172   2.0000      -0.592010       -16.1094
 173   2.0000      -0.581700       -15.8289
 174   2.0000      -0.577224       -15.7071
 175   2.0000      -0.575157       -15.6508
 176   2.0000      -0.569794       -15.5049
 177   2.0000      -0.562832       -15.3154
 178   2.0000      -0.559196       -15.2165
 179   2.0000      -0.557871       -15.1804
 180   2.0000      -0.557298       -15.1648
 181   2.0000      -0.555404       -15.1133
 182   2.0000      -0.555098       -15.1050
 183   2.0000      -0.552078       -15.0228
 184   2.0000      -0.551512       -15.0074
 185   2.0000      -0.549187       -14.9441
 186   2.0000      -0.544437       -14.8149
 187   2.0000      -0.541779       -14.7425
 188   2.0000      -0.540512       -14.7081
 189   2.0000      -0.538374       -14.6499
 190   2.0000      -0.537809       -14.6345
 191   2.0000      -0.536270       -14.5926
 192   2.0000      -0.534013       -14.5312
 193   2.0000      -0.532915       -14.5014
 194   2.0000      -0.532233       -14.4828
 195   2.0000      -0.529995       -14.4219
 196   2.0000      -0.526998       -14.3403
 197   2.0000      -0.526088       -14.3156
 198   2.0000      -0.524259       -14.2658
 199   2.0000      -0.522590       -14.2204
 200   2.0000      -0.519727       -14.1425
 201   2.0000      -0.518430       -14.1072
 202   2.0000      -0.515246       -14.0205
 203   2.0000      -0.511620       -13.9219
 204   2.0000      -0.510649       -13.8955
 205   2.0000      -0.507847       -13.8192
 206   2.0000      -0.506279       -13.7765
 207   2.0000      -0.504172       -13.7192
 208   2.0000      -0.502792       -13.6817
 209   2.0000      -0.501148       -13.6369
 210   2.0000      -0.499966       -13.6048
 211   2.0000      -0.498542       -13.5660
 212   2.0000      -0.496913       -13.5217
 213   2.0000      -0.491753       -13.3813
 214   2.0000      -0.488737       -13.2992
 215   2.0000      -0.486057       -13.2263
 216   2.0000      -0.481508       -13.1025
 217   2.0000      -0.479750       -13.0547
 218   2.0000      -0.475358       -12.9351
 219   2.0000      -0.473917       -12.8959
 220   2.0000      -0.472006       -12.8439
 221   2.0000      -0.466394       -12.6912
 222   2.0000      -0.465123       -12.6566
 223   2.0000      -0.461644       -12.5620
 224   2.0000      -0.461176       -12.5492
 225   2.0000      -0.461081       -12.5467
 226   2.0000      -0.459971       -12.5164
 227   2.0000      -0.459623       -12.5070
 228   2.0000      -0.457417       -12.4470
 229   2.0000      -0.456121       -12.4117
 230   2.0000      -0.455142       -12.3850
 231   2.0000      -0.453413       -12.3380
 232   2.0000      -0.451832       -12.2950
 233   2.0000      -0.451443       -12.2844
 234   2.0000      -0.448558       -12.2059
 235   2.0000      -0.443977       -12.0812
 236   2.0000      -0.442631       -12.0446
 237   2.0000      -0.440873       -11.9968
 238   2.0000      -0.439092       -11.9483
 239   2.0000      -0.436326       -11.8730
 240   2.0000      -0.436107       -11.8671
 241   2.0000      -0.433456       -11.7949
 242   2.0000      -0.432058       -11.7569
 243   2.0000      -0.431399       -11.7390
 244   2.0000      -0.430488       -11.7142
 245   2.0000      -0.426627       -11.6091
 246   2.0000      -0.426007       -11.5922
 247   2.0000      -0.423607       -11.5269
 248   2.0000      -0.420893       -11.4531
 249   2.0000      -0.417196       -11.3525
 250   2.0000      -0.416187       -11.3250
 251   2.0000      -0.414443       -11.2776
 252   2.0000      -0.412026       -11.2118
 253   2.0000      -0.411492       -11.1973
 254   2.0000      -0.410753       -11.1772
 255   2.0000      -0.409785       -11.1508
 256   2.0000      -0.403254       -10.9731
 257   2.0000      -0.397881       -10.8269
 258   2.0000      -0.396805       -10.7976
 259   2.0000      -0.393344       -10.7034
 260   2.0000      -0.390091       -10.6149
 261   2.0000      -0.386344       -10.5130
 262   2.0000      -0.386087       -10.5060
 263   2.0000      -0.383997       -10.4491
 264   2.0000      -0.381219       -10.3735
 265   2.0000      -0.378567       -10.3013
 266   2.0000      -0.377285       -10.2664
 267   2.0000      -0.375073       -10.2063
 268   2.0000      -0.371566       -10.1108
 269   2.0000      -0.357052        -9.7159
 270   2.0000      -0.353450        -9.6179
 271   2.0000      -0.348452        -9.4818
 272   2.0000      -0.344669        -9.3789
 273   2.0000      -0.339069        -9.2265
 274   2.0000      -0.335379        -9.1261
 275   2.0000      -0.329965        -8.9788
 276   2.0000      -0.323960        -8.8154
 277   2.0000      -0.322626        -8.7791
 278   2.0000      -0.319513        -8.6944
 279   2.0000      -0.316889        -8.6230
 280   2.0000      -0.313067        -8.5190
 281   2.0000      -0.309974        -8.4348
 282   2.0000      -0.297513        -8.0958
 283   2.0000      -0.277405        -7.5486
 284   2.0000      -0.258225        -7.0267
 285   0.0000      -0.093269        -2.5380
 286   0.0000      -0.088987        -2.4215
 287   0.0000      -0.066430        -1.8076
 288   0.0000      -0.062525        -1.7014
 289   0.0000      -0.052179        -1.4199

MULLIKEN ATOMIC CHARGES
-----------------------
   0 C :   -0.091088
   1 C :    0.237491
   2 F :   -0.164464
   3 C :    0.235494
   4 F :   -0.168093
   5 C :   -0.104472
   6 C :    0.011863
   7 C :    0.024874
   8 C :    0.251721
   9 C :   -0.325338
  10 C :   -0.185745
  11 N :    0.162870
  12 C :   -0.196250
  13 N :    0.204489
  14 C :   -0.116155
  15 C :    0.135617
  16 O :   -0.135778
  17 C :    0.032431
  18 C :    0.050258
  19 C :   -0.071344
  20 C :    0.022125
  21 C :    0.132063
  22 C :   -0.050006
  23 C :    0.018191
  24 C :    0.114364
  25 C :   -0.001305
  26 C :   -0.140009
  27 C :    0.066806
  28 C :    0.017112
  29 C :    0.064837
  30 C :    0.027682
  31 C :   -0.067593
  32 C :    0.033300
  33 C :    0.011555
  34 C :   -0.056927
  35 C :    0.025264
  36 C :    0.116762
  37 O :   -0.319241
  38 C :    0.206486
  39 C :    0.078810
  40 O :   -0.332339
  41 C :    0.200360
  42 C :    0.028732
  43 C :   -0.053462
  44 C :   -0.043096
  45 N :    0.035254
  46 O :   -0.105704
  47 N :    0.050405
  48 C :   -0.044470
  49 C :   -0.039929
  50 C :    0.015324
  51 C :    0.106824
  52 C :   -0.059560
  53 C :    0.005010
  54 C :    0.123409
  55 C :    0.023888
  56 C :   -0.132368
  57 C :    0.074102
  58 C :    0.022529
  59 C :    0.057251
  60 C :    0.016480
  61 C :   -0.066608
  62 C :    0.049753
  63 C :    0.018829
  64 C :   -0.048880
  65 C :    0.035951
  66 C :   -0.120393
  67 C :    0.137024
  68 O :   -0.133676
  69 C :    0.011257
  70 C :    0.023834
  71 C :   -0.086651
  72 C :    0.236466
  73 C :    0.235238
  74 C :   -0.101224
  75 F :   -0.166918
  76 F :   -0.164266
  77 C :    0.253886
  78 C :   -0.325595
  79 C :   -0.194020
  80 N :    0.198072
  81 C :   -0.186737
  82 N :    0.162606
  83 H :    0.018469
  84 H :    0.014536
  85 H :    0.026710
  86 H :   -0.030064
  87 H :   -0.030911
  88 H :   -0.012867
  89 H :    0.006718
  90 H :   -0.006205
  91 H :    0.018406
  92 H :    0.004594
  93 H :    0.032318
  94 H :   -0.002727
  95 H :    0.002058
  96 H :    0.016741
  97 H :    0.007483
  98 H :    0.019867
  99 H :   -0.023565
 100 H :   -0.018779
 101 H :   -0.037783
 102 H :    0.030966
 103 H :    0.010275
 104 H :    0.034404
 105 H :    0.030342
 106 H :    0.033385
 107 H :    0.038967
 108 H :   -0.026451
 109 H :   -0.032319
 110 H :   -0.013995
 111 H :    0.003849
 112 H :   -0.006866
 113 H :    0.041566
 114 H :    0.009855
 115 H :   -0.002032
 116 H :    0.005073
 117 H :   -0.002711
 118 H :    0.004422
 119 H :    0.005000
 120 H :    0.037199
 121 H :   -0.029586
 122 H :   -0.012635
 123 H :   -0.030673
 124 H :    0.028144
 125 H :    0.018079
 126 H :    0.015495
Sum of atomic charges:   -0.0000000

LOEWDIN ATOMIC CHARGES
----------------------
   0 C :   -0.020255
   1 C :    0.074864
   2 F :   -0.042634
   3 C :    0.070384
   4 F :   -0.044892
   5 C :   -0.004613
   6 C :   -0.046657
   7 C :   -0.012995
   8 C :    0.066787
   9 C :   -0.130482
  10 C :   -0.021418
  11 N :   -0.045830
  12 C :   -0.010276
  13 N :   -0.029353
  14 C :   -0.098448
  15 C :    0.084078
  16 O :   -0.136350
  17 C :    0.088949
  18 C :   -0.047656
  19 C :    0.005352
  20 C :    0.010952
  21 C :    0.009979
  22 C :   -0.015512
  23 C :   -0.002085
  24 C :   -0.020379
  25 C :    0.006245
  26 C :   -0.035984
  27 C :   -0.010105
  28 C :   -0.061592
  29 C :   -0.012101
  30 C :   -0.058611
  31 C :   -0.009227
  32 C :   -0.014130
  33 C :   -0.006317
  34 C :   -0.019050
  35 C :   -0.049684
  36 C :    0.055312
  37 O :   -0.093860
  38 C :    0.081117
  39 C :    0.046495
  40 O :   -0.096739
  41 C :    0.082793
  42 C :   -0.072648
  43 C :   -0.048610
  44 C :   -0.049305
  45 N :   -0.031067
  46 O :    0.064335
  47 N :   -0.031085
  48 C :   -0.019994
  49 C :   -0.007392
  50 C :    0.012126
  51 C :   -0.017343
  52 C :   -0.017478
  53 C :   -0.017585
  54 C :    0.006198
  55 C :    0.013166
  56 C :   -0.035250
  57 C :   -0.009280
  58 C :   -0.061631
  59 C :   -0.013887
  60 C :   -0.060664
  61 C :    0.006341
  62 C :   -0.045575
  63 C :   -0.002458
  64 C :   -0.014699
  65 C :    0.088767
  66 C :   -0.096828
  67 C :    0.084408
  68 O :   -0.134088
  69 C :   -0.046385
  70 C :   -0.013487
  71 C :   -0.019959
  72 C :    0.075456
  73 C :    0.071127
  74 C :   -0.003807
  75 F :   -0.043660
  76 F :   -0.041851
  77 C :    0.067809
  78 C :   -0.130722
  79 C :   -0.009635
  80 N :   -0.033940
  81 C :   -0.021676
  82 N :   -0.045266
  83 H :    0.051557
  84 H :    0.052910
  85 H :    0.047461
  86 H :    0.029080
  87 H :    0.029553
  88 H :    0.028203
  89 H :    0.022962
  90 H :    0.017930
  91 H :    0.024636
  92 H :    0.024290
  93 H :    0.023957
  94 H :    0.019403
  95 H :    0.022154
  96 H :    0.023280
  97 H :    0.023350
  98 H :    0.024902
  99 H :    0.025880
 100 H :    0.027444
 101 H :    0.026064
 102 H :    0.023669
 103 H :    0.013483
 104 H :    0.016367
 105 H :    0.023260
 106 H :    0.023344
 107 H :    0.022530
 108 H :    0.029253
 109 H :    0.028198
 110 H :    0.030169
 111 H :    0.025830
 112 H :    0.018097
 113 H :    0.026923
 114 H :    0.028034
 115 H :    0.018256
 116 H :    0.019216
 117 H :    0.020244
 118 H :    0.019350
 119 H :    0.023477
 120 H :    0.026386
 121 H :    0.029111
 122 H :    0.028502
 123 H :    0.029585
 124 H :    0.048100
 125 H :    0.051653
 126 H :    0.053399

  Mayer bond orders larger than 0.100000
B(  0-C ,  1-C ) :   1.3377 B(  0-C ,  5-C ) :   0.1051 B(  0-C ,  7-C ) :   1.3158
B(  0-C , 83-H ) :   0.9957 B(  1-C ,  2-F ) :   1.1424 B(  1-C ,  3-C ) :   1.2871
B(  3-C ,  4-F ) :   1.1314 B(  3-C ,  5-C ) :   1.3227 B(  5-C ,  6-C ) :   1.3183
B(  5-C , 84-H ) :   1.0205 B(  6-C ,  7-C ) :   1.3438 B(  6-C , 15-C ) :   0.9263
B(  7-C ,  8-C ) :   1.0185 B(  8-C ,  9-C ) :   1.6764 B(  8-C , 14-C ) :   1.0238
B(  9-C , 10-C ) :   1.1282 B(  9-C , 12-C ) :   1.1484 B( 10-C , 11-N ) :   2.9971
B( 12-C , 13-N ) :   3.0074 B( 14-C , 15-C ) :   0.9407 B( 14-C , 17-C ) :   1.6863
B( 15-C , 16-O ) :   2.2781 B( 17-C , 18-C ) :   1.0466 B( 17-C , 85-H ) :   0.9474
B( 18-C , 19-C ) :   1.2815 B( 18-C , 23-C ) :   1.3321 B( 19-C , 20-C ) :   1.3895
B( 19-C , 86-H ) :   1.0125 B( 20-C , 21-C ) :   1.3571 B( 20-C , 26-C ) :   0.9125
B( 21-C , 22-C ) :   1.3312 B( 21-C , 24-C ) :   0.9974 B( 22-C , 23-C ) :   1.3989
B( 22-C , 87-H ) :   0.9933 B( 23-C , 88-H ) :   0.9835 B( 24-C , 25-C ) :   1.3666
B( 24-C , 34-C ) :   1.3341 B( 25-C , 26-C ) :   0.9160 B( 25-C , 31-C ) :   1.3934
B( 26-C , 27-C ) :   1.0365 B( 26-C , 29-C ) :   1.0397 B( 27-C , 28-C ) :   1.1010
B( 27-C , 89-H ) :   0.9387 B( 27-C , 90-H ) :   0.9385 B( 28-C , 91-H ) :   0.9608
B( 28-C , 92-H ) :   0.9587 B( 28-C , 93-H ) :   0.9552 B( 29-C , 30-C ) :   1.1007
B( 29-C , 94-H ) :   0.9390 B( 29-C , 95-H ) :   0.9398 B( 30-C , 96-H ) :   0.9637
B( 30-C , 97-H ) :   0.9640 B( 30-C , 98-H ) :   0.9642 B( 31-C , 32-C ) :   1.3371
B( 31-C , 99-H ) :   0.9939 B( 32-C , 33-C ) :   1.3770 B( 32-C , 35-C ) :   0.9638
B( 33-C , 34-C ) :   1.3862 B( 33-C ,100-H ) :   0.9847 B( 34-C ,101-H ) :   0.9924
B( 35-C , 36-C ) :   1.5385 B( 35-C , 42-C ) :   0.1111 B( 35-C , 44-C ) :   1.1720
B( 36-C , 37-O ) :   1.1980 B( 36-C , 39-C ) :   1.0589 B( 37-O , 38-C ) :   0.9257
B( 38-C ,102-H ) :   0.9771 B( 38-C ,103-H ) :   0.9738 B( 38-C ,104-H ) :   0.9748
B( 39-C , 40-O ) :   1.1796 B( 39-C , 42-C ) :   1.4594 B( 40-O , 41-C ) :   0.9289
B( 41-C ,105-H ) :   0.9729 B( 41-C ,106-H ) :   0.9623 B( 41-C ,107-H ) :   0.9674
B( 42-C , 43-C ) :   1.1805 B( 42-C , 48-C ) :   0.9233 B( 43-C , 44-C ) :   1.1311
B( 43-C , 47-N ) :   1.6132 B( 44-C , 45-N ) :   1.5931 B( 45-N , 46-O ) :   1.0535
B( 45-N , 47-N ) :   0.1771 B( 46-O , 47-N ) :   1.0510 B( 48-C , 49-C ) :   1.3402
B( 48-C , 53-C ) :   1.4016 B( 49-C , 50-C ) :   1.3906 B( 49-C ,108-H ) :   1.0015
B( 50-C , 51-C ) :   1.3754 B( 50-C , 56-C ) :   0.9178 B( 51-C , 52-C ) :   1.3411
B( 51-C , 54-C ) :   0.9962 B( 52-C , 53-C ) :   1.3676 B( 52-C ,109-H ) :   0.9931
B( 53-C ,110-H ) :   0.9885 B( 54-C , 55-C ) :   1.3687 B( 54-C , 64-C ) :   1.3305
B( 55-C , 56-C ) :   0.9214 B( 55-C , 61-C ) :   1.3874 B( 56-C , 57-C ) :   1.0123
B( 56-C , 59-C ) :   1.0314 B( 57-C , 58-C ) :   1.1171 B( 57-C ,111-H ) :   0.9385
B( 57-C ,112-H ) :   0.9359 B( 58-C ,113-H ) :   0.9541 B( 58-C ,114-H ) :   0.9554
B( 58-C ,115-H ) :   0.9607 B( 59-C , 60-C ) :   1.0986 B( 59-C ,116-H ) :   0.9384
B( 59-C ,117-H ) :   0.9393 B( 60-C ,118-H ) :   0.9618 B( 60-C ,119-H ) :   0.9609
B( 60-C ,120-H ) :   0.9554 B( 61-C , 62-C ) :   1.2883 B( 61-C ,121-H ) :   1.0091
B( 62-C , 63-C ) :   1.3347 B( 62-C , 65-C ) :   1.0404 B( 63-C , 64-C ) :   1.4014
B( 63-C ,122-H ) :   0.9836 B( 64-C ,123-H ) :   0.9920 B( 65-C , 66-C ) :   1.6959
B( 65-C ,124-H ) :   0.9474 B( 66-C , 67-C ) :   0.9378 B( 66-C , 77-C ) :   1.0229
B( 67-C , 68-O ) :   2.2799 B( 67-C , 69-C ) :   0.9251 B( 69-C , 70-C ) :   1.3439
B( 69-C , 74-C ) :   1.3198 B( 70-C , 71-C ) :   1.3153 B( 70-C , 77-C ) :   1.0201
B( 71-C , 72-C ) :   1.3398 B( 71-C , 74-C ) :   0.1047 B( 71-C ,125-H ) :   0.9953
B( 72-C , 73-C ) :   1.2862 B( 72-C , 76-F ) :   1.1428 B( 73-C , 74-C ) :   1.3233
B( 73-C , 75-F ) :   1.1331 B( 74-C ,126-H ) :   1.0197 B( 77-C , 78-C ) :   1.6768
B( 78-C , 79-C ) :   1.1491 B( 78-C , 81-C ) :   1.1276 B( 79-C , 80-N ) :   3.0068
B( 81-C , 82-N ) :   2.9970

-----------------------------------------------------------------------------
         ABSORPTION SPECTRUM VIA TRANSITION ELECTRIC DIPOLE MOMENTS
-----------------------------------------------------------------------------
State   Energy  Wavelength   fosc         T2         TX        TY        TZ
        (cm-1)    (nm)                  (au**2)     (au)      (au)      (au)
-----------------------------------------------------------------------------
   0   21203.8    471.6   0.916535124  14.23023   2.12739  -3.07565   0.49480
   1   22089.4    452.7   0.339856020   5.06509   0.87313  -1.82610   0.98391
   2   26824.3    372.8   0.880846596  10.81053   1.00114  -2.84763   1.30355
   3   28582.7    349.9   0.054723206   0.63029   0.76132  -0.07116   0.21359
   4   29184.6    342.6   0.089180471   1.00599  -0.30355   0.89030  -0.34815
   5   29367.2    340.5   0.051123436   0.57310  -0.12393   0.74542  -0.04572
   6   30293.1    330.1   0.063277632   0.68767   0.45170   0.29262  -0.63088
   7   30869.7    323.9   0.047764798   0.50939   0.15701  -0.29747   0.62949
   8   30954.0    323.1   0.118716356   1.26261  -0.26368  -0.95863   0.52355
   9   31157.7    320.9   0.029943045   0.31638  -0.26889   0.09443  -0.48493
  10   31246.8    320.0   0.116614146   1.22863   0.47451  -1.00173   0.00380
  11   32385.9    308.8   0.093602902   0.95150   0.64485   0.72102  -0.12569
  12   32506.4    307.6   0.226854340   2.29749  -0.04835   1.29805  -0.78117
  13   32666.7    306.1   0.498385596   5.02268  -0.09697   1.97108  -1.06213
  14   32718.3    305.6   0.015334125   0.15429  -0.28491   0.14946   0.22534
  15   33083.4    302.3   0.009929514   0.09881   0.05850   0.28017   0.12996
  16   33581.5    297.8   0.020744250   0.20336   0.42103   0.00456   0.16149
  17   34833.6    287.1   0.028604382   0.27034   0.48136  -0.12184   0.15422
  18   34993.1    285.8   0.008691226   0.08177  -0.02112   0.12983   0.25390
  19   35362.1    282.8   0.022763593   0.21192  -0.23569  -0.26211  -0.29609
  20   35496.9    281.7   0.036800420   0.34130  -0.09963  -0.43275   0.37961
  21   36457.1    274.3   0.063542914   0.57380  -0.60304  -0.28255   0.36099
  22   36692.2    272.5   0.131271156   1.17780   0.59065   0.86626  -0.28021
  23   36842.7    271.4   0.059472287   0.53142   0.40694   0.57473  -0.18843
  24   36880.4    271.1   0.549298249   4.90330   0.16407  -1.76854   1.32236
  25   37290.9    268.2   0.077149933   0.68110   0.56081  -0.40442   0.45059
  26   37955.1    263.5   0.402514966   3.49130  -0.05290  -1.71501   0.73976
  27   38107.5    262.4   0.135882134   1.17389  -0.70191   0.37763  -0.73390
  28   38516.8    259.6   0.010536968   0.09006   0.13375   0.24547   0.10916
  29   38615.3    259.0   0.077352531   0.65946   0.39394   0.47057  -0.53182
  30   38695.2    258.4   0.108274168   0.92118  -0.92534  -0.18623  -0.17389
  31   39147.0    255.4   0.031805231   0.26747  -0.20065   0.42160   0.22242
  32   39357.2    254.1   0.133583670   1.11739  -0.12627   1.04135   0.13051
  33   39644.6    252.2   0.106006374   0.88029  -0.26661   0.78258   0.44359
  34   39722.1    251.7   0.272312813   2.25689   0.40930  -1.20283   0.80161
  35   39966.6    250.2   0.013713925   0.11296   0.29133   0.07755   0.14858

FINAL SINGLE POINT ENERGY     -3716.954650928387

DIPOLE MOMENT
-------------
                                X             Y             Z
Electronic contribution:    -12.55290      13.77797      51.04155
Nuclear contribution   :     14.43305     -14.08509     -51.65619
                        -----------------------------------------
Total Dipole Moment    :      1.88015      -0.30711      -0.61464
                        -----------------------------------------
Magnitude (a.u.)       :      2.00176
Magnitude (Debye)      :      5.08808

Rotational constants in cm-1:     0.002926     0.000150     0.000150
Rotational constants in MHz :    87.726200     4.498537     4.487163

                             ****ORCA TERMINATED NORMALLY****
TOTAL RUN TIME: 0 days 0 hours 25 minutes 25 seconds 560 msec
