                         Program Version 4.2.0 -  RELEASE  -
|  1> # ORCA input file
|  2> # SCF done       -156.541519756246          0.000199669313
|  3> ! CAM-B3LYP def2-SVP def2/J RIJCOSX Grid4 TightSCF
|  4> %maxcore 5000
|  5> %tddft
|  6>     Mode sTDDFT
|  7>     Ethresh 5.0
|  8>     maxcore 5000
|  9> end
| 10>
| 11> %pal
| 12>   nprocs 6
| 13>   end
| 14> * xyz 0 1
| 15>    N       -1.43744        -0.30340        -0.74803
| 16>    C       -1.32623        -0.21403        -2.13383
| 17>    O       -2.02061         0.47546        -2.83676
| 18>    C       -0.22380        -1.11392        -2.48456
| 19>    C        0.27899        -1.69307        -1.36964
| 20>    C       -0.51711        -1.16511        -0.20259
| 21>    O       -0.41757        -1.40147         0.97527
| 22>    C        1.36475        -2.63593        -1.24850
| 23>    C        1.66546        -3.23113        -0.01184
| 24>    C        2.70049        -4.12776         0.07064
| 25>    C        3.46616        -4.45606        -1.06234
| 26>    C        3.17939        -3.87034        -2.28990
| 27>    C        2.13744        -2.97247        -2.37315
| 28>    C        4.47172        -5.41825        -0.67548
| 29>    C        4.32283        -5.69421         0.69619
| 30>    C        3.19520        -4.87914         1.28363
| 31>    C        2.09525        -5.77501         1.88073
| 32>    C        1.53851        -6.77571         0.87536
| 33>    C        3.70984        -3.90789         2.36347
| 34>    C        4.80903        -2.98346         1.85397
| 35>    C        5.14648        -6.59391         1.32360
| 36>    C        6.15527        -7.24066         0.59243
| 37>    C        6.30024        -6.94582        -0.77074
| 38>    C        5.46832        -6.04790        -1.40785
| 39>    C        7.01285        -8.19825         1.24743
| 40>    N        8.25626        -8.53686         0.75423
| 41>    C        8.81644        -9.45680         1.58529
| 42>    C        9.95354       -10.23624         1.80415
| 43>    C        9.69538       -10.97996         2.95541
| 44>    N        8.43568       -10.66654         3.42739
| 45>    C        7.88615        -9.72947         2.61121
| 46>    C        6.75933        -8.93132         2.40350
| 47>    C       10.49824       -11.94121         3.63732
| 48>    C       11.78717       -12.21730         3.35968
| 49>    C       12.61374       -13.18182         4.04932
| 50>    C       14.00858       -13.08246         3.92369
| 51>    C       14.82452       -13.96474         4.59000
| 52>    C       14.26528       -15.01055         5.34463
| 53>    C       12.88936       -15.13167         5.46492
| 54>    C       12.07800       -14.21249         4.83119
| 55>    C       15.33812       -15.84493         5.84812
| 56>    C       16.55781       -15.31074         5.40628
| 57>    C       16.33490       -14.02510         4.63977
| 58>    C       16.91803       -12.88846         5.51408
| 59>    C       16.65240       -11.47158         5.02340
| 60>    C       16.97284       -14.05376         3.24471
| 61>    C       16.49841       -15.24308         2.41745
| 62>    C       17.74899       -15.92486         5.71903
| 63>    C       17.71432       -17.08221         6.49369
| 64>    C       16.50930       -17.61264         6.94168
| 65>    C       15.31313       -16.99965         6.61381
| 66>    N       18.93210       -17.72258         6.83854
| 67>    C       20.08743       -17.05257         7.22483
| 68>    O       20.22156       -15.86116         7.31943
| 69>    C       21.09696       -18.11605         7.50308
| 70>    C       20.54019       -19.30258         7.28681
| 71>    C       19.12763       -19.09925         6.84860
| 72>    O       18.31807       -19.93557         6.54782
| 73>    H       -2.11406         0.20919        -0.20326
| 74>    H        0.08027        -1.25077        -3.50431
| 75>    H        1.08103        -2.97975         0.85762
| 76>    H        3.76250        -4.11348        -3.16569
| 77>    H        1.91457        -2.51032        -3.32183
| 78>    H        1.28693        -5.13797         2.24472
| 79>    H        2.50919        -6.31297         2.73623
| 80>    H        1.09983        -6.26034         0.02382
| 81>    H        0.76834        -7.38560         1.34188
| 82>    H        2.32524        -7.43288         0.51080
| 83>    H        4.08899        -4.49094         3.20544
| 84>    H        2.86980        -3.30866         2.71967
| 85>    H        5.66555        -3.55767         1.50703
| 86>    H        5.13860        -2.32093         2.65091
| 87>    H        4.44681        -2.37411         1.02897
| 88>    H        5.04048        -6.79948         2.37733
| 89>    H        7.05959        -7.45403        -1.34769
| 90>    H        5.59014        -5.84468        -2.46156
| 91>    H        8.69668        -8.09960        -0.03583
| 92>    H       10.84659       -10.27940         1.21450
| 93>    H        8.02275       -11.06339         4.25354
| 94>    H        5.85959        -8.90364         2.98438
| 95>    H       10.00600       -12.45316         4.45473
| 96>    H       12.28093       -11.65184         2.58096
| 97>    H       14.42159       -12.30411         3.29871
| 98>    H       12.45703       -15.93815         6.03865
| 99>    H       11.00645       -14.31354         4.91308
|100>    H       17.99590       -13.04692         5.58938
|101>    H       16.50032       -12.99421         6.51875
|102>    H       17.05107       -11.31520         4.02447
|103>    H       17.13643       -10.76377         5.69308
|104>    H       15.58724       -11.25651         5.01790
|105>    H       18.05869       -14.09360         3.35386
|106>    H       16.72208       -13.13228         2.71766
|107>    H       16.75586       -16.17981         2.90671
|108>    H       16.96420       -15.22768         1.43454
|109>    H       15.41868       -15.21141         2.28836
|110>    H       18.69251       -15.52669         5.38160
|111>    H       16.51149       -18.51002         7.53950
|112>    H       14.37900       -17.41612         6.95834
|113>    H       22.09318       -17.87875         7.82658
|114>    H       20.96590       -20.28374         7.38404
|115> *
|116>
|117>                          ****END OF INPUT****

CARTESIAN COORDINATES (ANGSTROEM)
---------------------------------
  N     -1.437440   -0.303400   -0.748030
  C     -1.326230   -0.214030   -2.133830
  O     -2.020610    0.475460   -2.836760
  C     -0.223800   -1.113920   -2.484560
  C      0.278990   -1.693070   -1.369640
  C     -0.517110   -1.165110   -0.202590
  O     -0.417570   -1.401470    0.975270
  C      1.364750   -2.635930   -1.248500
  C      1.665460   -3.231130   -0.011840
  C      2.700490   -4.127760    0.070640
  C      3.466160   -4.456060   -1.062340
  C      3.179390   -3.870340   -2.289900
  C      2.137440   -2.972470   -2.373150
  C      4.471720   -5.418250   -0.675480
  C      4.322830   -5.694210    0.696190
  C      3.195200   -4.879140    1.283630
  C      2.095250   -5.775010    1.880730
  C      1.538510   -6.775710    0.875360
  C      3.709840   -3.907890    2.363470
  C      4.809030   -2.983460    1.853970
  C      5.146480   -6.593910    1.323600
  C      6.155270   -7.240660    0.592430
  C      6.300240   -6.945820   -0.770740
  C      5.468320   -6.047900   -1.407850
  C      7.012850   -8.198250    1.247430
  N      8.256260   -8.536860    0.754230
  C      8.816440   -9.456800    1.585290
  C      9.953540  -10.236240    1.804150
  C      9.695380  -10.979960    2.955410
  N      8.435680  -10.666540    3.427390
  C      7.886150   -9.729470    2.611210
  C      6.759330   -8.931320    2.403500
  C     10.498240  -11.941210    3.637320
  C     11.787170  -12.217300    3.359680
  C     12.613740  -13.181820    4.049320
  C     14.008580  -13.082460    3.923690
  C     14.824520  -13.964740    4.590000
  C     14.265280  -15.010550    5.344630
  C     12.889360  -15.131670    5.464920
  C     12.078000  -14.212490    4.831190
  C     15.338120  -15.844930    5.848120
  C     16.557810  -15.310740    5.406280
  C     16.334900  -14.025100    4.639770
  C     16.918030  -12.888460    5.514080
  C     16.652400  -11.471580    5.023400
  C     16.972840  -14.053760    3.244710
  C     16.498410  -15.243080    2.417450
  C     17.748990  -15.924860    5.719030
  C     17.714320  -17.082210    6.493690
  C     16.509300  -17.612640    6.941680
  C     15.313130  -16.999650    6.613810
  N     18.932100  -17.722580    6.838540
  C     20.087430  -17.052570    7.224830
  O     20.221560  -15.861160    7.319430
  C     21.096960  -18.116050    7.503080
  C     20.540190  -19.302580    7.286810
  C     19.127630  -19.099250    6.848600
  O     18.318070  -19.935570    6.547820
  H     -2.114060    0.209190   -0.203260
  H      0.080270   -1.250770   -3.504310
  H      1.081030   -2.979750    0.857620
  H      3.762500   -4.113480   -3.165690
  H      1.914570   -2.510320   -3.321830
  H      1.286930   -5.137970    2.244720
  H      2.509190   -6.312970    2.736230
  H      1.099830   -6.260340    0.023820
  H      0.768340   -7.385600    1.341880
  H      2.325240   -7.432880    0.510800
  H      4.088990   -4.490940    3.205440
  H      2.869800   -3.308660    2.719670
  H      5.665550   -3.557670    1.507030
  H      5.138600   -2.320930    2.650910
  H      4.446810   -2.374110    1.028970
  H      5.040480   -6.799480    2.377330
  H      7.059590   -7.454030   -1.347690
  H      5.590140   -5.844680   -2.461560
  H      8.696680   -8.099600   -0.035830
  H     10.846590  -10.279400    1.214500
  H      8.022750  -11.063390    4.253540
  H      5.859590   -8.903640    2.984380
  H     10.006000  -12.453160    4.454730
  H     12.280930  -11.651840    2.580960
  H     14.421590  -12.304110    3.298710
  H     12.457030  -15.938150    6.038650
  H     11.006450  -14.313540    4.913080
  H     17.995900  -13.046920    5.589380
  H     16.500320  -12.994210    6.518750
  H     17.051070  -11.315200    4.024470
  H     17.136430  -10.763770    5.693080
  H     15.587240  -11.256510    5.017900
  H     18.058690  -14.093600    3.353860
  H     16.722080  -13.132280    2.717660
  H     16.755860  -16.179810    2.906710
  H     16.964200  -15.227680    1.434540
  H     15.418680  -15.211410    2.288360
  H     18.692510  -15.526690    5.381600
  H     16.511490  -18.510020    7.539500
  H     14.379000  -17.416120    6.958340
  H     22.093180  -17.878750    7.826580
  H     20.965900  -20.283740    7.384040

 Total Charge           Charge          ....    0
 Multiplicity           Mult            ....    1
 Number of Electrons    NEL             ....  402
 Basis Dimension        Dim             .... 1022

ORBITAL ENERGIES
----------------

  NO   OCC          E(Eh)            E(eV)
   0   2.0000     -19.217296      -522.9292
   1   2.0000     -19.216820      -522.9163
   2   2.0000     -19.211944      -522.7836
   3   2.0000     -19.204125      -522.5708
   4   2.0000     -14.459157      -393.4537
   5   2.0000     -14.445153      -393.0726
   6   2.0000     -14.444642      -393.0587
   7   2.0000     -14.443423      -393.0255
   8   2.0000     -10.396128      -282.8930
   9   2.0000     -10.395780      -282.8836
  10   2.0000     -10.393088      -282.8103
  11   2.0000     -10.385023      -282.5908
  12   2.0000     -10.309127      -280.5256
  13   2.0000     -10.307002      -280.4678
  14   2.0000     -10.306234      -280.4469
  15   2.0000     -10.306079      -280.4427
  16   2.0000     -10.291541      -280.0471
  17   2.0000     -10.289985      -280.0047
  18   2.0000     -10.286206      -279.9019
  19   2.0000     -10.283530      -279.8291
  20   2.0000     -10.280392      -279.7437
  21   2.0000     -10.276871      -279.6479
  22   2.0000     -10.276096      -279.6268
  23   2.0000     -10.275655      -279.6148
  24   2.0000     -10.273790      -279.5640
  25   2.0000     -10.273131      -279.5461
  26   2.0000     -10.272065      -279.5171
  27   2.0000     -10.271458      -279.5006
  28   2.0000     -10.270630      -279.4780
  29   2.0000     -10.268719      -279.4261
  30   2.0000     -10.268064      -279.4082
  31   2.0000     -10.267791      -279.4008
  32   2.0000     -10.266589      -279.3681
  33   2.0000     -10.265809      -279.3469
  34   2.0000     -10.265380      -279.3352
  35   2.0000     -10.264575      -279.3133
  36   2.0000     -10.264410      -279.3088
  37   2.0000     -10.264258      -279.3047
  38   2.0000     -10.264126      -279.3011
  39   2.0000     -10.263749      -279.2908
  40   2.0000     -10.262168      -279.2478
  41   2.0000     -10.261828      -279.2385
  42   2.0000     -10.260795      -279.2104
  43   2.0000     -10.259936      -279.1871
  44   2.0000     -10.259799      -279.1833
  45   2.0000     -10.259239      -279.1681
  46   2.0000     -10.259189      -279.1667
  47   2.0000     -10.258645      -279.1519
  48   2.0000     -10.258252      -279.1412
  49   2.0000     -10.257727      -279.1270
  50   2.0000     -10.256105      -279.0828
  51   2.0000     -10.254834      -279.0482
  52   2.0000     -10.251262      -278.9510
  53   2.0000     -10.249013      -278.8898
  54   2.0000     -10.244051      -278.7548
  55   2.0000     -10.242278      -278.7066
  56   2.0000     -10.241475      -278.6847
  57   2.0000     -10.240201      -278.6500
  58   2.0000      -1.162956       -31.6456
  59   2.0000      -1.152850       -31.3706
  60   2.0000      -1.139661       -31.0117
  61   2.0000      -1.129634       -30.7389
  62   2.0000      -1.075814       -29.2744
  63   2.0000      -1.056471       -28.7480
  64   2.0000      -1.040034       -28.3008
  65   2.0000      -1.037188       -28.2233
  66   2.0000      -0.985443       -26.8153
  67   2.0000      -0.979061       -26.6416
  68   2.0000      -0.946162       -25.7464
  69   2.0000      -0.945238       -25.7212
  70   2.0000      -0.922205       -25.0945
  71   2.0000      -0.919524       -25.0215
  72   2.0000      -0.897551       -24.4236
  73   2.0000      -0.896989       -24.4083
  74   2.0000      -0.883610       -24.0443
  75   2.0000      -0.872619       -23.7452
  76   2.0000      -0.859384       -23.3850
  77   2.0000      -0.850133       -23.1333
  78   2.0000      -0.843590       -22.9552
  79   2.0000      -0.832498       -22.6534
  80   2.0000      -0.832106       -22.6428
  81   2.0000      -0.829560       -22.5735
  82   2.0000      -0.827567       -22.5192
  83   2.0000      -0.826861       -22.5000
  84   2.0000      -0.823321       -22.4037
  85   2.0000      -0.816897       -22.2289
  86   2.0000      -0.798671       -21.7329
  87   2.0000      -0.769372       -20.9357
  88   2.0000      -0.763582       -20.7781
  89   2.0000      -0.758309       -20.6346
  90   2.0000      -0.756329       -20.5807
  91   2.0000      -0.752645       -20.4805
  92   2.0000      -0.738979       -20.1086
  93   2.0000      -0.722148       -19.6506
  94   2.0000      -0.710612       -19.3367
  95   2.0000      -0.706909       -19.2360
  96   2.0000      -0.699775       -19.0419
  97   2.0000      -0.693573       -18.8731
  98   2.0000      -0.691104       -18.8059
  99   2.0000      -0.683274       -18.5928
 100   2.0000      -0.680079       -18.5059
 101   2.0000      -0.675220       -18.3737
 102   2.0000      -0.673186       -18.3183
 103   2.0000      -0.669503       -18.2181
 104   2.0000      -0.659759       -17.9530
 105   2.0000      -0.658223       -17.9112
 106   2.0000      -0.657136       -17.8816
 107   2.0000      -0.651472       -17.7275
 108   2.0000      -0.641922       -17.4676
 109   2.0000      -0.631792       -17.1919
 110   2.0000      -0.628030       -17.0896
 111   2.0000      -0.602963       -16.4075
 112   2.0000      -0.600427       -16.3384
 113   2.0000      -0.591787       -16.1033
 114   2.0000      -0.586148       -15.9499
 115   2.0000      -0.581103       -15.8126
 116   2.0000      -0.579496       -15.7689
 117   2.0000      -0.575798       -15.6683
 118   2.0000      -0.570208       -15.5162
 119   2.0000      -0.561226       -15.2717
 120   2.0000      -0.556236       -15.1359
 121   2.0000      -0.553555       -15.0630
 122   2.0000      -0.551110       -14.9965
 123   2.0000      -0.544324       -14.8118
 124   2.0000      -0.539293       -14.6749
 125   2.0000      -0.539003       -14.6670
 126   2.0000      -0.538300       -14.6479
 127   2.0000      -0.535770       -14.5790
 128   2.0000      -0.532678       -14.4949
 129   2.0000      -0.527875       -14.3642
 130   2.0000      -0.526449       -14.3254
 131   2.0000      -0.523759       -14.2522
 132   2.0000      -0.523375       -14.2418
 133   2.0000      -0.521827       -14.1996
 134   2.0000      -0.517864       -14.0918
 135   2.0000      -0.516579       -14.0568
 136   2.0000      -0.513885       -13.9835
 137   2.0000      -0.512579       -13.9480
 138   2.0000      -0.511769       -13.9259
 139   2.0000      -0.511121       -13.9083
 140   2.0000      -0.509414       -13.8619
 141   2.0000      -0.505721       -13.7614
 142   2.0000      -0.504484       -13.7277
 143   2.0000      -0.501215       -13.6388
 144   2.0000      -0.497928       -13.5493
 145   2.0000      -0.494299       -13.4505
 146   2.0000      -0.489707       -13.3256
 147   2.0000      -0.485413       -13.2088
 148   2.0000      -0.481783       -13.1100
 149   2.0000      -0.480605       -13.0779
 150   2.0000      -0.477243       -12.9865
 151   2.0000      -0.474904       -12.9228
 152   2.0000      -0.471316       -12.8252
 153   2.0000      -0.467617       -12.7245
 154   2.0000      -0.465950       -12.6791
 155   2.0000      -0.465105       -12.6561
 156   2.0000      -0.462001       -12.5717
 157   2.0000      -0.459443       -12.5021
 158   2.0000      -0.454830       -12.3765
 159   2.0000      -0.445640       -12.1265
 160   2.0000      -0.444685       -12.1005
 161   2.0000      -0.440860       -11.9964
 162   2.0000      -0.439027       -11.9465
 163   2.0000      -0.437190       -11.8965
 164   2.0000      -0.434748       -11.8301
 165   2.0000      -0.432729       -11.7751
 166   2.0000      -0.428832       -11.6691
 167   2.0000      -0.425019       -11.5653
 168   2.0000      -0.423366       -11.5204
 169   2.0000      -0.420088       -11.4312
 170   2.0000      -0.420035       -11.4297
 171   2.0000      -0.417544       -11.3620
 172   2.0000      -0.409320       -11.1382
 173   2.0000      -0.406788       -11.0693
 174   2.0000      -0.402536       -10.9536
 175   2.0000      -0.396068       -10.7775
 176   2.0000      -0.393076       -10.6962
 177   2.0000      -0.386872       -10.5273
 178   2.0000      -0.385301       -10.4846
 179   2.0000      -0.384422       -10.4606
 180   2.0000      -0.380262       -10.3475
 181   2.0000      -0.378092       -10.2884
 182   2.0000      -0.375621       -10.2212
 183   2.0000      -0.373852       -10.1730
 184   2.0000      -0.370323       -10.0770
 185   2.0000      -0.366844        -9.9823
 186   2.0000      -0.362929        -9.8758
 187   2.0000      -0.357333        -9.7235
 188   2.0000      -0.349797        -9.5185
 189   2.0000      -0.343460        -9.3460
 190   2.0000      -0.333752        -9.0818
 191   2.0000      -0.333330        -9.0704
 192   2.0000      -0.319837        -8.7032
 193   2.0000      -0.312979        -8.5166
 194   2.0000      -0.312115        -8.4931
 195   2.0000      -0.310253        -8.4424
 196   2.0000      -0.305009        -8.2997
 197   2.0000      -0.280144        -7.6231
 198   2.0000      -0.274890        -7.4801
 199   2.0000      -0.258711        -7.0399
 200   2.0000      -0.209877        -5.7110
 201   0.0000      -0.063967        -1.7406
 202   0.0000      -0.056709        -1.5431
 203   0.0000      -0.025914        -0.7052
 204   0.0000      -0.001470        -0.0400
 205   0.0000       0.021601         0.5878

MULLIKEN ATOMIC CHARGES
-----------------------
   0 N :   -0.140813
   1 C :    0.174430
   2 O :   -0.152981
   3 C :   -0.137807
   4 C :    0.014086
   5 C :    0.168648
   6 O :   -0.157773
   7 C :    0.096739
   8 C :   -0.099411
   9 C :    0.008758
  10 C :    0.124078
  11 C :   -0.051648
  12 C :   -0.021166
  13 C :    0.096593
  14 C :    0.029447
  15 C :   -0.134606
  16 C :    0.065759
  17 C :    0.028820
  18 C :    0.070058
  19 C :    0.026295
  20 C :   -0.115153
  21 C :    0.138042
  22 C :   -0.047594
  23 C :   -0.050587
  24 C :    0.060459
  25 N :   -0.036960
  26 C :    0.103042
  27 C :   -0.178459
  28 C :    0.097214
  29 N :   -0.036133
  30 C :    0.109210
  31 C :   -0.177683
  32 C :    0.025573
  33 C :   -0.027233
  34 C :    0.131237
  35 C :   -0.117021
  36 C :    0.027094
  37 C :    0.099487
  38 C :   -0.048740
  39 C :   -0.021388
  40 C :    0.127004
  41 C :   -0.023184
  42 C :   -0.133550
  43 C :    0.079932
  44 C :    0.031163
  45 C :    0.050098
  46 C :    0.028644
  47 C :   -0.052506
  48 C :    0.174962
  49 C :    0.005755
  50 C :   -0.073313
  51 N :   -0.253884
  52 C :    0.193407
  53 O :   -0.157772
  54 C :   -0.008419
  55 C :   -0.016196
  56 C :    0.196605
  57 O :   -0.154434
  58 H :    0.135179
  59 H :    0.000297
  60 H :   -0.008626
  61 H :   -0.036621
  62 H :   -0.032001
  63 H :    0.003939
  64 H :   -0.005024
  65 H :    0.018554
  66 H :    0.007619
  67 H :    0.020071
  68 H :   -0.003792
  69 H :    0.005877
  70 H :    0.020133
  71 H :    0.008322
  72 H :    0.019459
  73 H :   -0.040262
  74 H :   -0.046402
  75 H :   -0.037125
  76 H :    0.119414
  77 H :   -0.042267
  78 H :    0.115997
  79 H :   -0.042499
  80 H :   -0.037043
  81 H :   -0.026352
  82 H :   -0.041464
  83 H :   -0.040393
  84 H :   -0.034805
  85 H :    0.003295
  86 H :    0.004296
  87 H :    0.000223
  88 H :    0.011587
  89 H :    0.020051
  90 H :   -0.002162
  91 H :    0.003830
  92 H :    0.019866
  93 H :    0.005212
  94 H :    0.020213
  95 H :   -0.029553
  96 H :   -0.018712
  97 H :   -0.035634
  98 H :    0.020732
  99 H :    0.020351
Sum of atomic charges:   -0.0000000

LOEWDIN ATOMIC CHARGES
----------------------
   0 N :   -0.010609
   1 C :    0.077294
   2 O :   -0.153313
   3 C :   -0.045713
   4 C :   -0.013649
   5 C :    0.093074
   6 O :   -0.154148
   7 C :   -0.040724
   8 C :   -0.002419
   9 C :   -0.001101
  10 C :   -0.000626
  11 C :   -0.023785
  12 C :   -0.001968
  13 C :   -0.031864
  14 C :    0.010511
  15 C :   -0.035399
  16 C :   -0.011656
  17 C :   -0.057521
  18 C :   -0.010268
  19 C :   -0.057447
  20 C :   -0.021819
  21 C :   -0.015945
  22 C :   -0.037469
  23 C :   -0.012702
  24 C :   -0.003350
  25 N :    0.067673
  26 C :   -0.026020
  27 C :   -0.099094
  28 C :   -0.007052
  29 N :    0.068592
  30 C :   -0.030467
  31 C :   -0.099490
  32 C :   -0.033703
  33 C :   -0.027400
  34 C :   -0.022181
  35 C :   -0.026048
  36 C :    0.002819
  37 C :   -0.021393
  38 C :   -0.019057
  39 C :   -0.021946
  40 C :   -0.017834
  41 C :    0.006297
  42 C :   -0.034024
  43 C :   -0.008346
  44 C :   -0.059852
  45 C :   -0.016375
  46 C :   -0.056538
  47 C :   -0.022372
  48 C :    0.022315
  49 C :   -0.022508
  50 C :   -0.018147
  51 N :   -0.033265
  52 C :    0.086401
  53 O :   -0.138617
  54 C :   -0.010339
  55 C :   -0.009863
  56 C :    0.085981
  57 O :   -0.136353
  58 H :    0.093464
  59 H :    0.034196
  60 H :    0.029446
  61 H :    0.026967
  62 H :    0.026533
  63 H :    0.022802
  64 H :    0.019025
  65 H :    0.024580
  66 H :    0.023598
  67 H :    0.025002
  68 H :    0.019515
  69 H :    0.023398
  70 H :    0.024783
  71 H :    0.024106
  72 H :    0.024700
  73 H :    0.024805
  74 H :    0.018702
  75 H :    0.026294
  76 H :    0.084382
  77 H :    0.020403
  78 H :    0.085888
  79 H :    0.020559
  80 H :    0.022482
  81 H :    0.025031
  82 H :    0.022131
  83 H :    0.025190
  84 H :    0.022446
  85 H :    0.022651
  86 H :    0.027089
  87 H :    0.018669
  88 H :    0.027203
  89 H :    0.024202
  90 H :    0.020055
  91 H :    0.019084
  92 H :    0.024871
  93 H :    0.022276
  94 H :    0.025770
  95 H :    0.027972
  96 H :    0.030804
  97 H :    0.026876
  98 H :    0.041403
  99 H :    0.041466

  Mayer bond orders larger than 0.100000
B(  0-N ,  1-C ) :   1.0443 B(  0-N ,  5-C ) :   1.1262 B(  0-N , 58-H ) :   0.9192
B(  1-C ,  2-O ) :   2.2179 B(  1-C ,  3-C ) :   0.9450 B(  3-C ,  4-C ) :   1.6736
B(  3-C , 59-H ) :   1.0146 B(  4-C ,  5-C ) :   0.8873 B(  4-C ,  7-C ) :   1.0542
B(  5-C ,  6-O ) :   2.1581 B(  7-C ,  8-C ) :   1.3029 B(  7-C , 12-C ) :   1.3404
B(  8-C ,  9-C ) :   1.3677 B(  8-C , 60-H ) :   0.9975 B(  9-C , 10-C ) :   1.3676
B(  9-C , 15-C ) :   0.9112 B( 10-C , 11-C ) :   1.3229 B( 10-C , 13-C ) :   0.9979
B( 11-C , 12-C ) :   1.4047 B( 11-C , 61-H ) :   0.9902 B( 12-C , 62-H ) :   0.9885
B( 13-C , 14-C ) :   1.3536 B( 13-C , 23-C ) :   1.3437 B( 14-C , 15-C ) :   0.9133
B( 14-C , 20-C ) :   1.3893 B( 15-C , 16-C ) :   1.0404 B( 15-C , 18-C ) :   1.0374
B( 16-C , 17-C ) :   1.1015 B( 16-C , 63-H ) :   0.9398 B( 16-C , 64-H ) :   0.9383
B( 17-C , 65-H ) :   0.9643 B( 17-C , 66-H ) :   0.9639 B( 17-C , 67-H ) :   0.9639
B( 18-C , 19-C ) :   1.1011 B( 18-C , 68-H ) :   0.9388 B( 18-C , 69-H ) :   0.9400
B( 19-C , 70-H ) :   0.9644 B( 19-C , 71-H ) :   0.9638 B( 19-C , 72-H ) :   0.9645
B( 20-C , 21-C ) :   1.3166 B( 20-C , 73-H ) :   1.0072 B( 21-C , 22-C ) :   1.3283
B( 21-C , 24-C ) :   1.0002 B( 22-C , 23-C ) :   1.3892 B( 22-C , 74-H ) :   0.9878
B( 23-C , 75-H ) :   0.9889 B( 24-C , 25-N ) :   1.2072 B( 24-C , 31-C ) :   1.4446
B( 25-N , 26-C ) :   1.1563 B( 25-N , 76-H ) :   0.9333 B( 26-C , 27-C ) :   1.2472
B( 26-C , 30-C ) :   1.3401 B( 27-C , 28-C ) :   1.4262 B( 27-C , 77-H ) :   1.0314
B( 28-C , 29-N ) :   1.1747 B( 28-C , 32-C ) :   1.0884 B( 29-N , 30-C ) :   1.1633
B( 29-N , 78-H ) :   0.9374 B( 30-C , 31-C ) :   1.2286 B( 31-C , 79-H ) :   1.0300
B( 32-C , 33-C ) :   1.7093 B( 32-C , 80-H ) :   0.9573 B( 33-C , 34-C ) :   1.0575
B( 33-C , 81-H ) :   0.9836 B( 34-C , 35-C ) :   1.2853 B( 34-C , 39-C ) :   1.3523
B( 35-C , 36-C ) :   1.3826 B( 35-C , 82-H ) :   1.0064 B( 36-C , 37-C ) :   1.3860
B( 36-C , 42-C ) :   0.9216 B( 37-C , 38-C ) :   1.3361 B( 37-C , 40-C ) :   0.9947
B( 38-C , 39-C ) :   1.3900 B( 38-C , 83-H ) :   0.9891 B( 39-C , 84-H ) :   0.9846
B( 40-C , 41-C ) :   1.3827 B( 40-C , 50-C ) :   1.3428 B( 41-C , 42-C ) :   0.9270
B( 41-C , 47-C ) :   1.3871 B( 42-C , 43-C ) :   1.0140 B( 42-C , 45-C ) :   1.0330
B( 43-C , 44-C ) :   1.1137 B( 43-C , 85-H ) :   0.9372 B( 43-C , 86-H ) :   0.9381
B( 44-C , 87-H ) :   0.9630 B( 44-C , 88-H ) :   0.9594 B( 44-C , 89-H ) :   0.9608
B( 45-C , 46-C ) :   1.1056 B( 45-C , 90-H ) :   0.9390 B( 45-C , 91-H ) :   0.9375
B( 46-C , 92-H ) :   0.9631 B( 46-C , 93-H ) :   0.9644 B( 46-C , 94-H ) :   0.9646
B( 47-C , 48-C ) :   1.3532 B( 47-C , 95-H ) :   0.9976 B( 48-C , 49-C ) :   1.4095
B( 48-C , 51-N ) :   0.8744 B( 49-C , 50-C ) :   1.3712 B( 49-C , 96-H ) :   0.9850
B( 50-C , 97-H ) :   0.9925 B( 51-N , 52-C ) :   1.0362 B( 51-N , 56-C ) :   1.0356
B( 52-C , 53-O ) :   2.1647 B( 52-C , 54-C ) :   0.9517 B( 54-C , 55-C ) :   1.7430
B( 54-C , 98-H ) :   1.0128 B( 55-C , 56-C ) :   0.9491 B( 55-C , 99-H ) :   1.0145
B( 56-C , 57-O ) :   2.1699

-----------------------------------------------------------------------------
         ABSORPTION SPECTRUM VIA TRANSITION ELECTRIC DIPOLE MOMENTS
-----------------------------------------------------------------------------
State   Energy  Wavelength   fosc         T2         TX        TY        TZ
        (cm-1)    (nm)                  (au**2)     (au)      (au)      (au)
-----------------------------------------------------------------------------
   0   20726.7    482.5   1.490504280  23.67434   3.34643  -3.15238   1.59318
   1   23435.7    426.7   0.003207802   0.04506  -0.10543  -0.17511  -0.05730
   2   25718.2    388.8   1.329637184  17.02033  -2.82075   2.53162  -1.62930
   3   29460.9    339.4   0.007206761   0.08053   0.12057   0.24855   0.06496
   4   29943.0    334.0   0.256884960   2.82436   1.25467  -1.08188   0.28227
   5   30431.7    328.6   0.000937327   0.01014  -0.08285  -0.05668   0.00790
   6   31738.1    315.1   0.001519178   0.01576  -0.00611   0.02783   0.12225
   7   31921.7    313.3   0.041868328   0.43179  -0.30404   0.53829  -0.22269
   8   33918.6    294.8   0.000404728   0.00393  -0.01451   0.06023   0.00949
   9   34143.9    292.9   0.044166342   0.42585  -0.17728   0.37469  -0.50401
  10   34527.3    289.6   0.007646298   0.07291  -0.09313   0.06000  -0.24624
  11   34966.9    286.0   0.084399361   0.79462   0.82602  -0.30758  -0.13303
  12   35724.1    279.9   0.081021621   0.74665  -0.72410   0.40365  -0.24371
  13   36112.0    276.9   0.069350480   0.63223  -0.48912   0.52135  -0.34812
  14   37373.3    267.6   0.000796552   0.00702   0.06584  -0.04972   0.01446
  15   37813.0    264.5   0.057346736   0.49928   0.64761  -0.27966   0.04092
  16   38954.4    256.7   0.031404857   0.26541  -0.07095  -0.15410   0.48645
  17   39127.6    255.6   0.000289276   0.00243  -0.03625  -0.03207  -0.00956
  18   39376.7    254.0   0.009047905   0.07565   0.11009   0.24457   0.06091
  19   39723.4    251.7   0.115226576   0.95495   0.89138  -0.34526  -0.20295
  20   40118.7    249.3   0.051158689   0.41981   0.04042  -0.46812   0.44613

FINAL SINGLE POINT ENERGY     -2447.517943979663

DIPOLE MOMENT
-------------
                                X             Y             Z
Electronic contribution:     -9.05322      -3.95630      -0.88646
Nuclear contribution   :     10.52101       3.00721       1.20367
                        -----------------------------------------
Total Dipole Moment    :      1.46779      -0.94909       0.31721
                        -----------------------------------------
Magnitude (a.u.)       :      1.77646
Magnitude (Debye)      :      4.51540

Rotational constants in cm-1:     0.008277     0.000239     0.000238
Rotational constants in MHz :   248.147746     7.178268     7.141626

                             ****ORCA TERMINATED NORMALLY****
TOTAL RUN TIME: 0 days 0 hours 7 minutes 45 seconds 117 msec
