                         Program Version 4.2.0 -  RELEASE  -
|  1> # ORCA input file
|  2> # SCF done       -187.439054832986          0.000489077111
|  3> ! CAM-B3LYP def2-SVP def2/J RIJCOSX Grid4 TightSCF
|  4> %maxcore 5000
|  5> %tddft
|  6>     Mode sTDDFT
|  7>     Ethresh 5.0
|  8>     maxcore 5000
|  9> end
| 10>
| 11> %pal
| 12>   nprocs 6
| 13>   end
| 14> * xyz 0 1
| 15>    C      -13.39223         1.26007        11.21464
| 16>    C      -13.08884         0.52630        10.09886
| 17>    C      -14.11305         0.03093         9.26844
| 18>    N      -14.99775        -0.34453         8.64540
| 19>    C      -11.68007         0.35343         9.94131
| 20>    C      -10.99395         0.97979        10.97531
| 21>    S      -12.01698         1.76710        12.11492
| 22>    S       -9.26621         0.84052        10.91079
| 23>    C       -9.45841        -0.08199         9.45695
| 24>    C      -10.76841        -0.27270         9.04009
| 25>    C      -10.82505        -1.02906         7.83289
| 26>    C      -12.03203        -1.30818         7.17407
| 27>    N      -13.03503        -1.49590         6.64910
| 28>    C       -9.56695        -1.39234         7.36811
| 29>    S       -8.28908        -0.79962         8.42004
| 30>    C       -9.19899        -2.14154         6.20836
| 31>    C       -7.89065        -2.21968         5.79016
| 32>    C       -7.44894        -2.92882         4.67768
| 33>    C       -8.38512        -3.66379         3.81815
| 34>    C       -9.71518        -3.72296         4.04115
| 35>    S      -10.50669        -2.95868         5.35783
| 36>    C       -7.58657        -4.20851         2.77707
| 37>    C       -6.25149        -3.83237         2.95565
| 38>    C       -5.40372        -4.40100         1.97607
| 39>    C       -6.10549        -5.14354         1.08359
| 40>    S       -7.81176        -5.20285         1.39432
| 41>    C       -6.15817        -3.00384         4.12728
| 42>    C       -4.98594        -2.38123         4.63583
| 43>    C       -3.92981        -1.95205         3.89803
| 44>    C       -3.90876        -1.75018         2.48628
| 45>    C       -2.69096        -1.83408         1.77390
| 46>    C       -2.62088        -1.75427         0.32805
| 47>    N       -1.42123        -1.83156        -0.26224
| 48>    C       -0.34917        -2.08292         0.45409
| 49>    C       -0.43342        -2.20696         1.87684
| 50>    N       -1.57876        -2.04967         2.48942
| 51>    C        0.74158        -2.47212         2.61690
| 52>    N        1.72760        -2.71203         3.15162
| 53>    C        0.90498        -2.21677        -0.18108
| 54>    N        1.94554        -2.37706        -0.63815
| 55>    C       -3.78769        -1.56344        -0.46302
| 56>    C       -4.96857        -1.31181         0.27169
| 57>    C       -5.03950        -1.41025         1.70824
| 58>    N       -6.26074        -1.12335         2.15680
| 59>    S       -7.22441        -0.79111         0.91865
| 60>    N       -6.14403        -0.98560        -0.26168
| 61>    C       -3.83761        -1.69856        -1.88538
| 62>    C       -2.82039        -2.30611        -2.59028
| 63>    C       -2.82828        -2.60338        -3.94125
| 64>    C       -3.84302        -2.05966        -4.83797
| 65>    C       -4.94540        -1.42736        -4.37135
| 66>    S       -5.30569        -1.18321        -2.70569
| 67>    C       -3.38580        -2.38198        -6.14740
| 68>    C       -2.18737        -3.10595        -6.07115
| 69>    C       -1.70492        -3.47341        -7.34780
| 70>    C       -2.52193        -3.02920        -8.33656
| 71>    S       -3.90937        -2.15845        -7.76687
| 72>    C       -1.84658        -3.29856        -4.69441
| 73>    C       -0.77341        -4.02100        -4.11944
| 74>    C       -0.89532        -4.52951        -2.86079
| 75>    C        0.10916        -4.95635        -1.96862
| 76>    C       -0.12708        -5.12026        -0.59857
| 77>    C       -1.39624        -4.90942        -0.05249
| 78>    N       -2.45192        -4.67768         0.34166
| 79>    C        1.05671        -5.40683         0.12632
| 80>    C        2.16260        -5.45933        -0.71492
| 81>    S        1.79354        -5.16894        -2.37386
| 82>    S        3.66827        -5.76602         0.08431
| 83>    C        2.80306        -5.81706         1.58792
| 84>    C        1.43399        -5.61332         1.48190
| 85>    C        0.80867        -5.65590         2.76420
| 86>    C       -0.55709        -5.43689         3.01499
| 87>    N       -1.66485        -5.23955         3.23656
| 88>    C        1.71492        -5.89227         3.76316
| 89>    S        3.33193        -6.06150         3.20795
| 90>    H      -14.37316         1.52896        11.55470
| 91>    H       -7.15345        -1.67648         6.36769
| 92>    H      -10.39296        -4.25670         3.39375
| 93>    H       -4.33492        -4.30049         1.93518
| 94>    H       -5.72129        -5.68169         0.23959
| 95>    H       -4.92469        -2.28171         5.71298
| 96>    H       -2.99992        -1.72252         4.40078
| 97>    H       -1.94106        -2.55475        -2.01853
| 98>    H       -5.71764        -1.05462        -5.02627
| 99>    H       -0.80351        -4.03135        -7.52483
|100>    H       -2.40387        -3.15752        -9.39474
|101>    H        0.14751        -4.13524        -4.67584
|102>    H       -1.88625        -4.55521        -2.42549
|103>    H        1.50679        -5.96075         4.81271
|104> *
|105>
|106>                          ****END OF INPUT****

CARTESIAN COORDINATES (ANGSTROEM)
---------------------------------
  C    -13.392230    1.260070   11.214640
  C    -13.088840    0.526300   10.098860
  C    -14.113050    0.030930    9.268440
  N    -14.997750   -0.344530    8.645400
  C    -11.680070    0.353430    9.941310
  C    -10.993950    0.979790   10.975310
  S    -12.016980    1.767100   12.114920
  S     -9.266210    0.840520   10.910790
  C     -9.458410   -0.081990    9.456950
  C    -10.768410   -0.272700    9.040090
  C    -10.825050   -1.029060    7.832890
  C    -12.032030   -1.308180    7.174070
  N    -13.035030   -1.495900    6.649100
  C     -9.566950   -1.392340    7.368110
  S     -8.289080   -0.799620    8.420040
  C     -9.198990   -2.141540    6.208360
  C     -7.890650   -2.219680    5.790160
  C     -7.448940   -2.928820    4.677680
  C     -8.385120   -3.663790    3.818150
  C     -9.715180   -3.722960    4.041150
  S    -10.506690   -2.958680    5.357830
  C     -7.586570   -4.208510    2.777070
  C     -6.251490   -3.832370    2.955650
  C     -5.403720   -4.401000    1.976070
  C     -6.105490   -5.143540    1.083590
  S     -7.811760   -5.202850    1.394320
  C     -6.158170   -3.003840    4.127280
  C     -4.985940   -2.381230    4.635830
  C     -3.929810   -1.952050    3.898030
  C     -3.908760   -1.750180    2.486280
  C     -2.690960   -1.834080    1.773900
  C     -2.620880   -1.754270    0.328050
  N     -1.421230   -1.831560   -0.262240
  C     -0.349170   -2.082920    0.454090
  C     -0.433420   -2.206960    1.876840
  N     -1.578760   -2.049670    2.489420
  C      0.741580   -2.472120    2.616900
  N      1.727600   -2.712030    3.151620
  C      0.904980   -2.216770   -0.181080
  N      1.945540   -2.377060   -0.638150
  C     -3.787690   -1.563440   -0.463020
  C     -4.968570   -1.311810    0.271690
  C     -5.039500   -1.410250    1.708240
  N     -6.260740   -1.123350    2.156800
  S     -7.224410   -0.791110    0.918650
  N     -6.144030   -0.985600   -0.261680
  C     -3.837610   -1.698560   -1.885380
  C     -2.820390   -2.306110   -2.590280
  C     -2.828280   -2.603380   -3.941250
  C     -3.843020   -2.059660   -4.837970
  C     -4.945400   -1.427360   -4.371350
  S     -5.305690   -1.183210   -2.705690
  C     -3.385800   -2.381980   -6.147400
  C     -2.187370   -3.105950   -6.071150
  C     -1.704920   -3.473410   -7.347800
  C     -2.521930   -3.029200   -8.336560
  S     -3.909370   -2.158450   -7.766870
  C     -1.846580   -3.298560   -4.694410
  C     -0.773410   -4.021000   -4.119440
  C     -0.895320   -4.529510   -2.860790
  C      0.109160   -4.956350   -1.968620
  C     -0.127080   -5.120260   -0.598570
  C     -1.396240   -4.909420   -0.052490
  N     -2.451920   -4.677680    0.341660
  C      1.056710   -5.406830    0.126320
  C      2.162600   -5.459330   -0.714920
  S      1.793540   -5.168940   -2.373860
  S      3.668270   -5.766020    0.084310
  C      2.803060   -5.817060    1.587920
  C      1.433990   -5.613320    1.481900
  C      0.808670   -5.655900    2.764200
  C     -0.557090   -5.436890    3.014990
  N     -1.664850   -5.239550    3.236560
  C      1.714920   -5.892270    3.763160
  S      3.331930   -6.061500    3.207950
  H    -14.373160    1.528960   11.554700
  H     -7.153450   -1.676480    6.367690
  H    -10.392960   -4.256700    3.393750
  H     -4.334920   -4.300490    1.935180
  H     -5.721290   -5.681690    0.239590
  H     -4.924690   -2.281710    5.712980
  H     -2.999920   -1.722520    4.400780
  H     -1.941060   -2.554750   -2.018530
  H     -5.717640   -1.054620   -5.026270
  H     -0.803510   -4.031350   -7.524830
  H     -2.403870   -3.157520   -9.394740
  H      0.147510   -4.135240   -4.675840
  H     -1.886250   -4.555210   -2.425490
  H      1.506790   -5.960750    4.812710

 Total Charge           Charge          ....    0
 Multiplicity           Mult            ....    1
 Number of Electrons    NEL             ....  584
 Basis Dimension        Dim             .... 1164

ORBITAL ENERGIES
----------------

  NO   OCC          E(Eh)            E(eV)
   0   2.0000     -89.032497     -2422.6974
   1   2.0000     -88.987932     -2421.4847
   2   2.0000     -88.987402     -2421.4703
   3   2.0000     -88.985750     -2421.4254
   4   2.0000     -88.979697     -2421.2606
   5   2.0000     -88.978777     -2421.2356
   6   2.0000     -88.977131     -2421.1908
   7   2.0000     -88.970085     -2420.9991
   8   2.0000     -88.966285     -2420.8957
   9   2.0000     -88.956496     -2420.6293
  10   2.0000     -88.946274     -2420.3512
  11   2.0000     -14.448245      -393.1567
  12   2.0000     -14.447744      -393.1431
  13   2.0000     -14.441126      -392.9630
  14   2.0000     -14.439740      -392.9253
  15   2.0000     -14.423497      -392.4833
  16   2.0000     -14.422775      -392.4636
  17   2.0000     -14.412007      -392.1706
  18   2.0000     -14.403897      -391.9500
  19   2.0000     -14.402858      -391.9217
  20   2.0000     -14.398488      -391.8028
  21   2.0000     -10.368170      -282.1323
  22   2.0000     -10.366350      -282.0827
  23   2.0000     -10.341502      -281.4066
  24   2.0000     -10.339747      -281.3588
  25   2.0000     -10.337977      -281.3107
  26   2.0000     -10.337563      -281.2994
  27   2.0000     -10.332393      -281.1587
  28   2.0000     -10.330967      -281.1199
  29   2.0000     -10.330205      -281.0992
  30   2.0000     -10.329829      -281.0889
  31   2.0000     -10.329280      -281.0740
  32   2.0000     -10.327406      -281.0230
  33   2.0000     -10.327070      -281.0139
  34   2.0000     -10.325198      -280.9629
  35   2.0000     -10.324160      -280.9347
  36   2.0000     -10.323192      -280.9083
  37   2.0000     -10.321801      -280.8705
  38   2.0000     -10.320370      -280.8315
  39   2.0000     -10.320130      -280.8250
  40   2.0000     -10.318823      -280.7894
  41   2.0000     -10.317515      -280.7539
  42   2.0000     -10.317395      -280.7506
  43   2.0000     -10.316573      -280.7282
  44   2.0000     -10.315431      -280.6972
  45   2.0000     -10.314334      -280.6673
  46   2.0000     -10.310678      -280.5678
  47   2.0000     -10.310366      -280.5593
  48   2.0000     -10.309837      -280.5449
  49   2.0000     -10.303745      -280.3792
  50   2.0000     -10.302375      -280.3419
  51   2.0000     -10.302005      -280.3318
  52   2.0000     -10.301217      -280.3104
  53   2.0000     -10.299640      -280.2675
  54   2.0000     -10.299230      -280.2563
  55   2.0000     -10.298809      -280.2448
  56   2.0000     -10.296661      -280.1864
  57   2.0000     -10.292448      -280.0718
  58   2.0000     -10.292159      -280.0639
  59   2.0000     -10.291355      -280.0420
  60   2.0000     -10.289693      -279.9968
  61   2.0000     -10.284495      -279.8553
  62   2.0000     -10.284225      -279.8480
  63   2.0000     -10.283699      -279.8337
  64   2.0000     -10.283565      -279.8300
  65   2.0000     -10.279745      -279.7261
  66   2.0000     -10.279541      -279.7205
  67   2.0000     -10.279448      -279.7180
  68   2.0000     -10.277279      -279.6590
  69   2.0000     -10.275611      -279.6136
  70   2.0000     -10.274571      -279.5853
  71   2.0000     -10.270494      -279.4744
  72   2.0000     -10.268646      -279.4241
  73   2.0000     -10.264472      -279.3105
  74   2.0000     -10.256049      -279.0813
  75   2.0000      -8.123382      -221.0485
  76   2.0000      -8.083155      -219.9538
  77   2.0000      -8.083080      -219.9518
  78   2.0000      -8.080874      -219.8918
  79   2.0000      -8.075338      -219.7411
  80   2.0000      -8.073841      -219.7004
  81   2.0000      -8.072196      -219.6556
  82   2.0000      -8.065091      -219.4623
  83   2.0000      -8.060272      -219.3311
  84   2.0000      -8.051934      -219.1043
  85   2.0000      -8.041762      -218.8275
  86   2.0000      -6.094499      -165.8398
  87   2.0000      -6.086794      -165.6301
  88   2.0000      -6.086107      -165.6114
  89   2.0000      -6.053049      -164.7118
  90   2.0000      -6.052702      -164.7024
  91   2.0000      -6.050564      -164.6442
  92   2.0000      -6.048862      -164.5979
  93   2.0000      -6.048252      -164.5813
  94   2.0000      -6.046323      -164.5288
  95   2.0000      -6.044979      -164.4922
  96   2.0000      -6.044893      -164.4899
  97   2.0000      -6.043879      -164.4623
  98   2.0000      -6.043807      -164.4603
  99   2.0000      -6.042256      -164.4182
 100   2.0000      -6.041800      -164.4057
 101   2.0000      -6.040416      -164.3681
 102   2.0000      -6.039615      -164.3463
 103   2.0000      -6.037648      -164.2928
 104   2.0000      -6.037190      -164.2803
 105   2.0000      -6.034779      -164.2147
 106   2.0000      -6.034635      -164.2108
 107   2.0000      -6.033680      -164.1848
 108   2.0000      -6.029983      -164.0842
 109   2.0000      -6.029869      -164.0811
 110   2.0000      -6.026828      -163.9983
 111   2.0000      -6.025087      -163.9510
 112   2.0000      -6.022249      -163.8737
 113   2.0000      -6.021381      -163.8501
 114   2.0000      -6.017137      -163.7346
 115   2.0000      -6.013936      -163.6475
 116   2.0000      -6.011222      -163.5737
 117   2.0000      -6.006979      -163.4582
 118   2.0000      -6.003746      -163.3702
 119   2.0000      -1.128910       -30.7192
 120   2.0000      -1.107241       -30.1296
 121   2.0000      -1.042171       -28.3589
 122   2.0000      -1.035317       -28.1724
 123   2.0000      -1.033968       -28.1357
 124   2.0000      -1.011372       -27.5208
 125   2.0000      -1.008158       -27.4334
 126   2.0000      -1.005571       -27.3630
 127   2.0000      -1.004694       -27.3391
 128   2.0000      -0.998582       -27.1728
 129   2.0000      -0.997610       -27.1463
 130   2.0000      -0.992802       -27.0155
 131   2.0000      -0.988543       -26.8996
 132   2.0000      -0.987723       -26.8773
 133   2.0000      -0.980803       -26.6890
 134   2.0000      -0.978074       -26.6147
 135   2.0000      -0.972312       -26.4580
 136   2.0000      -0.966204       -26.2917
 137   2.0000      -0.956621       -26.0310
 138   2.0000      -0.942420       -25.6445
 139   2.0000      -0.942145       -25.6371
 140   2.0000      -0.925993       -25.1976
 141   2.0000      -0.919081       -25.0095
 142   2.0000      -0.903014       -24.5723
 143   2.0000      -0.899059       -24.4646
 144   2.0000      -0.897227       -24.4148
 145   2.0000      -0.890563       -24.2335
 146   2.0000      -0.885148       -24.0861
 147   2.0000      -0.880985       -23.9728
 148   2.0000      -0.870864       -23.6974
 149   2.0000      -0.868918       -23.6445
 150   2.0000      -0.862936       -23.4817
 151   2.0000      -0.846746       -23.0411
 152   2.0000      -0.842883       -22.9360
 153   2.0000      -0.830956       -22.6115
 154   2.0000      -0.825702       -22.4685
 155   2.0000      -0.819056       -22.2876
 156   2.0000      -0.818651       -22.2766
 157   2.0000      -0.815061       -22.1789
 158   2.0000      -0.808517       -22.0009
 159   2.0000      -0.804842       -21.9009
 160   2.0000      -0.790556       -21.5121
 161   2.0000      -0.784255       -21.3407
 162   2.0000      -0.773597       -21.0506
 163   2.0000      -0.763192       -20.7675
 164   2.0000      -0.744366       -20.2552
 165   2.0000      -0.735015       -20.0008
 166   2.0000      -0.728216       -19.8158
 167   2.0000      -0.721481       -19.6325
 168   2.0000      -0.713688       -19.4204
 169   2.0000      -0.706665       -19.2293
 170   2.0000      -0.705328       -19.1929
 171   2.0000      -0.701037       -19.0762
 172   2.0000      -0.695843       -18.9349
 173   2.0000      -0.686992       -18.6940
 174   2.0000      -0.686464       -18.6796
 175   2.0000      -0.672259       -18.2931
 176   2.0000      -0.669979       -18.2311
 177   2.0000      -0.665567       -18.1110
 178   2.0000      -0.664026       -18.0691
 179   2.0000      -0.650746       -17.7077
 180   2.0000      -0.647695       -17.6247
 181   2.0000      -0.646890       -17.6028
 182   2.0000      -0.641054       -17.4440
 183   2.0000      -0.638381       -17.3712
 184   2.0000      -0.636250       -17.3132
 185   2.0000      -0.633389       -17.2354
 186   2.0000      -0.624297       -16.9880
 187   2.0000      -0.620297       -16.8791
 188   2.0000      -0.610597       -16.6152
 189   2.0000      -0.602896       -16.4056
 190   2.0000      -0.595084       -16.1931
 191   2.0000      -0.591201       -16.0874
 192   2.0000      -0.587072       -15.9750
 193   2.0000      -0.581556       -15.8249
 194   2.0000      -0.574472       -15.6322
 195   2.0000      -0.568704       -15.4752
 196   2.0000      -0.564686       -15.3659
 197   2.0000      -0.561744       -15.2858
 198   2.0000      -0.554698       -15.0941
 199   2.0000      -0.551656       -15.0113
 200   2.0000      -0.546911       -14.8822
 201   2.0000      -0.542071       -14.7505
 202   2.0000      -0.541032       -14.7222
 203   2.0000      -0.537962       -14.6387
 204   2.0000      -0.535626       -14.5751
 205   2.0000      -0.532112       -14.4795
 206   2.0000      -0.528218       -14.3735
 207   2.0000      -0.525283       -14.2937
 208   2.0000      -0.521074       -14.1792
 209   2.0000      -0.516808       -14.0630
 210   2.0000      -0.514314       -13.9952
 211   2.0000      -0.513647       -13.9770
 212   2.0000      -0.513047       -13.9607
 213   2.0000      -0.508787       -13.8448
 214   2.0000      -0.507172       -13.8009
 215   2.0000      -0.506600       -13.7853
 216   2.0000      -0.505644       -13.7593
 217   2.0000      -0.500851       -13.6289
 218   2.0000      -0.499246       -13.5852
 219   2.0000      -0.494674       -13.4608
 220   2.0000      -0.491983       -13.3875
 221   2.0000      -0.488639       -13.2965
 222   2.0000      -0.478689       -13.0258
 223   2.0000      -0.476827       -12.9751
 224   2.0000      -0.474114       -12.9013
 225   2.0000      -0.470856       -12.8127
 226   2.0000      -0.469394       -12.7729
 227   2.0000      -0.463473       -12.6117
 228   2.0000      -0.462941       -12.5973
 229   2.0000      -0.462146       -12.5756
 230   2.0000      -0.460910       -12.5420
 231   2.0000      -0.459619       -12.5069
 232   2.0000      -0.459570       -12.5055
 233   2.0000      -0.457742       -12.4558
 234   2.0000      -0.452958       -12.3256
 235   2.0000      -0.452056       -12.3011
 236   2.0000      -0.451873       -12.2961
 237   2.0000      -0.450329       -12.2541
 238   2.0000      -0.449410       -12.2291
 239   2.0000      -0.448860       -12.2141
 240   2.0000      -0.447680       -12.1820
 241   2.0000      -0.445769       -12.1300
 242   2.0000      -0.444133       -12.0855
 243   2.0000      -0.442446       -12.0396
 244   2.0000      -0.441610       -12.0168
 245   2.0000      -0.437237       -11.8978
 246   2.0000      -0.436314       -11.8727
 247   2.0000      -0.434420       -11.8212
 248   2.0000      -0.432254       -11.7622
 249   2.0000      -0.430429       -11.7126
 250   2.0000      -0.429687       -11.6924
 251   2.0000      -0.427633       -11.6365
 252   2.0000      -0.426522       -11.6063
 253   2.0000      -0.423554       -11.5255
 254   2.0000      -0.423137       -11.5141
 255   2.0000      -0.422005       -11.4833
 256   2.0000      -0.419221       -11.4076
 257   2.0000      -0.416902       -11.3445
 258   2.0000      -0.415898       -11.3172
 259   2.0000      -0.411693       -11.2027
 260   2.0000      -0.411405       -11.1949
 261   2.0000      -0.406839       -11.0707
 262   2.0000      -0.405377       -11.0309
 263   2.0000      -0.403780       -10.9874
 264   2.0000      -0.400965       -10.9108
 265   2.0000      -0.395133       -10.7521
 266   2.0000      -0.391094       -10.6422
 267   2.0000      -0.390305       -10.6208
 268   2.0000      -0.386066       -10.5054
 269   2.0000      -0.379838       -10.3359
 270   2.0000      -0.377736       -10.2787
 271   2.0000      -0.372902       -10.1472
 272   2.0000      -0.372143       -10.1265
 273   2.0000      -0.368720       -10.0334
 274   2.0000      -0.360020        -9.7966
 275   2.0000      -0.358094        -9.7442
 276   2.0000      -0.349874        -9.5206
 277   2.0000      -0.343266        -9.3408
 278   2.0000      -0.338800        -9.2192
 279   2.0000      -0.331206        -9.0126
 280   2.0000      -0.329821        -8.9749
 281   2.0000      -0.318233        -8.6596
 282   2.0000      -0.315085        -8.5739
 283   2.0000      -0.300908        -8.1881
 284   2.0000      -0.297995        -8.1088
 285   2.0000      -0.292459        -7.9582
 286   2.0000      -0.291485        -7.9317
 287   2.0000      -0.288144        -7.8408
 288   2.0000      -0.270149        -7.3511
 289   2.0000      -0.264739        -7.2039
 290   2.0000      -0.236030        -6.4227
 291   2.0000      -0.215538        -5.8651
 292   0.0000      -0.113559        -3.0901
 293   0.0000      -0.063106        -1.7172
 294   0.0000      -0.058029        -1.5791
 295   0.0000      -0.044012        -1.1976
 296   0.0000      -0.028382        -0.7723

MULLIKEN ATOMIC CHARGES
-----------------------
   0 C :   -0.084331
   1 C :   -0.084789
   2 C :   -0.246999
   3 N :    0.194945
   4 C :    0.188193
   5 C :   -0.267856
   6 S :    0.168266
   7 S :    0.187604
   8 C :   -0.226402
   9 C :    0.137234
  10 C :   -0.008663
  11 C :   -0.350876
  12 N :    0.211389
  13 C :   -0.052397
  14 S :    0.150051
  15 C :   -0.081457
  16 C :   -0.075314
  17 C :    0.064490
  18 C :    0.057826
  19 C :   -0.121009
  20 S :    0.149470
  21 C :   -0.118054
  22 C :    0.018743
  23 C :    0.026849
  24 C :   -0.072757
  25 S :    0.112685
  26 C :    0.119736
  27 C :   -0.016929
  28 C :   -0.036230
  29 C :    0.021469
  30 C :   -0.012475
  31 C :   -0.060842
  32 N :    0.023190
  33 C :   -0.147622
  34 C :   -0.152497
  35 N :    0.080543
  36 C :   -0.197381
  37 N :    0.218002
  38 C :   -0.198582
  39 N :    0.220338
  40 C :    0.165307
  41 C :    0.004053
  42 C :    0.010170
  43 N :   -0.262153
  44 S :    0.546944
  45 N :   -0.336281
  46 C :   -0.148949
  47 C :   -0.068550
  48 C :    0.048632
  49 C :    0.072182
  50 C :   -0.114707
  51 S :    0.175315
  52 C :   -0.109374
  53 C :    0.063802
  54 C :    0.014249
  55 C :   -0.072799
  56 S :    0.130075
  57 C :    0.054068
  58 C :   -0.010896
  59 C :   -0.071664
  60 C :   -0.055521
  61 C :   -0.070177
  62 C :   -0.308459
  63 N :    0.193833
  64 C :    0.151348
  65 C :   -0.228248
  66 S :    0.182441
  67 S :    0.190655
  68 C :   -0.253281
  69 C :    0.176676
  70 C :   -0.092865
  71 C :   -0.253878
  72 N :    0.196609
  73 C :   -0.071340
  74 S :    0.177922
  75 H :    0.038927
  76 H :   -0.006152
  77 H :    0.039856
  78 H :    0.010523
  79 H :    0.027289
  80 H :   -0.005586
  81 H :    0.003357
  82 H :    0.025096
  83 H :    0.032959
  84 H :   -0.019084
  85 H :    0.027664
  86 H :   -0.006431
  87 H :    0.034672
  88 H :    0.034208
Sum of atomic charges:   -0.0000000

LOEWDIN ATOMIC CHARGES
----------------------
   0 C :   -0.139679
   1 C :   -0.095446
   2 C :   -0.040632
   3 N :   -0.031807
   4 C :   -0.063993
   5 C :   -0.335810
   6 S :    0.458064
   7 S :    0.422645
   8 C :   -0.334420
   9 C :   -0.060536
  10 C :   -0.110220
  11 C :   -0.064968
  12 N :   -0.027923
  13 C :   -0.135941
  14 S :    0.449804
  15 C :   -0.198007
  16 C :   -0.017428
  17 C :   -0.020625
  18 C :   -0.051009
  19 C :   -0.141078
  20 S :    0.488121
  21 C :   -0.204923
  22 C :   -0.042722
  23 C :   -0.054699
  24 C :   -0.158570
  25 S :    0.408154
  26 C :   -0.037680
  27 C :    0.004907
  28 C :   -0.022624
  29 C :   -0.018377
  30 C :    0.001661
  31 C :    0.006608
  32 N :   -0.000578
  33 C :   -0.037768
  34 C :   -0.040361
  35 N :    0.018274
  36 C :   -0.028064
  37 N :   -0.023944
  38 C :   -0.033511
  39 N :   -0.029246
  40 C :   -0.041644
  41 C :   -0.041250
  42 C :   -0.040655
  43 N :   -0.256356
  44 S :    0.670623
  45 N :   -0.308013
  46 C :   -0.160426
  47 C :    0.001627
  48 C :   -0.009332
  49 C :   -0.062090
  50 C :   -0.139749
  51 S :    0.497364
  52 C :   -0.196081
  53 C :   -0.046069
  54 C :   -0.061758
  55 C :   -0.165391
  56 S :    0.423015
  57 C :   -0.043555
  58 C :    0.003546
  59 C :   -0.056901
  60 C :   -0.122220
  61 C :   -0.121307
  62 C :   -0.023246
  63 N :   -0.066631
  64 C :   -0.069164
  65 C :   -0.323221
  66 S :    0.456564
  67 S :    0.431142
  68 C :   -0.330058
  69 C :   -0.068949
  70 C :   -0.106325
  71 C :   -0.034928
  72 N :   -0.046748
  73 C :   -0.130525
  74 S :    0.470963
  75 H :    0.036726
  76 H :    0.026547
  77 H :    0.038161
  78 H :    0.036010
  79 H :    0.024851
  80 H :    0.031444
  81 H :    0.036248
  82 H :    0.034823
  83 H :    0.035032
  84 H :    0.030728
  85 H :    0.023556
  86 H :    0.027907
  87 H :    0.044237
  88 H :    0.035831

  Mayer bond orders larger than 0.100000
B(  0-C ,  1-C ) :   1.5751 B(  0-C ,  6-S ) :   1.1700 B(  0-C , 75-H ) :   0.9696
B(  1-C ,  2-C ) :   1.1527 B(  1-C ,  4-C ) :   1.2398 B(  2-C ,  3-N ) :   3.0322
B(  4-C ,  5-C ) :   1.3970 B(  4-C ,  9-C ) :   1.0697 B(  5-C ,  6-S ) :   1.1161
B(  5-C ,  7-S ) :   1.0827 B(  7-S ,  8-C ) :   1.0836 B(  8-C ,  9-C ) :   1.4314
B(  8-C , 14-S ) :   1.0836 B(  9-C , 10-C ) :   1.2568 B( 10-C , 11-C ) :   1.1564
B( 10-C , 13-C ) :   1.4857 B( 11-C , 12-N ) :   2.9742 B( 13-C , 14-S ) :   1.1339
B( 13-C , 15-C ) :   1.1711 B( 15-C , 16-C ) :   1.4921 B( 15-C , 20-S ) :   1.0615
B( 16-C , 17-C ) :   1.2609 B( 16-C , 76-H ) :   0.9541 B( 17-C , 18-C ) :   1.0438
B( 17-C , 26-C ) :   1.4025 B( 18-C , 19-C ) :   1.6000 B( 18-C , 21-C ) :   1.1789
B( 19-C , 20-S ) :   1.1458 B( 19-C , 77-H ) :   0.9409 B( 21-C , 22-C ) :   1.4361
B( 21-C , 25-S ) :   1.0739 B( 22-C , 23-C ) :   1.1995 B( 22-C , 26-C ) :   1.1071
B( 23-C , 24-C ) :   1.5792 B( 23-C , 78-H ) :   0.9971 B( 24-C , 25-S ) :   1.1341
B( 24-C , 79-H ) :   0.9634 B( 26-C , 27-C ) :   1.1077 B( 27-C , 28-C ) :   1.6791
B( 27-C , 80-H ) :   0.9553 B( 28-C , 29-C ) :   1.1729 B( 28-C , 81-H ) :   0.9375
B( 29-C , 30-C ) :   1.2735 B( 29-C , 40-C ) :   0.1103 B( 29-C , 42-C ) :   1.1831
B( 30-C , 31-C ) :   1.0967 B( 30-C , 35-N ) :   1.4672 B( 31-C , 32-N ) :   1.4253
B( 31-C , 40-C ) :   1.2286 B( 32-N , 33-C ) :   1.6947 B( 33-C , 34-C ) :   1.2146
B( 33-C , 38-C ) :   1.1580 B( 34-C , 35-N ) :   1.7315 B( 34-C , 36-C ) :   1.1526
B( 36-C , 37-N ) :   3.0102 B( 38-C , 39-N ) :   3.0018 B( 40-C , 41-C ) :   1.1846
B( 40-C , 46-C ) :   1.1998 B( 41-C , 42-C ) :   1.1243 B( 41-C , 45-N ) :   1.4783
B( 42-C , 43-N ) :   1.5181 B( 43-N , 44-S ) :   1.2915 B( 43-N , 45-N ) :   0.1491
B( 44-S , 45-N ) :   1.2546 B( 46-C , 47-C ) :   1.4532 B( 46-C , 51-S ) :   1.0731
B( 47-C , 48-C ) :   1.2819 B( 47-C , 82-H ) :   0.9355 B( 48-C , 49-C ) :   1.0796
B( 48-C , 57-C ) :   1.3219 B( 49-C , 50-C ) :   1.5711 B( 49-C , 52-C ) :   1.1658
B( 50-C , 51-S ) :   1.1495 B( 50-C , 83-H ) :   0.9404 B( 52-C , 53-C ) :   1.4248
B( 52-C , 56-S ) :   1.0831 B( 53-C , 54-C ) :   1.2150 B( 53-C , 57-C ) :   1.1121
B( 54-C , 55-C ) :   1.5909 B( 54-C , 84-H ) :   0.9996 B( 55-C , 56-S ) :   1.1479
B( 55-C , 85-H ) :   0.9670 B( 57-C , 58-C ) :   1.1911 B( 58-C , 59-C ) :   1.5782
B( 58-C , 86-H ) :   0.9648 B( 59-C , 60-C ) :   1.2332 B( 59-C , 87-H ) :   0.9508
B( 60-C , 61-C ) :   1.4244 B( 60-C , 66-S ) :   1.1275 B( 61-C , 62-C ) :   1.1872
B( 61-C , 64-C ) :   1.2522 B( 62-C , 63-N ) :   2.8898 B( 64-C , 65-C ) :   1.4160
B( 64-C , 69-C ) :   1.0704 B( 65-C , 66-S ) :   1.0846 B( 65-C , 67-S ) :   1.0912
B( 67-S , 68-C ) :   1.0890 B( 68-C , 69-C ) :   1.3948 B( 68-C , 74-S ) :   1.1183
B( 69-C , 70-C ) :   1.2485 B( 70-C , 71-C ) :   1.1700 B( 70-C , 73-C ) :   1.5555
B( 71-C , 72-N ) :   3.0049 B( 73-C , 74-S ) :   1.1823 B( 73-C , 88-H ) :   0.9674

-----------------------------------------------------------------------------
         ABSORPTION SPECTRUM VIA TRANSITION ELECTRIC DIPOLE MOMENTS
-----------------------------------------------------------------------------
State   Energy  Wavelength   fosc         T2         TX        TY        TZ
        (cm-1)    (nm)                  (au**2)     (au)      (au)      (au)
-----------------------------------------------------------------------------
   0    6323.8   1581.3   0.254955483  13.27276   2.03023  -0.45391  -2.99080
   1   10837.0    922.8   0.039431058   1.19786   0.21709   0.93169   0.53168
   2   16385.0    610.3   0.019206853   0.38591  -0.15622   0.00272   0.60125
   3   17113.2    584.3   0.174317981   3.35340   0.97839  -0.76529  -1.34554
   4   18195.6    549.6   0.264807630   4.79115   1.85811  -1.13588   0.21994
   5   19184.8    521.2   0.502113344   8.61631  -2.11660   0.16834   2.02682
   6   21034.0    475.4   0.144565734   2.26266   0.17109  -0.43863  -1.42864
   7   22127.5    451.9   0.004436462   0.06601  -0.24660  -0.01775   0.06984
   8   22326.8    447.9   0.003763020   0.05549  -0.05627   0.09845   0.20646
   9   22645.2    441.6   0.043364652   0.63043   0.39024  -0.23449   0.65051
  10   23487.0    425.8   0.084795247   1.18855   0.36713  -0.47334   0.91089
  11   23717.3    421.6   0.004666917   0.06478   0.14532   0.00940   0.20875
  12   23775.3    420.6   0.042624452   0.59021  -0.16419  -0.02009  -0.75023
  13   24084.9    415.2   0.108599630   1.48443  -0.10921   0.39064   1.14887
  14   24979.6    400.3   0.343622182   4.52868   1.29825  -1.21548   1.16869
  15   25486.6    392.4   0.005660034   0.07311  -0.16988   0.21001   0.01209
  16   26226.5    381.3   0.077502921   0.97287  -0.74099   0.29692  -0.57934
  17   26345.9    379.6   0.021354529   0.26684  -0.08393  -0.36050  -0.36033
  18   27749.7    360.4   0.163918195   1.94466   0.19502   0.90711   1.04105
  19   28138.7    355.4   0.032737946   0.38302   0.43859  -0.38254   0.21054
  20   28336.8    352.9   0.164767121   1.91423  -1.16579  -0.02518   0.74467
  21   28875.5    346.3   0.296855719   3.38447  -1.06857   0.65020  -1.34902
  22   29065.3    344.1   0.054578301   0.61819   0.06083   0.06479   0.78121
  23   29327.1    341.0   0.012906521   0.14488   0.06319   0.06314  -0.37000
  24   29942.1    334.0   0.014305324   0.15729   0.20833  -0.24773   0.22916
  25   30429.2    328.6   0.068208358   0.73794   0.08215   0.25800  -0.81525
  26   30503.7    327.8   0.030614470   0.33041  -0.27213  -0.33541   0.37928
  27   30727.5    325.4   0.044060057   0.47206   0.54166  -0.25915   0.33392
  28   31488.5    317.6   0.028675403   0.29980  -0.53048   0.10726  -0.08298
  29   31758.8    314.9   0.236851564   2.45520   1.35898   0.41864  -0.65812
  30   32053.6    312.0   0.016242480   0.16682  -0.31778  -0.09267   0.23927
  31   32411.6    308.5   0.224558685   2.28089  -1.45649   0.36497  -0.16224
  32   32608.5    306.7   0.094532618   0.95439  -0.78323   0.43740   0.38682
  33   32769.9    305.2   0.098545020   0.99000   0.49484  -0.27592   0.81793
  34   33378.0    299.6   0.068085389   0.67154  -0.79310   0.19845   0.05614
  35   33538.9    298.2   0.294461559   2.89038   1.59547   0.09509   0.57949
  36   33639.4    297.3   0.278693971   2.72744  -1.10822   0.67164   1.02380
  37   33864.4    295.3   0.365857882   3.55668   0.49282  -0.63913  -1.70450
  38   33970.5    294.4   0.016267687   0.15765  -0.24444   0.31105  -0.03387
  39   34633.2    288.7   0.151609765   1.44115  -0.72444   0.20741   0.93451
  40   34782.2    287.5   0.019723389   0.18668   0.42479   0.02621  -0.07446
  41   34938.9    286.2   0.129546618   1.22066   0.69499  -0.39920  -0.76045
  42   35108.9    284.8   0.003199358   0.03000  -0.00404   0.02547  -0.17128
  43   35126.2    284.7   0.013950740   0.13075   0.26790   0.23864   0.04507
  44   35627.1    280.7   0.033368840   0.30834  -0.34032   0.42146   0.12207
  45   35783.4    279.5   0.124887052   1.14898  -0.07511   0.37030   1.00310
  46   35941.9    278.2   0.025791091   0.23623   0.27134  -0.00884  -0.40315
  47   36111.0    276.9   0.048497299   0.44213   0.36351  -0.09881  -0.54793
  48   36302.2    275.5   0.044350187   0.40220  -0.06431  -0.35799  -0.51952
  49   36415.2    274.6   0.014072971   0.12723   0.32123  -0.15233   0.02890
  50   36593.0    273.3   0.213290531   1.91889  -1.37419   0.06911  -0.16033
  51   36850.1    271.4   0.009692647   0.08659   0.27059  -0.05274  -0.10291
  52   37138.5    269.3   0.065530096   0.58089   0.73008   0.02484   0.21736
  53   37312.5    268.0   0.211395026   1.86516   1.20257   0.05028   0.64534
  54   37402.5    267.4   0.037308158   0.32838  -0.48683  -0.25156   0.16760
  55   37449.0    267.0   0.431221408   3.79085  -1.26478   0.46311   1.40595
  56   37791.6    264.6   0.006738492   0.05870   0.04118   0.23307   0.05178
  57   38026.6    263.0   0.001861825   0.01612  -0.01595   0.12590  -0.00359
  58   38062.8    262.7   0.022474911   0.19439   0.42256  -0.07118  -0.10377
  59   38216.1    261.7   0.037532545   0.32332  -0.31630  -0.07677  -0.46624
  60   38542.9    259.5   0.061868534   0.52845   0.53013  -0.48195   0.12303
  61   39227.4    254.9   0.017523147   0.14706   0.02775  -0.09038  -0.37165
  62   39412.9    253.7   0.030317331   0.25324   0.29837  -0.09134  -0.39481
  63   39485.0    253.3   0.072380103   0.60348  -0.73570   0.04353   0.24561
  64   39692.1    251.9   0.006965683   0.05777   0.19409   0.11967  -0.07604
  65   39766.8    251.5   0.101594560   0.84106   0.28260  -0.07546  -0.86919
  66   39787.0    251.3   0.044255980   0.36619   0.15024   0.05998   0.58311
  67   39900.4    250.6   0.005692807   0.04697   0.10378  -0.07799  -0.17354
  68   40112.2    249.3   0.150995029   1.23926  -0.08516  -0.26344  -1.07824

FINAL SINGLE POINT ENERGY     -6988.916903935998

DIPOLE MOMENT
-------------
                                X             Y             Z
Electronic contribution:     -2.82473       7.40161      21.83237
Nuclear contribution   :      4.24670      -6.87571     -22.00998
                        -----------------------------------------
Total Dipole Moment    :      1.42197       0.52589      -0.17761
                        -----------------------------------------
Magnitude (a.u.)       :      1.52647
Magnitude (Debye)      :      3.87997

Rotational constants in cm-1:     0.001287     0.000333     0.000284
Rotational constants in MHz :    38.589402     9.985707     8.523232

                             ****ORCA TERMINATED NORMALLY****
TOTAL RUN TIME: 0 days 0 hours 13 minutes 9 seconds 528 msec
