                         Program Version 4.2.0 -  RELEASE  -
|  1> # ORCA input file
|  2> # SCF done       -203.929019807395          0.000939053007
|  3> ! CAM-B3LYP def2-SVP def2/J RIJCOSX Grid4 TightSCF
|  4> %maxcore 5000
|  5> %tddft
|  6>     Mode sTDDFT
|  7>     Ethresh 5.0
|  8>     maxcore 5000
|  9> end
| 10>
| 11> %pal
| 12>   nprocs 6
| 13>   end
| 14> * xyz 0 1
| 15>    C       -2.50937         2.27765        -2.59227
| 16>    C       -1.72151         2.19430        -3.73061
| 17>    C       -1.71153         1.04820        -4.51308
| 18>    C       -2.49778        -0.04602        -4.18493
| 19>    C       -3.29161         0.02704        -3.05231
| 20>    C       -3.29423         1.18846        -2.24700
| 21>    C       -4.19001         0.97556        -1.11783
| 22>    C       -4.56334         1.92083        -0.20041
| 23>    C       -4.11530         3.25955        -0.21933
| 24>    N       -3.79285         4.35999        -0.17401
| 25>    C       -5.47476         1.72518         0.85952
| 26>    N       -6.20925         1.64971         1.73881
| 27>    C       -4.60091        -0.42455        -1.16473
| 28>    C       -4.22345        -0.93278        -2.47961
| 29>    C       -4.81974        -1.95789        -3.16143
| 30>    C       -5.90774        -2.71798        -2.68180
| 31>    N       -6.82355        -3.34192        -2.38378
| 32>    C       -4.47505        -2.32933        -4.47871
| 33>    N       -4.23168        -2.68298        -5.54278
| 34>    C       -5.13161        -1.10409        -0.10167
| 35>    C       -5.19198        -2.49854         0.11274
| 36>    C       -4.43117        -3.50648        -0.44991
| 37>    C       -4.81028        -4.74859         0.12650
| 38>    C       -5.84901        -4.42187         1.10418
| 39>    C       -6.07163        -3.09884         1.11869
| 40>    F       -6.45699        -5.34303         1.85706
| 41>    C       -4.34253        -6.00618        -0.19671
| 42>    C       -4.72397        -7.25615         0.34344
| 43>    C       -4.02157        -8.26716        -0.30016
| 44>    C       -3.14631        -7.64451        -1.29992
| 45>    C       -3.34144        -6.32082        -1.22533
| 46>    F       -2.73124        -5.39079        -1.96636
| 47>    C       -4.13496        -9.63676        -0.02613
| 48>    C       -3.45410       -10.63060        -0.68212
| 49>    C       -3.56391       -11.99197        -0.38765
| 50>    S       -4.57190       -12.63724         0.89379
| 51>    C       -4.12043       -14.29951         0.59927
| 52>    C       -3.21322       -14.35180        -0.47883
| 53>    C       -2.91744       -13.06520        -1.01059
| 54>    N       -2.04282       -13.21380        -2.03200
| 55>    C       -1.77748       -14.55446        -2.16401
| 56>    N       -0.88360       -14.98225        -3.16688
| 57>    O       -0.39911       -14.10276        -3.86103
| 58>    O       -0.65910       -16.16813        -3.26699
| 59>    C       -2.47585       -15.29087        -1.22858
| 60>    C       -4.63298       -15.33131         1.38675
| 61>    C       -4.35024       -16.69047         1.29286
| 62>    C       -5.06938       -17.37811         2.29446
| 63>    C       -5.82336       -16.34527         3.01459
| 64>    C       -5.57464       -15.13583         2.48972
| 65>    F       -6.62923       -16.61042         4.04367
| 66>    C       -5.07005       -18.73611         2.56161
| 67>    C       -5.78018       -19.43968         3.56417
| 68>    C       -5.47980       -20.79150         3.47137
| 69>    C       -4.53625       -20.97220         2.36356
| 70>    C       -4.30726       -19.75942         1.83946
| 71>    F       -3.49964       -19.47915         0.81081
| 72>    C       -6.00639       -21.79984         4.29608
| 73>    C       -5.72344       -23.13452         4.17788
| 74>    C       -6.27921       -24.09643         5.03669
| 75>    C       -6.15951       -25.45943         4.91321
| 76>    C       -6.36368       -26.41680         5.99179
| 77>    C       -7.03684       -26.20998         7.16661
| 78>    C       -7.70657       -25.02080         7.52521
| 79>    N       -8.27643       -24.08945         7.88043
| 80>    C       -7.18879       -27.18701         8.17380
| 81>    N       -7.34792       -27.93153         9.03258
| 82>    C       -5.70737       -27.65335         5.58557
| 83>    C       -5.24717       -27.51136         4.25644
| 84>    C       -4.56268       -28.54075         3.63248
| 85>    C       -4.34235       -29.71351         4.33977
| 86>    C       -4.80252       -29.85914         5.64047
| 87>    C       -5.48854       -28.83467         6.27626
| 88>    C       -5.65482       -26.20188         3.76825
| 89>    C       -5.76171       -25.83882         2.45102
| 90>    C       -5.28061       -26.62247         1.38062
| 91>    N       -4.88279       -27.20222         0.47360
| 92>    C       -6.46834       -24.70740         1.98729
| 93>    N       -7.08077       -23.83993         1.55173
| 94>    H       -2.49772         3.17299        -1.99303
| 95>    H       -1.10337         3.03475        -4.00668
| 96>    H       -1.08255         1.00424        -5.38891
| 97>    H       -2.47489        -0.93452        -4.79468
| 98>    H       -5.49748        -0.51172         0.72748
| 99>    H       -3.64210        -3.38453        -1.16587
|100>    H       -6.77714        -2.55523         1.71563
|101>    H       -5.44603        -7.39779         1.12337
|102>    H       -2.47677        -8.15641        -1.96189
|103>    H       -4.81680        -9.92014         0.76610
|104>    H       -2.77964       -10.37175        -1.48655
|105>    H       -1.62896       -12.51424        -2.63003
|106>    H       -2.43826       -16.35571        -1.12916
|107>    H       -3.69375       -17.14960         0.58381
|108>    H       -5.97420       -14.18916         2.79672
|109>    H       -6.44616       -18.99686         4.27879
|110>    H       -4.12177       -21.90266         2.03169
|111>    H       -6.71213       -21.48607         5.05527
|112>    H       -5.02180       -23.45439         3.42213
|113>    H       -6.78062       -23.71349         5.91514
|114>    H       -4.19514       -28.43796         2.62443
|115>    H       -3.80448       -30.52192         3.86884
|116>    H       -4.62247       -30.78170         6.17063
|117>    H       -5.83435       -28.96457         7.28842
|118> *
|119>
|120>                          ****END OF INPUT****

CARTESIAN COORDINATES (ANGSTROEM)
---------------------------------
  C     -2.509370    2.277650   -2.592270
  C     -1.721510    2.194300   -3.730610
  C     -1.711530    1.048200   -4.513080
  C     -2.497780   -0.046020   -4.184930
  C     -3.291610    0.027040   -3.052310
  C     -3.294230    1.188460   -2.247000
  C     -4.190010    0.975560   -1.117830
  C     -4.563340    1.920830   -0.200410
  C     -4.115300    3.259550   -0.219330
  N     -3.792850    4.359990   -0.174010
  C     -5.474760    1.725180    0.859520
  N     -6.209250    1.649710    1.738810
  C     -4.600910   -0.424550   -1.164730
  C     -4.223450   -0.932780   -2.479610
  C     -4.819740   -1.957890   -3.161430
  C     -5.907740   -2.717980   -2.681800
  N     -6.823550   -3.341920   -2.383780
  C     -4.475050   -2.329330   -4.478710
  N     -4.231680   -2.682980   -5.542780
  C     -5.131610   -1.104090   -0.101670
  C     -5.191980   -2.498540    0.112740
  C     -4.431170   -3.506480   -0.449910
  C     -4.810280   -4.748590    0.126500
  C     -5.849010   -4.421870    1.104180
  C     -6.071630   -3.098840    1.118690
  F     -6.456990   -5.343030    1.857060
  C     -4.342530   -6.006180   -0.196710
  C     -4.723970   -7.256150    0.343440
  C     -4.021570   -8.267160   -0.300160
  C     -3.146310   -7.644510   -1.299920
  C     -3.341440   -6.320820   -1.225330
  F     -2.731240   -5.390790   -1.966360
  C     -4.134960   -9.636760   -0.026130
  C     -3.454100  -10.630600   -0.682120
  C     -3.563910  -11.991970   -0.387650
  S     -4.571900  -12.637240    0.893790
  C     -4.120430  -14.299510    0.599270
  C     -3.213220  -14.351800   -0.478830
  C     -2.917440  -13.065200   -1.010590
  N     -2.042820  -13.213800   -2.032000
  C     -1.777480  -14.554460   -2.164010
  N     -0.883600  -14.982250   -3.166880
  O     -0.399110  -14.102760   -3.861030
  O     -0.659100  -16.168130   -3.266990
  C     -2.475850  -15.290870   -1.228580
  C     -4.632980  -15.331310    1.386750
  C     -4.350240  -16.690470    1.292860
  C     -5.069380  -17.378110    2.294460
  C     -5.823360  -16.345270    3.014590
  C     -5.574640  -15.135830    2.489720
  F     -6.629230  -16.610420    4.043670
  C     -5.070050  -18.736110    2.561610
  C     -5.780180  -19.439680    3.564170
  C     -5.479800  -20.791500    3.471370
  C     -4.536250  -20.972200    2.363560
  C     -4.307260  -19.759420    1.839460
  F     -3.499640  -19.479150    0.810810
  C     -6.006390  -21.799840    4.296080
  C     -5.723440  -23.134520    4.177880
  C     -6.279210  -24.096430    5.036690
  C     -6.159510  -25.459430    4.913210
  C     -6.363680  -26.416800    5.991790
  C     -7.036840  -26.209980    7.166610
  C     -7.706570  -25.020800    7.525210
  N     -8.276430  -24.089450    7.880430
  C     -7.188790  -27.187010    8.173800
  N     -7.347920  -27.931530    9.032580
  C     -5.707370  -27.653350    5.585570
  C     -5.247170  -27.511360    4.256440
  C     -4.562680  -28.540750    3.632480
  C     -4.342350  -29.713510    4.339770
  C     -4.802520  -29.859140    5.640470
  C     -5.488540  -28.834670    6.276260
  C     -5.654820  -26.201880    3.768250
  C     -5.761710  -25.838820    2.451020
  C     -5.280610  -26.622470    1.380620
  N     -4.882790  -27.202220    0.473600
  C     -6.468340  -24.707400    1.987290
  N     -7.080770  -23.839930    1.551730
  H     -2.497720    3.172990   -1.993030
  H     -1.103370    3.034750   -4.006680
  H     -1.082550    1.004240   -5.388910
  H     -2.474890   -0.934520   -4.794680
  H     -5.497480   -0.511720    0.727480
  H     -3.642100   -3.384530   -1.165870
  H     -6.777140   -2.555230    1.715630
  H     -5.446030   -7.397790    1.123370
  H     -2.476770   -8.156410   -1.961890
  H     -4.816800   -9.920140    0.766100
  H     -2.779640  -10.371750   -1.486550
  H     -1.628960  -12.514240   -2.630030
  H     -2.438260  -16.355710   -1.129160
  H     -3.693750  -17.149600    0.583810
  H     -5.974200  -14.189160    2.796720
  H     -6.446160  -18.996860    4.278790
  H     -4.121770  -21.902660    2.031690
  H     -6.712130  -21.486070    5.055270
  H     -5.021800  -23.454390    3.422130
  H     -6.780620  -23.713490    5.915140
  H     -4.195140  -28.437960    2.624430
  H     -3.804480  -30.521920    3.868840
  H     -4.622470  -30.781700    6.170630
  H     -5.834350  -28.964570    7.288420

 Total Charge           Charge          ....    0
 Multiplicity           Mult            ....    1
 Number of Electrons    NEL             ....  534
 Basis Dimension        Dim             .... 1230

ORBITAL ENERGIES
----------------

  NO   OCC          E(Eh)            E(eV)
   0   2.0000     -88.999527     -2421.8002
   1   2.0000     -24.811346      -675.1510
   2   2.0000     -24.811197      -675.1470
   3   2.0000     -24.803970      -674.9503
   4   2.0000     -24.797198      -674.7661
   5   2.0000     -19.266177      -524.2593
   6   2.0000     -19.265490      -524.2406
   7   2.0000     -14.676282      -399.3619
   8   2.0000     -14.508736      -394.8028
   9   2.0000     -14.426340      -392.5607
  10   2.0000     -14.425739      -392.5443
  11   2.0000     -14.425367      -392.5342
  12   2.0000     -14.424486      -392.5102
  13   2.0000     -14.423833      -392.4924
  14   2.0000     -14.423184      -392.4748
  15   2.0000     -14.423038      -392.4708
  16   2.0000     -14.422596      -392.4588
  17   2.0000     -10.386454      -282.6298
  18   2.0000     -10.380205      -282.4597
  19   2.0000     -10.378877      -282.4236
  20   2.0000     -10.369598      -282.1711
  21   2.0000     -10.363287      -281.9994
  22   2.0000     -10.358180      -281.8604
  23   2.0000     -10.357340      -281.8376
  24   2.0000     -10.355173      -281.7786
  25   2.0000     -10.354441      -281.7587
  26   2.0000     -10.353977      -281.7460
  27   2.0000     -10.351689      -281.6838
  28   2.0000     -10.351662      -281.6831
  29   2.0000     -10.351332      -281.6741
  30   2.0000     -10.350613      -281.6545
  31   2.0000     -10.350364      -281.6477
  32   2.0000     -10.346280      -281.5366
  33   2.0000     -10.328394      -281.0499
  34   2.0000     -10.327965      -281.0382
  35   2.0000     -10.327696      -281.0309
  36   2.0000     -10.327466      -281.0246
  37   2.0000     -10.327393      -281.0227
  38   2.0000     -10.327244      -281.0186
  39   2.0000     -10.327080      -281.0141
  40   2.0000     -10.326589      -281.0008
  41   2.0000     -10.326416      -280.9961
  42   2.0000     -10.325734      -280.9775
  43   2.0000     -10.325591      -280.9736
  44   2.0000     -10.325116      -280.9607
  45   2.0000     -10.324195      -280.9356
  46   2.0000     -10.323796      -280.9248
  47   2.0000     -10.323782      -280.9244
  48   2.0000     -10.322442      -280.8879
  49   2.0000     -10.322311      -280.8844
  50   2.0000     -10.322016      -280.8763
  51   2.0000     -10.320722      -280.8411
  52   2.0000     -10.317350      -280.7494
  53   2.0000     -10.316596      -280.7288
  54   2.0000     -10.316402      -280.7236
  55   2.0000     -10.316386      -280.7231
  56   2.0000     -10.316086      -280.7150
  57   2.0000     -10.316070      -280.7145
  58   2.0000     -10.316058      -280.7142
  59   2.0000     -10.311687      -280.5953
  60   2.0000     -10.307128      -280.4712
  61   2.0000     -10.305669      -280.4315
  62   2.0000     -10.304809      -280.4081
  63   2.0000     -10.304324      -280.3949
  64   2.0000     -10.304188      -280.3912
  65   2.0000     -10.304036      -280.3871
  66   2.0000     -10.303981      -280.3856
  67   2.0000     -10.303269      -280.3662
  68   2.0000     -10.303058      -280.3605
  69   2.0000     -10.302244      -280.3383
  70   2.0000     -10.302234      -280.3380
  71   2.0000     -10.297532      -280.2101
  72   2.0000     -10.295849      -280.1643
  73   2.0000     -10.293339      -280.0960
  74   2.0000     -10.291909      -280.0571
  75   2.0000     -10.289518      -279.9920
  76   2.0000     -10.288054      -279.9522
  77   2.0000     -10.283126      -279.8181
  78   2.0000     -10.282541      -279.8022
  79   2.0000      -8.093843      -220.2447
  80   2.0000      -6.063123      -164.9860
  81   2.0000      -6.059036      -164.8747
  82   2.0000      -6.056094      -164.7947
  83   2.0000      -1.347260       -36.6608
  84   2.0000      -1.325227       -36.0613
  85   2.0000      -1.324172       -36.0325
  86   2.0000      -1.316768       -35.8311
  87   2.0000      -1.310408       -35.6580
  88   2.0000      -1.167928       -31.7809
  89   2.0000      -1.132911       -30.8281
  90   2.0000      -1.039875       -28.2964
  91   2.0000      -1.039653       -28.2904
  92   2.0000      -1.022087       -27.8124
  93   2.0000      -1.022005       -27.8102
  94   2.0000      -1.021334       -27.7919
  95   2.0000      -1.011414       -27.5220
  96   2.0000      -1.010733       -27.5034
  97   2.0000      -1.008367       -27.4391
  98   2.0000      -1.005436       -27.3593
  99   2.0000      -1.003133       -27.2966
 100   2.0000      -1.002804       -27.2877
 101   2.0000      -1.002142       -27.2697
 102   2.0000      -1.001562       -27.2539
 103   2.0000      -0.989695       -26.9310
 104   2.0000      -0.987150       -26.8617
 105   2.0000      -0.964327       -26.2407
 106   2.0000      -0.961325       -26.1590
 107   2.0000      -0.945944       -25.7404
 108   2.0000      -0.944203       -25.6931
 109   2.0000      -0.943594       -25.6765
 110   2.0000      -0.931915       -25.3587
 111   2.0000      -0.928032       -25.2530
 112   2.0000      -0.907026       -24.6814
 113   2.0000      -0.902780       -24.5659
 114   2.0000      -0.898800       -24.4576
 115   2.0000      -0.895746       -24.3745
 116   2.0000      -0.888669       -24.1819
 117   2.0000      -0.875240       -23.8165
 118   2.0000      -0.869680       -23.6652
 119   2.0000      -0.869616       -23.6634
 120   2.0000      -0.861288       -23.4368
 121   2.0000      -0.852339       -23.1933
 122   2.0000      -0.832974       -22.6664
 123   2.0000      -0.825134       -22.4530
 124   2.0000      -0.822798       -22.3895
 125   2.0000      -0.818906       -22.2836
 126   2.0000      -0.806507       -21.9462
 127   2.0000      -0.805236       -21.9116
 128   2.0000      -0.795423       -21.6446
 129   2.0000      -0.794988       -21.6327
 130   2.0000      -0.784744       -21.3540
 131   2.0000      -0.772425       -21.0187
 132   2.0000      -0.762095       -20.7377
 133   2.0000      -0.744424       -20.2568
 134   2.0000      -0.729434       -19.8489
 135   2.0000      -0.721788       -19.6408
 136   2.0000      -0.721241       -19.6260
 137   2.0000      -0.720045       -19.5934
 138   2.0000      -0.717488       -19.5238
 139   2.0000      -0.714770       -19.4499
 140   2.0000      -0.712886       -19.3986
 141   2.0000      -0.711982       -19.3740
 142   2.0000      -0.690443       -18.7879
 143   2.0000      -0.689694       -18.7675
 144   2.0000      -0.686776       -18.6881
 145   2.0000      -0.684408       -18.6237
 146   2.0000      -0.679282       -18.4842
 147   2.0000      -0.676279       -18.4025
 148   2.0000      -0.671471       -18.2717
 149   2.0000      -0.670751       -18.2521
 150   2.0000      -0.668863       -18.2007
 151   2.0000      -0.666642       -18.1403
 152   2.0000      -0.659934       -17.9577
 153   2.0000      -0.659198       -17.9377
 154   2.0000      -0.656139       -17.8544
 155   2.0000      -0.651600       -17.7309
 156   2.0000      -0.649797       -17.6819
 157   2.0000      -0.643922       -17.5220
 158   2.0000      -0.640929       -17.4406
 159   2.0000      -0.631825       -17.1928
 160   2.0000      -0.629155       -17.1202
 161   2.0000      -0.620518       -16.8851
 162   2.0000      -0.614422       -16.7193
 163   2.0000      -0.609184       -16.5767
 164   2.0000      -0.601258       -16.3611
 165   2.0000      -0.594098       -16.1662
 166   2.0000      -0.590132       -16.0583
 167   2.0000      -0.589869       -16.0511
 168   2.0000      -0.589323       -16.0363
 169   2.0000      -0.581855       -15.8331
 170   2.0000      -0.580942       -15.8082
 171   2.0000      -0.579199       -15.7608
 172   2.0000      -0.575447       -15.6587
 173   2.0000      -0.570142       -15.5144
 174   2.0000      -0.569292       -15.4912
 175   2.0000      -0.567775       -15.4499
 176   2.0000      -0.566615       -15.4184
 177   2.0000      -0.565704       -15.3936
 178   2.0000      -0.564632       -15.3644
 179   2.0000      -0.564340       -15.3565
 180   2.0000      -0.560099       -15.2411
 181   2.0000      -0.556278       -15.1371
 182   2.0000      -0.553673       -15.0662
 183   2.0000      -0.550015       -14.9667
 184   2.0000      -0.548774       -14.9329
 185   2.0000      -0.547101       -14.8874
 186   2.0000      -0.547015       -14.8850
 187   2.0000      -0.542165       -14.7531
 188   2.0000      -0.541110       -14.7244
 189   2.0000      -0.537517       -14.6266
 190   2.0000      -0.535409       -14.5692
 191   2.0000      -0.529909       -14.4196
 192   2.0000      -0.523335       -14.2407
 193   2.0000      -0.521680       -14.1956
 194   2.0000      -0.514871       -14.0104
 195   2.0000      -0.513428       -13.9711
 196   2.0000      -0.512119       -13.9355
 197   2.0000      -0.510912       -13.9026
 198   2.0000      -0.509786       -13.8720
 199   2.0000      -0.501769       -13.6538
 200   2.0000      -0.501312       -13.6414
 201   2.0000      -0.497851       -13.5472
 202   2.0000      -0.495689       -13.4884
 203   2.0000      -0.493903       -13.4398
 204   2.0000      -0.489631       -13.3235
 205   2.0000      -0.488181       -13.2841
 206   2.0000      -0.486466       -13.2374
 207   2.0000      -0.484580       -13.1861
 208   2.0000      -0.483557       -13.1582
 209   2.0000      -0.481338       -13.0979
 210   2.0000      -0.478524       -13.0213
 211   2.0000      -0.474909       -12.9229
 212   2.0000      -0.471983       -12.8433
 213   2.0000      -0.471249       -12.8233
 214   2.0000      -0.468248       -12.7417
 215   2.0000      -0.467261       -12.7148
 216   2.0000      -0.464044       -12.6273
 217   2.0000      -0.461762       -12.5652
 218   2.0000      -0.460841       -12.5401
 219   2.0000      -0.460146       -12.5212
 220   2.0000      -0.457734       -12.4556
 221   2.0000      -0.456420       -12.4198
 222   2.0000      -0.456042       -12.4095
 223   2.0000      -0.455592       -12.3973
 224   2.0000      -0.452644       -12.3171
 225   2.0000      -0.451367       -12.2823
 226   2.0000      -0.450648       -12.2628
 227   2.0000      -0.450089       -12.2475
 228   2.0000      -0.449490       -12.2312
 229   2.0000      -0.446532       -12.1508
 230   2.0000      -0.441299       -12.0084
 231   2.0000      -0.436900       -11.8887
 232   2.0000      -0.436290       -11.8720
 233   2.0000      -0.435357       -11.8467
 234   2.0000      -0.435052       -11.8384
 235   2.0000      -0.433844       -11.8055
 236   2.0000      -0.433300       -11.7907
 237   2.0000      -0.432590       -11.7714
 238   2.0000      -0.431448       -11.7403
 239   2.0000      -0.429901       -11.6982
 240   2.0000      -0.427301       -11.6275
 241   2.0000      -0.419676       -11.4200
 242   2.0000      -0.419151       -11.4057
 243   2.0000      -0.416848       -11.3430
 244   2.0000      -0.415449       -11.3050
 245   2.0000      -0.414465       -11.2782
 246   2.0000      -0.411695       -11.2028
 247   2.0000      -0.403898       -10.9906
 248   2.0000      -0.398975       -10.8567
 249   2.0000      -0.395785       -10.7698
 250   2.0000      -0.389299       -10.5934
 251   2.0000      -0.388676       -10.5764
 252   2.0000      -0.387206       -10.5364
 253   2.0000      -0.367304        -9.9948
 254   2.0000      -0.359470        -9.7817
 255   2.0000      -0.343528        -9.3479
 256   2.0000      -0.338214        -9.2033
 257   2.0000      -0.337734        -9.1902
 258   2.0000      -0.336507        -9.1568
 259   2.0000      -0.329627        -8.9696
 260   2.0000      -0.324277        -8.8240
 261   2.0000      -0.314297        -8.5525
 262   2.0000      -0.313044        -8.5184
 263   2.0000      -0.305073        -8.3015
 264   2.0000      -0.287332        -7.8187
 265   2.0000      -0.278891        -7.5890
 266   2.0000      -0.246148        -6.6980
 267   0.0000      -0.150587        -4.0977
 268   0.0000      -0.123626        -3.3640
 269   0.0000      -0.092863        -2.5269
 270   0.0000      -0.091406        -2.4873
 271   0.0000      -0.090132        -2.4526

MULLIKEN ATOMIC CHARGES
-----------------------
   0 C :   -0.032205
   1 C :    0.046864
   2 C :    0.047495
   3 C :   -0.032657
   4 C :    0.001627
   5 C :    0.014047
   6 C :    0.292965
   7 C :   -0.342826
   8 C :   -0.189759
   9 N :    0.163009
  10 C :   -0.179813
  11 N :    0.159390
  12 C :   -0.050882
  13 C :    0.227007
  14 C :   -0.326038
  15 C :   -0.203142
  16 N :    0.192266
  17 C :   -0.185990
  18 N :    0.169353
  19 C :    0.038547
  20 C :    0.039408
  21 C :   -0.051910
  22 C :   -0.005971
  23 C :    0.268025
  24 C :   -0.063481
  25 F :   -0.173850
  26 C :    0.034162
  27 C :   -0.088762
  28 C :    0.126173
  29 C :   -0.076409
  30 C :    0.262701
  31 F :   -0.168704
  32 C :   -0.016716
  33 C :   -0.014253
  34 C :   -0.111152
  35 S :    0.157002
  36 C :   -0.095462
  37 C :    0.109295
  38 C :    0.118581
  39 N :   -0.020603
  40 C :    0.136277
  41 N :    0.289680
  42 O :   -0.264823
  43 O :   -0.223500
  44 C :   -0.091823
  45 C :    0.109397
  46 C :   -0.104383
  47 C :    0.027826
  48 C :    0.266225
  49 C :   -0.095074
  50 F :   -0.165709
  51 C :   -0.001589
  52 C :   -0.060165
  53 C :    0.106105
  54 C :   -0.059170
  55 C :    0.256581
  56 F :   -0.173320
  57 C :    0.017636
  58 C :   -0.005394
  59 C :    0.033797
  60 C :   -0.056771
  61 C :    0.302313
  62 C :   -0.344678
  63 C :   -0.184186
  64 N :    0.155980
  65 C :   -0.185600
  66 N :    0.161040
  67 C :    0.011600
  68 C :    0.009417
  69 C :   -0.032788
  70 C :    0.048016
  71 C :    0.048123
  72 C :   -0.033636
  73 C :    0.240326
  74 C :   -0.328098
  75 C :   -0.182896
  76 N :    0.161977
  77 C :   -0.219598
  78 N :    0.185237
  79 H :    0.007345
  80 H :    0.005204
  81 H :    0.005969
  82 H :    0.007728
  83 H :    0.014302
  84 H :    0.009352
  85 H :   -0.000692
  86 H :   -0.006794
  87 H :   -0.015115
  88 H :   -0.001794
  89 H :   -0.011335
  90 H :    0.147886
  91 H :    0.011780
  92 H :   -0.022431
  93 H :   -0.001855
  94 H :   -0.002249
  95 H :   -0.010343
  96 H :    0.010649
  97 H :    0.023030
  98 H :    0.015207
  99 H :    0.006086
 100 H :    0.005492
 101 H :    0.004740
 102 H :    0.006153
Sum of atomic charges:   -0.0000000

LOEWDIN ATOMIC CHARGES
----------------------
   0 C :    0.005451
   1 C :    0.002311
   2 C :    0.005091
   3 C :    0.001542
   4 C :   -0.010286
   5 C :   -0.013214
   6 C :    0.077440
   7 C :   -0.130622
   8 C :   -0.019041
   9 N :   -0.044637
  10 C :   -0.022213
  11 N :   -0.042460
  12 C :   -0.045746
  13 C :    0.065556
  14 C :   -0.124488
  15 C :   -0.018832
  16 N :   -0.032168
  17 C :   -0.019849
  18 N :   -0.043664
  19 C :    0.061150
  20 C :   -0.027130
  21 C :   -0.003370
  22 C :   -0.008749
  23 C :    0.078169
  24 C :   -0.044562
  25 F :   -0.049506
  26 C :    0.021394
  27 C :   -0.055731
  28 C :    0.013928
  29 C :   -0.057658
  30 C :    0.091170
  31 F :   -0.045065
  32 C :   -0.018668
  33 C :   -0.020872
  34 C :   -0.189602
  35 S :    0.477965
  36 C :   -0.143078
  37 C :   -0.056052
  38 C :    0.005201
  39 N :    0.080909
  40 C :    0.003622
  41 N :    0.278862
  42 O :   -0.220750
  43 O :   -0.185471
  44 C :   -0.019748
  45 C :   -0.013180
  46 C :   -0.054418
  47 C :    0.009457
  48 C :    0.089809
  49 C :   -0.064794
  50 F :   -0.041584
  51 C :   -0.005791
  52 C :   -0.018799
  53 C :   -0.009108
  54 C :   -0.048491
  55 C :    0.080012
  56 F :   -0.050255
  57 C :    0.046051
  58 C :   -0.023805
  59 C :    0.058004
  60 C :   -0.055493
  61 C :    0.077002
  62 C :   -0.130973
  63 C :   -0.021146
  64 N :   -0.044759
  65 C :   -0.019058
  66 N :   -0.044750
  67 C :   -0.013383
  68 C :   -0.010838
  69 C :    0.001569
  70 C :    0.004878
  71 C :    0.002390
  72 C :    0.005328
  73 C :    0.069332
  74 C :   -0.130995
  75 C :   -0.020275
  76 N :   -0.042636
  77 C :   -0.027948
  78 N :   -0.038862
  79 H :    0.041840
  80 H :    0.038128
  81 H :    0.038102
  82 H :    0.041180
  83 H :    0.049349
  84 H :    0.024602
  85 H :    0.037108
  86 H :    0.027469
  87 H :    0.029409
  88 H :    0.031191
  89 H :    0.033883
  90 H :    0.098292
  91 H :    0.045016
  92 H :    0.022389
  93 H :    0.029310
  94 H :    0.029019
  95 H :    0.032778
  96 H :    0.043654
  97 H :    0.032561
  98 H :    0.046772
  99 H :    0.041138
 100 H :    0.038063
 101 H :    0.038005
 102 H :    0.041718

  Mayer bond orders larger than 0.100000
B(  0-C ,  1-C ) :   1.3712 B(  0-C ,  5-C ) :   1.3830 B(  0-C , 79-H ) :   0.9832
B(  1-C ,  2-C ) :   1.3758 B(  1-C , 80-H ) :   0.9861 B(  2-C ,  3-C ) :   1.3674
B(  2-C , 81-H ) :   0.9867 B(  3-C ,  4-C ) :   1.3812 B(  3-C , 82-H ) :   0.9869
B(  4-C ,  5-C ) :   1.3111 B(  4-C , 13-C ) :   1.0058 B(  5-C ,  6-C ) :   0.9986
B(  6-C ,  7-C ) :   1.6380 B(  6-C , 12-C ) :   1.0539 B(  7-C ,  8-C ) :   1.1476
B(  7-C , 10-C ) :   1.1358 B(  8-C ,  9-N ) :   2.9780 B( 10-C , 11-N ) :   2.9735
B( 12-C , 13-C ) :   1.0167 B( 12-C , 19-C ) :   1.5937 B( 13-C , 14-C ) :   1.6665
B( 14-C , 15-C ) :   1.1565 B( 14-C , 17-C ) :   1.1381 B( 15-C , 16-N ) :   3.0097
B( 17-C , 18-N ) :   2.9969 B( 19-C , 20-C ) :   1.1519 B( 19-C , 83-H ) :   0.9278
B( 20-C , 21-C ) :   1.4817 B( 20-C , 24-C ) :   1.0288 B( 21-C , 22-C ) :   1.1548
B( 21-C , 84-H ) :   1.0030 B( 22-C , 23-C ) :   1.0374 B( 22-C , 26-C ) :   1.4199
B( 23-C , 24-C ) :   1.6433 B( 23-C , 25-F ) :   1.1279 B( 24-C , 85-H ) :   1.0199
B( 26-C , 27-C ) :   1.1668 B( 26-C , 30-C ) :   1.0072 B( 27-C , 28-C ) :   1.4434
B( 27-C , 86-H ) :   1.0252 B( 28-C , 29-C ) :   1.0026 B( 28-C , 32-C ) :   1.2029
B( 29-C , 30-C ) :   1.6871 B( 29-C , 87-H ) :   1.0102 B( 30-C , 31-F ) :   1.1284
B( 32-C , 33-C ) :   1.5074 B( 32-C , 88-H ) :   0.9816 B( 33-C , 34-C ) :   1.2390
B( 33-C , 89-H ) :   0.9807 B( 34-C , 35-S ) :   1.0894 B( 34-C , 38-C ) :   1.3104
B( 35-S , 36-C ) :   1.1400 B( 36-C , 37-C ) :   1.2807 B( 36-C , 45-C ) :   1.2367
B( 37-C , 38-C ) :   1.2482 B( 37-C , 44-C ) :   1.1632 B( 38-C , 39-N ) :   1.2138
B( 39-N , 40-C ) :   1.1760 B( 39-N , 90-H ) :   0.9054 B( 40-C , 41-N ) :   0.9187
B( 40-C , 44-C ) :   1.5142 B( 41-N , 42-O ) :   1.4711 B( 41-N , 43-O ) :   1.5469
B( 42-O , 43-O ) :   0.2752 B( 44-C , 91-H ) :   1.0219 B( 45-C , 46-C ) :   1.4573
B( 45-C , 49-C ) :   1.0007 B( 46-C , 47-C ) :   1.1869 B( 46-C , 92-H ) :   1.0146
B( 47-C , 48-C ) :   1.0126 B( 47-C , 51-C ) :   1.4038 B( 48-C , 49-C ) :   1.6768
B( 48-C , 50-F ) :   1.1383 B( 49-C , 93-H ) :   1.0101 B( 51-C , 52-C ) :   1.1445
B( 51-C , 55-C ) :   1.0299 B( 52-C , 53-C ) :   1.4625 B( 52-C , 94-H ) :   1.0218
B( 53-C , 54-C ) :   1.0223 B( 53-C , 57-C ) :   1.1527 B( 54-C , 55-C ) :   1.6703
B( 54-C , 95-H ) :   1.0105 B( 55-C , 56-F ) :   1.1207 B( 57-C , 58-C ) :   1.5472
B( 57-C , 96-H ) :   0.9917 B( 58-C , 59-C ) :   1.1885 B( 58-C , 97-H ) :   0.9671
B( 59-C , 60-C ) :   1.5282 B( 59-C , 98-H ) :   0.9495 B( 60-C , 61-C ) :   1.0556
B( 60-C , 73-C ) :   1.0358 B( 61-C , 62-C ) :   1.6368 B( 61-C , 67-C ) :   0.9978
B( 62-C , 63-C ) :   1.1388 B( 62-C , 65-C ) :   1.1448 B( 63-C , 64-N ) :   2.9726
B( 65-C , 66-N ) :   2.9769 B( 67-C , 68-C ) :   1.3141 B( 67-C , 72-C ) :   1.3832
B( 68-C , 69-C ) :   1.3837 B( 68-C , 73-C ) :   1.0096 B( 69-C , 70-C ) :   1.3634
B( 69-C , 99-H ) :   0.9861 B( 70-C , 71-C ) :   1.3797 B( 70-C ,100-H ) :   0.9863
B( 71-C , 72-C ) :   1.3699 B( 71-C ,101-H ) :   0.9857 B( 72-C ,102-H ) :   0.9836
B( 73-C , 74-C ) :   1.6339 B( 74-C , 75-C ) :   1.1391 B( 74-C , 77-C ) :   1.1504
B( 75-C , 76-N ) :   2.9900 B( 77-C , 78-N ) :   3.0190

-----------------------------------------------------------------------------
         ABSORPTION SPECTRUM VIA TRANSITION ELECTRIC DIPOLE MOMENTS
-----------------------------------------------------------------------------
State   Energy  Wavelength   fosc         T2         TX        TY        TZ
        (cm-1)    (nm)                  (au**2)     (au)      (au)      (au)
-----------------------------------------------------------------------------
   0    8158.9   1225.7   1.809223142  73.00191  -0.38589  -8.32474   1.88459
   1   13112.4    762.6   0.072027940   1.80840  -0.97650   0.42649   0.82034
   2   14330.5    697.8   0.028254063   0.64908   0.04717   0.80413  -0.01516
   3   14882.6    671.9   0.020751482   0.45903   0.07297   0.58364  -0.33627
   4   17854.1    560.1   0.009733890   0.17948  -0.05034   0.41482   0.06980
   5   19719.9    507.1   0.507350527   8.46991   0.36678   2.76772  -0.82166
   6   20407.6    490.0   0.316950589   5.11299  -0.00272   2.23535  -0.34087
   7   21325.7    468.9   0.032708412   0.50493   0.69321   0.14789  -0.05020
   8   21444.1    466.3   0.120967964   1.85711   0.32401  -0.82291  -1.03680
   9   21989.7    454.8   0.088281816   1.32168  -0.30286   0.05390   1.10772
  10   22299.0    448.5   0.003134348   0.04627   0.19309  -0.09423  -0.01055
  11   23141.7    432.1   0.107779157   1.53326   0.30648   0.97031  -0.70557
  12   23595.6    423.8   0.001847321   0.02577   0.08000  -0.11698  -0.07542
  13   24375.2    410.3   0.082816931   1.11853  -0.11115  -1.05174   0.00224
  14   25027.2    399.6   0.015318839   0.20151   0.11345  -0.16254  -0.40276
  15   25633.2    390.1   0.018157964   0.23321  -0.30385   0.27033   0.26039
  16   26023.7    384.3   0.063581136   0.80433  -0.35314  -0.09751   0.81860
  17   26722.4    374.2   0.730994550   9.00564   0.56786  -2.94308  -0.14648
  18   27074.8    369.3   0.012773273   0.15531  -0.26406  -0.06069   0.28618
  19   27653.8    361.6   0.041140662   0.48977  -0.37892  -0.07536   0.58354
  20   27883.5    358.6   0.018216822   0.21508  -0.28528  -0.31373   0.18779
  21   28118.8    355.6   0.048194827   0.56426  -0.00985   0.75089   0.01804
  22   28252.2    354.0   0.019571102   0.22805   0.22442  -0.15751  -0.39100
  23   28393.7    352.2   0.090146373   1.04521  -0.18612  -0.66108   0.75733
  24   29207.9    342.4   0.018705615   0.21084  -0.09801   0.38144   0.23608
  25   29931.3    334.1   0.017303400   0.19032   0.34748  -0.07852  -0.25182
  26   30628.8    326.5   0.018375943   0.19751  -0.25280  -0.21273   0.29724
  27   31099.5    321.5   0.098088115   1.03834  -0.33012   0.60437   0.75107
  28   31275.0    319.7   0.095039421   1.00042   0.43865   0.42565  -0.79173
  29   31409.2    318.4   0.021983643   0.23042   0.12534  -0.45226  -0.10085
  30   31785.0    314.6   0.593067192   6.14267  -0.02620   1.79950   1.70405
  31   31975.3    312.7   0.625789233   6.44301  -0.69834  -0.26335   2.42610
  32   32012.2    312.4   0.103611695   1.06554   0.24388   0.80515   0.59816
  33   32454.1    308.1   0.002153763   0.02185  -0.04180   0.02946   0.13868
  34   32947.3    303.5   0.003535093   0.03532  -0.00625  -0.08841  -0.16573
  35   33200.6    301.2   0.002651532   0.02629  -0.01213  -0.10872   0.11969
  36   33762.4    296.2   0.009944816   0.09697   0.02078   0.30255   0.07074
  37   34008.1    294.0   0.050274123   0.48667  -0.59583  -0.14471   0.33275
  38   34184.9    292.5   0.025399890   0.24461  -0.23391  -0.43535   0.01920
  39   34542.1    289.5   0.138807193   1.32294  -0.64490   0.94440   0.12310
  40   34974.7    285.9   0.048923233   0.46051  -0.47960   0.13341   0.46119
  41   35231.0    283.8   0.023848616   0.22285   0.21111   0.26955  -0.32500
  42   35325.9    283.1   0.042607649   0.39707   0.11102  -0.50206   0.36425
  43   35659.4    280.4   0.033434343   0.30867  -0.03403   0.45222   0.32095
  44   35801.5    279.3   0.426380627   3.92078   0.11813   1.83477  -0.73516
  45   36247.9    275.9   0.208655019   1.89506  -1.30168   0.02312   0.44738
  46   36341.5    275.2   0.044967586   0.40735  -0.32046  -0.52827   0.15997
  47   36759.1    272.0   0.014213649   0.12730  -0.20584   0.13588   0.25781
  48   36775.6    271.9   0.037960567   0.33982   0.34043  -0.08976  -0.46462
  49   36882.7    271.1   0.017486162   0.15608  -0.23438  -0.00458   0.31800
  50   37557.1    266.3   0.017940259   0.15726  -0.00230   0.30740  -0.25052
  51   37795.3    264.6   0.038085645   0.33174  -0.22920  -0.00639   0.52836
  52   37892.0    263.9   0.019938227   0.17323   0.33671   0.00386  -0.24462
  53   37985.8    263.3   0.059100387   0.51221   0.15948   0.69762   0.00993
  54   38867.7    257.3   0.511784767   4.33485   1.05315  -1.10127  -1.41878
  55   38967.8    256.6   0.070557502   0.59609  -0.42491  -0.62243  -0.16772
  56   39163.1    255.3   0.040997115   0.34463  -0.11641  -0.52413   0.23742
  57   39316.2    254.3   0.044359078   0.37144   0.46809   0.35344   0.16556
  58   39448.8    253.5   0.001589381   0.01326  -0.04020   0.10608   0.01986
  59   39742.4    251.6   0.080189522   0.66426   0.25836  -0.52987  -0.56280
  60   39779.9    251.4   0.175745895   1.45445  -0.57907   0.94034   0.48466
  61   40146.2    249.1   0.016840475   0.13810   0.10935  -0.32799   0.13624
  62   40169.7    248.9   0.172450512   1.41332   0.52479   0.57111  -0.90097

FINAL SINGLE POINT ENERGY     -3867.661095137561

DIPOLE MOMENT
-------------
                                X             Y             Z
Electronic contribution:     -7.92381      15.65959      -0.54715
Nuclear contribution   :     11.13524     -16.39003       0.40589
                        -----------------------------------------
Total Dipole Moment    :      3.21143      -0.73045      -0.14126
                        -----------------------------------------
Magnitude (a.u.)       :      3.29648
Magnitude (Debye)      :      8.37899

Rotational constants in cm-1:     0.002300     0.000142     0.000135
Rotational constants in MHz :    68.957220     4.248371     4.051046

                             ****ORCA TERMINATED NORMALLY****
TOTAL RUN TIME: 0 days 0 hours 11 minutes 57 seconds 627 msec
