                         Program Version 4.2.0 -  RELEASE  -
|  1> # ORCA input file
|  2> # SCF done       -194.633843604053          0.004510722566
|  3> ! CAM-B3LYP def2-SVP def2/J RIJCOSX Grid4 TightSCF
|  4> %maxcore 5000
|  5> %tddft
|  6>     Mode sTDDFT
|  7>     Ethresh 5.0
|  8>     maxcore 5000
|  9> end
| 10>
| 11> %pal
| 12>   nprocs 6
| 13>   end
| 14> * xyz 0 1
| 15>    C       -4.66614        -5.89103        -7.15668
| 16>    C       -3.32232        -6.16688        -7.36314
| 17>    C       -2.70474        -7.23725        -6.73128
| 18>    C       -3.41346        -8.07066        -5.87828
| 19>    C       -4.74968        -7.79419        -5.65165
| 20>    C       -5.38149        -6.69816        -6.28606
| 21>    C       -6.76335        -6.62406        -5.83229
| 22>    C       -7.74814        -5.82163        -6.34102
| 23>    C       -7.55517        -4.90644        -7.39891
| 24>    N       -7.45880        -4.13416        -8.24197
| 25>    C       -9.08770        -5.83170        -5.90466
| 26>    N      -10.19068        -5.78186        -5.58780
| 27>    C       -6.87787        -7.56819        -4.72019
| 28>    C       -5.74375        -8.47850        -4.84222
| 29>    C       -5.76349        -9.80571        -4.52263
| 30>    C       -6.94774       -10.45673        -4.11297
| 31>    N       -7.92053       -11.00559        -3.85515
| 32>    C       -4.66934       -10.67281        -4.72039
| 33>    N       -3.80563       -11.41640        -4.84836
| 34>    C       -7.71483        -7.35641        -3.66701
| 35>    C       -7.64078        -7.77799        -2.31510
| 36>    S       -6.56382        -8.99310        -1.67915
| 37>    C       -7.00977        -8.61456        -0.07610
| 38>    C       -7.92675        -7.60324         0.00258
| 39>    C       -8.29971        -7.12794        -1.26970
| 40>    C       -9.14363        -5.89790        -1.44866
| 41>    C       -9.79461        -5.44057        -0.13794
| 42>    C       -8.83238        -5.55086         1.03779
| 43>    C       -8.46549        -7.01651         1.26678
| 44>    N       -8.25138        -4.87734        -1.98147
| 45>    C       -8.50241        -4.11715        -3.05832
| 46>    C       -7.41680        -3.69071        -3.86780
| 47>    C       -7.59964        -2.80962        -4.99837
| 48>    N       -6.51524        -2.43419        -5.71032
| 49>    C       -5.35836        -2.97371        -5.43688
| 50>    C       -5.20839        -3.94251        -4.38810
| 51>    N       -6.22634        -4.23762        -3.60946
| 52>    C       -3.98919        -4.62817        -4.19795
| 53>    N       -3.01112        -5.21548        -4.08324
| 54>    C       -4.22781        -2.61336        -6.21229
| 55>    N       -3.29319        -2.37159        -6.82800
| 56>    C       -8.87128        -2.38363        -5.39188
| 57>    C       -9.95378        -2.86241        -4.63040
| 58>    C       -9.78348        -3.72828        -3.48718
| 59>    N      -10.95525        -4.07197        -2.94394
| 60>    S      -12.13424        -3.37548        -3.76629
| 61>    N      -11.24446        -2.58742        -4.84321
| 62>    C       -9.10659        -1.59784        -6.59166
| 63>    S      -10.24551        -2.16688        -7.76578
| 64>    C       -9.96682        -0.78898        -8.74863
| 65>    C       -9.06237         0.07185        -8.20754
| 66>    C       -8.55575        -0.39914        -6.97036
| 67>    C       -7.62701         0.40799        -6.10027
| 68>    C       -7.14434         1.67157        -6.80822
| 69>    C       -8.23579         2.32526        -7.65379
| 70>    C       -8.63557         1.38224        -8.78635
| 71>    N       -8.34413         0.64350        -4.85014
| 72>    C       -8.75125         1.77917        -4.33264
| 73>    C       -9.58693         1.94245        -3.24024
| 74>    C      -10.22730         3.20832        -2.93311
| 75>    C       -9.88369         4.45725        -3.38755
| 76>    C       -8.80265         4.74652        -4.24410
| 77>    N       -7.93587         5.04269        -4.93930
| 78>    C      -10.55303         5.64472        -3.02621
| 79>    N      -11.04730         6.65119        -2.77944
| 80>    C      -11.32376         2.91546        -2.01801
| 81>    C      -11.29541         1.53888        -1.70639
| 82>    C      -12.25094         0.98655        -0.86930
| 83>    C      -13.23392         1.81348        -0.34741
| 84>    C      -13.25743         3.16783        -0.64559
| 85>    C      -12.30409         3.73286        -1.47979
| 86>    C      -10.14596         0.93755        -2.36999
| 87>    C       -9.63215        -0.30380        -2.05432
| 88>    C      -10.25694        -1.24930        -1.22038
| 89>    N      -10.69181        -2.10321        -0.58497
| 90>    C       -8.35455        -0.77033        -2.39863
| 91>    N       -7.30540        -1.20207        -2.59657
| 92>    H       -5.12866        -5.05650        -7.66015
| 93>    H       -2.75120        -5.52698        -8.01719
| 94>    H       -1.65589        -7.42496        -6.90252
| 95>    H       -2.92566        -8.89763        -5.38782
| 96>    H       -8.48292        -6.61247        -3.83278
| 97>    H       -6.55840        -9.15291         0.73417
| 98>    H       -9.93982        -6.05943        -2.18379
| 99>    H      -10.67054        -6.06234         0.04970
|100>    H      -10.13221        -4.41237        -0.26925
|101>    H       -9.29983        -5.14412         1.93456
|102>    H       -7.93098        -4.96921         0.83528
|103>    H       -9.35957        -7.57125         1.56671
|104>    H       -7.72963        -7.11696         2.06631
|105>    H       -7.26115        -5.01104        -1.80879
|106>    H      -10.49241        -0.68902        -9.67714
|107>    H       -6.75971        -0.21336        -5.83698
|108>    H       -6.32572         1.37969        -7.46877
|109>    H       -6.73665         2.37556        -6.08135
|110>    H       -7.86546         3.26671        -8.06032
|111>    H       -9.11560         2.54690        -7.04571
|112>    H       -7.78001         1.22506        -9.44965
|113>    H       -9.44378         1.80921        -9.38194
|114>    H       -8.65506        -0.22345        -4.42875
|115>    H       -8.44816         2.67029        -4.86013
|116>    H      -12.24640        -0.06470        -0.63070
|117>    H      -13.98980         1.39510         0.29954
|118>    H      -14.02978         3.79382        -0.22576
|119>    H      -12.33943         4.78658        -1.70113
|120> *
|121>
|122>                          ****END OF INPUT****

CARTESIAN COORDINATES (ANGSTROEM)
---------------------------------
  C     -4.666140   -5.891030   -7.156680
  C     -3.322320   -6.166880   -7.363140
  C     -2.704740   -7.237250   -6.731280
  C     -3.413460   -8.070660   -5.878280
  C     -4.749680   -7.794190   -5.651650
  C     -5.381490   -6.698160   -6.286060
  C     -6.763350   -6.624060   -5.832290
  C     -7.748140   -5.821630   -6.341020
  C     -7.555170   -4.906440   -7.398910
  N     -7.458800   -4.134160   -8.241970
  C     -9.087700   -5.831700   -5.904660
  N    -10.190680   -5.781860   -5.587800
  C     -6.877870   -7.568190   -4.720190
  C     -5.743750   -8.478500   -4.842220
  C     -5.763490   -9.805710   -4.522630
  C     -6.947740  -10.456730   -4.112970
  N     -7.920530  -11.005590   -3.855150
  C     -4.669340  -10.672810   -4.720390
  N     -3.805630  -11.416400   -4.848360
  C     -7.714830   -7.356410   -3.667010
  C     -7.640780   -7.777990   -2.315100
  S     -6.563820   -8.993100   -1.679150
  C     -7.009770   -8.614560   -0.076100
  C     -7.926750   -7.603240    0.002580
  C     -8.299710   -7.127940   -1.269700
  C     -9.143630   -5.897900   -1.448660
  C     -9.794610   -5.440570   -0.137940
  C     -8.832380   -5.550860    1.037790
  C     -8.465490   -7.016510    1.266780
  N     -8.251380   -4.877340   -1.981470
  C     -8.502410   -4.117150   -3.058320
  C     -7.416800   -3.690710   -3.867800
  C     -7.599640   -2.809620   -4.998370
  N     -6.515240   -2.434190   -5.710320
  C     -5.358360   -2.973710   -5.436880
  C     -5.208390   -3.942510   -4.388100
  N     -6.226340   -4.237620   -3.609460
  C     -3.989190   -4.628170   -4.197950
  N     -3.011120   -5.215480   -4.083240
  C     -4.227810   -2.613360   -6.212290
  N     -3.293190   -2.371590   -6.828000
  C     -8.871280   -2.383630   -5.391880
  C     -9.953780   -2.862410   -4.630400
  C     -9.783480   -3.728280   -3.487180
  N    -10.955250   -4.071970   -2.943940
  S    -12.134240   -3.375480   -3.766290
  N    -11.244460   -2.587420   -4.843210
  C     -9.106590   -1.597840   -6.591660
  S    -10.245510   -2.166880   -7.765780
  C     -9.966820   -0.788980   -8.748630
  C     -9.062370    0.071850   -8.207540
  C     -8.555750   -0.399140   -6.970360
  C     -7.627010    0.407990   -6.100270
  C     -7.144340    1.671570   -6.808220
  C     -8.235790    2.325260   -7.653790
  C     -8.635570    1.382240   -8.786350
  N     -8.344130    0.643500   -4.850140
  C     -8.751250    1.779170   -4.332640
  C     -9.586930    1.942450   -3.240240
  C    -10.227300    3.208320   -2.933110
  C     -9.883690    4.457250   -3.387550
  C     -8.802650    4.746520   -4.244100
  N     -7.935870    5.042690   -4.939300
  C    -10.553030    5.644720   -3.026210
  N    -11.047300    6.651190   -2.779440
  C    -11.323760    2.915460   -2.018010
  C    -11.295410    1.538880   -1.706390
  C    -12.250940    0.986550   -0.869300
  C    -13.233920    1.813480   -0.347410
  C    -13.257430    3.167830   -0.645590
  C    -12.304090    3.732860   -1.479790
  C    -10.145960    0.937550   -2.369990
  C     -9.632150   -0.303800   -2.054320
  C    -10.256940   -1.249300   -1.220380
  N    -10.691810   -2.103210   -0.584970
  C     -8.354550   -0.770330   -2.398630
  N     -7.305400   -1.202070   -2.596570
  H     -5.128660   -5.056500   -7.660150
  H     -2.751200   -5.526980   -8.017190
  H     -1.655890   -7.424960   -6.902520
  H     -2.925660   -8.897630   -5.387820
  H     -8.482920   -6.612470   -3.832780
  H     -6.558400   -9.152910    0.734170
  H     -9.939820   -6.059430   -2.183790
  H    -10.670540   -6.062340    0.049700
  H    -10.132210   -4.412370   -0.269250
  H     -9.299830   -5.144120    1.934560
  H     -7.930980   -4.969210    0.835280
  H     -9.359570   -7.571250    1.566710
  H     -7.729630   -7.116960    2.066310
  H     -7.261150   -5.011040   -1.808790
  H    -10.492410   -0.689020   -9.677140
  H     -6.759710   -0.213360   -5.836980
  H     -6.325720    1.379690   -7.468770
  H     -6.736650    2.375560   -6.081350
  H     -7.865460    3.266710   -8.060320
  H     -9.115600    2.546900   -7.045710
  H     -7.780010    1.225060   -9.449650
  H     -9.443780    1.809210   -9.381940
  H     -8.655060   -0.223450   -4.428750
  H     -8.448160    2.670290   -4.860130
  H    -12.246400   -0.064700   -0.630700
  H    -13.989800    1.395100    0.299540
  H    -14.029780    3.793820   -0.225760
  H    -12.339430    4.786580   -1.701130

 Total Charge           Charge          ....    0
 Multiplicity           Mult            ....    1
 Number of Electrons    NEL             ....  536
 Basis Dimension        Dim             .... 1230

ORBITAL ENERGIES
----------------

  NO   OCC          E(Eh)            E(eV)
   0   2.0000     -89.044703     -2423.0296
   1   2.0000     -88.981762     -2421.3168
   2   2.0000     -88.948778     -2420.4193
   3   2.0000     -14.487021      -394.2119
   4   2.0000     -14.470826      -393.7712
   5   2.0000     -14.467819      -393.6894
   6   2.0000     -14.459442      -393.4614
   7   2.0000     -14.459198      -393.4548
   8   2.0000     -14.446410      -393.1068
   9   2.0000     -14.436404      -392.8345
  10   2.0000     -14.435185      -392.8013
  11   2.0000     -14.434779      -392.7903
  12   2.0000     -14.429760      -392.6537
  13   2.0000     -14.428910      -392.6306
  14   2.0000     -14.426329      -392.5604
  15   2.0000     -14.425179      -392.5291
  16   2.0000     -14.424393      -392.5077
  17   2.0000     -14.423954      -392.4957
  18   2.0000     -14.415711      -392.2714
  19   2.0000     -10.385302      -282.5984
  20   2.0000     -10.375186      -282.3232
  21   2.0000     -10.369426      -282.1664
  22   2.0000     -10.368816      -282.1498
  23   2.0000     -10.359514      -281.8967
  24   2.0000     -10.357884      -281.8523
  25   2.0000     -10.356855      -281.8244
  26   2.0000     -10.353130      -281.7230
  27   2.0000     -10.352290      -281.7001
  28   2.0000     -10.349624      -281.6276
  29   2.0000     -10.349154      -281.6148
  30   2.0000     -10.347604      -281.5726
  31   2.0000     -10.345678      -281.5202
  32   2.0000     -10.344496      -281.4881
  33   2.0000     -10.344111      -281.4776
  34   2.0000     -10.343707      -281.4666
  35   2.0000     -10.339308      -281.3469
  36   2.0000     -10.338328      -281.3202
  37   2.0000     -10.337956      -281.3101
  38   2.0000     -10.334003      -281.2025
  39   2.0000     -10.334000      -281.2024
  40   2.0000     -10.329516      -281.0804
  41   2.0000     -10.329112      -281.0694
  42   2.0000     -10.328383      -281.0496
  43   2.0000     -10.327361      -281.0218
  44   2.0000     -10.327290      -281.0198
  45   2.0000     -10.326955      -281.0107
  46   2.0000     -10.325961      -280.9837
  47   2.0000     -10.325403      -280.9685
  48   2.0000     -10.324969      -280.9567
  49   2.0000     -10.319545      -280.8091
  50   2.0000     -10.317833      -280.7625
  51   2.0000     -10.316617      -280.7294
  52   2.0000     -10.315557      -280.7006
  53   2.0000     -10.311812      -280.5987
  54   2.0000     -10.311043      -280.5777
  55   2.0000     -10.308388      -280.5055
  56   2.0000     -10.305729      -280.4331
  57   2.0000     -10.303090      -280.3613
  58   2.0000     -10.302464      -280.3443
  59   2.0000     -10.301902      -280.3290
  60   2.0000     -10.301761      -280.3252
  61   2.0000     -10.300464      -280.2899
  62   2.0000     -10.300410      -280.2884
  63   2.0000     -10.300037      -280.2782
  64   2.0000     -10.299430      -280.2617
  65   2.0000     -10.299079      -280.2522
  66   2.0000     -10.298072      -280.2248
  67   2.0000     -10.297648      -280.2133
  68   2.0000     -10.284512      -279.8558
  69   2.0000     -10.282812      -279.8095
  70   2.0000     -10.281713      -279.7796
  71   2.0000     -10.276079      -279.6263
  72   2.0000     -10.274948      -279.5956
  73   2.0000     -10.272253      -279.5222
  74   2.0000     -10.271435      -279.5000
  75   2.0000     -10.271244      -279.4948
  76   2.0000     -10.269211      -279.4394
  77   2.0000      -8.135652      -221.3824
  78   2.0000      -8.076584      -219.7750
  79   2.0000      -8.044241      -218.8949
  80   2.0000      -6.106695      -166.1716
  81   2.0000      -6.098889      -165.9592
  82   2.0000      -6.098586      -165.9510
  83   2.0000      -6.045759      -164.5135
  84   2.0000      -6.041366      -164.3939
  85   2.0000      -6.039217      -164.3355
  86   2.0000      -6.013474      -163.6349
  87   2.0000      -6.009120      -163.5165
  88   2.0000      -6.006657      -163.4495
  89   2.0000      -1.142932       -31.1008
  90   2.0000      -1.123123       -30.5617
  91   2.0000      -1.088215       -29.6118
  92   2.0000      -1.081038       -29.4166
  93   2.0000      -1.045299       -28.4440
  94   2.0000      -1.043651       -28.3992
  95   2.0000      -1.035699       -28.1828
  96   2.0000      -1.026654       -27.9367
  97   2.0000      -1.025555       -27.9068
  98   2.0000      -1.018244       -27.7078
  99   2.0000      -1.013893       -27.5894
 100   2.0000      -1.012551       -27.5529
 101   2.0000      -1.011587       -27.5267
 102   2.0000      -1.009323       -27.4651
 103   2.0000      -1.007078       -27.4040
 104   2.0000      -1.006274       -27.3821
 105   2.0000      -1.002805       -27.2877
 106   2.0000      -0.997916       -27.1547
 107   2.0000      -0.996710       -27.1219
 108   2.0000      -0.982184       -26.7266
 109   2.0000      -0.966504       -26.2999
 110   2.0000      -0.961847       -26.1732
 111   2.0000      -0.956795       -26.0357
 112   2.0000      -0.947524       -25.7834
 113   2.0000      -0.941900       -25.6304
 114   2.0000      -0.929261       -25.2865
 115   2.0000      -0.920070       -25.0364
 116   2.0000      -0.911592       -24.8057
 117   2.0000      -0.908434       -24.7197
 118   2.0000      -0.899011       -24.4633
 119   2.0000      -0.897453       -24.4209
 120   2.0000      -0.888437       -24.1756
 121   2.0000      -0.877029       -23.8652
 122   2.0000      -0.868939       -23.6450
 123   2.0000      -0.867087       -23.5946
 124   2.0000      -0.857187       -23.3252
 125   2.0000      -0.844477       -22.9794
 126   2.0000      -0.840362       -22.8674
 127   2.0000      -0.834211       -22.7000
 128   2.0000      -0.828179       -22.5359
 129   2.0000      -0.818750       -22.2793
 130   2.0000      -0.808605       -22.0033
 131   2.0000      -0.796116       -21.6634
 132   2.0000      -0.795664       -21.6511
 133   2.0000      -0.788685       -21.4612
 134   2.0000      -0.780948       -21.2507
 135   2.0000      -0.778248       -21.1772
 136   2.0000      -0.745396       -20.2832
 137   2.0000      -0.740775       -20.1575
 138   2.0000      -0.732331       -19.9277
 139   2.0000      -0.725708       -19.7475
 140   2.0000      -0.723523       -19.6880
 141   2.0000      -0.720266       -19.5994
 142   2.0000      -0.717450       -19.5228
 143   2.0000      -0.716549       -19.4983
 144   2.0000      -0.714402       -19.4399
 145   2.0000      -0.706331       -19.2202
 146   2.0000      -0.702749       -19.1228
 147   2.0000      -0.694481       -18.8978
 148   2.0000      -0.686539       -18.6817
 149   2.0000      -0.680045       -18.5050
 150   2.0000      -0.676440       -18.4069
 151   2.0000      -0.672002       -18.2861
 152   2.0000      -0.671810       -18.2809
 153   2.0000      -0.665730       -18.1154
 154   2.0000      -0.663366       -18.0511
 155   2.0000      -0.658856       -17.9284
 156   2.0000      -0.657245       -17.8845
 157   2.0000      -0.649481       -17.6733
 158   2.0000      -0.638651       -17.3786
 159   2.0000      -0.630764       -17.1640
 160   2.0000      -0.626485       -17.0475
 161   2.0000      -0.623591       -16.9688
 162   2.0000      -0.617211       -16.7952
 163   2.0000      -0.611611       -16.6428
 164   2.0000      -0.605751       -16.4833
 165   2.0000      -0.597269       -16.2525
 166   2.0000      -0.591805       -16.1038
 167   2.0000      -0.589381       -16.0379
 168   2.0000      -0.587585       -15.9890
 169   2.0000      -0.586150       -15.9500
 170   2.0000      -0.583287       -15.8720
 171   2.0000      -0.581596       -15.8260
 172   2.0000      -0.569400       -15.4942
 173   2.0000      -0.565327       -15.3833
 174   2.0000      -0.559566       -15.2266
 175   2.0000      -0.555982       -15.1291
 176   2.0000      -0.549331       -14.9481
 177   2.0000      -0.547189       -14.8898
 178   2.0000      -0.544301       -14.8112
 179   2.0000      -0.542613       -14.7652
 180   2.0000      -0.541563       -14.7367
 181   2.0000      -0.539882       -14.6909
 182   2.0000      -0.537945       -14.6382
 183   2.0000      -0.535965       -14.5844
 184   2.0000      -0.530648       -14.4397
 185   2.0000      -0.527333       -14.3495
 186   2.0000      -0.526144       -14.3171
 187   2.0000      -0.522297       -14.2124
 188   2.0000      -0.518574       -14.1111
 189   2.0000      -0.514982       -14.0134
 190   2.0000      -0.512055       -13.9337
 191   2.0000      -0.511106       -13.9079
 192   2.0000      -0.509132       -13.8542
 193   2.0000      -0.506063       -13.7707
 194   2.0000      -0.502213       -13.6659
 195   2.0000      -0.500867       -13.6293
 196   2.0000      -0.497809       -13.5461
 197   2.0000      -0.493303       -13.4235
 198   2.0000      -0.491722       -13.3804
 199   2.0000      -0.490517       -13.3477
 200   2.0000      -0.487462       -13.2645
 201   2.0000      -0.484789       -13.1918
 202   2.0000      -0.484553       -13.1854
 203   2.0000      -0.479865       -13.0578
 204   2.0000      -0.475622       -12.9423
 205   2.0000      -0.473676       -12.8894
 206   2.0000      -0.470725       -12.8091
 207   2.0000      -0.467986       -12.7346
 208   2.0000      -0.466667       -12.6987
 209   2.0000      -0.465121       -12.6566
 210   2.0000      -0.464981       -12.6528
 211   2.0000      -0.463809       -12.6209
 212   2.0000      -0.462816       -12.5939
 213   2.0000      -0.459692       -12.5088
 214   2.0000      -0.459646       -12.5076
 215   2.0000      -0.457946       -12.4613
 216   2.0000      -0.456696       -12.4273
 217   2.0000      -0.456315       -12.4170
 218   2.0000      -0.455033       -12.3821
 219   2.0000      -0.454073       -12.3559
 220   2.0000      -0.450604       -12.2616
 221   2.0000      -0.449237       -12.2244
 222   2.0000      -0.447715       -12.1830
 223   2.0000      -0.447294       -12.1715
 224   2.0000      -0.446601       -12.1526
 225   2.0000      -0.444723       -12.1015
 226   2.0000      -0.441805       -12.0221
 227   2.0000      -0.440938       -11.9985
 228   2.0000      -0.438452       -11.9309
 229   2.0000      -0.436925       -11.8893
 230   2.0000      -0.434531       -11.8242
 231   2.0000      -0.433344       -11.7919
 232   2.0000      -0.432177       -11.7601
 233   2.0000      -0.429710       -11.6930
 234   2.0000      -0.429351       -11.6832
 235   2.0000      -0.425926       -11.5900
 236   2.0000      -0.425128       -11.5683
 237   2.0000      -0.424527       -11.5520
 238   2.0000      -0.423072       -11.5124
 239   2.0000      -0.422422       -11.4947
 240   2.0000      -0.420619       -11.4456
 241   2.0000      -0.419607       -11.4181
 242   2.0000      -0.417864       -11.3707
 243   2.0000      -0.413874       -11.2621
 244   2.0000      -0.411575       -11.1995
 245   2.0000      -0.411355       -11.1935
 246   2.0000      -0.409546       -11.1443
 247   2.0000      -0.408174       -11.1070
 248   2.0000      -0.405248       -11.0274
 249   2.0000      -0.401681       -10.9303
 250   2.0000      -0.394280       -10.7289
 251   2.0000      -0.388578       -10.5737
 252   2.0000      -0.387275       -10.5383
 253   2.0000      -0.382415       -10.4060
 254   2.0000      -0.381022       -10.3681
 255   2.0000      -0.370102       -10.0710
 256   2.0000      -0.365099        -9.9349
 257   2.0000      -0.352865        -9.6019
 258   2.0000      -0.338858        -9.2208
 259   2.0000      -0.335532        -9.1303
 260   2.0000      -0.331526        -9.0213
 261   2.0000      -0.327024        -8.8988
 262   2.0000      -0.318698        -8.6722
 263   2.0000      -0.310587        -8.4515
 264   2.0000      -0.303607        -8.2616
 265   2.0000      -0.295717        -8.0469
 266   2.0000      -0.286047        -7.7837
 267   2.0000      -0.260701        -7.0940
 268   0.0000      -0.111797        -3.0422
 269   0.0000      -0.097005        -2.6396
 270   0.0000      -0.094059        -2.5595
 271   0.0000      -0.090428        -2.4607
 272   0.0000      -0.061305        -1.6682

MULLIKEN ATOMIC CHARGES
-----------------------
   0 C :   -0.073265
   1 C :    0.058628
   2 C :    0.067174
   3 C :   -0.023823
   4 C :    0.034566
   5 C :    0.020239
   6 C :    0.279142
   7 C :   -0.365165
   8 C :   -0.203478
   9 N :    0.192237
  10 C :   -0.165971
  11 N :    0.133015
  12 C :   -0.068804
  13 C :    0.194161
  14 C :   -0.299277
  15 C :   -0.208525
  16 N :    0.187865
  17 C :   -0.183238
  18 N :    0.175701
  19 C :    0.035007
  20 C :   -0.108032
  21 S :    0.152156
  22 C :   -0.087645
  23 C :   -0.079680
  24 C :   -0.021045
  25 C :    0.069999
  26 C :    0.110033
  27 C :   -0.009538
  28 C :    0.161117
  29 N :   -0.004154
  30 C :   -0.024575
  31 C :    0.013615
  32 C :   -0.050000
  33 N :    0.050054
  34 C :   -0.130563
  35 C :   -0.158320
  36 N :    0.010367
  37 C :   -0.205576
  38 N :    0.227625
  39 C :   -0.213533
  40 N :    0.236337
  41 C :   -0.087788
  42 C :    0.018859
  43 C :   -0.043471
  44 N :   -0.274222
  45 S :    0.558426
  46 N :   -0.263697
  47 C :   -0.235383
  48 S :    0.186089
  49 C :   -0.136638
  50 C :   -0.072148
  51 C :    0.025025
  52 C :    0.159566
  53 C :    0.021906
  54 C :   -0.005551
  55 C :    0.157211
  56 N :   -0.060883
  57 C :    0.036103
  58 C :   -0.086259
  59 C :    0.306357
  60 C :   -0.358601
  61 C :   -0.184304
  62 N :    0.138966
  63 C :   -0.188390
  64 N :    0.153936
  65 C :   -0.003046
  66 C :   -0.000214
  67 C :   -0.039871
  68 C :    0.048190
  69 C :    0.045692
  70 C :   -0.030864
  71 C :    0.296055
  72 C :   -0.384146
  73 C :   -0.177410
  74 N :    0.148610
  75 C :   -0.236430
  76 N :    0.152579
  77 H :    0.015832
  78 H :    0.012949
  79 H :    0.009509
  80 H :    0.009071
  81 H :    0.000618
  82 H :    0.028689
  83 H :    0.061777
  84 H :    0.000396
  85 H :    0.021381
  86 H :    0.012532
  87 H :    0.003478
  88 H :    0.020819
  89 H :    0.006505
  90 H :    0.140434
  91 H :    0.007489
  92 H :    0.031527
  93 H :    0.024077
  94 H :    0.030688
  95 H :    0.019243
  96 H :    0.008087
  97 H :    0.018524
  98 H :    0.002708
  99 H :    0.171110
 100 H :    0.024768
 101 H :   -0.000658
 102 H :    0.000738
 103 H :    0.002976
 104 H :    0.005653
Sum of atomic charges:   -0.0000000

LOEWDIN ATOMIC CHARGES
----------------------
   0 C :   -0.002468
   1 C :    0.012047
   2 C :    0.019838
   3 C :    0.011613
   4 C :   -0.005432
   5 C :   -0.019907
   6 C :    0.085718
   7 C :   -0.148060
   8 C :   -0.030088
   9 N :   -0.037819
  10 C :   -0.014444
  11 N :   -0.060093
  12 C :   -0.053230
  13 C :    0.067405
  14 C :   -0.132120
  15 C :   -0.048307
  16 N :   -0.032547
  17 C :   -0.020710
  18 N :   -0.034632
  19 C :    0.045731
  20 C :   -0.187902
  21 S :    0.508957
  22 C :   -0.159824
  23 C :   -0.063163
  24 C :   -0.037379
  25 C :    0.036873
  26 C :   -0.025765
  27 C :   -0.028402
  28 C :   -0.023267
  29 N :    0.060518
  30 C :    0.049621
  31 C :   -0.045318
  32 C :    0.001645
  33 N :    0.003099
  34 C :   -0.020199
  35 C :   -0.058165
  36 N :    0.001264
  37 C :   -0.037289
  38 N :   -0.026440
  39 C :   -0.031413
  40 N :   -0.011279
  41 C :   -0.120636
  42 C :   -0.036263
  43 C :   -0.078964
  44 N :   -0.255082
  45 S :    0.693515
  46 N :   -0.294349
  47 C :   -0.169418
  48 S :    0.480640
  49 C :   -0.189666
  50 C :   -0.064952
  51 C :   -0.069568
  52 C :    0.044678
  53 C :   -0.030410
  54 C :   -0.028451
  55 C :   -0.021353
  56 N :    0.107576
  57 C :    0.117855
  58 C :   -0.138572
  59 C :    0.085969
  60 C :   -0.153344
  61 C :   -0.021039
  62 N :   -0.059207
  63 C :   -0.020687
  64 N :   -0.055010
  65 C :   -0.012458
  66 C :   -0.013435
  67 C :   -0.002162
  68 C :   -0.000667
  69 C :    0.000541
  70 C :    0.005598
  71 C :    0.086835
  72 C :   -0.179605
  73 C :   -0.015239
  74 N :   -0.065284
  75 C :   -0.023816
  76 N :   -0.071560
  77 H :    0.039705
  78 H :    0.041737
  79 H :    0.040446
  80 H :    0.042283
  81 H :    0.045014
  82 H :    0.030145
  83 H :    0.038578
  84 H :    0.026927
  85 H :    0.031028
  86 H :    0.030635
  87 H :    0.019973
  88 H :    0.036475
  89 H :    0.031886
  90 H :    0.080067
  91 H :    0.021260
  92 H :    0.033945
  93 H :    0.040913
  94 H :    0.031692
  95 H :    0.032588
  96 H :    0.018318
  97 H :    0.033934
  98 H :    0.031473
  99 H :    0.083040
 100 H :    0.043675
 101 H :    0.038403
 102 H :    0.036207
 103 H :    0.037218
 104 H :    0.041761

  Mayer bond orders larger than 0.100000
B(  0-C ,  1-C ) :   1.3681 B(  0-C ,  5-C ) :   1.3721 B(  0-C , 77-H ) :   0.9868
B(  1-C ,  2-C ) :   1.3768 B(  1-C , 78-H ) :   0.9859 B(  2-C ,  3-C ) :   1.3567
B(  2-C , 79-H ) :   0.9855 B(  3-C ,  4-C ) :   1.3877 B(  3-C , 80-H ) :   0.9883
B(  4-C ,  5-C ) :   1.3042 B(  4-C , 13-C ) :   1.0192 B(  5-C ,  6-C ) :   1.0139
B(  6-C ,  7-C ) :   1.6316 B(  6-C , 12-C ) :   1.0559 B(  7-C ,  8-C ) :   1.1520
B(  7-C , 10-C ) :   1.1551 B(  8-C ,  9-N ) :   2.9406 B( 10-C , 11-N ) :   2.9013
B( 12-C , 13-C ) :   0.9921 B( 12-C , 19-C ) :   1.6299 B( 13-C , 14-C ) :   1.6818
B( 14-C , 15-C ) :   1.1247 B( 14-C , 17-C ) :   1.1454 B( 15-C , 16-N ) :   3.0390
B( 17-C , 18-N ) :   3.0112 B( 19-C , 20-C ) :   1.2200 B( 19-C , 81-H ) :   0.9135
B( 20-C , 21-S ) :   1.1216 B( 20-C , 24-C ) :   1.4326 B( 21-S , 22-C ) :   1.2097
B( 22-C , 23-C ) :   1.5162 B( 22-C , 82-H ) :   0.9702 B( 23-C , 24-C ) :   1.3599
B( 23-C , 28-C ) :   1.0270 B( 24-C , 25-C ) :   0.9746 B( 25-C , 26-C ) :   1.0649
B( 25-C , 29-N ) :   0.9501 B( 25-C , 83-H ) :   0.8975 B( 26-C , 27-C ) :   1.0624
B( 26-C , 84-H ) :   0.9312 B( 26-C , 85-H ) :   0.9101 B( 27-C , 28-C ) :   1.0801
B( 27-C , 86-H ) :   0.9360 B( 27-C , 87-H ) :   0.9489 B( 28-C , 88-H ) :   0.9118
B( 28-C , 89-H ) :   0.9243 B( 29-N , 30-C ) :   1.4775 B( 29-N , 90-H ) :   0.8617
B( 30-C , 31-C ) :   1.1857 B( 30-C , 41-C ) :   0.1032 B( 30-C , 43-C ) :   1.2624
B( 31-C , 32-C ) :   1.0976 B( 31-C , 36-N ) :   1.4571 B( 32-C , 33-N ) :   1.3935
B( 32-C , 41-C ) :   1.3321 B( 33-N , 34-C ) :   1.7294 B( 34-C , 35-C ) :   1.2071
B( 34-C , 39-C ) :   1.1519 B( 35-C , 36-N ) :   1.6690 B( 35-C , 37-C ) :   1.1640
B( 37-C , 38-N ) :   3.0134 B( 39-C , 40-N ) :   3.0403 B( 41-C , 42-C ) :   1.1699
B( 41-C , 47-C ) :   1.0558 B( 42-C , 43-C ) :   1.1243 B( 42-C , 46-N ) :   1.5449
B( 43-C , 44-N ) :   1.4648 B( 44-N , 45-S ) :   1.3143 B( 44-N , 46-N ) :   0.1459
B( 45-S , 46-N ) :   1.2717 B( 47-C , 48-S ) :   1.1769 B( 47-C , 49-C ) :   0.1045
B( 47-C , 51-C ) :   1.5655 B( 48-S , 49-C ) :   1.1701 B( 49-C , 50-C ) :   1.5744
B( 49-C , 91-H ) :   0.9716 B( 50-C , 51-C ) :   1.3080 B( 50-C , 55-C ) :   1.0261
B( 51-C , 52-C ) :   0.9735 B( 52-C , 53-C ) :   1.0837 B( 52-C , 56-N ) :   0.9517
B( 52-C , 92-H ) :   0.8752 B( 53-C , 54-C ) :   1.0581 B( 53-C , 93-H ) :   0.9278
B( 53-C , 94-H ) :   0.9216 B( 54-C , 55-C ) :   1.0841 B( 54-C , 95-H ) :   0.9358
B( 54-C , 96-H ) :   0.9481 B( 55-C , 97-H ) :   0.9150 B( 55-C , 98-H ) :   0.9229
B( 56-N , 57-C ) :   1.5125 B( 56-N , 99-H ) :   0.8962 B( 57-C , 58-C ) :   1.3550
B( 57-C ,100-H ) :   0.9177 B( 58-C , 59-C ) :   1.1281 B( 58-C , 71-C ) :   1.0868
B( 59-C , 60-C ) :   1.5977 B( 59-C , 65-C ) :   0.9886 B( 60-C , 61-C ) :   1.1424
B( 60-C , 63-C ) :   1.1534 B( 61-C , 62-N ) :   2.9614 B( 63-C , 64-N ) :   2.9729
B( 65-C , 66-C ) :   1.3181 B( 65-C , 70-C ) :   1.3941 B( 66-C , 67-C ) :   1.3856
B( 66-C , 71-C ) :   1.0170 B( 67-C , 68-C ) :   1.3619 B( 67-C ,101-H ) :   0.9831
B( 68-C , 69-C ) :   1.3866 B( 68-C ,102-H ) :   0.9860 B( 69-C , 70-C ) :   1.3604
B( 69-C ,103-H ) :   0.9858 B( 70-C ,104-H ) :   0.9827 B( 71-C , 72-C ) :   1.5174
B( 72-C , 73-C ) :   1.1651 B( 72-C , 75-C ) :   1.1996 B( 73-C , 74-N ) :   2.8892
B( 75-C , 76-N ) :   2.9001

-----------------------------------------------------------------------------
         ABSORPTION SPECTRUM VIA TRANSITION ELECTRIC DIPOLE MOMENTS
-----------------------------------------------------------------------------
State   Energy  Wavelength   fosc         T2         TX        TY        TZ
        (cm-1)    (nm)                  (au**2)     (au)      (au)      (au)
-----------------------------------------------------------------------------
   0   13568.2    737.0   0.042551128   1.03244  -0.17981   0.74746  -0.66439
   1   17653.6    566.5   0.037289218   0.69539   0.03258  -0.29541   0.77914
   2   20124.1    496.9   0.004556592   0.07454  -0.12824  -0.17882   0.16162
   3   21237.7    470.9   0.013740798   0.21300   0.15158  -0.35966  -0.24631
   4   21413.4    467.0   0.005534465   0.08509   0.23408  -0.17240   0.02397
   5   21923.0    456.1   0.057478785   0.86314   0.13867   0.18075  -0.90069
   6   23238.0    430.3   0.344921297   4.88650   0.16521  -2.07771   0.73644
   7   23924.6    418.0   0.011193406   0.15403  -0.26511  -0.25261  -0.14117
   8   24784.1    403.5   0.006783510   0.09011  -0.16806  -0.20646  -0.13870
   9   25336.7    394.7   0.195681334   2.54259  -0.45612   0.36306   1.48416
  10   25943.0    385.5   0.197108829   2.50127  -0.00324   0.66733  -1.43385
  11   26490.6    377.5   0.168062683   2.08860  -1.05380   0.78601  -0.60024
  12   27119.2    368.7   0.022872303   0.27766  -0.16381   0.36272   0.34534
  13   27201.9    367.6   0.039504821   0.47811   0.16278   0.15457  -0.65400
  14   28085.7    356.1   0.057647853   0.67573   0.14722  -0.49060   0.64294
  15   28609.6    349.5   0.013656381   0.15714   0.18273  -0.08674  -0.34093
  16   29124.1    343.4   0.012352159   0.13963  -0.06048  -0.36713   0.03436
  17   29355.0    340.7   0.064558547   0.72402  -0.69113  -0.11811   0.48208
  18   29663.2    337.1   0.011712902   0.12999   0.05484   0.30284  -0.18782
  19   30033.2    333.0   0.074385388   0.81538  -0.17155  -0.27377   0.84321
  20   30429.6    328.6   0.155777329   1.68532   0.43548  -0.91184   0.81501
  21   30492.0    328.0   0.005246630   0.05665  -0.08376   0.18986   0.11654
  22   31109.5    321.4   0.364454325   3.85679   0.36175  -1.90029   0.33883
  23   31213.0    320.4   0.026500459   0.27951  -0.01328  -0.01954  -0.52816
  24   31285.7    319.6   0.135888189   1.42992   0.20427  -1.15047   0.25418
  25   31713.9    315.3   0.477757601   4.95945   0.67139  -2.12328  -0.01948
  26   31909.7    313.4   0.006937575   0.07157   0.14131   0.06691   0.21709
  27   32043.2    312.1   0.086365581   0.88732   0.86852  -0.36077  -0.05331
  28   32276.2    309.8   0.046432311   0.47360  -0.35036   0.57783  -0.13023
  29   32697.1    305.8   0.028265748   0.28459   0.42381   0.32336  -0.02056
  30   32711.9    305.7   0.062602533   0.63003   0.37963  -0.66797  -0.19933
  31   33010.9    302.9   0.008391647   0.08369   0.26887  -0.08537  -0.06412
  32   33778.9    296.0   0.066953372   0.65253   0.76371  -0.10945   0.23937
  33   33824.1    295.6   0.099711356   0.97050   0.72568  -0.63616  -0.19796
  34   34050.0    293.7   0.031575834   0.30529  -0.50548  -0.14295   0.17129
  35   34237.2    292.1   0.200774282   1.93057  -1.16427   0.68989  -0.31481
  36   34686.5    288.3   0.044879297   0.42595   0.36103   0.35454  -0.41219
  37   34990.3    285.8   0.254622935   2.39566  -1.51369  -0.12548   0.29773
  38   35286.6    283.4   0.172431874   1.60873   1.22177  -0.10537  -0.32388
  39   35345.6    282.9   0.013566634   0.12636   0.23420   0.25827  -0.06932
  40   35505.3    281.6   0.122390495   1.13483   1.00222  -0.33697   0.12974
  41   35714.4    280.0   0.207995494   1.91728   1.21332   0.42874  -0.51119
  42   35996.4    277.8   0.007939162   0.07261   0.15947   0.07792   0.20275
  43   36989.9    270.3   0.159176793   1.41668  -1.14990   0.22982   0.20393
  44   37185.6    268.9   0.086823433   0.76867   0.84648   0.04530  -0.22380
  45   37223.3    268.6   0.013135880   0.11618  -0.10220  -0.00014   0.32516
  46   37266.9    268.3   0.135814953   1.19977  -0.88422   0.27776   0.58377
  47   37413.8    267.3   0.011434086   0.10061   0.01324   0.28996  -0.12790
  48   37778.2    264.7   0.019581226   0.17064  -0.33504   0.10701   0.21664
  49   37936.8    263.6   0.202471432   1.75703   1.31741  -0.13996   0.04315
  50   38162.8    262.0   0.002797639   0.02413   0.08642  -0.08234   0.09943
  51   38358.3    260.7   0.007468850   0.06410  -0.02410   0.14378   0.20700
  52   38980.2    256.5   0.024750931   0.20904  -0.21225   0.34655   0.20950
  53   39449.1    253.5   0.170714564   1.42465  -0.65632   0.74546  -0.66195
  54   39643.3    252.2   0.016520669   0.13719  -0.24130   0.02657   0.27975
  55   39703.1    251.9   0.114616562   0.95038  -0.71079   0.66635  -0.03367
  56   39826.3    251.1   0.209731951   1.73368   0.32730   0.50565  -1.17085
  57   40125.2    249.2   0.023295167   0.19113  -0.02407  -0.18649   0.39468
  58   40199.7    248.8   0.117534656   0.96254   0.49858  -0.52271  -0.66388

FINAL SINGLE POINT ENERGY     -4293.096900387189

DIPOLE MOMENT
-------------
                                X             Y             Z
Electronic contribution:      3.13341     -21.58327      -9.77905
Nuclear contribution   :     -4.76077      21.33844      11.49493
                        -----------------------------------------
Total Dipole Moment    :     -1.62736      -0.24483       1.71589
                        -----------------------------------------
Magnitude (a.u.)       :      2.37750
Magnitude (Debye)      :      6.04312

Rotational constants in cm-1:     0.001641     0.000685     0.000570
Rotational constants in MHz :    49.187020    20.524360    17.073746

                             ****ORCA TERMINATED NORMALLY****
TOTAL RUN TIME: 0 days 0 hours 15 minutes 30 seconds 603 msec
