                         Program Version 4.2.0 -  RELEASE  -
|  1> # ORCA input file
|  2> # SCF done       -210.171554023309          0.000504840833
|  3> ! CAM-B3LYP def2-SVP def2/J RIJCOSX Grid4 TightSCF
|  4> %maxcore 5000
|  5> %tddft
|  6>     Mode sTDDFT
|  7>     Ethresh 5.0
|  8>     maxcore 5000
|  9> end
| 10>
| 11> %pal
| 12>   nprocs 6
| 13>   end
| 14> * xyz 0 1
| 15>    C        2.51168        -2.65597        -3.14491
| 16>    C        1.75874        -3.46825        -3.95583
| 17>    C        1.23171        -3.07022        -5.20015
| 18>    N        0.75720        -2.79124        -6.20764
| 19>    C        1.50153        -4.82370        -3.67126
| 20>    N        1.29683        -5.93954        -3.49637
| 21>    C        3.04660        -1.34971        -3.53139
| 22>    C        4.12017        -1.03139        -2.68058
| 23>    C        4.84369         0.13305        -2.83220
| 24>    C        4.48018         1.00697        -3.85020
| 25>    C        3.40685         0.70208        -4.69327
| 26>    C        2.68603        -0.47854        -4.54427
| 27>   Cl        2.96058         1.79822        -5.93798
| 28>   Cl        5.35466         2.46933        -4.06850
| 29>    C        4.27961        -2.10155        -1.66947
| 30>    O        5.12607        -2.18790        -0.80973
| 31>    C        3.14023        -3.02435        -1.90077
| 32>    C        2.84065        -3.94961        -0.93699
| 33>    C        1.63802        -4.62864        -0.68034
| 34>    S        1.63412        -5.94860         0.46379
| 35>    C       -0.07998        -6.13603         0.32872
| 36>    C       -0.61168        -5.19671        -0.54758
| 37>    C        0.34136        -4.36817        -1.11124
| 38>    C       -0.78284        -7.11926         1.06595
| 39>    C       -2.14385        -7.36937         1.07232
| 40>    C       -2.51673        -8.38328         1.94682
| 41>    C       -1.45196        -8.94146         2.63024
| 42>    S        0.04475        -8.18810         2.16596
| 43>    C       -1.48171        -9.96559         3.60733
| 44>    S       -2.98790       -10.62429         4.18068
| 45>    C       -2.16213       -11.68426         5.29115
| 46>    C       -0.79193       -11.51830         5.18686
| 47>    C       -0.41444       -10.56005         4.25276
| 48>    C       -2.92369       -12.52356         6.14392
| 49>    C       -2.40427       -13.39591         7.04333
| 50>    C       -3.16805       -14.19702         7.92916
| 51>    N       -2.54834       -15.07727         8.79565
| 52>    C       -3.49910       -15.69235         9.54578
| 53>    C       -3.71048       -16.61924        10.56073
| 54>    C       -5.09525       -16.66099        10.76829
| 55>    N       -5.71323       -15.78542         9.89808
| 56>    C       -4.75964       -15.18383         9.14054
| 57>    C       -4.55304       -14.25253         8.12860
| 58>    C       -5.78339       -17.45018        11.72303
| 59>    C       -7.12043       -17.43109        11.95416
| 60>    C       -7.78665       -18.22154        12.92628
| 61>    S       -9.50508       -18.02697        13.14897
| 62>    C       -9.53222       -19.23410        14.40339
| 63>    C       -8.26570       -19.74377        14.61325
| 64>    C       -7.29377       -19.18015        13.79322
| 65>    C      -10.73773       -19.57834        15.06086
| 66>    C      -11.99706       -19.04316        14.86648
| 67>    C      -12.97184       -19.61002        15.68003
| 68>    C      -12.48632       -20.59561        16.51767
| 69>    S      -10.77069       -20.81501        16.28525
| 70>    C      -13.20131       -21.37798        17.45362
| 71>    S      -14.90616       -21.16479        17.69216
| 72>    C      -14.94825       -22.43916        18.88843
| 73>    C      -13.67839       -22.97411        19.06824
| 74>    C      -12.70969       -22.38415        18.27347
| 75>    C      -16.16631       -22.78534        19.50285
| 76>    C      -16.32180       -23.78857        20.41793
| 77>    C      -17.57446       -24.08587        20.97782
| 78>    C      -17.81232       -25.09529        21.87910
| 79>    C      -19.08435       -25.44215        22.47379
| 80>    C      -20.29191       -24.81809        22.28421
| 81>    C      -21.49521       -25.21571        22.90326
| 82>    N      -22.50956       -25.48128        23.37107
| 83>    C      -20.51967       -23.69730        21.45935
| 84>    N      -20.79583       -22.78834        20.81326
| 85>    C      -18.86478       -26.59935        23.34181
| 86>    C      -17.50494       -26.94957        23.29682
| 87>    C      -16.78497       -26.02796        22.38917
| 88>    O      -15.59824       -26.05783        22.13469
| 89>    C      -17.00080       -28.01083        24.01921
| 90>    C      -17.87665       -28.74544        24.80881
| 91>    C      -19.23191       -28.40528        24.85991
| 92>    C      -19.73534       -27.33362        24.13015
| 93>   Cl      -20.30575       -29.32213        25.83906
| 94>   Cl      -17.28909       -30.07576        25.72329
| 95>    H        5.66971         0.35795        -2.17627
| 96>    H        1.86285        -0.68180        -5.20991
| 97>    H        3.63347        -4.10701        -0.21145
| 98>    H       -1.66221        -5.12851        -0.76188
| 99>    H        0.09992        -3.55798        -1.77594
|100>    H       -2.84024        -6.82615         0.46029
|101>    H       -3.52957        -8.71463         2.09289
|102>    H       -0.08735       -12.07280         5.77931
|103>    H        0.60524       -10.29077         4.03895
|104>    H       -3.99676       -12.43305         6.05817
|105>    H       -1.32985       -13.50110         7.11741
|106>    H       -1.55466       -15.22105         8.84699
|107>    H       -2.98521       -17.19558        11.09921
|108>    H       -6.70464       -15.63565         9.84105
|109>    H       -5.28694       -13.67808         7.60151
|110>    H       -5.15536       -18.10420        12.30976
|111>    H       -7.76000       -16.76998        11.38480
|112>    H       -8.07033       -20.50454        15.34879
|113>    H       -6.25766       -19.46304        13.82540
|114>    H      -12.18450       -18.26326        14.14992
|115>    H      -14.00885       -19.32414        15.67153
|116>    H      -13.47742       -23.77016        19.76160
|117>    H      -11.67085       -22.66400        18.27167
|118>    H      -17.03572       -22.20887        19.20989
|119>    H      -15.47561       -24.38304        20.72354
|120>    H      -18.40578       -23.46987        20.65998
|121>    H      -15.95302       -28.26172        23.96948
|122>    H      -20.78591       -27.10337        24.19540
|123> *
|124>
|125>                          ****END OF INPUT****

CARTESIAN COORDINATES (ANGSTROEM)
---------------------------------
  C      2.511680   -2.655970   -3.144910
  C      1.758740   -3.468250   -3.955830
  C      1.231710   -3.070220   -5.200150
  N      0.757200   -2.791240   -6.207640
  C      1.501530   -4.823700   -3.671260
  N      1.296830   -5.939540   -3.496370
  C      3.046600   -1.349710   -3.531390
  C      4.120170   -1.031390   -2.680580
  C      4.843690    0.133050   -2.832200
  C      4.480180    1.006970   -3.850200
  C      3.406850    0.702080   -4.693270
  C      2.686030   -0.478540   -4.544270
  Cl     2.960580    1.798220   -5.937980
  Cl     5.354660    2.469330   -4.068500
  C      4.279610   -2.101550   -1.669470
  O      5.126070   -2.187900   -0.809730
  C      3.140230   -3.024350   -1.900770
  C      2.840650   -3.949610   -0.936990
  C      1.638020   -4.628640   -0.680340
  S      1.634120   -5.948600    0.463790
  C     -0.079980   -6.136030    0.328720
  C     -0.611680   -5.196710   -0.547580
  C      0.341360   -4.368170   -1.111240
  C     -0.782840   -7.119260    1.065950
  C     -2.143850   -7.369370    1.072320
  C     -2.516730   -8.383280    1.946820
  C     -1.451960   -8.941460    2.630240
  S      0.044750   -8.188100    2.165960
  C     -1.481710   -9.965590    3.607330
  S     -2.987900  -10.624290    4.180680
  C     -2.162130  -11.684260    5.291150
  C     -0.791930  -11.518300    5.186860
  C     -0.414440  -10.560050    4.252760
  C     -2.923690  -12.523560    6.143920
  C     -2.404270  -13.395910    7.043330
  C     -3.168050  -14.197020    7.929160
  N     -2.548340  -15.077270    8.795650
  C     -3.499100  -15.692350    9.545780
  C     -3.710480  -16.619240   10.560730
  C     -5.095250  -16.660990   10.768290
  N     -5.713230  -15.785420    9.898080
  C     -4.759640  -15.183830    9.140540
  C     -4.553040  -14.252530    8.128600
  C     -5.783390  -17.450180   11.723030
  C     -7.120430  -17.431090   11.954160
  C     -7.786650  -18.221540   12.926280
  S     -9.505080  -18.026970   13.148970
  C     -9.532220  -19.234100   14.403390
  C     -8.265700  -19.743770   14.613250
  C     -7.293770  -19.180150   13.793220
  C    -10.737730  -19.578340   15.060860
  C    -11.997060  -19.043160   14.866480
  C    -12.971840  -19.610020   15.680030
  C    -12.486320  -20.595610   16.517670
  S    -10.770690  -20.815010   16.285250
  C    -13.201310  -21.377980   17.453620
  S    -14.906160  -21.164790   17.692160
  C    -14.948250  -22.439160   18.888430
  C    -13.678390  -22.974110   19.068240
  C    -12.709690  -22.384150   18.273470
  C    -16.166310  -22.785340   19.502850
  C    -16.321800  -23.788570   20.417930
  C    -17.574460  -24.085870   20.977820
  C    -17.812320  -25.095290   21.879100
  C    -19.084350  -25.442150   22.473790
  C    -20.291910  -24.818090   22.284210
  C    -21.495210  -25.215710   22.903260
  N    -22.509560  -25.481280   23.371070
  C    -20.519670  -23.697300   21.459350
  N    -20.795830  -22.788340   20.813260
  C    -18.864780  -26.599350   23.341810
  C    -17.504940  -26.949570   23.296820
  C    -16.784970  -26.027960   22.389170
  O    -15.598240  -26.057830   22.134690
  C    -17.000800  -28.010830   24.019210
  C    -17.876650  -28.745440   24.808810
  C    -19.231910  -28.405280   24.859910
  C    -19.735340  -27.333620   24.130150
  Cl   -20.305750  -29.322130   25.839060
  Cl   -17.289090  -30.075760   25.723290
  H      5.669710    0.357950   -2.176270
  H      1.862850   -0.681800   -5.209910
  H      3.633470   -4.107010   -0.211450
  H     -1.662210   -5.128510   -0.761880
  H      0.099920   -3.557980   -1.775940
  H     -2.840240   -6.826150    0.460290
  H     -3.529570   -8.714630    2.092890
  H     -0.087350  -12.072800    5.779310
  H      0.605240  -10.290770    4.038950
  H     -3.996760  -12.433050    6.058170
  H     -1.329850  -13.501100    7.117410
  H     -1.554660  -15.221050    8.846990
  H     -2.985210  -17.195580   11.099210
  H     -6.704640  -15.635650    9.841050
  H     -5.286940  -13.678080    7.601510
  H     -5.155360  -18.104200   12.309760
  H     -7.760000  -16.769980   11.384800
  H     -8.070330  -20.504540   15.348790
  H     -6.257660  -19.463040   13.825400
  H    -12.184500  -18.263260   14.149920
  H    -14.008850  -19.324140   15.671530
  H    -13.477420  -23.770160   19.761600
  H    -11.670850  -22.664000   18.271670
  H    -17.035720  -22.208870   19.209890
  H    -15.475610  -24.383040   20.723540
  H    -18.405780  -23.469870   20.659980
  H    -15.953020  -28.261720   23.969480
  H    -20.785910  -27.103370   24.195400

 Total Charge           Charge          ....    0
 Multiplicity           Mult            ....    1
 Number of Electrons    NEL             ....  622
 Basis Dimension        Dim             .... 1300

ORBITAL ENERGIES
----------------

  NO   OCC          E(Eh)            E(eV)
   0   2.0000    -101.597879     -2764.6188
   1   2.0000    -101.597063     -2764.5966
   2   2.0000    -101.596654     -2764.5855
   3   2.0000    -101.594557     -2764.5284
   4   2.0000     -88.972003     -2421.0513
   5   2.0000     -88.971526     -2421.0383
   6   2.0000     -88.968611     -2420.9590
   7   2.0000     -88.967851     -2420.9383
   8   2.0000     -88.962030     -2420.7799
   9   2.0000     -88.961083     -2420.7541
  10   2.0000     -19.215741      -522.8869
  11   2.0000     -19.215188      -522.8718
  12   2.0000     -14.462417      -393.5424
  13   2.0000     -14.459619      -393.4662
  14   2.0000     -14.415168      -392.2567
  15   2.0000     -14.414080      -392.2271
  16   2.0000     -14.414011      -392.2252
  17   2.0000     -14.410871      -392.1397
  18   2.0000     -10.366821      -282.0955
  19   2.0000     -10.366508      -282.0870
  20   2.0000     -10.353749      -281.7398
  21   2.0000     -10.353080      -281.7216
  22   2.0000     -10.351658      -281.6829
  23   2.0000     -10.351183      -281.6700
  24   2.0000     -10.342729      -281.4400
  25   2.0000     -10.342165      -281.4246
  26   2.0000     -10.339145      -281.3424
  27   2.0000     -10.338577      -281.3270
  28   2.0000     -10.331386      -281.1313
  29   2.0000     -10.328188      -281.0443
  30   2.0000     -10.321659      -280.8666
  31   2.0000     -10.321074      -280.8507
  32   2.0000     -10.319571      -280.8098
  33   2.0000     -10.317863      -280.7633
  34   2.0000     -10.317049      -280.7412
  35   2.0000     -10.316855      -280.7359
  36   2.0000     -10.315769      -280.7063
  37   2.0000     -10.315016      -280.6859
  38   2.0000     -10.314813      -280.6803
  39   2.0000     -10.313997      -280.6581
  40   2.0000     -10.313803      -280.6529
  41   2.0000     -10.313362      -280.6408
  42   2.0000     -10.312657      -280.6217
  43   2.0000     -10.311269      -280.5839
  44   2.0000     -10.311037      -280.5776
  45   2.0000     -10.310249      -280.5561
  46   2.0000     -10.310009      -280.5496
  47   2.0000     -10.309941      -280.5477
  48   2.0000     -10.309582      -280.5380
  49   2.0000     -10.308926      -280.5201
  50   2.0000     -10.308416      -280.5063
  51   2.0000     -10.306976      -280.4671
  52   2.0000     -10.306695      -280.4594
  53   2.0000     -10.304593      -280.4022
  54   2.0000     -10.303855      -280.3822
  55   2.0000     -10.299323      -280.2588
  56   2.0000     -10.298827      -280.2453
  57   2.0000     -10.297168      -280.2002
  58   2.0000     -10.295967      -280.1675
  59   2.0000     -10.295302      -280.1494
  60   2.0000     -10.294910      -280.1387
  61   2.0000     -10.293836      -280.1095
  62   2.0000     -10.291275      -280.0398
  63   2.0000     -10.290636      -280.0224
  64   2.0000     -10.289789      -279.9994
  65   2.0000     -10.289286      -279.9857
  66   2.0000     -10.289090      -279.9804
  67   2.0000     -10.288532      -279.9652
  68   2.0000     -10.288505      -279.9644
  69   2.0000     -10.286052      -279.8977
  70   2.0000     -10.285470      -279.8819
  71   2.0000     -10.284504      -279.8556
  72   2.0000     -10.283956      -279.8407
  73   2.0000     -10.283614      -279.8314
  74   2.0000     -10.282839      -279.8103
  75   2.0000     -10.280973      -279.7595
  76   2.0000     -10.278515      -279.6926
  77   2.0000     -10.276769      -279.6451
  78   2.0000     -10.269730      -279.4535
  79   2.0000     -10.267150      -279.3834
  80   2.0000      -9.552875      -259.9469
  81   2.0000      -9.552104      -259.9260
  82   2.0000      -9.551667      -259.9141
  83   2.0000      -9.549616      -259.8583
  84   2.0000      -8.067852      -219.5374
  85   2.0000      -8.067153      -219.5184
  86   2.0000      -8.064282      -219.4403
  87   2.0000      -8.063214      -219.4112
  88   2.0000      -8.057683      -219.2607
  89   2.0000      -8.056734      -219.2349
  90   2.0000      -7.323267      -199.2762
  91   2.0000      -7.322502      -199.2554
  92   2.0000      -7.322049      -199.2431
  93   2.0000      -7.319970      -199.1865
  94   2.0000      -7.313132      -199.0004
  95   2.0000      -7.312417      -198.9810
  96   2.0000      -7.312348      -198.9791
  97   2.0000      -7.311928      -198.9677
  98   2.0000      -7.311642      -198.9599
  99   2.0000      -7.311212      -198.9482
 100   2.0000      -7.309877      -198.9119
 101   2.0000      -7.309178      -198.8928
 102   2.0000      -6.037081      -164.2773
 103   2.0000      -6.036407      -164.2590
 104   2.0000      -6.033615      -164.1830
 105   2.0000      -6.033005      -164.1664
 106   2.0000      -6.032610      -164.1557
 107   2.0000      -6.032371      -164.1492
 108   2.0000      -6.029965      -164.0837
 109   2.0000      -6.029569      -164.0729
 110   2.0000      -6.029236      -164.0639
 111   2.0000      -6.028551      -164.0452
 112   2.0000      -6.026922      -164.0009
 113   2.0000      -6.026205      -163.9814
 114   2.0000      -6.026014      -163.9762
 115   2.0000      -6.025088      -163.9510
 116   2.0000      -6.022973      -163.8934
 117   2.0000      -6.022034      -163.8679
 118   2.0000      -6.019745      -163.8056
 119   2.0000      -6.018758      -163.7787
 120   2.0000      -1.130550       -30.7638
 121   2.0000      -1.129856       -30.7450
 122   2.0000      -1.092809       -29.7368
 123   2.0000      -1.056569       -28.7507
 124   2.0000      -1.028856       -27.9966
 125   2.0000      -1.026358       -27.9286
 126   2.0000      -1.015277       -27.6271
 127   2.0000      -1.011880       -27.5347
 128   2.0000      -1.010621       -27.5004
 129   2.0000      -1.010054       -27.4850
 130   2.0000      -0.997447       -27.1419
 131   2.0000      -0.995651       -27.0930
 132   2.0000      -0.992185       -26.9987
 133   2.0000      -0.991120       -26.9697
 134   2.0000      -0.988253       -26.8917
 135   2.0000      -0.985903       -26.8278
 136   2.0000      -0.978246       -26.6194
 137   2.0000      -0.977595       -26.6017
 138   2.0000      -0.959405       -26.1067
 139   2.0000      -0.957424       -26.0528
 140   2.0000      -0.934054       -25.4169
 141   2.0000      -0.932134       -25.3646
 142   2.0000      -0.919630       -25.0244
 143   2.0000      -0.911327       -24.7985
 144   2.0000      -0.907573       -24.6963
 145   2.0000      -0.904859       -24.6225
 146   2.0000      -0.892779       -24.2937
 147   2.0000      -0.885971       -24.1085
 148   2.0000      -0.878907       -23.9163
 149   2.0000      -0.872378       -23.7386
 150   2.0000      -0.866051       -23.5665
 151   2.0000      -0.862243       -23.4628
 152   2.0000      -0.858388       -23.3579
 153   2.0000      -0.857505       -23.3339
 154   2.0000      -0.855933       -23.2911
 155   2.0000      -0.854262       -23.2457
 156   2.0000      -0.846941       -23.0464
 157   2.0000      -0.843744       -22.9595
 158   2.0000      -0.841960       -22.9109
 159   2.0000      -0.833421       -22.6785
 160   2.0000      -0.832551       -22.6549
 161   2.0000      -0.828243       -22.5376
 162   2.0000      -0.816807       -22.2265
 163   2.0000      -0.800831       -21.7917
 164   2.0000      -0.791204       -21.5298
 165   2.0000      -0.777077       -21.1453
 166   2.0000      -0.769152       -20.9297
 167   2.0000      -0.764008       -20.7897
 168   2.0000      -0.759762       -20.6742
 169   2.0000      -0.754721       -20.5370
 170   2.0000      -0.739965       -20.1355
 171   2.0000      -0.725485       -19.7415
 172   2.0000      -0.719664       -19.5831
 173   2.0000      -0.706836       -19.2340
 174   2.0000      -0.703331       -19.1386
 175   2.0000      -0.699682       -19.0393
 176   2.0000      -0.695746       -18.9322
 177   2.0000      -0.692330       -18.8393
 178   2.0000      -0.691670       -18.8213
 179   2.0000      -0.688889       -18.7456
 180   2.0000      -0.686798       -18.6887
 181   2.0000      -0.682359       -18.5679
 182   2.0000      -0.673440       -18.3252
 183   2.0000      -0.669179       -18.2093
 184   2.0000      -0.666194       -18.1281
 185   2.0000      -0.656776       -17.8718
 186   2.0000      -0.652710       -17.7611
 187   2.0000      -0.640245       -17.4220
 188   2.0000      -0.637104       -17.3365
 189   2.0000      -0.634541       -17.2667
 190   2.0000      -0.630759       -17.1638
 191   2.0000      -0.629612       -17.1326
 192   2.0000      -0.623404       -16.9637
 193   2.0000      -0.620886       -16.8952
 194   2.0000      -0.620384       -16.8815
 195   2.0000      -0.618272       -16.8240
 196   2.0000      -0.616799       -16.7840
 197   2.0000      -0.611344       -16.6355
 198   2.0000      -0.607583       -16.5332
 199   2.0000      -0.601398       -16.3649
 200   2.0000      -0.595689       -16.2095
 201   2.0000      -0.591937       -16.1074
 202   2.0000      -0.587511       -15.9870
 203   2.0000      -0.580532       -15.7971
 204   2.0000      -0.578877       -15.7520
 205   2.0000      -0.572454       -15.5773
 206   2.0000      -0.569403       -15.4942
 207   2.0000      -0.558478       -15.1970
 208   2.0000      -0.558232       -15.1903
 209   2.0000      -0.550704       -14.9854
 210   2.0000      -0.549481       -14.9521
 211   2.0000      -0.545147       -14.8342
 212   2.0000      -0.544076       -14.8051
 213   2.0000      -0.540516       -14.7082
 214   2.0000      -0.540234       -14.7005
 215   2.0000      -0.538336       -14.6489
 216   2.0000      -0.538029       -14.6405
 217   2.0000      -0.534709       -14.5502
 218   2.0000      -0.531570       -14.4648
 219   2.0000      -0.530918       -14.4470
 220   2.0000      -0.525875       -14.3098
 221   2.0000      -0.524116       -14.2619
 222   2.0000      -0.521631       -14.1943
 223   2.0000      -0.514942       -14.0123
 224   2.0000      -0.513752       -13.9799
 225   2.0000      -0.511432       -13.9168
 226   2.0000      -0.511275       -13.9125
 227   2.0000      -0.510400       -13.8887
 228   2.0000      -0.509232       -13.8569
 229   2.0000      -0.503682       -13.7059
 230   2.0000      -0.503279       -13.6949
 231   2.0000      -0.501267       -13.6402
 232   2.0000      -0.500640       -13.6231
 233   2.0000      -0.498686       -13.5699
 234   2.0000      -0.498457       -13.5637
 235   2.0000      -0.494031       -13.4433
 236   2.0000      -0.493108       -13.4181
 237   2.0000      -0.492284       -13.3957
 238   2.0000      -0.490667       -13.3517
 239   2.0000      -0.489206       -13.3120
 240   2.0000      -0.488044       -13.2804
 241   2.0000      -0.486765       -13.2455
 242   2.0000      -0.482346       -13.1253
 243   2.0000      -0.479409       -13.0454
 244   2.0000      -0.478684       -13.0256
 245   2.0000      -0.476191       -12.9578
 246   2.0000      -0.474433       -12.9100
 247   2.0000      -0.471593       -12.8327
 248   2.0000      -0.469401       -12.7731
 249   2.0000      -0.466308       -12.6889
 250   2.0000      -0.465193       -12.6586
 251   2.0000      -0.463902       -12.6234
 252   2.0000      -0.461191       -12.5496
 253   2.0000      -0.459485       -12.5032
 254   2.0000      -0.458435       -12.4746
 255   2.0000      -0.451287       -12.2802
 256   2.0000      -0.448739       -12.2108
 257   2.0000      -0.448125       -12.1941
 258   2.0000      -0.447046       -12.1647
 259   2.0000      -0.446467       -12.1490
 260   2.0000      -0.443517       -12.0687
 261   2.0000      -0.441635       -12.0175
 262   2.0000      -0.440449       -11.9852
 263   2.0000      -0.439836       -11.9685
 264   2.0000      -0.434167       -11.8143
 265   2.0000      -0.433803       -11.8044
 266   2.0000      -0.433667       -11.8007
 267   2.0000      -0.430938       -11.7264
 268   2.0000      -0.428398       -11.6573
 269   2.0000      -0.426281       -11.5997
 270   2.0000      -0.425524       -11.5791
 271   2.0000      -0.425362       -11.5747
 272   2.0000      -0.424416       -11.5489
 273   2.0000      -0.423969       -11.5368
 274   2.0000      -0.423673       -11.5287
 275   2.0000      -0.423033       -11.5113
 276   2.0000      -0.418580       -11.3901
 277   2.0000      -0.416136       -11.3236
 278   2.0000      -0.415382       -11.3031
 279   2.0000      -0.408170       -11.1069
 280   2.0000      -0.407872       -11.0988
 281   2.0000      -0.406738       -11.0679
 282   2.0000      -0.404611       -11.0100
 283   2.0000      -0.402962       -10.9652
 284   2.0000      -0.396886       -10.7998
 285   2.0000      -0.388121       -10.5613
 286   2.0000      -0.379690       -10.3319
 287   2.0000      -0.377690       -10.2775
 288   2.0000      -0.374184       -10.1821
 289   2.0000      -0.366640        -9.9768
 290   2.0000      -0.355204        -9.6656
 291   2.0000      -0.344426        -9.3723
 292   2.0000      -0.343495        -9.3470
 293   2.0000      -0.341999        -9.3063
 294   2.0000      -0.340242        -9.2585
 295   2.0000      -0.337422        -9.1817
 296   2.0000      -0.336432        -9.1548
 297   2.0000      -0.335019        -9.1163
 298   2.0000      -0.334818        -9.1109
 299   2.0000      -0.331988        -9.0339
 300   2.0000      -0.329132        -8.9561
 301   2.0000      -0.328443        -8.9374
 302   2.0000      -0.320419        -8.7190
 303   2.0000      -0.309336        -8.4175
 304   2.0000      -0.307200        -8.3593
 305   2.0000      -0.298385        -8.1195
 306   2.0000      -0.292802        -7.9676
 307   2.0000      -0.280502        -7.6329
 308   2.0000      -0.257413        -7.0046
 309   2.0000      -0.242218        -6.5911
 310   2.0000      -0.212783        -5.7901
 311   0.0000      -0.098391        -2.6773
 312   0.0000      -0.094925        -2.5830
 313   0.0000      -0.068279        -1.8580
 314   0.0000      -0.065356        -1.7784
 315   0.0000      -0.057678        -1.5695

MULLIKEN ATOMIC CHARGES
-----------------------
   0 C :    0.263992
   1 C :   -0.341750
   2 C :   -0.175634
   3 N :    0.157189
   4 C :   -0.213200
   5 N :    0.177962
   6 C :    0.019298
   7 C :    0.004336
   8 C :   -0.032979
   9 C :    0.056295
  10 C :    0.052367
  11 C :   -0.022060
  12 Cl:   -0.039219
  13 Cl:   -0.045964
  14 C :    0.133022
  15 O :   -0.141285
  16 C :   -0.145118
  17 C :    0.099049
  18 C :   -0.116254
  19 S :    0.154824
  20 C :   -0.016172
  21 C :   -0.015575
  22 C :    0.071096
  23 C :   -0.045837
  24 C :    0.015181
  25 C :   -0.015815
  26 C :   -0.018908
  27 S :    0.131242
  28 C :   -0.056209
  29 S :    0.121966
  30 C :   -0.063594
  31 C :    0.005432
  32 C :   -0.003232
  33 C :    0.044411
  34 C :    0.011802
  35 C :    0.097238
  36 N :   -0.034377
  37 C :    0.115228
  38 C :   -0.167733
  39 C :    0.075244
  40 N :   -0.037301
  41 C :    0.111752
  42 C :   -0.169585
  43 C :    0.039863
  44 C :    0.038044
  45 C :   -0.076520
  46 S :    0.114310
  47 C :   -0.056441
  48 C :   -0.004284
  49 C :    0.009139
  50 C :   -0.019474
  51 C :   -0.015010
  52 C :    0.002735
  53 C :   -0.042217
  54 S :    0.122990
  55 C :   -0.033900
  56 S :    0.143219
  57 C :   -0.091420
  58 C :    0.041239
  59 C :   -0.013434
  60 C :    0.099387
  61 C :   -0.022522
  62 C :   -0.025095
  63 C :   -0.086252
  64 C :    0.328521
  65 C :   -0.351548
  66 C :   -0.192144
  67 N :    0.156055
  68 C :   -0.191026
  69 N :    0.142613
  70 C :    0.028399
  71 C :   -0.012045
  72 C :    0.147019
  73 O :   -0.154640
  74 C :   -0.032032
  75 C :    0.060142
  76 C :    0.046185
  77 C :   -0.015902
  78 Cl:   -0.038159
  79 Cl:   -0.047276
  80 H :   -0.000777
  81 H :    0.001799
  82 H :    0.022873
  83 H :   -0.011328
  84 H :    0.003783
  85 H :   -0.011799
  86 H :   -0.008473
  87 H :   -0.021786
  88 H :   -0.009667
  89 H :   -0.020325
  90 H :   -0.032814
  91 H :    0.119881
  92 H :   -0.037610
  93 H :    0.123149
  94 H :   -0.036444
  95 H :   -0.019775
  96 H :   -0.046137
  97 H :   -0.011863
  98 H :   -0.018867
  99 H :   -0.008549
 100 H :   -0.006050
 101 H :    0.005137
 102 H :   -0.004517
 103 H :    0.006402
 104 H :    0.023402
 105 H :    0.005292
 106 H :   -0.004144
 107 H :   -0.000434
Sum of atomic charges:   -0.0000000

LOEWDIN ATOMIC CHARGES
----------------------
   0 C :    0.064173
   1 C :   -0.144371
   2 C :   -0.023247
   3 N :   -0.051232
   4 C :   -0.020167
   5 N :   -0.040040
   6 C :   -0.011091
   7 C :   -0.044992
   8 C :    0.000313
   9 C :   -0.136499
  10 C :   -0.130967
  11 C :   -0.016566
  12 Cl:    0.159452
  13 Cl:    0.155692
  14 C :    0.081810
  15 O :   -0.143140
  16 C :   -0.109234
  17 C :    0.052831
  18 C :   -0.191385
  19 S :    0.454962
  20 C :   -0.149093
  21 C :   -0.053892
  22 C :   -0.000740
  23 C :   -0.197789
  24 C :   -0.031333
  25 C :   -0.066432
  26 C :   -0.164384
  27 S :    0.435776
  28 C :   -0.196493
  29 S :    0.433587
  30 C :   -0.158014
  31 C :   -0.062335
  32 C :   -0.050171
  33 C :   -0.051879
  34 C :   -0.024513
  35 C :   -0.002628
  36 N :    0.070613
  37 C :   -0.026634
  38 C :   -0.087702
  39 C :   -0.004899
  40 N :    0.066824
  41 C :   -0.014190
  42 C :   -0.094144
  43 C :   -0.014434
  44 C :   -0.074093
  45 C :   -0.156433
  46 S :    0.428246
  47 C :   -0.196656
  48 C :   -0.051485
  49 C :   -0.063268
  50 C :   -0.166455
  51 C :   -0.066589
  52 C :   -0.043849
  53 C :   -0.195095
  54 S :    0.437589
  55 C :   -0.158748
  56 S :    0.448157
  57 C :   -0.187602
  58 C :   -0.014650
  59 C :   -0.065075
  60 C :    0.023649
  61 C :   -0.042089
  62 C :    0.070275
  63 C :   -0.110202
  64 C :    0.074663
  65 C :   -0.142497
  66 C :   -0.020684
  67 N :   -0.053009
  68 C :   -0.019380
  69 N :   -0.055727
  70 C :   -0.013149
  71 C :   -0.042403
  72 C :    0.084215
  73 O :   -0.149398
  74 C :   -0.001592
  75 C :   -0.135368
  76 C :   -0.131836
  77 C :   -0.013399
  78 Cl:    0.158619
  79 Cl:    0.155119
  80 H :    0.045639
  81 H :    0.043780
  82 H :    0.045911
  83 H :    0.033320
  84 H :    0.036660
  85 H :    0.033105
  86 H :    0.028794
  87 H :    0.027154
  88 H :    0.027709
  89 H :    0.026904
  90 H :    0.025966
  91 H :    0.088262
  92 H :    0.024113
  93 H :    0.086611
  94 H :    0.022712
  95 H :    0.035121
  96 H :    0.016347
  97 H :    0.026909
  98 H :    0.028169
  99 H :    0.028180
 100 H :    0.029548
 101 H :    0.039787
 102 H :    0.029533
 103 H :    0.037099
 104 H :    0.031629
 105 H :    0.041256
 106 H :    0.044462
 107 H :    0.044113

  Mayer bond orders larger than 0.100000
B(  0-C ,  1-C ) :   1.6340 B(  0-C ,  6-C ) :   0.9984 B(  0-C , 16-C ) :   1.0656
B(  1-C ,  2-C ) :   1.1270 B(  1-C ,  4-C ) :   1.1700 B(  2-C ,  3-N ) :   2.9888
B(  4-C ,  5-N ) :   3.0068 B(  6-C ,  7-C ) :   1.3321 B(  6-C , 11-C ) :   1.3492
B(  7-C ,  8-C ) :   1.3518 B(  7-C , 14-C ) :   0.9173 B(  8-C ,  9-C ) :   1.3399
B(  8-C , 80-H ) :   1.0175 B(  9-C , 10-C ) :   1.4143 B(  9-C , 13-Cl) :   1.0448
B( 10-C , 11-C ) :   1.3528 B( 10-C , 12-Cl) :   1.0672 B( 11-C , 81-H ) :   0.9914
B( 14-C , 15-O ) :   2.2661 B( 14-C , 16-C ) :   0.9591 B( 16-C , 17-C ) :   1.6083
B( 17-C , 18-C ) :   1.1865 B( 17-C , 82-H ) :   0.9269 B( 18-C , 19-S ) :   1.0899
B( 18-C , 22-C ) :   1.3968 B( 19-S , 20-C ) :   1.1649 B( 20-C , 21-C ) :   1.4447
B( 20-C , 23-C ) :   1.1381 B( 21-C , 22-C ) :   1.3554 B( 21-C , 83-H ) :   0.9959
B( 22-C , 84-H ) :   0.9866 B( 23-C , 24-C ) :   1.4980 B( 23-C , 26-C ) :   0.1036
B( 23-C , 27-S ) :   1.1011 B( 24-C , 25-C ) :   1.2887 B( 24-C , 85-H ) :   0.9951
B( 25-C , 26-C ) :   1.4733 B( 25-C , 86-H ) :   0.9936 B( 26-C , 27-S ) :   1.1385
B( 26-C , 28-C ) :   1.1674 B( 28-C , 29-S ) :   1.1179 B( 28-C , 32-C ) :   1.4754
B( 29-S , 30-C ) :   1.1207 B( 30-C , 31-C ) :   1.4808 B( 30-C , 33-C ) :   1.1236
B( 31-C , 32-C ) :   1.2954 B( 31-C , 87-H ) :   0.9918 B( 32-C , 88-H ) :   0.9921
B( 33-C , 34-C ) :   1.6857 B( 33-C , 89-H ) :   0.9620 B( 34-C , 35-C ) :   1.1236
B( 34-C , 90-H ) :   0.9609 B( 35-C , 36-N ) :   1.1725 B( 35-C , 42-C ) :   1.3967
B( 36-N , 37-C ) :   1.1656 B( 36-N , 91-H ) :   0.9368 B( 37-C , 38-C ) :   1.2460
B( 37-C , 41-C ) :   1.3124 B( 38-C , 39-C ) :   1.3567 B( 38-C , 92-H ) :   1.0405
B( 39-C , 40-N ) :   1.1915 B( 39-C , 43-C ) :   1.1723 B( 40-N , 41-C ) :   1.1664
B( 40-N , 93-H ) :   0.9334 B( 41-C , 42-C ) :   1.2698 B( 42-C , 94-H ) :   1.0304
B( 43-C , 44-C ) :   1.6328 B( 43-C , 95-H ) :   0.9591 B( 44-C , 45-C ) :   1.1373
B( 44-C , 96-H ) :   0.9569 B( 45-C , 46-S ) :   1.1175 B( 45-C , 49-C ) :   1.4913
B( 46-S , 47-C ) :   1.1156 B( 47-C , 48-C ) :   1.4816 B( 47-C , 50-C ) :   1.1654
B( 48-C , 49-C ) :   1.2881 B( 48-C , 97-H ) :   0.9916 B( 49-C , 98-H ) :   0.9907
B( 50-C , 51-C ) :   1.4830 B( 50-C , 54-S ) :   1.1308 B( 51-C , 52-C ) :   1.2846
B( 51-C , 99-H ) :   0.9936 B( 52-C , 53-C ) :   1.4837 B( 52-C ,100-H ) :   0.9925
B( 53-C , 54-S ) :   1.1062 B( 53-C , 55-C ) :   1.1746 B( 55-C , 56-S ) :   1.1578
B( 55-C , 59-C ) :   1.4353 B( 56-S , 57-C ) :   1.0894 B( 57-C , 58-C ) :   1.4393
B( 57-C , 60-C ) :   1.1560 B( 58-C , 59-C ) :   1.3260 B( 58-C ,101-H ) :   0.9941
B( 59-C ,102-H ) :   0.9924 B( 60-C , 61-C ) :   1.5400 B( 60-C ,103-H ) :   0.9713
B( 61-C , 62-C ) :   1.2169 B( 61-C ,104-H ) :   0.9759 B( 62-C , 63-C ) :   1.4827
B( 62-C ,105-H ) :   0.9611 B( 63-C , 64-C ) :   1.0866 B( 63-C , 72-C ) :   0.9628
B( 64-C , 65-C ) :   1.6199 B( 64-C , 70-C ) :   0.9846 B( 65-C , 66-C ) :   1.1426
B( 65-C , 68-C ) :   1.1500 B( 66-C , 67-N ) :   2.9702 B( 68-C , 69-N ) :   2.9588
B( 70-C , 71-C ) :   1.3323 B( 70-C , 77-C ) :   1.3456 B( 71-C , 72-C ) :   0.9417
B( 71-C , 74-C ) :   1.3484 B( 72-C , 73-O ) :   2.1930 B( 74-C , 75-C ) :   1.3375
B( 74-C ,106-H ) :   1.0167 B( 75-C , 76-C ) :   1.4132 B( 75-C , 79-Cl) :   1.0430
B( 76-C , 77-C ) :   1.3560 B( 76-C , 78-Cl) :   1.0736 B( 77-C ,107-H ) :   0.9853

-----------------------------------------------------------------------------
         ABSORPTION SPECTRUM VIA TRANSITION ELECTRIC DIPOLE MOMENTS
-----------------------------------------------------------------------------
State   Energy  Wavelength   fosc         T2         TX        TY        TZ
        (cm-1)    (nm)                  (au**2)     (au)      (au)      (au)
-----------------------------------------------------------------------------
   0   14288.0    699.9   4.080823054  94.02691  -5.27635  -5.38907   6.09466
   1   15790.4    633.3   0.105456956   2.19866   1.25162  -0.77101   0.19403
   2   20127.8    496.8   0.019610980   0.32076  -0.10309   0.44933  -0.32899
   3   20621.1    484.9   0.225351313   3.59769   1.32589   0.89658  -1.01777
   4   21537.0    464.3   1.001603321  15.31037  -1.99420  -2.20090   2.54746
   5   23220.3    430.7   0.029615084   0.41987   0.00356   0.64772   0.01779
   6   24005.4    416.6   0.016992756   0.23304  -0.09602   0.47305  -0.00655
   7   25908.1    386.0   0.097424518   1.23797   0.99987  -0.33260   0.35723
   8   26628.4    375.5   0.055694403   0.68856  -0.00193   0.71758  -0.41670
   9   27074.3    369.4   0.058798520   0.71496   0.67766   0.09353  -0.49699
  10   27757.3    360.3   0.087702284   1.04018  -0.29704  -0.78785   0.57554
  11   27922.6    358.1   0.007797914   0.09194   0.28089  -0.03913   0.10727
  12   29066.5    344.0   0.007245501   0.08206   0.27161  -0.07145  -0.05646
  13   29425.5    339.8   0.087519356   0.97917   0.08494  -0.94062   0.29529
  14   29489.1    339.1   0.085309274   0.95238   0.01503   0.94964  -0.22436
  15   29713.3    336.5   0.110647415   1.22593  -0.87722  -0.35336  -0.57581
  16   30372.1    329.2   0.015894361   0.17228  -0.41303  -0.02352  -0.03378
  17   30846.8    324.2   0.169822440   1.81243   0.12440   1.13672  -0.71051
  18   31181.2    320.7   0.081785695   0.86349  -0.68866  -0.59409   0.19050
  19   31535.0    317.1   0.052778288   0.55098   0.19590   0.64009  -0.32076
  20   31713.9    315.3   0.023752505   0.24657  -0.08108  -0.05692   0.48657
  21   32786.5    305.0   0.002866500   0.02878  -0.05977   0.15827   0.01267
  22   33135.1    301.8   0.038897658   0.38647  -0.19072   0.53701  -0.24841
  23   33193.5    301.3   0.086056735   0.85351  -0.74497  -0.32387  -0.44004
  24   33827.0    295.6   0.012691754   0.12352   0.12527  -0.23435  -0.23001
  25   34129.0    293.0   0.165300429   1.59451  -1.00102   0.56300  -0.52489
  26   34857.1    286.9   0.026423745   0.24956  -0.34604  -0.00201  -0.36030
  27   34931.0    286.3   0.057573828   0.54261  -0.07180   0.61436  -0.40002
  28   35275.7    283.5   0.000372803   0.00348  -0.05249  -0.02681  -0.00225
  29   35457.4    282.0   0.017339433   0.16099  -0.15578   0.25714  -0.26571
  30   35548.6    281.3   0.068660172   0.63585  -0.38088  -0.68706  -0.13684
  31   35680.3    280.3   0.430641571   3.97341  -0.47581  -1.85001   0.56964
  32   36144.3    276.7   0.318436196   2.90040  -1.28394   0.95638  -0.58073
  33   36287.5    275.6   0.013139531   0.11921   0.09887  -0.30854  -0.11930
  34   36566.5    273.5   0.082177037   0.73985  -0.00486   0.84598  -0.15539
  35   36904.6    271.0   0.493305600   4.40059   1.81700   0.67589   0.80142
  36   36957.4    270.6   0.051670067   0.46027   0.45551  -0.08463  -0.49560
  37   37332.8    267.9   0.045805293   0.40392   0.28458  -0.35176  -0.44632
  38   37640.6    265.7   0.047339311   0.41404  -0.55824   0.31359   0.06381
  39   37881.2    264.0   0.095263737   0.82790  -0.74381   0.46755  -0.23676
  40   38033.2    262.9   0.011173221   0.09671  -0.25431   0.16761  -0.06283
  41   38168.3    262.0   0.010291359   0.08877   0.23164   0.14773  -0.11525
  42   38547.8    259.4   0.015630615   0.13349  -0.02380   0.36251   0.03891
  43   38658.0    258.7   0.008430186   0.07179   0.03556  -0.06502   0.25749
  44   38948.7    256.7   0.031947884   0.27004   0.50954  -0.00771   0.10172
  45   39387.7    253.9   0.037899873   0.31678   0.54654   0.09954  -0.09033
  46   39606.4    252.5   0.083297527   0.69238   0.18114  -0.65451   0.48082
  47   39727.1    251.7   0.026822755   0.22228   0.38297   0.07420  -0.26477
  48   40101.7    249.4   0.069935818   0.57413   0.60072  -0.37027   0.27598

FINAL SINGLE POINT ENERGY     -7083.327965780726

DIPOLE MOMENT
-------------
                                X             Y             Z
Electronic contribution:     -6.39461      21.44157      -6.60571
Nuclear contribution   :      9.16504     -21.31290       7.13841
                        -----------------------------------------
Total Dipole Moment    :      2.77043       0.12867       0.53270
                        -----------------------------------------
Magnitude (a.u.)       :      2.82411
Magnitude (Debye)      :      7.17832

Rotational constants in cm-1:     0.002999     0.000050     0.000050
Rotational constants in MHz :    89.896598     1.512500     1.497023

                             ****ORCA TERMINATED NORMALLY****
TOTAL RUN TIME: 0 days 0 hours 16 minutes 27 seconds 822 msec
