                         Program Version 4.2.0 -  RELEASE  -
|  1> # ORCA input file
|  2> # SCF done       -217.509539959432          0.000762931917
|  3> ! CAM-B3LYP def2-SVP def2/J RIJCOSX Grid4 TightSCF
|  4> %maxcore 5000
|  5> %tddft
|  6>     Mode sTDDFT
|  7>     Ethresh 5.0
|  8>     maxcore 5000
|  9> end
| 10>
| 11> %pal
| 12>   nprocs 6
| 13>   end
| 14> * xyz 0 1
| 15>    C       12.60354       -12.79020         6.75341
| 16>    C       11.68097       -12.19409         5.93369
| 17>    C       11.38140       -10.81780         5.95795
| 18>    N       11.08383        -9.70923         5.95738
| 19>    C       11.01370       -12.88585         4.90101
| 20>    N       10.49825       -13.39867         4.01283
| 21>    C       13.57912       -12.08358         7.58123
| 22>    C       14.66378       -12.94439         7.83118
| 23>    C       15.76453       -12.52875         8.55160
| 24>    C       15.77731       -11.22952         9.04513
| 25>    C       14.69585       -10.37310         8.81140
| 26>    C       13.59296       -10.79053         8.07369
| 27>   Cl       14.72027        -8.77640         9.44253
| 28>   Cl       17.12909       -10.67672         9.94911
| 29>    C       14.39036       -14.27171         7.23305
| 30>    O       15.11557       -15.23868         7.20816
| 31>    C       12.99817       -14.17997         6.72419
| 32>    C       12.31143       -15.32668         6.44759
| 33>    C       10.92455       -15.56395         6.38931
| 34>    S        9.71391       -14.47185         7.01908
| 35>    C        8.44130       -15.58750         6.64192
| 36>    C        8.94625       -16.74420         6.06930
| 37>    C       10.32591       -16.73569         5.94494
| 38>    C        7.09013       -15.27144         6.91614
| 39>    C        6.57167       -14.08848         7.40693
| 40>    C        5.18801       -14.10507         7.54435
| 41>    C        4.61238       -15.30366         7.16738
| 42>    S        5.82140       -16.43131         6.62676
| 43>    C        3.23996       -15.65578         7.17801
| 44>    S        2.01639       -14.51093         7.64237
| 45>    C        0.75136       -15.67924         7.37644
| 46>    C        1.28658       -16.88505         6.95545
| 47>    C        2.67161       -16.87088         6.84299
| 48>    C       -0.59984       -15.30483         7.58040
| 49>    C       -1.66600       -16.12741         7.41304
| 50>    C       -2.99983       -15.69663         7.58592
| 51>    S       -4.33611       -16.85737         7.31764
| 52>    C       -5.42083       -15.58053         7.66583
| 53>    C       -4.71427       -14.40450         7.95684
| 54>    N       -3.39268       -14.49337         7.90801
| 55>    C       -5.65587       -13.27802         8.24564
| 56>    C       -6.98272       -13.95614         8.06450
| 57>    C       -6.80149       -15.30356         7.73352
| 58>    S       -8.28604       -16.12547         7.50014
| 59>    C       -9.17256       -14.64661         7.83183
| 60>    C       -8.32018       -13.58963         8.11931
| 61>    C      -10.58500       -14.67987         7.73037
| 62>    C      -11.41912       -13.62085         7.86842
| 63>    C      -12.82237       -13.69294         7.67736
| 64>    S      -13.63045       -15.18977         7.29737
| 65>    C      -15.16502       -14.37869         7.15466
| 66>    C      -15.03270       -13.02819         7.40652
| 67>    C      -13.72689       -12.64771         7.70413
| 68>    C      -16.32821       -15.09806         6.78329
| 69>    C      -16.46374       -16.46282         6.61792
| 70>    C      -17.73383       -16.84695         6.20116
| 71>    C      -18.60100       -15.78577         6.02878
| 72>    S      -17.81781       -14.27629         6.41737
| 73>    C      -19.93634       -15.81884         5.56185
| 74>    S      -20.71686       -17.31905         5.17715
| 75>    C      -22.16148       -16.48875         4.64994
| 76>    C      -22.00973       -15.11568         4.79541
| 77>    C      -20.77604       -14.74468         5.30575
| 78>    C      -23.25053       -17.22731         4.14748
| 79>    C      -24.38467       -16.68179         3.61666
| 80>    C      -25.42032       -17.48546         3.11105
| 81>    C      -26.55771       -17.01076         2.50593
| 82>    C      -27.64406       -17.79904         1.96494
| 83>    C      -27.79161       -19.16209         2.01886
| 84>    C      -28.88783       -19.86245         1.47323
| 85>    N      -29.74741       -20.49597         1.05138
| 86>    C      -26.89330       -20.06389         2.62630
| 87>    N      -26.22083       -20.86608         3.09970
| 88>    C      -28.59535       -16.87435         1.34833
| 89>    C      -28.13164       -15.55987         1.52539
| 90>    C      -26.84976       -15.58086         2.26502
| 91>    O      -26.19418       -14.61166         2.58775
| 92>    C      -28.82597       -14.47025         1.04230
| 93>    C      -30.01586       -14.69625         0.36173
| 94>    C      -30.48554       -16.00093         0.17971
| 95>    C      -29.78246       -17.09630         0.66993
| 96>   Cl      -31.95683       -16.26791        -0.66612
| 97>   Cl      -30.90945       -13.36672        -0.25832
| 98>    H       16.59335       -13.19648         8.72586
| 99>    H       12.77418       -10.10820         7.91188
|100>    H       12.93076       -16.21439         6.35441
|101>    H        8.31084       -17.55486         5.75983
|102>    H       10.89676       -17.54313         5.52218
|103>    H        7.19371       -13.24402         7.64581
|104>    H        4.60491       -13.27680         7.90555
|105>    H        0.68400       -17.74637         6.73270
|106>    H        3.26301       -17.71251         6.52739
|107>    H       -0.78869       -14.28400         7.88079
|108>    H       -1.53366       -17.15923         7.12322
|109>    H       -5.51592       -12.44768         7.55126
|110>    H       -5.52318       -12.89063         9.25748
|111>    H       -8.67273       -12.60164         8.35193
|112>    H      -11.01595       -15.64397         7.48973
|113>    H      -11.02773       -12.64112         8.10390
|114>    H      -15.86845       -12.35170         7.36920
|115>    H      -13.43418       -11.63634         7.92344
|116>    H      -15.65242       -17.14585         6.79641
|117>    H      -18.02785       -17.86483         6.01529
|118>    H      -22.78220       -14.41565         4.53454
|119>    H      -20.47252       -13.72814         5.48455
|120>    H      -23.15482       -18.30629         4.17477
|121>    H      -24.49940       -15.61104         3.55929
|122>    H      -25.28967       -18.55629         3.20035
|123>    H      -28.45088       -13.46977         1.18951
|124>    H      -30.17623       -18.08616         0.50814
|125> *
|126>
|127>                          ****END OF INPUT****

CARTESIAN COORDINATES (ANGSTROEM)
---------------------------------
  C     12.603540  -12.790200    6.753410
  C     11.680970  -12.194090    5.933690
  C     11.381400  -10.817800    5.957950
  N     11.083830   -9.709230    5.957380
  C     11.013700  -12.885850    4.901010
  N     10.498250  -13.398670    4.012830
  C     13.579120  -12.083580    7.581230
  C     14.663780  -12.944390    7.831180
  C     15.764530  -12.528750    8.551600
  C     15.777310  -11.229520    9.045130
  C     14.695850  -10.373100    8.811400
  C     13.592960  -10.790530    8.073690
  Cl    14.720270   -8.776400    9.442530
  Cl    17.129090  -10.676720    9.949110
  C     14.390360  -14.271710    7.233050
  O     15.115570  -15.238680    7.208160
  C     12.998170  -14.179970    6.724190
  C     12.311430  -15.326680    6.447590
  C     10.924550  -15.563950    6.389310
  S      9.713910  -14.471850    7.019080
  C      8.441300  -15.587500    6.641920
  C      8.946250  -16.744200    6.069300
  C     10.325910  -16.735690    5.944940
  C      7.090130  -15.271440    6.916140
  C      6.571670  -14.088480    7.406930
  C      5.188010  -14.105070    7.544350
  C      4.612380  -15.303660    7.167380
  S      5.821400  -16.431310    6.626760
  C      3.239960  -15.655780    7.178010
  S      2.016390  -14.510930    7.642370
  C      0.751360  -15.679240    7.376440
  C      1.286580  -16.885050    6.955450
  C      2.671610  -16.870880    6.842990
  C     -0.599840  -15.304830    7.580400
  C     -1.666000  -16.127410    7.413040
  C     -2.999830  -15.696630    7.585920
  S     -4.336110  -16.857370    7.317640
  C     -5.420830  -15.580530    7.665830
  C     -4.714270  -14.404500    7.956840
  N     -3.392680  -14.493370    7.908010
  C     -5.655870  -13.278020    8.245640
  C     -6.982720  -13.956140    8.064500
  C     -6.801490  -15.303560    7.733520
  S     -8.286040  -16.125470    7.500140
  C     -9.172560  -14.646610    7.831830
  C     -8.320180  -13.589630    8.119310
  C    -10.585000  -14.679870    7.730370
  C    -11.419120  -13.620850    7.868420
  C    -12.822370  -13.692940    7.677360
  S    -13.630450  -15.189770    7.297370
  C    -15.165020  -14.378690    7.154660
  C    -15.032700  -13.028190    7.406520
  C    -13.726890  -12.647710    7.704130
  C    -16.328210  -15.098060    6.783290
  C    -16.463740  -16.462820    6.617920
  C    -17.733830  -16.846950    6.201160
  C    -18.601000  -15.785770    6.028780
  S    -17.817810  -14.276290    6.417370
  C    -19.936340  -15.818840    5.561850
  S    -20.716860  -17.319050    5.177150
  C    -22.161480  -16.488750    4.649940
  C    -22.009730  -15.115680    4.795410
  C    -20.776040  -14.744680    5.305750
  C    -23.250530  -17.227310    4.147480
  C    -24.384670  -16.681790    3.616660
  C    -25.420320  -17.485460    3.111050
  C    -26.557710  -17.010760    2.505930
  C    -27.644060  -17.799040    1.964940
  C    -27.791610  -19.162090    2.018860
  C    -28.887830  -19.862450    1.473230
  N    -29.747410  -20.495970    1.051380
  C    -26.893300  -20.063890    2.626300
  N    -26.220830  -20.866080    3.099700
  C    -28.595350  -16.874350    1.348330
  C    -28.131640  -15.559870    1.525390
  C    -26.849760  -15.580860    2.265020
  O    -26.194180  -14.611660    2.587750
  C    -28.825970  -14.470250    1.042300
  C    -30.015860  -14.696250    0.361730
  C    -30.485540  -16.000930    0.179710
  C    -29.782460  -17.096300    0.669930
  Cl   -31.956830  -16.267910   -0.666120
  Cl   -30.909450  -13.366720   -0.258320
  H     16.593350  -13.196480    8.725860
  H     12.774180  -10.108200    7.911880
  H     12.930760  -16.214390    6.354410
  H      8.310840  -17.554860    5.759830
  H     10.896760  -17.543130    5.522180
  H      7.193710  -13.244020    7.645810
  H      4.604910  -13.276800    7.905550
  H      0.684000  -17.746370    6.732700
  H      3.263010  -17.712510    6.527390
  H     -0.788690  -14.284000    7.880790
  H     -1.533660  -17.159230    7.123220
  H     -5.515920  -12.447680    7.551260
  H     -5.523180  -12.890630    9.257480
  H     -8.672730  -12.601640    8.351930
  H    -11.015950  -15.643970    7.489730
  H    -11.027730  -12.641120    8.103900
  H    -15.868450  -12.351700    7.369200
  H    -13.434180  -11.636340    7.923440
  H    -15.652420  -17.145850    6.796410
  H    -18.027850  -17.864830    6.015290
  H    -22.782200  -14.415650    4.534540
  H    -20.472520  -13.728140    5.484550
  H    -23.154820  -18.306290    4.174770
  H    -24.499400  -15.611040    3.559290
  H    -25.289670  -18.556290    3.200350
  H    -28.450880  -13.469770    1.189510
  H    -30.176230  -18.086160    0.508140

 Total Charge           Charge          ....    0
 Multiplicity           Mult            ....    1
 Number of Electrons    NEL             ....  658
 Basis Dimension        Dim             .... 1345

ORBITAL ENERGIES
----------------

  NO   OCC          E(Eh)            E(eV)
   0   2.0000    -101.598975     -2764.6487
   1   2.0000    -101.598328     -2764.6310
   2   2.0000    -101.597459     -2764.6074
   3   2.0000    -101.595505     -2764.5542
   4   2.0000     -88.973206     -2421.0840
   5   2.0000     -88.972598     -2421.0675
   6   2.0000     -88.971592     -2421.0401
   7   2.0000     -88.969560     -2420.9848
   8   2.0000     -88.969352     -2420.9791
   9   2.0000     -88.966027     -2420.8887
  10   2.0000     -88.965988     -2420.8876
  11   2.0000     -88.961082     -2420.7541
  12   2.0000     -19.217099      -522.9238
  13   2.0000     -19.216944      -522.9196
  14   2.0000     -14.417284      -392.3142
  15   2.0000     -14.415244      -392.2587
  16   2.0000     -14.413064      -392.1994
  17   2.0000     -14.412848      -392.1935
  18   2.0000     -14.412146      -392.1744
  19   2.0000     -10.369108      -282.1578
  20   2.0000     -10.367852      -282.1236
  21   2.0000     -10.355336      -281.7830
  22   2.0000     -10.354476      -281.7596
  23   2.0000     -10.352623      -281.7092
  24   2.0000     -10.352072      -281.6942
  25   2.0000     -10.345305      -281.5101
  26   2.0000     -10.343882      -281.4713
  27   2.0000     -10.340542      -281.3805
  28   2.0000     -10.339964      -281.3647
  29   2.0000     -10.337333      -281.2931
  30   2.0000     -10.332827      -281.1705
  31   2.0000     -10.328989      -281.0661
  32   2.0000     -10.323672      -280.9214
  33   2.0000     -10.322955      -280.9019
  34   2.0000     -10.320466      -280.8342
  35   2.0000     -10.319656      -280.8121
  36   2.0000     -10.319509      -280.8081
  37   2.0000     -10.318168      -280.7716
  38   2.0000     -10.317934      -280.7653
  39   2.0000     -10.317657      -280.7577
  40   2.0000     -10.316747      -280.7330
  41   2.0000     -10.315199      -280.6908
  42   2.0000     -10.315173      -280.6901
  43   2.0000     -10.315133      -280.6890
  44   2.0000     -10.314899      -280.6827
  45   2.0000     -10.313694      -280.6499
  46   2.0000     -10.313322      -280.6397
  47   2.0000     -10.312674      -280.6221
  48   2.0000     -10.311696      -280.5955
  49   2.0000     -10.311435      -280.5884
  50   2.0000     -10.308700      -280.5140
  51   2.0000     -10.308577      -280.5106
  52   2.0000     -10.308540      -280.5096
  53   2.0000     -10.308381      -280.5053
  54   2.0000     -10.308308      -280.5033
  55   2.0000     -10.307584      -280.4836
  56   2.0000     -10.307081      -280.4699
  57   2.0000     -10.305620      -280.4302
  58   2.0000     -10.304912      -280.4109
  59   2.0000     -10.301668      -280.3226
  60   2.0000     -10.300780      -280.2985
  61   2.0000     -10.297045      -280.1968
  62   2.0000     -10.295772      -280.1622
  63   2.0000     -10.295653      -280.1590
  64   2.0000     -10.293169      -280.0914
  65   2.0000     -10.292284      -280.0673
  66   2.0000     -10.292118      -280.0628
  67   2.0000     -10.291335      -280.0415
  68   2.0000     -10.290482      -280.0183
  69   2.0000     -10.290451      -280.0174
  70   2.0000     -10.290416      -280.0165
  71   2.0000     -10.290293      -280.0131
  72   2.0000     -10.289247      -279.9846
  73   2.0000     -10.287824      -279.9459
  74   2.0000     -10.287593      -279.9396
  75   2.0000     -10.287191      -279.9287
  76   2.0000     -10.285564      -279.8844
  77   2.0000     -10.284360      -279.8517
  78   2.0000     -10.284024      -279.8425
  79   2.0000     -10.283218      -279.8206
  80   2.0000     -10.282601      -279.8038
  81   2.0000     -10.282230      -279.7937
  82   2.0000     -10.280193      -279.7383
  83   2.0000      -9.553997      -259.9775
  84   2.0000      -9.553427      -259.9620
  85   2.0000      -9.552499      -259.9367
  86   2.0000      -9.550487      -259.8820
  87   2.0000      -8.068376      -219.5517
  88   2.0000      -8.068277      -219.5490
  89   2.0000      -8.067127      -219.5177
  90   2.0000      -8.064974      -219.4591
  91   2.0000      -8.064634      -219.4499
  92   2.0000      -8.061693      -219.3698
  93   2.0000      -8.061227      -219.3571
  94   2.0000      -8.056713      -219.2343
  95   2.0000      -7.324388      -199.3067
  96   2.0000      -7.323830      -199.2915
  97   2.0000      -7.322878      -199.2656
  98   2.0000      -7.320901      -199.2118
  99   2.0000      -7.314243      -199.0307
 100   2.0000      -7.313663      -199.0149
 101   2.0000      -7.313539      -199.0115
 102   2.0000      -7.312952      -198.9956
 103   2.0000      -7.312765      -198.9904
 104   2.0000      -7.312036      -198.9706
 105   2.0000      -7.310734      -198.9352
 106   2.0000      -7.310019      -198.9157
 107   2.0000      -6.037752      -164.2956
 108   2.0000      -6.037528      -164.2895
 109   2.0000      -6.036515      -164.2619
 110   2.0000      -6.034371      -164.2036
 111   2.0000      -6.033776      -164.1874
 112   2.0000      -6.033617      -164.1831
 113   2.0000      -6.033482      -164.1794
 114   2.0000      -6.032414      -164.1503
 115   2.0000      -6.030945      -164.1103
 116   2.0000      -6.030529      -164.0990
 117   2.0000      -6.030356      -164.0943
 118   2.0000      -6.030283      -164.0923
 119   2.0000      -6.030282      -164.0923
 120   2.0000      -6.029924      -164.0826
 121   2.0000      -6.028992      -164.0572
 122   2.0000      -6.026904      -164.0004
 123   2.0000      -6.026852      -163.9990
 124   2.0000      -6.026809      -163.9978
 125   2.0000      -6.026502      -163.9895
 126   2.0000      -6.026011      -163.9761
 127   2.0000      -6.023769      -163.9151
 128   2.0000      -6.023307      -163.9025
 129   2.0000      -6.022047      -163.8682
 130   2.0000      -6.018637      -163.7754
 131   2.0000      -1.132478       -30.8163
 132   2.0000      -1.131256       -30.7831
 133   2.0000      -1.069178       -29.0938
 134   2.0000      -1.030552       -28.0427
 135   2.0000      -1.027362       -27.9559
 136   2.0000      -1.016994       -27.6738
 137   2.0000      -1.012993       -27.5650
 138   2.0000      -1.012315       -27.5465
 139   2.0000      -1.011538       -27.5254
 140   2.0000      -1.000602       -27.2278
 141   2.0000      -0.999809       -27.2062
 142   2.0000      -0.996858       -27.1259
 143   2.0000      -0.992941       -27.0193
 144   2.0000      -0.992272       -27.0011
 145   2.0000      -0.989556       -26.9272
 146   2.0000      -0.987043       -26.8588
 147   2.0000      -0.981318       -26.7030
 148   2.0000      -0.979217       -26.6459
 149   2.0000      -0.960784       -26.1443
 150   2.0000      -0.958326       -26.0774
 151   2.0000      -0.935970       -25.4691
 152   2.0000      -0.934968       -25.4418
 153   2.0000      -0.933808       -25.4102
 154   2.0000      -0.920678       -25.0529
 155   2.0000      -0.912506       -24.8305
 156   2.0000      -0.906794       -24.6751
 157   2.0000      -0.900430       -24.5020
 158   2.0000      -0.896227       -24.3876
 159   2.0000      -0.891813       -24.2675
 160   2.0000      -0.885134       -24.0857
 161   2.0000      -0.875405       -23.8210
 162   2.0000      -0.867009       -23.5925
 163   2.0000      -0.859902       -23.3991
 164   2.0000      -0.859029       -23.3754
 165   2.0000      -0.856887       -23.3171
 166   2.0000      -0.853878       -23.2352
 167   2.0000      -0.849609       -23.1190
 168   2.0000      -0.849122       -23.1058
 169   2.0000      -0.845237       -23.0001
 170   2.0000      -0.839629       -22.8475
 171   2.0000      -0.838073       -22.8051
 172   2.0000      -0.832199       -22.6453
 173   2.0000      -0.825804       -22.4713
 174   2.0000      -0.817720       -22.2513
 175   2.0000      -0.802433       -21.8353
 176   2.0000      -0.796905       -21.6849
 177   2.0000      -0.781485       -21.2653
 178   2.0000      -0.776180       -21.1209
 179   2.0000      -0.769759       -20.9462
 180   2.0000      -0.765010       -20.8170
 181   2.0000      -0.761017       -20.7083
 182   2.0000      -0.757689       -20.6178
 183   2.0000      -0.740849       -20.1595
 184   2.0000      -0.726744       -19.7757
 185   2.0000      -0.724291       -19.7090
 186   2.0000      -0.714171       -19.4336
 187   2.0000      -0.703649       -19.1473
 188   2.0000      -0.699065       -19.0225
 189   2.0000      -0.695791       -18.9334
 190   2.0000      -0.693508       -18.8713
 191   2.0000      -0.690115       -18.7790
 192   2.0000      -0.682586       -18.5741
 193   2.0000      -0.674172       -18.3452
 194   2.0000      -0.669303       -18.2127
 195   2.0000      -0.667604       -18.1664
 196   2.0000      -0.660803       -17.9814
 197   2.0000      -0.651250       -17.7214
 198   2.0000      -0.650815       -17.7096
 199   2.0000      -0.644204       -17.5297
 200   2.0000      -0.636596       -17.3226
 201   2.0000      -0.633407       -17.2359
 202   2.0000      -0.631051       -17.1718
 203   2.0000      -0.628443       -17.1008
 204   2.0000      -0.626888       -17.0585
 205   2.0000      -0.625334       -17.0162
 206   2.0000      -0.624395       -16.9906
 207   2.0000      -0.622414       -16.9367
 208   2.0000      -0.621567       -16.9137
 209   2.0000      -0.617467       -16.8021
 210   2.0000      -0.615298       -16.7431
 211   2.0000      -0.610149       -16.6030
 212   2.0000      -0.607643       -16.5348
 213   2.0000      -0.593625       -16.1533
 214   2.0000      -0.593261       -16.1434
 215   2.0000      -0.589310       -16.0359
 216   2.0000      -0.584520       -15.9056
 217   2.0000      -0.577612       -15.7176
 218   2.0000      -0.572350       -15.5744
 219   2.0000      -0.569917       -15.5082
 220   2.0000      -0.565388       -15.3850
 221   2.0000      -0.558666       -15.2021
 222   2.0000      -0.554208       -15.0808
 223   2.0000      -0.551728       -15.0133
 224   2.0000      -0.549043       -14.9402
 225   2.0000      -0.547676       -14.9030
 226   2.0000      -0.542691       -14.7674
 227   2.0000      -0.541333       -14.7304
 228   2.0000      -0.540850       -14.7173
 229   2.0000      -0.539127       -14.6704
 230   2.0000      -0.538086       -14.6421
 231   2.0000      -0.536905       -14.6099
 232   2.0000      -0.532138       -14.4802
 233   2.0000      -0.528853       -14.3908
 234   2.0000      -0.522991       -14.2313
 235   2.0000      -0.521150       -14.1812
 236   2.0000      -0.517223       -14.0744
 237   2.0000      -0.513759       -13.9801
 238   2.0000      -0.512902       -13.9568
 239   2.0000      -0.512478       -13.9452
 240   2.0000      -0.509591       -13.8667
 241   2.0000      -0.509090       -13.8530
 242   2.0000      -0.504650       -13.7322
 243   2.0000      -0.504483       -13.7277
 244   2.0000      -0.503431       -13.6990
 245   2.0000      -0.502393       -13.6708
 246   2.0000      -0.499311       -13.5869
 247   2.0000      -0.495970       -13.4960
 248   2.0000      -0.495289       -13.4775
 249   2.0000      -0.494598       -13.4587
 250   2.0000      -0.494256       -13.4494
 251   2.0000      -0.493027       -13.4160
 252   2.0000      -0.491687       -13.3795
 253   2.0000      -0.490516       -13.3476
 254   2.0000      -0.489117       -13.3096
 255   2.0000      -0.487069       -13.2538
 256   2.0000      -0.481598       -13.1050
 257   2.0000      -0.479484       -13.0474
 258   2.0000      -0.479167       -13.0388
 259   2.0000      -0.477243       -12.9864
 260   2.0000      -0.475620       -12.9423
 261   2.0000      -0.473342       -12.8803
 262   2.0000      -0.472826       -12.8662
 263   2.0000      -0.469237       -12.7686
 264   2.0000      -0.466968       -12.7069
 265   2.0000      -0.466433       -12.6923
 266   2.0000      -0.466369       -12.6905
 267   2.0000      -0.464835       -12.6488
 268   2.0000      -0.460715       -12.5367
 269   2.0000      -0.457223       -12.4417
 270   2.0000      -0.454345       -12.3634
 271   2.0000      -0.450484       -12.2583
 272   2.0000      -0.448391       -12.2013
 273   2.0000      -0.447537       -12.1781
 274   2.0000      -0.446743       -12.1565
 275   2.0000      -0.442593       -12.0436
 276   2.0000      -0.441057       -12.0018
 277   2.0000      -0.437591       -11.9075
 278   2.0000      -0.435101       -11.8397
 279   2.0000      -0.434681       -11.8283
 280   2.0000      -0.434599       -11.8260
 281   2.0000      -0.432237       -11.7618
 282   2.0000      -0.431046       -11.7294
 283   2.0000      -0.429087       -11.6761
 284   2.0000      -0.428856       -11.6698
 285   2.0000      -0.426804       -11.6139
 286   2.0000      -0.425007       -11.5650
 287   2.0000      -0.424805       -11.5595
 288   2.0000      -0.424349       -11.5471
 289   2.0000      -0.424224       -11.5437
 290   2.0000      -0.423276       -11.5179
 291   2.0000      -0.423231       -11.5167
 292   2.0000      -0.421470       -11.4688
 293   2.0000      -0.419409       -11.4127
 294   2.0000      -0.415661       -11.3107
 295   2.0000      -0.413623       -11.2553
 296   2.0000      -0.408991       -11.1292
 297   2.0000      -0.408920       -11.1273
 298   2.0000      -0.406552       -11.0628
 299   2.0000      -0.404039       -10.9945
 300   2.0000      -0.399476       -10.8703
 301   2.0000      -0.391331       -10.6487
 302   2.0000      -0.380967       -10.3666
 303   2.0000      -0.379741       -10.3333
 304   2.0000      -0.378535       -10.3005
 305   2.0000      -0.370694       -10.0871
 306   2.0000      -0.359497        -9.7824
 307   2.0000      -0.353216        -9.6115
 308   2.0000      -0.350833        -9.5467
 309   2.0000      -0.345057        -9.3895
 310   2.0000      -0.343413        -9.3447
 311   2.0000      -0.342245        -9.3130
 312   2.0000      -0.341782        -9.3004
 313   2.0000      -0.338464        -9.2101
 314   2.0000      -0.337045        -9.1715
 315   2.0000      -0.336265        -9.1502
 316   2.0000      -0.335838        -9.1386
 317   2.0000      -0.333185        -9.0664
 318   2.0000      -0.331920        -9.0320
 319   2.0000      -0.329883        -8.9766
 320   2.0000      -0.326879        -8.8948
 321   2.0000      -0.318309        -8.6616
 322   2.0000      -0.310336        -8.4447
 323   2.0000      -0.307807        -8.3758
 324   2.0000      -0.297959        -8.1079
 325   2.0000      -0.280777        -7.6403
 326   2.0000      -0.260324        -7.0838
 327   2.0000      -0.244597        -6.6558
 328   2.0000      -0.222131        -6.0445
 329   0.0000      -0.099659        -2.7119
 330   0.0000      -0.097778        -2.6607
 331   0.0000      -0.073200        -1.9919
 332   0.0000      -0.066586        -1.8119
 333   0.0000      -0.062458        -1.6996

MULLIKEN ATOMIC CHARGES
-----------------------
   0 C :    0.242911
   1 C :   -0.313905
   2 C :   -0.180157
   3 N :    0.156208
   4 C :   -0.216556
   5 N :    0.179322
   6 C :    0.023427
   7 C :   -0.000199
   8 C :   -0.033306
   9 C :    0.059610
  10 C :    0.052790
  11 C :   -0.020634
  12 Cl:   -0.038928
  13 Cl:   -0.045606
  14 C :    0.140254
  15 O :   -0.140311
  16 C :   -0.140669
  17 C :    0.060357
  18 C :   -0.087626
  19 S :    0.145385
  20 C :   -0.017620
  21 C :   -0.006515
  22 C :    0.068664
  23 C :   -0.046579
  24 C :    0.009990
  25 C :   -0.010145
  26 C :   -0.020660
  27 S :    0.129525
  28 C :   -0.054960
  29 S :    0.138018
  30 C :   -0.072062
  31 C :    0.020950
  32 C :   -0.003285
  33 C :    0.066002
  34 C :    0.047426
  35 C :   -0.109743
  36 S :    0.123265
  37 C :   -0.060710
  38 C :   -0.229645
  39 N :   -0.013602
  40 C :    0.392312
  41 C :   -0.165911
  42 C :   -0.101089
  43 S :    0.148519
  44 C :   -0.080679
  45 C :   -0.014082
  46 C :    0.039164
  47 C :    0.016442
  48 C :   -0.035844
  49 S :    0.102721
  50 C :   -0.044763
  51 C :   -0.002482
  52 C :    0.008103
  53 C :   -0.029069
  54 C :   -0.008430
  55 C :   -0.001733
  56 C :   -0.038906
  57 S :    0.127834
  58 C :   -0.033541
  59 S :    0.144203
  60 C :   -0.090358
  61 C :    0.043562
  62 C :   -0.015855
  63 C :    0.095435
  64 C :   -0.020998
  65 C :   -0.031259
  66 C :   -0.083813
  67 C :    0.330837
  68 C :   -0.350785
  69 C :   -0.189150
  70 N :    0.152311
  71 C :   -0.191951
  72 N :    0.145554
  73 C :    0.030956
  74 C :   -0.009992
  75 C :    0.148298
  76 O :   -0.155263
  77 C :   -0.037296
  78 C :    0.062571
  79 C :    0.048979
  80 C :   -0.018533
  81 Cl:   -0.038530
  82 Cl:   -0.046500
  83 H :    0.000412
  84 H :    0.002784
  85 H :    0.024556
  86 H :   -0.004255
  87 H :    0.000662
  88 H :   -0.001426
  89 H :   -0.004891
  90 H :   -0.015101
  91 H :   -0.009929
  92 H :    0.003334
  93 H :   -0.016917
  94 H :    0.035648
  95 H :    0.035729
  96 H :   -0.026203
  97 H :   -0.010530
  98 H :   -0.015630
  99 H :   -0.009431
 100 H :   -0.017963
 101 H :   -0.005224
 102 H :   -0.004671
 103 H :    0.005595
 104 H :   -0.003839
 105 H :    0.007518
 106 H :    0.024884
 107 H :    0.007722
 108 H :   -0.003572
 109 H :   -0.000937
Sum of atomic charges:   -0.0000000

LOEWDIN ATOMIC CHARGES
----------------------
   0 C :    0.060026
   1 C :   -0.142319
   2 C :   -0.021988
   3 N :   -0.048615
   4 C :   -0.039664
   5 N :   -0.044082
   6 C :   -0.010102
   7 C :   -0.044884
   8 C :    0.000507
   9 C :   -0.136175
  10 C :   -0.130349
  11 C :   -0.016299
  12 Cl:    0.160180
  13 Cl:    0.156403
  14 C :    0.082958
  15 O :   -0.141821
  16 C :   -0.110621
  17 C :    0.056532
  18 C :   -0.187637
  19 S :    0.473314
  20 C :   -0.143583
  21 C :   -0.068747
  22 C :    0.000880
  23 C :   -0.193005
  24 C :   -0.037219
  25 C :   -0.060166
  26 C :   -0.166521
  27 S :    0.444395
  28 C :   -0.189149
  29 S :    0.445902
  30 C :   -0.165545
  31 C :   -0.049338
  32 C :   -0.052760
  33 C :   -0.015292
  34 C :   -0.055636
  35 C :   -0.123122
  36 S :    0.405917
  37 C :   -0.218008
  38 C :   -0.036096
  39 N :   -0.089519
  40 C :   -0.012138
  41 C :   -0.047815
  42 C :   -0.201097
  43 S :    0.437891
  44 C :   -0.168414
  45 C :   -0.051063
  46 C :   -0.046802
  47 C :   -0.042580
  48 C :   -0.158140
  49 S :    0.429456
  50 C :   -0.185994
  51 C :   -0.056816
  52 C :   -0.057318
  53 C :   -0.169826
  54 C :   -0.062662
  55 C :   -0.045239
  56 C :   -0.192428
  57 S :    0.440037
  58 C :   -0.160235
  59 S :    0.449533
  60 C :   -0.186362
  61 C :   -0.015574
  62 C :   -0.063584
  63 C :    0.022691
  64 C :   -0.040827
  65 C :    0.070088
  66 C :   -0.108791
  67 C :    0.074664
  68 C :   -0.141528
  69 C :   -0.020391
  70 N :   -0.052239
  71 C :   -0.019553
  72 N :   -0.054627
  73 C :   -0.013083
  74 C :   -0.042541
  75 C :    0.084591
  76 O :   -0.148666
  77 C :   -0.001534
  78 C :   -0.134981
  79 C :   -0.131485
  80 C :   -0.013245
  81 Cl:    0.159198
  82 Cl:    0.155667
  83 H :    0.046002
  84 H :    0.044016
  85 H :    0.052329
  86 H :    0.030040
  87 H :    0.039191
  88 H :    0.031839
  89 H :    0.030305
  90 H :    0.030135
  91 H :    0.027699
  92 H :    0.035714
  93 H :    0.027374
  94 H :    0.055561
  95 H :    0.056089
  96 H :    0.029451
  97 H :    0.020755
  98 H :    0.032632
  99 H :    0.027510
 100 H :    0.030401
 101 H :    0.029121
 102 H :    0.029735
 103 H :    0.039863
 104 H :    0.029837
 105 H :    0.037192
 106 H :    0.031975
 107 H :    0.041539
 108 H :    0.044627
 109 H :    0.044079

  Mayer bond orders larger than 0.100000
B(  0-C ,  1-C ) :   1.6530 B(  0-C ,  6-C ) :   1.0056 B(  0-C , 16-C ) :   1.0474
B(  1-C ,  2-C ) :   1.1317 B(  1-C ,  4-C ) :   1.1507 B(  2-C ,  3-N ) :   2.9929
B(  4-C ,  5-N ) :   3.0344 B(  6-C ,  7-C ) :   1.3303 B(  6-C , 11-C ) :   1.3505
B(  7-C ,  8-C ) :   1.3544 B(  7-C , 14-C ) :   0.9192 B(  8-C ,  9-C ) :   1.3424
B(  8-C , 83-H ) :   1.0158 B(  9-C , 10-C ) :   1.4113 B(  9-C , 13-Cl) :   1.0449
B( 10-C , 11-C ) :   1.3548 B( 10-C , 12-Cl) :   1.0662 B( 11-C , 84-H ) :   0.9908
B( 14-C , 15-O ) :   2.2686 B( 14-C , 16-C ) :   0.9531 B( 16-C , 17-C ) :   1.5978
B( 17-C , 18-C ) :   1.1866 B( 17-C , 85-H ) :   0.9461 B( 18-C , 19-S ) :   1.0868
B( 18-C , 22-C ) :   1.4093 B( 19-S , 20-C ) :   1.1644 B( 20-C , 21-C ) :   1.4383
B( 20-C , 23-C ) :   1.1768 B( 21-C , 22-C ) :   1.3168 B( 21-C , 86-H ) :   0.9912
B( 22-C , 87-H ) :   0.9989 B( 23-C , 24-C ) :   1.4803 B( 23-C , 27-S ) :   1.1088
B( 24-C , 25-C ) :   1.2891 B( 24-C , 88-H ) :   0.9917 B( 25-C , 26-C ) :   1.4815
B( 25-C , 89-H ) :   0.9933 B( 26-C , 27-S ) :   1.1344 B( 26-C , 28-C ) :   1.1636
B( 28-C , 29-S ) :   1.1310 B( 28-C , 32-C ) :   1.4722 B( 29-S , 30-C ) :   1.1183
B( 30-C , 31-C ) :   1.4811 B( 30-C , 33-C ) :   1.1143 B( 31-C , 32-C ) :   1.2994
B( 31-C , 90-H ) :   0.9905 B( 32-C , 91-H ) :   0.9910 B( 33-C , 34-C ) :   1.7061
B( 33-C , 92-H ) :   0.9653 B( 34-C , 35-C ) :   1.1304 B( 34-C , 93-H ) :   0.9445
B( 35-C , 36-S ) :   1.0654 B( 35-C , 39-N ) :   1.6493 B( 36-S , 37-C ) :   1.0886
B( 37-C , 38-C ) :   1.4737 B( 37-C , 42-C ) :   1.1963 B( 38-C , 39-N ) :   1.4500
B( 38-C , 40-C ) :   1.0435 B( 40-C , 41-C ) :   0.9804 B( 40-C , 94-H ) :   0.8631
B( 40-C , 95-H ) :   0.8587 B( 41-C , 42-C ) :   1.5132 B( 41-C , 45-C ) :   1.3225
B( 42-C , 43-S ) :   1.0885 B( 43-S , 44-C ) :   1.1024 B( 44-C , 45-C ) :   1.4590
B( 44-C , 46-C ) :   1.1398 B( 45-C , 96-H ) :   0.9965 B( 46-C , 47-C ) :   1.6627
B( 46-C , 97-H ) :   0.9526 B( 47-C , 48-C ) :   1.1687 B( 47-C , 98-H ) :   0.9764
B( 48-C , 49-S ) :   1.1076 B( 48-C , 52-C ) :   1.4682 B( 49-S , 50-C ) :   1.1159
B( 50-C , 51-C ) :   1.4919 B( 50-C , 53-C ) :   1.1641 B( 51-C , 52-C ) :   1.2657
B( 51-C , 99-H ) :   0.9943 B( 52-C ,100-H ) :   1.0011 B( 53-C , 54-C ) :   1.4832
B( 53-C , 57-S ) :   1.1291 B( 54-C , 55-C ) :   1.2837 B( 54-C ,101-H ) :   0.9934
B( 55-C , 56-C ) :   1.4845 B( 55-C ,102-H ) :   0.9931 B( 56-C , 57-S ) :   1.1103
B( 56-C , 58-C ) :   1.1697 B( 58-C , 59-S ) :   1.1577 B( 58-C , 62-C ) :   1.4392
B( 59-S , 60-C ) :   1.0925 B( 60-C , 61-C ) :   1.4418 B( 60-C , 63-C ) :   1.1521
B( 61-C , 62-C ) :   1.3231 B( 61-C ,103-H ) :   0.9935 B( 62-C ,104-H ) :   0.9931
B( 63-C , 64-C ) :   1.5443 B( 63-C ,105-H ) :   0.9723 B( 64-C , 65-C ) :   1.2099
B( 64-C ,106-H ) :   0.9768 B( 65-C , 66-C ) :   1.4884 B( 65-C ,107-H ) :   0.9627
B( 66-C , 67-C ) :   1.0825 B( 66-C , 75-C ) :   0.9608 B( 67-C , 68-C ) :   1.6226
B( 67-C , 73-C ) :   0.9864 B( 68-C , 69-C ) :   1.1402 B( 68-C , 71-C ) :   1.1502
B( 69-C , 70-N ) :   2.9698 B( 71-C , 72-N ) :   2.9617 B( 73-C , 74-C ) :   1.3343
B( 73-C , 80-C ) :   1.3433 B( 74-C , 75-C ) :   0.9412 B( 74-C , 77-C ) :   1.3443
B( 75-C , 76-O ) :   2.1924 B( 77-C , 78-C ) :   1.3379 B( 77-C ,108-H ) :   1.0180
B( 78-C , 79-C ) :   1.4120 B( 78-C , 82-Cl) :   1.0434 B( 79-C , 80-C ) :   1.3548
B( 79-C , 81-Cl) :   1.0741 B( 80-C ,109-H ) :   0.9867

-----------------------------------------------------------------------------
         ABSORPTION SPECTRUM VIA TRANSITION ELECTRIC DIPOLE MOMENTS
-----------------------------------------------------------------------------
State   Energy  Wavelength   fosc         T2         TX        TY        TZ
        (cm-1)    (nm)                  (au**2)     (au)      (au)      (au)
-----------------------------------------------------------------------------
   0   15223.9    656.9   4.249498384  91.89414   9.41801   1.25409   1.27375
   1   16546.3    604.4   0.128538881   2.55746   0.18628   0.10820  -1.58463
   2   20115.5    497.1   0.387701870   6.34516   1.80594  -1.63000  -0.65333
   3   21664.0    461.6   0.081450903   1.23775   0.79058  -0.09424   0.77708
   4   22362.3    447.2   0.679550952  10.00415   3.07146   0.64744   0.38875
   5   23861.8    419.1   0.022774741   0.31421  -0.42756  -0.05823   0.35780
   6   24657.6    405.6   0.065282218   0.87160   0.84728  -0.23762   0.31185
   7   25978.4    384.9   0.040001089   0.50692   0.55914   0.35477   0.26155
   8   26231.3    381.2   0.043708602   0.54856   0.56573  -0.43028   0.20825
   9   26983.4    370.6   0.031295021   0.38182  -0.34068  -0.49567  -0.14163
  10   27672.2    361.4   0.008706501   0.10358  -0.05131   0.07468  -0.30882
  11   28667.7    348.8   0.074349948   0.85382   0.81824  -0.39703   0.16331
  12   29050.3    344.2   0.107054878   1.21320  -0.83390  -0.14689  -0.70443
  13   29406.9    340.1   0.035879103   0.40167   0.20608  -0.56844   0.18994
  14   29656.1    337.2   0.001220027   0.01354   0.05117  -0.09303   0.04764
  15   29971.9    333.6   0.087674749   0.96302  -0.14893   0.93796  -0.24713
  16   30057.9    332.7   0.004143396   0.04538   0.14721  -0.05505   0.14380
  17   30790.0    324.8   0.190032817   2.03186   1.22673   0.31374   0.65465
  18   31128.2    321.3   0.155862113   1.64840   1.00744  -0.66006   0.44473
  19   31438.8    318.1   0.029442156   0.30830  -0.37953  -0.06842  -0.39947
  20   31650.8    315.9   0.003210043   0.03339   0.04409  -0.17527   0.02694
  21   32598.7    306.8   0.008883321   0.08971   0.03515  -0.11563  -0.27406
  22   32972.9    303.3   0.022593597   0.22558   0.26265  -0.35574   0.17332
  23   33648.3    297.2   0.033964165   0.33230   0.49171   0.21590  -0.20955
  24   33831.8    295.6   0.132290359   1.28730   0.90584  -0.41859   0.53994
  25   34160.3    292.7   0.025842241   0.24905  -0.01214   0.47107   0.16429
  26   34827.9    287.1   0.106707450   1.00866  -0.75255   0.44181  -0.49713
  27   35094.4    284.9   0.033578783   0.31499   0.18382  -0.53028  -0.00242
  28   35179.9    284.3   0.086862811   0.81286  -0.10831  -0.89494  -0.01437
  29   35314.7    283.2   0.084836559   0.79087   0.79572  -0.06796   0.39126
  30   35741.1    279.8   0.126877748   1.16867   0.15966   0.91981   0.54510
  31   36001.9    277.8   0.468127132   4.28069  -0.89689   1.77679  -0.56507
  32   36214.3    276.1   0.097985167   0.89075  -0.84311  -0.33107  -0.26515
  33   36838.0    271.5   0.259193139   2.31635  -0.70352  -1.30932  -0.32726
  34   37017.7    270.1   0.082569538   0.73432   0.77772   0.12332   0.33804
  35   37083.7    269.7   0.066602662   0.59127   0.32500   0.69575  -0.03967
  36   37323.2    267.9   0.353442898   3.11757  -1.25338   0.88998  -0.86864
  37   37381.6    267.5   0.023416101   0.20622   0.04363   0.43380  -0.12703
  38   37717.4    265.1   0.054749221   0.47787   0.18314   0.54584   0.38261
  39   38055.4    262.8   0.032150746   0.27813   0.13937   0.46347   0.20953
  40   38418.8    260.3   0.024012548   0.20576   0.24879   0.24289   0.29133
  41   38747.8    258.1   0.021562764   0.18320  -0.40555  -0.03294  -0.13284
  42   39031.4    256.2   0.022862896   0.19284  -0.05369  -0.43562  -0.01380
  43   39196.4    255.1   0.009705906   0.08152   0.14482   0.15789   0.18873
  44   39393.7    253.8   0.059409843   0.49649   0.36769   0.48683   0.35255
  45   39561.9    252.8   0.103225945   0.85899   0.34278  -0.86083  -0.02160
  46   39849.1    250.9   0.071308532   0.58911  -0.32215  -0.64065  -0.27367
  47   40225.6    248.6   0.118454932   0.96945   0.25412  -0.94929  -0.06103

FINAL SINGLE POINT ENERGY     -7900.294328384981

DIPOLE MOMENT
-------------
                                X             Y             Z
Electronic contribution:     13.77877      17.59192     -15.52638
Nuclear contribution   :    -12.26010     -16.96908      17.65551
                        -----------------------------------------
Total Dipole Moment    :      1.51867       0.62284       2.12913
                        -----------------------------------------
Magnitude (a.u.)       :      2.68839
Magnitude (Debye)      :      6.83335

Rotational constants in cm-1:     0.001948     0.000049     0.000048
Rotational constants in MHz :    58.401928     1.456271     1.451390

                             ****ORCA TERMINATED NORMALLY****
TOTAL RUN TIME: 0 days 0 hours 15 minutes 7 seconds 336 msec
