                         Program Version 4.2.0 -  RELEASE  -
|  1> # ORCA input file
|  2> # SCF done       -227.318452158176          0.000495269498
|  3> ! CAM-B3LYP def2-SVP def2/J RIJCOSX Grid4 TightSCF
|  4> %maxcore 5000
|  5> %tddft
|  6>     Mode sTDDFT
|  7>     Ethresh 5.0
|  8>     maxcore 5000
|  9> end
| 10>
| 11> %pal
| 12>   nprocs 6
| 13>   end
| 14> * xyz 0 1
| 15>    C       -9.39085         0.20509        -6.74489
| 16>    C      -10.30635         0.03190        -7.74488
| 17>    F      -10.79179         1.09094        -8.40416
| 18>    C      -10.75107        -1.25926        -8.09464
| 19>    F      -11.64903        -1.39928        -9.07840
| 20>    C      -10.27408        -2.35962        -7.43903
| 21>    C       -9.33052        -2.21371        -6.40361
| 22>    C       -8.87929        -0.90900        -6.04957
| 23>    C       -7.93223        -0.73723        -5.01393
| 24>    C       -7.45303        -1.83588        -4.35047
| 25>    C       -7.91541        -3.13412        -4.70680
| 26>    C       -8.82528        -3.33256        -5.70524
| 27>    C       -7.27169        -4.13074        -3.83541
| 28>    O       -7.42035        -5.33896        -3.88320
| 29>    C       -6.43070        -3.37331        -2.89970
| 30>    C       -6.48936        -1.96719        -3.25953
| 31>    C       -5.75538        -0.94240        -2.72568
| 32>    C       -5.86264         0.40259        -3.14132
| 33>    N       -5.90743         1.51180        -3.43225
| 34>    C       -4.77118        -1.06925        -1.72093
| 35>    N       -3.94528        -1.08887        -0.92417
| 36>    C       -5.77330        -3.90676        -1.82462
| 37>    C       -5.68984        -5.24379        -1.39827
| 38>    C       -5.02712        -5.58759        -0.21349
| 39>    F       -4.46114        -4.66808         0.56800
| 40>    C       -5.02813        -6.94556         0.06290
| 41>    C       -5.69522        -7.67631        -0.93667
| 42>    S       -6.33324        -6.67585        -2.18855
| 43>    C       -5.70097        -9.04497        -0.64485
| 44>    C       -5.04294        -9.33205         0.55650
| 45>    S       -4.39939        -7.92887         1.35720
| 46>    C       -5.04786       -10.69827         0.85934
| 47>    F       -4.42020       -11.18762         1.92669
| 48>    C       -5.69459       -11.46692        -0.09360
| 49>    S       -6.27116       -10.47885        -1.41724
| 50>    C       -5.91685       -12.88417        -0.10827
| 51>    C       -6.18685       -13.56295        -1.29192
| 52>    O       -6.30984       -12.82020        -2.43956
| 53>    C       -5.28848       -12.99855        -3.41319
| 54>    C       -6.36808       -14.97179        -1.34818
| 55>    O       -6.57972       -15.57386        -2.56431
| 56>    C       -7.83352       -15.30725        -3.17977
| 57>    C       -6.30215       -15.79005        -0.22499
| 58>    C       -6.03746       -15.12266         1.00007
| 59>    C       -5.86795       -13.69011         1.05943
| 60>    N       -5.67842       -13.37775         2.32507
| 61>    O       -5.70144       -14.51708         2.99820
| 62>    N       -5.90800       -15.57517         2.23049
| 63>    C       -6.48962       -17.20909        -0.32653
| 64>    C       -6.79757       -18.12597         0.66306
| 65>    F       -7.09240       -17.81302         1.92252
| 66>    C       -6.84605       -19.44693         0.19919
| 67>    C       -6.56630       -19.54450        -1.16827
| 68>    S       -6.30390       -17.99515        -1.88048
| 69>    C       -6.60294       -20.87067        -1.60763
| 70>    C       -6.91266       -21.76082        -0.57006
| 71>    S       -7.16220       -20.97664         0.96112
| 72>    C       -6.95084       -23.08573        -1.00946
| 73>    F       -7.23748       -24.12251        -0.22548
| 74>    C       -6.62940       -23.24276        -2.34913
| 75>    S       -6.33821       -21.68296        -3.10251
| 76>    C       -6.63267       -24.47525        -3.04746
| 77>    C       -6.03636       -24.79421        -4.22539
| 78>    C       -6.52924       -25.96345        -5.00894
| 79>    O       -7.26986       -26.83485        -4.62174
| 80>    C       -5.96888       -25.77856        -6.36356
| 81>    C       -6.20430       -26.50689        -7.49405
| 82>    C       -5.56442       -26.13365        -8.69717
| 83>    C       -4.69457       -25.00424        -8.70652
| 84>    C       -4.06257       -24.63605        -9.91136
| 85>    C       -4.28102       -25.35642       -11.05191
| 86>    C       -5.14096       -26.47348       -11.04148
| 87>    C       -5.76970       -26.85506        -9.88952
| 88>    F       -5.33790       -27.15923       -12.17479
| 89>    F       -3.67838       -25.00596       -12.19503
| 90>    C       -4.46596       -24.27165        -7.51948
| 91>    C       -5.08897       -24.65812        -6.36322
| 92>    C       -5.00491       -24.13768        -5.00180
| 93>    C       -3.96583       -23.40108        -4.49853
| 94>    C       -3.76349       -23.19226        -3.11794
| 95>    N       -3.54386       -23.04660        -2.00091
| 96>    C       -2.93380       -22.86045        -5.29226
| 97>    N       -2.08514       -22.38616        -5.90188
| 98>    H       -9.06053         1.20007        -6.49031
| 99>    H      -10.62482        -3.34078        -7.71830
|100>    H       -7.61468         0.26323        -4.76937
|101>    H       -9.15671        -4.32884        -5.95545
|102>    H       -5.24681        -3.22063        -1.17017
|103>    H       -5.56973       -12.36300        -4.24984
|104>    H       -5.21904       -14.03813        -3.73836
|105>    H       -4.32137       -12.67645        -3.01645
|106>    H       -7.98360       -14.23784        -3.33833
|107>    H       -8.65107       -15.70290        -2.56996
|108>    H       -7.80641       -15.82631        -4.13522
|109>    H       -7.25355       -25.25217        -2.60913
|110>    H       -6.86763       -27.35800        -7.47041
|111>    H       -3.39810       -23.78652        -9.93579
|112>    H       -6.42427       -27.71247        -9.89797
|113>    H       -3.80965       -23.41661        -7.55412
|114> *
|115>
|116>                          ****END OF INPUT****

CARTESIAN COORDINATES (ANGSTROEM)
---------------------------------
  C     -9.390850    0.205090   -6.744890
  C    -10.306350    0.031900   -7.744880
  F    -10.791790    1.090940   -8.404160
  C    -10.751070   -1.259260   -8.094640
  F    -11.649030   -1.399280   -9.078400
  C    -10.274080   -2.359620   -7.439030
  C     -9.330520   -2.213710   -6.403610
  C     -8.879290   -0.909000   -6.049570
  C     -7.932230   -0.737230   -5.013930
  C     -7.453030   -1.835880   -4.350470
  C     -7.915410   -3.134120   -4.706800
  C     -8.825280   -3.332560   -5.705240
  C     -7.271690   -4.130740   -3.835410
  O     -7.420350   -5.338960   -3.883200
  C     -6.430700   -3.373310   -2.899700
  C     -6.489360   -1.967190   -3.259530
  C     -5.755380   -0.942400   -2.725680
  C     -5.862640    0.402590   -3.141320
  N     -5.907430    1.511800   -3.432250
  C     -4.771180   -1.069250   -1.720930
  N     -3.945280   -1.088870   -0.924170
  C     -5.773300   -3.906760   -1.824620
  C     -5.689840   -5.243790   -1.398270
  C     -5.027120   -5.587590   -0.213490
  F     -4.461140   -4.668080    0.568000
  C     -5.028130   -6.945560    0.062900
  C     -5.695220   -7.676310   -0.936670
  S     -6.333240   -6.675850   -2.188550
  C     -5.700970   -9.044970   -0.644850
  C     -5.042940   -9.332050    0.556500
  S     -4.399390   -7.928870    1.357200
  C     -5.047860  -10.698270    0.859340
  F     -4.420200  -11.187620    1.926690
  C     -5.694590  -11.466920   -0.093600
  S     -6.271160  -10.478850   -1.417240
  C     -5.916850  -12.884170   -0.108270
  C     -6.186850  -13.562950   -1.291920
  O     -6.309840  -12.820200   -2.439560
  C     -5.288480  -12.998550   -3.413190
  C     -6.368080  -14.971790   -1.348180
  O     -6.579720  -15.573860   -2.564310
  C     -7.833520  -15.307250   -3.179770
  C     -6.302150  -15.790050   -0.224990
  C     -6.037460  -15.122660    1.000070
  C     -5.867950  -13.690110    1.059430
  N     -5.678420  -13.377750    2.325070
  O     -5.701440  -14.517080    2.998200
  N     -5.908000  -15.575170    2.230490
  C     -6.489620  -17.209090   -0.326530
  C     -6.797570  -18.125970    0.663060
  F     -7.092400  -17.813020    1.922520
  C     -6.846050  -19.446930    0.199190
  C     -6.566300  -19.544500   -1.168270
  S     -6.303900  -17.995150   -1.880480
  C     -6.602940  -20.870670   -1.607630
  C     -6.912660  -21.760820   -0.570060
  S     -7.162200  -20.976640    0.961120
  C     -6.950840  -23.085730   -1.009460
  F     -7.237480  -24.122510   -0.225480
  C     -6.629400  -23.242760   -2.349130
  S     -6.338210  -21.682960   -3.102510
  C     -6.632670  -24.475250   -3.047460
  C     -6.036360  -24.794210   -4.225390
  C     -6.529240  -25.963450   -5.008940
  O     -7.269860  -26.834850   -4.621740
  C     -5.968880  -25.778560   -6.363560
  C     -6.204300  -26.506890   -7.494050
  C     -5.564420  -26.133650   -8.697170
  C     -4.694570  -25.004240   -8.706520
  C     -4.062570  -24.636050   -9.911360
  C     -4.281020  -25.356420  -11.051910
  C     -5.140960  -26.473480  -11.041480
  C     -5.769700  -26.855060   -9.889520
  F     -5.337900  -27.159230  -12.174790
  F     -3.678380  -25.005960  -12.195030
  C     -4.465960  -24.271650   -7.519480
  C     -5.088970  -24.658120   -6.363220
  C     -5.004910  -24.137680   -5.001800
  C     -3.965830  -23.401080   -4.498530
  C     -3.763490  -23.192260   -3.117940
  N     -3.543860  -23.046600   -2.000910
  C     -2.933800  -22.860450   -5.292260
  N     -2.085140  -22.386160   -5.901880
  H     -9.060530    1.200070   -6.490310
  H    -10.624820   -3.340780   -7.718300
  H     -7.614680    0.263230   -4.769370
  H     -9.156710   -4.328840   -5.955450
  H     -5.246810   -3.220630   -1.170170
  H     -5.569730  -12.363000   -4.249840
  H     -5.219040  -14.038130   -3.738360
  H     -4.321370  -12.676450   -3.016450
  H     -7.983600  -14.237840   -3.338330
  H     -8.651070  -15.702900   -2.569960
  H     -7.806410  -15.826310   -4.135220
  H     -7.253550  -25.252170   -2.609130
  H     -6.867630  -27.358000   -7.470410
  H     -3.398100  -23.786520   -9.935790
  H     -6.424270  -27.712470   -9.897970
  H     -3.809650  -23.416610   -7.554120

 Total Charge           Charge          ....    0
 Multiplicity           Mult            ....    1
 Number of Electrons    NEL             ....  614
 Basis Dimension        Dim             .... 1266

ORBITAL ENERGIES
----------------

  NO   OCC          E(Eh)            E(eV)
   0   2.0000     -88.986736     -2421.4522
   1   2.0000     -88.985010     -2421.4052
   2   2.0000     -88.982564     -2421.3387
   3   2.0000     -88.981663     -2421.3141
   4   2.0000     -88.981636     -2421.3134
   5   2.0000     -88.979746     -2421.2620
   6   2.0000     -24.818801      -675.3539
   7   2.0000     -24.817505      -675.3186
   8   2.0000     -24.802428      -674.9084
   9   2.0000     -24.801910      -674.8943
  10   2.0000     -24.801684      -674.8881
  11   2.0000     -24.801458      -674.8820
  12   2.0000     -24.801026      -674.8702
  13   2.0000     -24.800603      -674.8587
  14   2.0000     -19.361497      -526.8531
  15   2.0000     -19.277647      -524.5715
  16   2.0000     -19.276785      -524.5480
  17   2.0000     -19.228816      -523.2427
  18   2.0000     -19.219881      -522.9995
  19   2.0000     -14.483075      -394.1045
  20   2.0000     -14.482961      -394.1014
  21   2.0000     -14.421725      -392.4351
  22   2.0000     -14.418774      -392.3548
  23   2.0000     -14.417612      -392.3232
  24   2.0000     -14.417583      -392.3224
  25   2.0000     -10.398335      -282.9531
  26   2.0000     -10.396348      -282.8990
  27   2.0000     -10.387016      -282.6451
  28   2.0000     -10.385771      -282.6112
  29   2.0000     -10.384853      -282.5862
  30   2.0000     -10.384704      -282.5822
  31   2.0000     -10.384359      -282.5728
  32   2.0000     -10.384123      -282.5664
  33   2.0000     -10.376716      -282.3648
  34   2.0000     -10.372486      -282.2497
  35   2.0000     -10.372159      -282.2408
  36   2.0000     -10.371788      -282.2307
  37   2.0000     -10.349475      -281.6235
  38   2.0000     -10.347541      -281.5709
  39   2.0000     -10.345866      -281.5253
  40   2.0000     -10.345274      -281.5092
  41   2.0000     -10.343480      -281.4604
  42   2.0000     -10.341971      -281.4193
  43   2.0000     -10.340190      -281.3709
  44   2.0000     -10.338039      -281.3123
  45   2.0000     -10.337670      -281.3023
  46   2.0000     -10.334259      -281.2095
  47   2.0000     -10.333875      -281.1990
  48   2.0000     -10.331946      -281.1465
  49   2.0000     -10.331890      -281.1450
  50   2.0000     -10.331094      -281.1234
  51   2.0000     -10.330569      -281.1091
  52   2.0000     -10.330507      -281.1074
  53   2.0000     -10.330047      -281.0949
  54   2.0000     -10.329852      -281.0896
  55   2.0000     -10.328969      -281.0655
  56   2.0000     -10.328609      -281.0557
  57   2.0000     -10.328195      -281.0445
  58   2.0000     -10.327672      -281.0302
  59   2.0000     -10.326219      -280.9907
  60   2.0000     -10.326139      -280.9885
  61   2.0000     -10.324083      -280.9326
  62   2.0000     -10.320987      -280.8483
  63   2.0000     -10.320605      -280.8379
  64   2.0000     -10.319876      -280.8181
  65   2.0000     -10.314491      -280.6716
  66   2.0000     -10.314194      -280.6635
  67   2.0000     -10.314002      -280.6583
  68   2.0000     -10.313853      -280.6542
  69   2.0000     -10.312395      -280.6145
  70   2.0000     -10.311148      -280.5806
  71   2.0000     -10.307348      -280.4772
  72   2.0000     -10.306705      -280.4597
  73   2.0000     -10.306478      -280.4535
  74   2.0000     -10.305607      -280.4298
  75   2.0000     -10.304816      -280.4083
  76   2.0000     -10.304542      -280.4009
  77   2.0000     -10.303899      -280.3833
  78   2.0000     -10.303727      -280.3787
  79   2.0000     -10.303629      -280.3760
  80   2.0000     -10.303276      -280.3664
  81   2.0000     -10.298019      -280.2233
  82   2.0000     -10.297910      -280.2204
  83   2.0000      -8.081279      -219.9028
  84   2.0000      -8.079405      -219.8518
  85   2.0000      -8.076213      -219.7649
  86   2.0000      -8.076130      -219.7627
  87   2.0000      -8.075400      -219.7428
  88   2.0000      -8.072512      -219.6642
  89   2.0000      -6.051007      -164.6563
  90   2.0000      -6.049325      -164.6105
  91   2.0000      -6.046962      -164.5462
  92   2.0000      -6.046098      -164.5227
  93   2.0000      -6.046076      -164.5221
  94   2.0000      -6.045275      -164.5003
  95   2.0000      -6.045195      -164.4981
  96   2.0000      -6.042450      -164.4234
  97   2.0000      -6.042383      -164.4216
  98   2.0000      -6.042042      -164.4123
  99   2.0000      -6.041667      -164.4021
 100   2.0000      -6.040808      -164.3787
 101   2.0000      -6.040211      -164.3625
 102   2.0000      -6.037871      -164.2988
 103   2.0000      -6.037494      -164.2886
 104   2.0000      -6.036811      -164.2700
 105   2.0000      -6.036781      -164.2692
 106   2.0000      -6.033774      -164.1873
 107   2.0000      -1.334462       -36.3126
 108   2.0000      -1.332766       -36.2664
 109   2.0000      -1.324376       -36.0381
 110   2.0000      -1.324355       -36.0375
 111   2.0000      -1.320938       -35.9446
 112   2.0000      -1.319799       -35.9136
 113   2.0000      -1.318431       -35.8763
 114   2.0000      -1.309507       -35.6335
 115   2.0000      -1.309475       -35.6326
 116   2.0000      -1.192726       -32.4557
 117   2.0000      -1.167386       -31.7662
 118   2.0000      -1.144622       -31.1467
 119   2.0000      -1.136109       -30.9151
 120   2.0000      -1.045356       -28.4456
 121   2.0000      -1.041239       -28.3336
 122   2.0000      -1.025141       -27.8955
 123   2.0000      -1.023292       -27.8452
 124   2.0000      -1.020844       -27.7786
 125   2.0000      -1.016313       -27.6553
 126   2.0000      -1.007954       -27.4278
 127   2.0000      -1.007897       -27.4263
 128   2.0000      -1.003794       -27.3146
 129   2.0000      -0.998808       -27.1789
 130   2.0000      -0.996947       -27.1283
 131   2.0000      -0.996093       -27.1051
 132   2.0000      -0.985453       -26.8155
 133   2.0000      -0.985201       -26.8087
 134   2.0000      -0.957470       -26.0541
 135   2.0000      -0.952959       -25.9313
 136   2.0000      -0.935116       -25.4458
 137   2.0000      -0.934490       -25.4288
 138   2.0000      -0.927095       -25.2275
 139   2.0000      -0.911079       -24.7917
 140   2.0000      -0.909456       -24.7475
 141   2.0000      -0.906651       -24.6712
 142   2.0000      -0.897170       -24.4132
 143   2.0000      -0.896676       -24.3998
 144   2.0000      -0.888834       -24.1864
 145   2.0000      -0.888319       -24.1724
 146   2.0000      -0.874577       -23.7984
 147   2.0000      -0.864882       -23.5346
 148   2.0000      -0.853218       -23.2172
 149   2.0000      -0.851334       -23.1660
 150   2.0000      -0.844524       -22.9807
 151   2.0000      -0.844243       -22.9730
 152   2.0000      -0.837981       -22.8026
 153   2.0000      -0.829242       -22.5648
 154   2.0000      -0.821448       -22.3527
 155   2.0000      -0.818155       -22.2631
 156   2.0000      -0.815552       -22.1923
 157   2.0000      -0.809542       -22.0288
 158   2.0000      -0.796020       -21.6608
 159   2.0000      -0.783559       -21.3217
 160   2.0000      -0.772496       -21.0207
 161   2.0000      -0.770767       -20.9736
 162   2.0000      -0.765550       -20.8317
 163   2.0000      -0.751231       -20.4420
 164   2.0000      -0.744700       -20.2643
 165   2.0000      -0.742947       -20.2166
 166   2.0000      -0.732785       -19.9401
 167   2.0000      -0.728475       -19.8228
 168   2.0000      -0.721628       -19.6365
 169   2.0000      -0.719738       -19.5851
 170   2.0000      -0.709059       -19.2945
 171   2.0000      -0.698061       -18.9952
 172   2.0000      -0.693954       -18.8834
 173   2.0000      -0.690330       -18.7848
 174   2.0000      -0.689396       -18.7594
 175   2.0000      -0.687642       -18.7117
 176   2.0000      -0.682042       -18.5593
 177   2.0000      -0.680416       -18.5150
 178   2.0000      -0.679149       -18.4806
 179   2.0000      -0.662679       -18.0324
 180   2.0000      -0.661972       -18.0132
 181   2.0000      -0.657246       -17.8846
 182   2.0000      -0.655788       -17.8449
 183   2.0000      -0.654932       -17.8216
 184   2.0000      -0.648662       -17.6510
 185   2.0000      -0.647373       -17.6159
 186   2.0000      -0.645488       -17.5646
 187   2.0000      -0.641792       -17.4640
 188   2.0000      -0.638016       -17.3613
 189   2.0000      -0.628924       -17.1139
 190   2.0000      -0.626452       -17.0466
 191   2.0000      -0.621827       -16.9208
 192   2.0000      -0.618897       -16.8411
 193   2.0000      -0.615644       -16.7525
 194   2.0000      -0.611237       -16.6326
 195   2.0000      -0.607444       -16.5294
 196   2.0000      -0.601015       -16.3545
 197   2.0000      -0.597422       -16.2567
 198   2.0000      -0.593568       -16.1518
 199   2.0000      -0.593216       -16.1422
 200   2.0000      -0.592441       -16.1211
 201   2.0000      -0.589286       -16.0353
 202   2.0000      -0.588880       -16.0242
 203   2.0000      -0.588755       -16.0208
 204   2.0000      -0.588230       -16.0065
 205   2.0000      -0.585839       -15.9415
 206   2.0000      -0.582977       -15.8636
 207   2.0000      -0.579747       -15.7757
 208   2.0000      -0.578079       -15.7303
 209   2.0000      -0.576770       -15.6947
 210   2.0000      -0.569810       -15.5053
 211   2.0000      -0.569732       -15.5032
 212   2.0000      -0.565848       -15.3975
 213   2.0000      -0.564190       -15.3524
 214   2.0000      -0.563215       -15.3258
 215   2.0000      -0.558330       -15.1929
 216   2.0000      -0.556935       -15.1550
 217   2.0000      -0.556573       -15.1451
 218   2.0000      -0.550524       -14.9805
 219   2.0000      -0.550303       -14.9745
 220   2.0000      -0.547190       -14.8898
 221   2.0000      -0.545614       -14.8469
 222   2.0000      -0.541911       -14.7462
 223   2.0000      -0.541428       -14.7330
 224   2.0000      -0.538724       -14.6594
 225   2.0000      -0.536596       -14.6015
 226   2.0000      -0.534912       -14.5557
 227   2.0000      -0.531789       -14.4707
 228   2.0000      -0.531602       -14.4656
 229   2.0000      -0.527243       -14.3470
 230   2.0000      -0.525477       -14.2990
 231   2.0000      -0.524645       -14.2763
 232   2.0000      -0.521619       -14.1940
 233   2.0000      -0.519683       -14.1413
 234   2.0000      -0.518992       -14.1225
 235   2.0000      -0.516803       -14.0629
 236   2.0000      -0.510576       -13.8935
 237   2.0000      -0.510126       -13.8812
 238   2.0000      -0.508708       -13.8426
 239   2.0000      -0.504962       -13.7407
 240   2.0000      -0.501802       -13.6547
 241   2.0000      -0.500963       -13.6319
 242   2.0000      -0.500440       -13.6177
 243   2.0000      -0.496698       -13.5158
 244   2.0000      -0.493864       -13.4387
 245   2.0000      -0.492682       -13.4066
 246   2.0000      -0.491260       -13.3679
 247   2.0000      -0.489112       -13.3094
 248   2.0000      -0.483701       -13.1622
 249   2.0000      -0.480298       -13.0696
 250   2.0000      -0.477061       -12.9815
 251   2.0000      -0.473662       -12.8890
 252   2.0000      -0.472032       -12.8446
 253   2.0000      -0.468915       -12.7598
 254   2.0000      -0.468308       -12.7433
 255   2.0000      -0.466269       -12.6878
 256   2.0000      -0.465608       -12.6698
 257   2.0000      -0.465093       -12.6558
 258   2.0000      -0.463115       -12.6020
 259   2.0000      -0.456842       -12.4313
 260   2.0000      -0.454014       -12.3543
 261   2.0000      -0.452116       -12.3027
 262   2.0000      -0.450116       -12.2483
 263   2.0000      -0.449628       -12.2350
 264   2.0000      -0.448528       -12.2051
 265   2.0000      -0.446919       -12.1613
 266   2.0000      -0.445906       -12.1337
 267   2.0000      -0.438142       -11.9224
 268   2.0000      -0.436769       -11.8851
 269   2.0000      -0.435804       -11.8588
 270   2.0000      -0.432385       -11.7658
 271   2.0000      -0.432034       -11.7563
 272   2.0000      -0.431334       -11.7372
 273   2.0000      -0.430933       -11.7263
 274   2.0000      -0.430413       -11.7121
 275   2.0000      -0.427874       -11.6430
 276   2.0000      -0.423656       -11.5283
 277   2.0000      -0.417823       -11.3695
 278   2.0000      -0.417208       -11.3528
 279   2.0000      -0.411066       -11.1857
 280   2.0000      -0.410582       -11.1725
 281   2.0000      -0.409899       -11.1539
 282   2.0000      -0.405004       -11.0207
 283   2.0000      -0.403131       -10.9697
 284   2.0000      -0.400612       -10.9012
 285   2.0000      -0.392028       -10.6676
 286   2.0000      -0.390878       -10.6363
 287   2.0000      -0.389682       -10.6038
 288   2.0000      -0.376413       -10.2427
 289   2.0000      -0.374925       -10.2022
 290   2.0000      -0.374632       -10.1943
 291   2.0000      -0.359296        -9.7769
 292   2.0000      -0.357424        -9.7260
 293   2.0000      -0.345911        -9.4127
 294   2.0000      -0.344602        -9.3771
 295   2.0000      -0.343268        -9.3408
 296   2.0000      -0.341344        -9.2884
 297   2.0000      -0.334670        -9.1068
 298   2.0000      -0.322441        -8.7741
 299   2.0000      -0.321089        -8.7373
 300   2.0000      -0.312943        -8.5156
 301   2.0000      -0.305369        -8.3095
 302   2.0000      -0.301696        -8.2096
 303   2.0000      -0.300768        -8.1843
 304   2.0000      -0.298105        -8.1118
 305   2.0000      -0.280743        -7.6394
 306   2.0000      -0.257968        -7.0197
 307   0.0000      -0.109572        -2.9816
 308   0.0000      -0.100392        -2.7318
 309   0.0000      -0.078254        -2.1294
 310   0.0000      -0.065589        -1.7848
 311   0.0000      -0.061115        -1.6630

MULLIKEN ATOMIC CHARGES
-----------------------
   0 C :   -0.105127
   1 C :    0.240503
   2 F :   -0.169804
   3 C :    0.238793
   4 F :   -0.171770
   5 C :   -0.102868
   6 C :    0.114516
   7 C :    0.111628
   8 C :   -0.082606
   9 C :    0.046333
  10 C :   -0.003793
  11 C :   -0.079086
  12 C :    0.173479
  13 O :   -0.185054
  14 C :   -0.090453
  15 C :    0.328803
  16 C :   -0.348918
  17 C :   -0.186353
  18 N :    0.150035
  19 C :   -0.201616
  20 N :    0.161068
  21 C :   -0.027283
  22 C :   -0.154480
  23 C :    0.206052
  24 F :   -0.153069
  25 C :   -0.051671
  26 C :   -0.067019
  27 S :    0.224160
  28 C :   -0.067859
  29 C :   -0.074688
  30 S :    0.215763
  31 C :    0.205979
  32 F :   -0.150040
  33 C :   -0.247843
  34 S :    0.197482
  35 C :    0.149563
  36 C :    0.057657
  37 O :   -0.358931
  38 C :    0.186010
  39 C :    0.055332
  40 O :   -0.362314
  41 C :    0.186902
  42 C :    0.153651
  43 C :   -0.071049
  44 C :   -0.074004
  45 N :    0.054465
  46 O :   -0.085015
  47 N :    0.051860
  48 C :   -0.247339
  49 C :    0.209469
  50 F :   -0.147412
  51 C :   -0.084214
  52 C :   -0.056678
  53 S :    0.193109
  54 C :   -0.078751
  55 C :   -0.058020
  56 S :    0.223364
  57 C :    0.246167
  58 F :   -0.152278
  59 C :   -0.200906
  60 S :    0.189426
  61 C :    0.049232
  62 C :   -0.134283
  63 C :    0.143719
  64 O :   -0.137612
  65 C :    0.011386
  66 C :   -0.084054
  67 C :    0.114673
  68 C :    0.114607
  69 C :   -0.111419
  70 C :    0.242971
  71 C :    0.240359
  72 C :   -0.106358
  73 F :   -0.170899
  74 F :   -0.170081
  75 C :   -0.085102
  76 C :    0.040889
  77 C :    0.250980
  78 C :   -0.321347
  79 C :   -0.203579
  80 N :    0.174458
  81 C :   -0.175067
  82 N :    0.154959
  83 H :    0.008468
  84 H :   -0.001860
  85 H :   -0.005191
  86 H :   -0.011938
  87 H :    0.025872
  88 H :    0.044161
  89 H :    0.045873
  90 H :    0.029335
  91 H :    0.046517
  92 H :    0.028686
  93 H :    0.042984
  94 H :    0.037786
  95 H :   -0.006946
  96 H :    0.006452
  97 H :    0.001069
  98 H :   -0.002960
Sum of atomic charges:   -0.0000000

LOEWDIN ATOMIC CHARGES
----------------------
   0 C :   -0.028622
   1 C :    0.066728
   2 F :   -0.047599
   3 C :    0.067515
   4 F :   -0.048841
   5 C :   -0.033415
   6 C :   -0.009478
   7 C :   -0.006194
   8 C :    0.018225
   9 C :   -0.021363
  10 C :   -0.052476
  11 C :    0.029822
  12 C :    0.086376
  13 O :   -0.169141
  14 C :   -0.109823
  15 C :    0.075163
  16 C :   -0.139145
  17 C :   -0.017328
  18 N :   -0.053397
  19 C :   -0.025309
  20 N :   -0.044460
  21 C :    0.061699
  22 C :   -0.216864
  23 C :    0.072089
  24 F :   -0.031925
  25 C :   -0.223380
  26 C :   -0.195804
  27 S :    0.500738
  28 C :   -0.220665
  29 C :   -0.204259
  30 S :    0.437187
  31 C :    0.041915
  32 F :   -0.030162
  33 C :   -0.194943
  34 S :    0.473120
  35 C :   -0.055378
  36 C :    0.033406
  37 O :   -0.126564
  38 C :    0.081213
  39 C :    0.031817
  40 O :   -0.127059
  41 C :    0.081054
  42 C :   -0.053964
  43 C :   -0.055117
  44 C :   -0.055399
  45 N :   -0.019308
  46 O :    0.086351
  47 N :   -0.019520
  48 C :   -0.195610
  49 C :    0.043515
  50 F :   -0.028450
  51 C :   -0.206525
  52 C :   -0.217448
  53 S :    0.470244
  54 C :   -0.185601
  55 C :   -0.217873
  56 S :    0.449508
  57 C :    0.076611
  58 F :   -0.033113
  59 C :   -0.215894
  60 S :    0.465168
  61 C :    0.056288
  62 C :   -0.098842
  63 C :    0.083076
  64 O :   -0.138902
  65 C :   -0.054066
  66 C :    0.031031
  67 C :   -0.009402
  68 C :   -0.005575
  69 C :   -0.030942
  70 C :    0.067098
  71 C :    0.066874
  72 C :   -0.032536
  73 F :   -0.048707
  74 F :   -0.048166
  75 C :    0.012987
  76 C :   -0.019963
  77 C :    0.059943
  78 C :   -0.139694
  79 C :   -0.035625
  80 N :   -0.046754
  81 C :   -0.019020
  82 N :   -0.050381
  83 H :    0.048131
  84 H :    0.044218
  85 H :    0.040349
  86 H :    0.039591
  87 H :    0.052009
  88 H :    0.029711
  89 H :    0.019168
  90 H :    0.019718
  91 H :    0.019546
  92 H :    0.019403
  93 H :    0.029311
  94 H :    0.055005
  95 H :    0.041206
  96 H :    0.047150
  97 H :    0.045233
  98 H :    0.039474

  Mayer bond orders larger than 0.100000
B(  0-C ,  1-C ) :   1.4410 B(  0-C ,  5-C ) :   0.1078 B(  0-C ,  7-C ) :   1.1890
B(  0-C , 83-H ) :   1.0070 B(  1-C ,  2-F ) :   1.1366 B(  1-C ,  3-C ) :   1.1901
B(  3-C ,  4-F ) :   1.1330 B(  3-C ,  5-C ) :   1.4422 B(  5-C ,  6-C ) :   1.1939
B(  5-C , 84-H ) :   1.0074 B(  6-C ,  7-C ) :   1.2574 B(  6-C , 11-C ) :   1.1871
B(  7-C ,  8-C ) :   1.2157 B(  8-C ,  9-C ) :   1.4532 B(  8-C , 85-H ) :   0.9898
B(  9-C , 10-C ) :   1.2221 B(  9-C , 15-C ) :   0.9841 B( 10-C , 11-C ) :   1.4705
B( 10-C , 12-C ) :   0.9568 B( 11-C , 86-H ) :   1.0168 B( 12-C , 13-O ) :   2.1203
B( 12-C , 14-C ) :   0.9838 B( 14-C , 15-C ) :   1.0758 B( 14-C , 21-C ) :   1.4885
B( 15-C , 16-C ) :   1.6317 B( 16-C , 17-C ) :   1.1486 B( 16-C , 19-C ) :   1.1416
B( 17-C , 18-N ) :   2.9627 B( 19-C , 20-N ) :   2.9733 B( 21-C , 22-C ) :   1.2667
B( 21-C , 87-H ) :   0.9371 B( 22-C , 23-C ) :   1.3673 B( 22-C , 27-S ) :   1.0487
B( 23-C , 24-F ) :   1.1764 B( 23-C , 25-C ) :   1.3394 B( 25-C , 26-C ) :   1.4181
B( 25-C , 30-S ) :   1.0114 B( 26-C , 27-S ) :   1.0556 B( 26-C , 28-C ) :   1.3298
B( 28-C , 29-C ) :   1.4811 B( 28-C , 33-C ) :   0.1021 B( 28-C , 34-S ) :   1.0363
B( 29-C , 30-S ) :   1.0295 B( 29-C , 31-C ) :   1.2683 B( 31-C , 32-F ) :   1.2116
B( 31-C , 33-C ) :   1.4673 B( 33-C , 34-S ) :   1.0870 B( 33-C , 35-C ) :   1.0783
B( 35-C , 36-C ) :   1.4734 B( 35-C , 42-C ) :   0.1138 B( 35-C , 44-C ) :   1.1290
B( 36-C , 37-O ) :   1.1173 B( 36-C , 39-C ) :   1.1549 B( 37-O , 38-C ) :   0.8958
B( 38-C , 88-H ) :   0.9823 B( 38-C , 89-H ) :   0.9699 B( 38-C , 90-H ) :   0.9680
B( 39-C , 40-O ) :   1.1091 B( 39-C , 42-C ) :   1.4733 B( 40-O , 41-C ) :   0.8968
B( 41-C , 91-H ) :   0.9698 B( 41-C , 92-H ) :   0.9678 B( 41-C , 93-H ) :   0.9824
B( 42-C , 43-C ) :   1.1262 B( 42-C , 48-C ) :   1.0861 B( 43-C , 44-C ) :   1.1380
B( 43-C , 47-N ) :   1.6084 B( 44-C , 45-N ) :   1.6104 B( 45-N , 46-O ) :   1.0648
B( 45-N , 47-N ) :   0.1807 B( 46-O , 47-N ) :   1.0630 B( 48-C , 49-C ) :   1.4697
B( 48-C , 52-C ) :   0.1004 B( 48-C , 53-S ) :   1.0809 B( 49-C , 50-F ) :   1.2159
B( 49-C , 51-C ) :   1.2650 B( 51-C , 52-C ) :   1.4822 B( 51-C , 56-S ) :   1.0367
B( 52-C , 53-S ) :   1.0324 B( 52-C , 54-C ) :   1.3387 B( 54-C , 55-C ) :   1.4579
B( 54-C , 60-S ) :   1.0898 B( 55-C , 56-S ) :   1.0246 B( 55-C , 57-C ) :   1.2815
B( 57-C , 58-F ) :   1.2140 B( 57-C , 59-C ) :   1.4347 B( 59-C , 60-S ) :   1.0610
B( 59-C , 61-C ) :   1.1294 B( 61-C , 62-C ) :   1.6346 B( 61-C , 94-H ) :   0.9466
B( 62-C , 63-C ) :   0.9403 B( 62-C , 77-C ) :   1.0392 B( 63-C , 64-O ) :   2.2784
B( 63-C , 65-C ) :   0.9165 B( 65-C , 66-C ) :   1.4753 B( 65-C , 76-C ) :   1.2227
B( 66-C , 67-C ) :   1.1932 B( 66-C , 95-H ) :   1.0166 B( 67-C , 68-C ) :   1.2571
B( 67-C , 72-C ) :   1.1929 B( 68-C , 69-C ) :   1.1877 B( 68-C , 75-C ) :   1.2151
B( 69-C , 70-C ) :   1.4427 B( 69-C , 72-C ) :   0.1090 B( 69-C , 96-H ) :   1.0073
B( 70-C , 71-C ) :   1.1904 B( 70-C , 74-F ) :   1.1359 B( 71-C , 72-C ) :   1.4434
B( 71-C , 73-F ) :   1.1341 B( 72-C , 97-H ) :   1.0074 B( 75-C , 76-C ) :   1.4554
B( 75-C , 98-H ) :   0.9945 B( 76-C , 77-C ) :   1.0004 B( 77-C , 78-C ) :   1.6580
B( 78-C , 79-C ) :   1.1504 B( 78-C , 81-C ) :   1.1374 B( 79-C , 80-N ) :   3.0267
B( 81-C , 82-N ) :   2.9880

-----------------------------------------------------------------------------
         ABSORPTION SPECTRUM VIA TRANSITION ELECTRIC DIPOLE MOMENTS
-----------------------------------------------------------------------------
State   Energy  Wavelength   fosc         T2         TX        TY        TZ
        (cm-1)    (nm)                  (au**2)     (au)      (au)      (au)
-----------------------------------------------------------------------------
   0   17710.4    564.6   2.276539962  42.31772   0.68519  -6.44247  -0.58555
   1   20630.7    484.7   0.681066830  10.86803  -0.35632  -1.73683   2.77930
   2   24537.6    407.5   0.129928218   1.74320   1.04500   0.66652   0.45489
   3   25436.4    393.1   0.001615305   0.02091   0.09807  -0.00842   0.10591
   4   25829.4    387.2   0.141813385   1.80750   0.29431   0.18470  -1.29876
   5   25933.9    385.6   0.038457533   0.48819  -0.40083  -0.30581  -0.48374
   6   27117.8    368.8   0.037031524   0.44956  -0.49850  -0.27811  -0.35174
   7   27352.9    365.6   0.012782227   0.15384  -0.14368  -0.30697   0.19741
   8   28093.2    356.0   0.115914063   1.35835  -0.30093  -0.30368  -1.08423
   9   28661.6    348.9   0.066152509   0.75984  -0.84354  -0.00120  -0.21974
  10   28710.5    348.3   0.113005538   1.29579  -0.90989   0.03572  -0.68309
  11   29100.3    343.6   0.004983442   0.05638  -0.00292   0.19934  -0.12897
  12   29621.7    337.6   0.114219759   1.26942  -0.16619   1.05021   0.37263
  13   30000.9    333.3   0.084000551   0.92177  -0.68693   0.09813  -0.66353
  14   30202.1    331.1   0.217477187   2.37057   0.04600   1.15961   1.01181
  15   30463.9    328.3   0.155998206   1.68582   0.27052   0.19017   1.25558
  16   30679.4    326.0   0.056734770   0.60881  -0.17129   0.55683  -0.51904
  17   31677.9    315.7   0.051635121   0.53662   0.01139  -0.16612   0.71337
  18   32149.5    311.0   0.056108156   0.57455  -0.57728  -0.32556   0.36784
  19   33910.5    294.9   0.116751703   1.13345  -0.05458  -1.02284  -0.29032
  20   34101.7    293.2   0.661535082   6.38634   1.63236  -0.53747   1.85280
  21   34297.3    291.6   0.395180546   3.79325   0.39946   0.60732   1.80689
  22   34455.0    290.2   0.162184273   1.54964   0.40405   1.07408   0.48243
  23   34526.2    289.6   0.010298798   0.09820  -0.22825  -0.14365  -0.15958
  24   34691.9    288.3   0.219379514   2.08182  -0.90580  -0.85239  -0.73129
  25   35057.6    285.2   0.024110242   0.22641   0.05183  -0.41434   0.22814
  26   35133.3    284.6   0.392202669   3.67509   0.31635   0.46506   1.83268
  27   35515.8    281.6   0.101174076   0.93783  -0.38723  -0.45794  -0.76038
  28   35685.9    280.2   0.033770658   0.31154   0.06013   0.55488   0.00607
  29   36218.4    276.1   0.056465491   0.51325  -0.30248  -0.23189  -0.60662
  30   36411.1    274.6   0.053905969   0.48739   0.29909  -0.07737   0.62606
  31   36624.1    273.0   0.042647986   0.38336  -0.17880  -0.58830  -0.07279
  32   37059.9    269.8   0.017266627   0.15338  -0.05334   0.13276  -0.36457
  33   37110.1    269.5   0.048233820   0.42789  -0.10099  -0.23541   0.60189
  34   37368.0    267.6   0.060351120   0.53169  -0.12212  -0.48050  -0.53470
  35   37709.5    265.2   0.013748001   0.12002   0.00659  -0.22435   0.26391
  36   37844.5    264.2   0.000853525   0.00742   0.00971  -0.06457  -0.05623
  37   38413.3    260.3   0.047762447   0.40934  -0.42221  -0.45751   0.14751
  38   38693.6    258.4   0.021140150   0.17986   0.04899  -0.42115  -0.00995
  39   38901.5    257.1   0.225480888   1.90818   0.68030   1.14401   0.36961
  40   39355.0    254.1   0.026573866   0.22230   0.33562  -0.25712   0.20867
  41   39484.0    253.3   0.008351381   0.06963   0.09738   0.18121   0.16526
  42   39795.5    251.3   0.127890138   1.05798  -0.54530  -0.62697  -0.60626
  43   40035.8    249.8   0.002789992   0.02294   0.00577   0.13975   0.05812

FINAL SINGLE POINT ENERGY     -6106.914179099271

DIPOLE MOMENT
-------------
                                X             Y             Z
Electronic contribution:      1.53215      -0.66811      18.29464
Nuclear contribution   :     -4.09043      -0.73933     -20.74721
                        -----------------------------------------
Total Dipole Moment    :     -2.55827      -1.40744      -2.45257
                        -----------------------------------------
Magnitude (a.u.)       :      3.81323
Magnitude (Debye)      :      9.69247

Rotational constants in cm-1:     0.000875     0.000160     0.000142
Rotational constants in MHz :    26.239640     4.806289     4.251417

                             ****ORCA TERMINATED NORMALLY****
TOTAL RUN TIME: 0 days 0 hours 10 minutes 54 seconds 243 msec
