                         Program Version 4.2.0 -  RELEASE  -
|  1> # ORCA input file
|  2> # SCF done       -182.715013173266          0.000973074308
|  3> ! CAM-B3LYP def2-SVP def2/J RIJCOSX Grid4 TightSCF
|  4> %maxcore 5000
|  5> %tddft
|  6>     Mode sTDDFT
|  7>     Ethresh 5.0
|  8>     maxcore 5000
|  9> end
| 10>
| 11> %pal
| 12>   nprocs 6
| 13>   end
| 14> * xyz 0 1
| 15>    C       -0.50608         1.81276        -2.97823
| 16>    C        0.19065         1.94261        -4.14679
| 17>    F        0.71015         3.12793        -4.49321
| 18>    C        0.37254         0.83602        -5.00015
| 19>    F        1.06089         0.99183        -6.13964
| 20>    C       -0.14461        -0.38589        -4.67255
| 21>    C       -0.86549        -0.55231        -3.47419
| 22>    C       -1.05205         0.56629        -2.61120
| 23>    C       -1.77339         0.42307        -1.40359
| 24>    C       -2.28799        -0.80172        -1.06950
| 25>    C       -2.08992        -1.91457        -1.93253
| 26>    C       -1.40253        -1.80624        -3.10657
| 27>    C       -2.72318        -3.11585        -1.34778
| 28>    O       -2.75082        -4.22015        -1.84699
| 29>    C       -3.24766        -2.68093        -0.02950
| 30>    C       -3.05271        -1.25019         0.08981
| 31>    C       -3.56619        -0.44098         1.07060
| 32>    C       -4.38681        -0.88530         2.12847
| 33>    N       -5.07594        -1.16905         3.00209
| 34>    C       -3.37188         0.95456         1.12076
| 35>    N       -3.24398         2.09194         1.21128
| 36>    C       -3.61097        -3.52162         0.98966
| 37>    C       -3.80787        -4.91865         0.92491
| 38>    C       -4.38603        -5.58588        -0.13377
| 39>    C       -4.43468        -6.99742        -0.02904
| 40>    C       -3.91475        -7.52814         1.13317
| 41>   Si       -3.34438        -6.15991         2.27591
| 42>    C       -3.81243        -8.90961         1.42267
| 43>    C       -3.27159        -9.29365         2.67268
| 44>    C       -3.09582       -10.66240         3.05091
| 45>    N       -2.55393       -10.95333         4.24706
| 46>    C       -2.21197        -9.99282         5.04518
| 47>    C       -2.40011        -8.63485         4.67606
| 48>    N       -2.90844        -8.32034         3.52750
| 49>    F       -2.05456        -7.64804         5.49656
| 50>    F       -1.67367       -10.31630         6.21643
| 51>    C       -3.45684       -11.74078         2.20903
| 52>    C       -4.01774       -11.36857         0.96157
| 53>    C       -4.19220        -9.98262         0.57672
| 54>    N       -4.73525        -9.87773        -0.63521
| 55>    S       -5.00083       -11.34378        -1.22975
| 56>    N       -4.44124       -12.19703         0.00787
| 57>    C       -3.22576       -13.05566         2.67581
| 58>    C       -3.47291       -14.20681         1.96016
| 59>    C       -3.20983       -15.41673         2.64667
| 60>    C       -2.75403       -15.29991         3.93930
| 61>   Si       -2.54575       -13.46504         4.36997
| 62>    C       -2.43389       -16.39808         4.76847
| 63>    C       -3.03705       -17.61919         4.86382
| 64>    C       -2.31289       -18.74284         5.51205
| 65>    O       -1.30543       -18.66938         6.17758
| 66>    C       -3.05259       -19.95958         5.11618
| 67>    C       -2.73852       -21.26729         5.34744
| 68>    C       -3.59122       -22.27729         4.84766
| 69>    C       -4.75374       -21.90874         4.11028
| 70>    C       -5.59672       -22.92118         3.60961
| 71>    C       -5.30100       -24.23674         3.83244
| 72>    C       -4.15155       -24.59986         4.56251
| 73>    C       -3.31377       -23.64159         5.06045
| 74>    F       -3.88531       -25.89748         4.76404
| 75>    F       -6.10406       -25.19729         3.35617
| 76>    C       -5.05556       -20.54491         3.89039
| 77>    C       -4.22001       -19.58314         4.39203
| 78>    C       -4.29011       -18.12333         4.35079
| 79>    C       -5.42156       -17.39288         4.08972
| 80>    C       -5.52282       -16.00425         4.30246
| 81>    N       -5.67818       -14.88486         4.50573
| 82>    C       -6.63696       -17.95844         3.65534
| 83>    N       -7.63723       -18.37254         3.27329
| 84>    H       -0.63741         2.67041        -2.33710
| 85>    H        0.00380        -1.22339        -5.33612
| 86>    H       -1.89282         1.28604        -0.76863
| 87>    H       -1.26838        -2.66654        -3.74460
| 88>    H       -3.65430        -3.10190         1.98858
| 89>    H       -4.83159        -5.08310        -0.97717
| 90>    H       -4.84793        -7.60582        -0.81768
| 91>    H       -1.90528        -6.07421         2.50835
| 92>    H       -4.20560        -5.93018         3.42937
| 93>    H       -3.84420       -14.20195         0.94761
| 94>    H       -3.31669       -16.36954         2.14507
| 95>    H       -1.10940       -13.22222         4.49333
| 96>    H       -3.37562       -13.15574         5.52256
| 97>    H       -1.56582       -16.27464         5.41035
| 98>    H       -1.85197       -21.52855         5.90490
| 99>    H       -6.48272       -22.66070         3.05191
|100>    H       -2.43800       -23.93575         5.61742
|101>    H       -5.93759       -20.29503         3.32252
|102> *
|103>
|104>                          ****END OF INPUT****

CARTESIAN COORDINATES (ANGSTROEM)
---------------------------------
  C     -0.506080    1.812760   -2.978230
  C      0.190650    1.942610   -4.146790
  F      0.710150    3.127930   -4.493210
  C      0.372540    0.836020   -5.000150
  F      1.060890    0.991830   -6.139640
  C     -0.144610   -0.385890   -4.672550
  C     -0.865490   -0.552310   -3.474190
  C     -1.052050    0.566290   -2.611200
  C     -1.773390    0.423070   -1.403590
  C     -2.287990   -0.801720   -1.069500
  C     -2.089920   -1.914570   -1.932530
  C     -1.402530   -1.806240   -3.106570
  C     -2.723180   -3.115850   -1.347780
  O     -2.750820   -4.220150   -1.846990
  C     -3.247660   -2.680930   -0.029500
  C     -3.052710   -1.250190    0.089810
  C     -3.566190   -0.440980    1.070600
  C     -4.386810   -0.885300    2.128470
  N     -5.075940   -1.169050    3.002090
  C     -3.371880    0.954560    1.120760
  N     -3.243980    2.091940    1.211280
  C     -3.610970   -3.521620    0.989660
  C     -3.807870   -4.918650    0.924910
  C     -4.386030   -5.585880   -0.133770
  C     -4.434680   -6.997420   -0.029040
  C     -3.914750   -7.528140    1.133170
  Si    -3.344380   -6.159910    2.275910
  C     -3.812430   -8.909610    1.422670
  C     -3.271590   -9.293650    2.672680
  C     -3.095820  -10.662400    3.050910
  N     -2.553930  -10.953330    4.247060
  C     -2.211970   -9.992820    5.045180
  C     -2.400110   -8.634850    4.676060
  N     -2.908440   -8.320340    3.527500
  F     -2.054560   -7.648040    5.496560
  F     -1.673670  -10.316300    6.216430
  C     -3.456840  -11.740780    2.209030
  C     -4.017740  -11.368570    0.961570
  C     -4.192200   -9.982620    0.576720
  N     -4.735250   -9.877730   -0.635210
  S     -5.000830  -11.343780   -1.229750
  N     -4.441240  -12.197030    0.007870
  C     -3.225760  -13.055660    2.675810
  C     -3.472910  -14.206810    1.960160
  C     -3.209830  -15.416730    2.646670
  C     -2.754030  -15.299910    3.939300
  Si    -2.545750  -13.465040    4.369970
  C     -2.433890  -16.398080    4.768470
  C     -3.037050  -17.619190    4.863820
  C     -2.312890  -18.742840    5.512050
  O     -1.305430  -18.669380    6.177580
  C     -3.052590  -19.959580    5.116180
  C     -2.738520  -21.267290    5.347440
  C     -3.591220  -22.277290    4.847660
  C     -4.753740  -21.908740    4.110280
  C     -5.596720  -22.921180    3.609610
  C     -5.301000  -24.236740    3.832440
  C     -4.151550  -24.599860    4.562510
  C     -3.313770  -23.641590    5.060450
  F     -3.885310  -25.897480    4.764040
  F     -6.104060  -25.197290    3.356170
  C     -5.055560  -20.544910    3.890390
  C     -4.220010  -19.583140    4.392030
  C     -4.290110  -18.123330    4.350790
  C     -5.421560  -17.392880    4.089720
  C     -5.522820  -16.004250    4.302460
  N     -5.678180  -14.884860    4.505730
  C     -6.636960  -17.958440    3.655340
  N     -7.637230  -18.372540    3.273290
  H     -0.637410    2.670410   -2.337100
  H      0.003800   -1.223390   -5.336120
  H     -1.892820    1.286040   -0.768630
  H     -1.268380   -2.666540   -3.744600
  H     -3.654300   -3.101900    1.988580
  H     -4.831590   -5.083100   -0.977170
  H     -4.847930   -7.605820   -0.817680
  H     -1.905280   -6.074210    2.508350
  H     -4.205600   -5.930180    3.429370
  H     -3.844200  -14.201950    0.947610
  H     -3.316690  -16.369540    2.145070
  H     -1.109400  -13.222220    4.493330
  H     -3.375620  -13.155740    5.522560
  H     -1.565820  -16.274640    5.410350
  H     -1.851970  -21.528550    5.904900
  H     -6.482720  -22.660700    3.051910
  H     -2.438000  -23.935750    5.617420
  H     -5.937590  -20.295030    3.322520

 Total Charge           Charge          ....    0
 Multiplicity           Mult            ....    1
 Number of Electrons    NEL             ....  488
 Basis Dimension        Dim             .... 1068

ORBITAL ENERGIES
----------------

  NO   OCC          E(Eh)            E(eV)
   0   2.0000     -89.051210     -2423.2066
   1   2.0000     -66.203049     -1801.4766
   2   2.0000     -66.202134     -1801.4517
   3   2.0000     -24.837418      -675.8605
   4   2.0000     -24.837291      -675.8570
   5   2.0000     -24.799367      -674.8251
   6   2.0000     -24.798896      -674.8123
   7   2.0000     -24.796889      -674.7577
   8   2.0000     -24.795672      -674.7245
   9   2.0000     -19.215576      -522.8824
  10   2.0000     -19.213517      -522.8264
  11   2.0000     -14.483917      -394.1274
  12   2.0000     -14.483137      -394.1062
  13   2.0000     -14.461298      -393.5119
  14   2.0000     -14.460761      -393.4973
  15   2.0000     -14.417861      -392.3299
  16   2.0000     -14.417792      -392.3281
  17   2.0000     -14.411859      -392.1666
  18   2.0000     -14.410916      -392.1410
  19   2.0000     -10.454475      -284.4807
  20   2.0000     -10.454086      -284.4701
  21   2.0000     -10.382694      -282.5275
  22   2.0000     -10.382131      -282.5121
  23   2.0000     -10.379569      -282.4424
  24   2.0000     -10.378806      -282.4217
  25   2.0000     -10.366817      -282.0954
  26   2.0000     -10.365668      -282.0642
  27   2.0000     -10.359061      -281.8844
  28   2.0000     -10.358481      -281.8686
  29   2.0000     -10.349373      -281.6208
  30   2.0000     -10.349079      -281.6128
  31   2.0000     -10.344498      -281.4881
  32   2.0000     -10.343481      -281.4604
  33   2.0000     -10.337910      -281.3088
  34   2.0000     -10.336665      -281.2750
  35   2.0000     -10.322079      -280.8781
  36   2.0000     -10.320854      -280.8447
  37   2.0000     -10.320773      -280.8425
  38   2.0000     -10.320769      -280.8424
  39   2.0000     -10.316811      -280.7347
  40   2.0000     -10.314963      -280.6844
  41   2.0000     -10.313913      -280.6558
  42   2.0000     -10.312595      -280.6200
  43   2.0000     -10.312001      -280.6038
  44   2.0000     -10.311661      -280.5946
  45   2.0000     -10.309453      -280.5345
  46   2.0000     -10.308248      -280.5017
  47   2.0000     -10.307928      -280.4930
  48   2.0000     -10.304081      -280.3883
  49   2.0000     -10.304036      -280.3871
  50   2.0000     -10.303682      -280.3774
  51   2.0000     -10.302399      -280.3425
  52   2.0000     -10.301772      -280.3255
  53   2.0000     -10.299822      -280.2724
  54   2.0000     -10.299674      -280.2684
  55   2.0000     -10.299476      -280.2630
  56   2.0000     -10.299328      -280.2590
  57   2.0000     -10.298456      -280.2352
  58   2.0000     -10.297048      -280.1969
  59   2.0000     -10.297043      -280.1968
  60   2.0000     -10.294737      -280.1340
  61   2.0000     -10.294502      -280.1276
  62   2.0000     -10.293050      -280.0881
  63   2.0000     -10.292020      -280.0601
  64   2.0000     -10.290341      -280.0144
  65   2.0000     -10.282044      -279.7887
  66   2.0000     -10.280239      -279.7395
  67   2.0000     -10.275572      -279.6125
  68   2.0000     -10.266903      -279.3766
  69   2.0000      -8.142593      -221.5712
  70   2.0000      -6.113730      -166.3631
  71   2.0000      -6.105795      -166.1471
  72   2.0000      -6.105381      -166.1359
  73   2.0000      -5.370083      -146.1274
  74   2.0000      -5.369788      -146.1194
  75   2.0000      -3.733817      -101.6023
  76   2.0000      -3.733276      -101.5876
  77   2.0000      -3.731969      -101.5520
  78   2.0000      -3.731662      -101.5437
  79   2.0000      -3.730838      -101.5213
  80   2.0000      -3.730665      -101.5166
  81   2.0000      -1.365439       -37.1555
  82   2.0000      -1.351392       -36.7732
  83   2.0000      -1.322062       -35.9751
  84   2.0000      -1.319079       -35.8940
  85   2.0000      -1.307215       -35.5711
  86   2.0000      -1.304223       -35.4897
  87   2.0000      -1.148974       -31.2652
  88   2.0000      -1.138310       -30.9750
  89   2.0000      -1.130788       -30.7703
  90   2.0000      -1.128867       -30.7180
  91   2.0000      -1.065206       -28.9857
  92   2.0000      -1.021597       -27.7991
  93   2.0000      -1.015715       -27.6390
  94   2.0000      -1.005755       -27.3680
  95   2.0000      -1.003231       -27.2993
  96   2.0000      -1.001037       -27.2396
  97   2.0000      -0.996847       -27.1256
  98   2.0000      -0.990133       -26.9429
  99   2.0000      -0.986601       -26.8468
 100   2.0000      -0.982703       -26.7407
 101   2.0000      -0.978176       -26.6175
 102   2.0000      -0.946187       -25.7470
 103   2.0000      -0.940088       -25.5811
 104   2.0000      -0.930664       -25.3247
 105   2.0000      -0.926618       -25.2146
 106   2.0000      -0.908076       -24.7100
 107   2.0000      -0.901023       -24.5181
 108   2.0000      -0.898776       -24.4569
 109   2.0000      -0.895247       -24.3609
 110   2.0000      -0.892821       -24.2949
 111   2.0000      -0.888606       -24.1802
 112   2.0000      -0.876439       -23.8491
 113   2.0000      -0.868307       -23.6278
 114   2.0000      -0.841912       -22.9096
 115   2.0000      -0.838125       -22.8065
 116   2.0000      -0.835285       -22.7293
 117   2.0000      -0.826737       -22.4966
 118   2.0000      -0.819128       -22.2896
 119   2.0000      -0.802277       -21.8311
 120   2.0000      -0.791129       -21.5277
 121   2.0000      -0.770364       -20.9627
 122   2.0000      -0.764787       -20.8109
 123   2.0000      -0.763921       -20.7873
 124   2.0000      -0.763328       -20.7712
 125   2.0000      -0.752024       -20.4636
 126   2.0000      -0.742673       -20.2092
 127   2.0000      -0.730685       -19.8830
 128   2.0000      -0.725207       -19.7339
 129   2.0000      -0.718770       -19.5587
 130   2.0000      -0.711750       -19.3677
 131   2.0000      -0.704631       -19.1740
 132   2.0000      -0.701328       -19.0841
 133   2.0000      -0.692384       -18.8407
 134   2.0000      -0.689784       -18.7700
 135   2.0000      -0.688652       -18.7392
 136   2.0000      -0.683206       -18.5910
 137   2.0000      -0.680370       -18.5138
 138   2.0000      -0.673465       -18.3259
 139   2.0000      -0.658185       -17.9101
 140   2.0000      -0.657059       -17.8795
 141   2.0000      -0.653274       -17.7765
 142   2.0000      -0.649118       -17.6634
 143   2.0000      -0.646295       -17.5866
 144   2.0000      -0.642630       -17.4869
 145   2.0000      -0.640594       -17.4315
 146   2.0000      -0.638620       -17.3777
 147   2.0000      -0.624611       -16.9965
 148   2.0000      -0.622394       -16.9362
 149   2.0000      -0.615838       -16.7578
 150   2.0000      -0.614051       -16.7092
 151   2.0000      -0.611427       -16.6378
 152   2.0000      -0.604629       -16.4528
 153   2.0000      -0.597439       -16.2571
 154   2.0000      -0.593046       -16.1376
 155   2.0000      -0.592153       -16.1133
 156   2.0000      -0.586622       -15.9628
 157   2.0000      -0.585170       -15.9233
 158   2.0000      -0.583699       -15.8833
 159   2.0000      -0.582344       -15.8464
 160   2.0000      -0.581553       -15.8249
 161   2.0000      -0.574885       -15.6434
 162   2.0000      -0.572249       -15.5717
 163   2.0000      -0.570554       -15.5256
 164   2.0000      -0.559928       -15.2364
 165   2.0000      -0.556326       -15.1384
 166   2.0000      -0.552781       -15.0419
 167   2.0000      -0.551375       -15.0037
 168   2.0000      -0.548240       -14.9184
 169   2.0000      -0.547586       -14.9006
 170   2.0000      -0.545449       -14.8424
 171   2.0000      -0.539449       -14.6792
 172   2.0000      -0.539171       -14.6716
 173   2.0000      -0.536266       -14.5925
 174   2.0000      -0.534898       -14.5553
 175   2.0000      -0.534380       -14.5412
 176   2.0000      -0.532565       -14.4918
 177   2.0000      -0.530123       -14.4254
 178   2.0000      -0.527062       -14.3421
 179   2.0000      -0.525295       -14.2940
 180   2.0000      -0.523228       -14.2378
 181   2.0000      -0.516436       -14.0529
 182   2.0000      -0.514786       -14.0081
 183   2.0000      -0.513751       -13.9799
 184   2.0000      -0.505937       -13.7673
 185   2.0000      -0.504432       -13.7263
 186   2.0000      -0.502181       -13.6650
 187   2.0000      -0.501596       -13.6491
 188   2.0000      -0.495708       -13.4889
 189   2.0000      -0.493986       -13.4421
 190   2.0000      -0.492936       -13.4135
 191   2.0000      -0.491702       -13.3799
 192   2.0000      -0.485846       -13.2206
 193   2.0000      -0.482351       -13.1254
 194   2.0000      -0.480648       -13.0791
 195   2.0000      -0.478013       -13.0074
 196   2.0000      -0.471133       -12.8202
 197   2.0000      -0.466375       -12.6907
 198   2.0000      -0.465811       -12.6754
 199   2.0000      -0.463209       -12.6046
 200   2.0000      -0.460832       -12.5399
 201   2.0000      -0.459855       -12.5133
 202   2.0000      -0.454957       -12.3800
 203   2.0000      -0.453785       -12.3481
 204   2.0000      -0.449617       -12.2347
 205   2.0000      -0.447316       -12.1721
 206   2.0000      -0.445783       -12.1304
 207   2.0000      -0.445083       -12.1113
 208   2.0000      -0.443254       -12.0615
 209   2.0000      -0.442361       -12.0372
 210   2.0000      -0.440087       -11.9754
 211   2.0000      -0.437771       -11.9124
 212   2.0000      -0.431797       -11.7498
 213   2.0000      -0.428948       -11.6723
 214   2.0000      -0.428307       -11.6548
 215   2.0000      -0.424577       -11.5533
 216   2.0000      -0.423278       -11.5180
 217   2.0000      -0.422388       -11.4938
 218   2.0000      -0.419444       -11.4136
 219   2.0000      -0.415821       -11.3151
 220   2.0000      -0.414921       -11.2906
 221   2.0000      -0.408094       -11.1048
 222   2.0000      -0.404819       -11.0157
 223   2.0000      -0.404102       -10.9962
 224   2.0000      -0.396524       -10.7900
 225   2.0000      -0.395008       -10.7487
 226   2.0000      -0.392586       -10.6828
 227   2.0000      -0.387431       -10.5425
 228   2.0000      -0.385205       -10.4820
 229   2.0000      -0.383782       -10.4432
 230   2.0000      -0.373570       -10.1654
 231   2.0000      -0.366972        -9.9858
 232   2.0000      -0.359675        -9.7873
 233   2.0000      -0.356382        -9.6976
 234   2.0000      -0.349506        -9.5105
 235   2.0000      -0.335900        -9.1403
 236   2.0000      -0.333910        -9.0862
 237   2.0000      -0.322700        -8.7811
 238   2.0000      -0.317663        -8.6440
 239   2.0000      -0.314590        -8.5604
 240   2.0000      -0.303636        -8.2624
 241   2.0000      -0.299329        -8.1452
 242   2.0000      -0.286746        -7.8028
 243   2.0000      -0.247544        -6.7360
 244   0.0000      -0.134824        -3.6687
 245   0.0000      -0.091789        -2.4977
 246   0.0000      -0.085867        -2.3366
 247   0.0000      -0.059632        -1.6227
 248   0.0000      -0.057313        -1.5596

MULLIKEN ATOMIC CHARGES
-----------------------
   0 C :   -0.110006
   1 C :    0.241280
   2 F :   -0.171873
   3 C :    0.238270
   4 F :   -0.172578
   5 C :   -0.107681
   6 C :    0.118882
   7 C :    0.115779
   8 C :   -0.089103
   9 C :    0.055743
  10 C :   -0.006017
  11 C :   -0.087558
  12 C :    0.146389
  13 O :   -0.151808
  14 C :   -0.101852
  15 C :    0.296697
  16 C :   -0.343122
  17 C :   -0.203306
  18 N :    0.158299
  19 C :   -0.181200
  20 N :    0.144166
  21 C :    0.011838
  22 C :   -0.189171
  23 C :    0.097364
  24 C :   -0.010397
  25 C :   -0.294875
  26 Si:    0.569621
  27 C :    0.175786
  28 C :   -0.005757
  29 C :   -0.009384
  30 N :   -0.090951
  31 C :    0.181303
  32 C :    0.179416
  33 N :   -0.086318
  34 F :   -0.132025
  35 F :   -0.133138
  36 C :    0.181111
  37 C :    0.019749
  38 C :    0.014855
  39 N :   -0.286158
  40 S :    0.552017
  41 N :   -0.290099
  42 C :   -0.274764
  43 C :    0.000708
  44 C :    0.038479
  45 C :   -0.188875
  46 Si:    0.570571
  47 C :    0.062273
  48 C :   -0.133199
  49 C :    0.137623
  50 O :   -0.142916
  51 C :    0.012876
  52 C :   -0.083443
  53 C :    0.113977
  54 C :    0.111591
  55 C :   -0.106026
  56 C :    0.241931
  57 C :    0.237646
  58 C :   -0.104989
  59 F :   -0.172214
  60 F :   -0.170990
  61 C :   -0.082842
  62 C :    0.036358
  63 C :    0.274328
  64 C :   -0.347258
  65 C :   -0.170083
  66 N :    0.158183
  67 C :   -0.180668
  68 N :    0.150944
  69 H :    0.007189
  70 H :   -0.002126
  71 H :   -0.005542
  72 H :   -0.013441
  73 H :    0.026538
  74 H :   -0.000102
  75 H :    0.006669
  76 H :   -0.079478
  77 H :   -0.063282
  78 H :    0.003988
  79 H :   -0.001994
  80 H :   -0.075577
  81 H :   -0.054947
  82 H :    0.027320
  83 H :   -0.009247
  84 H :    0.004891
  85 H :    0.000544
  86 H :   -0.004821
Sum of atomic charges:   -0.0000000

LOEWDIN ATOMIC CHARGES
----------------------
   0 C :   -0.029801
   1 C :    0.065553
   2 F :   -0.049831
   3 C :    0.066447
   4 F :   -0.050729
   5 C :   -0.034389
   6 C :   -0.009188
   7 C :   -0.006996
   8 C :    0.015720
   9 C :   -0.022235
  10 C :   -0.050624
  11 C :    0.026421
  12 C :    0.081393
  13 O :   -0.142587
  14 C :   -0.101627
  15 C :    0.073909
  16 C :   -0.142639
  17 C :   -0.025002
  18 N :   -0.053031
  19 C :   -0.017772
  20 N :   -0.057497
  21 C :    0.064785
  22 C :   -0.184130
  23 C :    0.047932
  24 C :    0.010609
  25 C :   -0.155629
  26 Si:    0.541671
  27 C :   -0.032052
  28 C :   -0.004612
  29 C :   -0.006218
  30 N :   -0.018796
  31 C :    0.073805
  32 C :    0.074266
  33 N :   -0.020923
  34 F :   -0.018977
  35 F :   -0.019315
  36 C :   -0.023555
  37 C :   -0.038798
  38 C :   -0.037943
  39 N :   -0.274154
  40 S :    0.677386
  41 N :   -0.274002
  42 C :   -0.153085
  43 C :    0.015603
  44 C :    0.011982
  45 C :   -0.165967
  46 Si:    0.537764
  47 C :    0.067866
  48 C :   -0.097104
  49 C :    0.081272
  50 O :   -0.143753
  51 C :   -0.052992
  52 C :    0.029461
  53 C :   -0.009120
  54 C :   -0.006499
  55 C :   -0.030146
  56 C :    0.066526
  57 C :    0.067166
  58 C :   -0.033136
  59 F :   -0.049553
  60 F :   -0.049084
  61 C :    0.014027
  62 C :   -0.020932
  63 C :    0.070351
  64 C :   -0.143016
  65 C :   -0.008786
  66 N :   -0.050997
  67 C :   -0.019963
  68 N :   -0.056114
  69 H :    0.047501
  70 H :    0.044032
  71 H :    0.039732
  72 H :    0.038727
  73 H :    0.042843
  74 H :    0.030680
  75 H :    0.028848
  76 H :   -0.089620
  77 H :   -0.080662
  78 H :    0.028261
  79 H :    0.026858
  80 H :   -0.085705
  81 H :   -0.078355
  82 H :    0.046267
  83 H :    0.040564
  84 H :    0.046999
  85 H :    0.045020
  86 H :    0.039394

  Mayer bond orders larger than 0.100000
B(  0-C ,  1-C ) :   1.4415 B(  0-C ,  5-C ) :   0.1091 B(  0-C ,  7-C ) :   1.1874
B(  0-C , 69-H ) :   1.0064 B(  1-C ,  2-F ) :   1.1339 B(  1-C ,  3-C ) :   1.1930
B(  3-C ,  4-F ) :   1.1329 B(  3-C ,  5-C ) :   1.4421 B(  5-C ,  6-C ) :   1.1937
B(  5-C , 70-H ) :   1.0066 B(  6-C ,  7-C ) :   1.2578 B(  6-C , 11-C ) :   1.1855
B(  7-C ,  8-C ) :   1.2144 B(  8-C ,  9-C ) :   1.4523 B(  8-C , 71-H ) :   0.9903
B(  9-C , 10-C ) :   1.2197 B(  9-C , 15-C ) :   0.9866 B( 10-C , 11-C ) :   1.4777
B( 10-C , 12-C ) :   0.9378 B( 11-C , 72-H ) :   1.0156 B( 12-C , 13-O ) :   2.2141
B( 12-C , 14-C ) :   0.9504 B( 14-C , 15-C ) :   1.0674 B( 14-C , 21-C ) :   1.5736
B( 15-C , 16-C ) :   1.6376 B( 16-C , 17-C ) :   1.1408 B( 16-C , 19-C ) :   1.1422
B( 17-C , 18-N ) :   3.0008 B( 19-C , 20-N ) :   2.9656 B( 21-C , 22-C ) :   1.1854
B( 21-C , 73-H ) :   0.9445 B( 22-C , 23-C ) :   1.6050 B( 22-C , 26-Si) :   0.8355
B( 23-C , 24-C ) :   1.1337 B( 23-C , 74-H ) :   0.9879 B( 24-C , 25-C ) :   1.5803
B( 24-C , 75-H ) :   0.9883 B( 25-C , 26-Si) :   0.8788 B( 25-C , 27-C ) :   1.2187
B( 26-Si, 33-N ) :   0.1375 B( 26-Si, 76-H ) :   0.9563 B( 26-Si, 77-H ) :   0.9573
B( 27-C , 28-C ) :   1.2912 B( 27-C , 36-C ) :   0.1335 B( 27-C , 38-C ) :   1.1261
B( 28-C , 29-C ) :   1.1437 B( 28-C , 33-N ) :   1.3324 B( 29-C , 30-N ) :   1.3313
B( 29-C , 36-C ) :   1.2913 B( 30-N , 31-C ) :   1.6150 B( 30-N , 46-Si) :   0.1415
B( 31-C , 32-C ) :   1.1181 B( 31-C , 35-F ) :   1.1793 B( 32-C , 33-N ) :   1.6186
B( 32-C , 34-F ) :   1.1822 B( 36-C , 37-C ) :   1.1238 B( 36-C , 42-C ) :   1.2303
B( 37-C , 38-C ) :   1.0979 B( 37-C , 41-N ) :   1.5175 B( 38-C , 39-N ) :   1.5220
B( 39-N , 40-S ) :   1.2788 B( 39-N , 41-N ) :   0.1476 B( 40-S , 41-N ) :   1.2810
B( 42-C , 43-C ) :   1.5923 B( 42-C , 46-Si) :   0.8789 B( 43-C , 44-C ) :   1.1248
B( 43-C , 78-H ) :   0.9870 B( 44-C , 45-C ) :   1.6271 B( 44-C , 79-H ) :   0.9949
B( 45-C , 46-Si) :   0.8191 B( 45-C , 47-C ) :   1.1172 B( 46-Si, 80-H ) :   0.9485
B( 46-Si, 81-H ) :   0.9659 B( 47-C , 48-C ) :   1.6537 B( 47-C , 82-H ) :   0.9330
B( 48-C , 49-C ) :   0.9424 B( 48-C , 63-C ) :   1.0422 B( 49-C , 50-O ) :   2.2706
B( 49-C , 51-C ) :   0.9140 B( 51-C , 52-C ) :   1.4753 B( 51-C , 62-C ) :   1.2213
B( 52-C , 53-C ) :   1.1932 B( 52-C , 83-H ) :   1.0159 B( 53-C , 54-C ) :   1.2566
B( 53-C , 58-C ) :   1.1926 B( 54-C , 55-C ) :   1.1899 B( 54-C , 61-C ) :   1.2143
B( 55-C , 56-C ) :   1.4413 B( 55-C , 58-C ) :   0.1089 B( 55-C , 84-H ) :   1.0067
B( 56-C , 57-C ) :   1.1919 B( 56-C , 60-F ) :   1.1352 B( 57-C , 58-C ) :   1.4438
B( 57-C , 59-F ) :   1.1326 B( 58-C , 85-H ) :   1.0066 B( 61-C , 62-C ) :   1.4573
B( 61-C , 86-H ) :   0.9927 B( 62-C , 63-C ) :   0.9957 B( 63-C , 64-C ) :   1.6487
B( 64-C , 65-C ) :   1.1743 B( 64-C , 67-C ) :   1.1319 B( 65-C , 66-N ) :   2.9587
B( 67-C , 68-N ) :   2.9811

-----------------------------------------------------------------------------
         ABSORPTION SPECTRUM VIA TRANSITION ELECTRIC DIPOLE MOMENTS
-----------------------------------------------------------------------------
State   Energy  Wavelength   fosc         T2         TX        TY        TZ
        (cm-1)    (nm)                  (au**2)     (au)      (au)      (au)
-----------------------------------------------------------------------------
   0    9550.4   1047.1   0.847822571  29.22528  -0.13188  -5.20554   1.45267
   1   18083.4    553.0   0.018649669   0.33952  -0.22945  -0.45623   0.28058
   2   18273.2    547.3   0.408222888   7.35461   0.57879   2.55559  -0.69897
   3   19699.1    507.6   0.318541376   5.32346   0.12094   2.26060  -0.44558
   4   23287.0    429.4   0.006948338   0.09823   0.28503  -0.12889   0.01944
   5   24445.4    409.1   0.012752596   0.17174   0.23948  -0.11223  -0.31905
   6   25243.9    396.1   0.034968929   0.45604   0.35167  -0.56762   0.10087
   7   25538.6    391.6   0.064953917   0.83731  -0.21652   0.78661  -0.41434
   8   26066.6    383.6   0.035255402   0.44526   0.25110   0.38342   0.48497
   9   26542.1    376.8   0.072476062   0.89895  -0.15783  -0.74929   0.55911
  10   26980.7    370.6   0.052648202   0.64240  -0.15392   0.73673  -0.27558
  11   27135.7    368.5   0.102385942   1.24215   0.67355  -0.88377  -0.08621
  12   27977.7    357.4   0.193983446   2.28259  -0.36347  -1.09303   0.97763
  13   28168.6    355.0   0.017295377   0.20213  -0.05896   0.44081   0.06590
  14   29073.4    344.0   0.050078455   0.56706   0.63660  -0.11430  -0.38567
  15   29339.7    340.8   0.055099513   0.61825   0.32080  -0.68700   0.20827
  16   29563.5    338.3   0.119998860   1.33628  -0.26893  -0.28433  -1.08771
  17   29984.8    333.5   0.068079835   0.74747  -0.38262  -0.26945  -0.72696
  18   30268.1    330.4   0.053216325   0.57881   0.15996   0.73385   0.12119
  19   31166.5    320.9   0.096069894   1.01479   0.06375  -0.97809  -0.23249
  20   31243.6    320.1   0.041921697   0.44173   0.26315  -0.43239  -0.43072
  21   31381.1    318.7   0.128210247   1.34502   0.15928  -1.14680  -0.06712
  22   31602.6    316.4   0.226588936   2.36043   0.84896   0.97102  -0.83476
  23   31974.2    312.8   0.004302762   0.04430  -0.11217  -0.07135  -0.16318
  24   32110.5    311.4   0.048560936   0.49787   0.54824   0.35344  -0.26905
  25   32674.7    306.0   0.009447756   0.09519  -0.07084   0.18957  -0.23288
  26   33251.7    300.7   0.069439572   0.68749  -0.65498   0.46649  -0.20220
  27   33500.4    298.5   0.010679424   0.10495   0.14142   0.04611  -0.28779
  28   34511.1    289.8   0.052386805   0.49973   0.36227   0.60310   0.06900
  29   34858.9    286.9   0.020219449   0.19096  -0.28023  -0.33283  -0.04067
  30   35154.1    284.5   0.039392719   0.36891  -0.05544   0.51977   0.30931
  31   35366.0    282.8   0.369162644   3.43643   1.45417  -0.21976  -1.12850
  32   35634.0    280.6   0.007771005   0.07179  -0.23877   0.09703   0.07326
  33   35832.0    279.1   0.379030777   3.48241   0.59888   1.61976  -0.70719
  34   35951.6    278.2   0.506344490   4.63664  -0.86726   1.55376  -1.21257
  35   36056.0    277.3   0.445022844   4.06331  -0.02819  -0.97930  -1.76167
  36   36231.1    276.0   0.187171065   1.70072   0.48837  -0.79343  -0.91251
  37   36789.4    271.8   0.212953342   1.90562  -0.30447  -0.24782   1.32344
  38   37032.8    270.0   0.064985731   0.57771  -0.56868  -0.17568   0.47270
  39   37541.0    266.4   0.058677219   0.51456   0.05746   0.42699   0.57354
  40   37822.8    264.4   0.104945558   0.91345  -0.18595  -0.41131  -0.84243
  41   38309.8    261.0   0.012080748   0.10381  -0.10764  -0.24330  -0.18176
  42   38493.0    259.8   0.041479871   0.35476  -0.05192   0.44286  -0.39489
  43   39130.8    255.6   0.009633595   0.08105   0.21681   0.03366   0.18141
  44   39310.8    254.4   0.086172967   0.72166  -0.47615  -0.62878  -0.31556
  45   39704.6    251.9   0.026868796   0.22278  -0.28115  -0.37636   0.04572
  46   39815.4    251.2   0.099962913   0.82654   0.11039   0.87808   0.20814
  47   40140.1    249.1   0.073373777   0.60178  -0.62510  -0.12667  -0.44158
  48   40272.1    248.3   0.019424103   0.15879  -0.37846   0.06422   0.10690

FINAL SINGLE POINT ENERGY     -4076.641455802868

DIPOLE MOMENT
-------------
                                X             Y             Z
Electronic contribution:      3.84728      -1.67151      -1.58719
Nuclear contribution   :     -2.31814      -0.64983       0.00983
                        -----------------------------------------
Total Dipole Moment    :      1.52914      -2.32134      -1.57735
                        -----------------------------------------
Magnitude (a.u.)       :      3.19608
Magnitude (Debye)      :      8.12379

Rotational constants in cm-1:     0.002863     0.000226     0.000220
Rotational constants in MHz :    85.843219     6.771702     6.592352

                             ****ORCA TERMINATED NORMALLY****
TOTAL RUN TIME: 0 days 0 hours 9 minutes 31 seconds 41 msec
