                         Program Version 4.2.0 -  RELEASE  -
|  1> # ORCA input file
|  2> # SCF done       -144.101810520104          0.000491751129
|  3> ! CAM-B3LYP def2-SVP def2/J RIJCOSX Grid4 TightSCF
|  4> %maxcore 5000
|  5> %tddft
|  6>     Mode sTDDFT
|  7>     Ethresh 5.0
|  8>     maxcore 5000
|  9> end
| 10>
| 11> %pal
| 12>   nprocs 6
| 13>   end
| 14> * xyz 0 1
| 15>    O        0.56134        -3.24112        -7.69578
| 16>    N        1.16960        -2.28723        -8.40137
| 17>    C        2.17478        -1.83387        -7.69095
| 18>    C        3.03642        -0.81068        -8.14546
| 19>    N        3.74811         0.01547        -8.48890
| 20>    C        2.24514        -2.52129        -6.43910
| 21>    C        1.18062        -3.40432        -6.51875
| 22>    C        0.72347        -4.36124        -5.59124
| 23>    N        0.34925        -5.13995        -4.84163
| 24>    C        3.19629        -2.36258        -5.32954
| 25>    O        3.16429        -3.00397        -4.31317
| 26>    O        4.08593        -1.40414        -5.63912
| 27>    C        5.10695        -1.04597        -4.81127
| 28>    C        5.45376        -1.48707        -3.56758
| 29>    C        6.60540        -0.81825        -3.11779
| 30>    C        7.11006         0.11621        -4.02434
| 31>    S        6.15819         0.18761        -5.46555
| 32>    C        8.26219         0.75126        -3.54412
| 33>    C        8.62711         0.29245        -2.27184
| 34>    S        7.54300        -0.92377        -1.65955
| 35>    C        9.78023         0.89544        -1.76799
| 36>    C       10.29702         1.81632        -2.65474
| 37>    S        9.35579         1.94834        -4.12424
| 38>    C       11.46843         2.59282        -2.46365
| 39>    N       12.22209         2.50519        -1.40653
| 40>    C       13.25975         3.33597        -1.49791
| 41>    C       13.34133         4.11666        -2.66316
| 42>    S       12.01338         3.76225        -3.69267
| 43>    N       14.38394         4.94143        -2.75579
| 44>    C       15.14372         4.84880        -1.70702
| 45>    S       14.59416         3.68268        -0.47133
| 46>    C       16.33295         5.59433        -1.52058
| 47>    C       17.21044         5.53781        -0.45984
| 48>    C       18.27930         6.41778        -0.63531
| 49>    C       18.21504         7.14739        -1.82966
| 50>    S       16.81705         6.74063        -2.75158
| 51>    C       19.30401         8.01777        -1.97058
| 52>    C       20.18633         7.94369        -0.89142
| 53>    S       19.68484         6.80142         0.31680
| 54>    C       21.29440         8.80251        -0.99656
| 55>    C       21.22992         9.51630        -2.15724
| 56>    S       19.83351         9.16640        -3.14900
| 57>    O       22.06277        10.46141        -2.67921
| 58>    C       23.23606        10.79341        -2.10716
| 59>    O       23.69502        10.32196        -1.10252
| 60>    C       23.88471        11.84005        -2.91014
| 61>    C       25.17858        12.41393        -2.70966
| 62>    N       25.41668        13.32438        -3.62358
| 63>    O       24.35340        13.39522        -4.42497
| 64>    C       23.42101        12.51952        -4.02501
| 65>    C       22.19409        12.40396        -4.70684
| 66>    N       21.19024        12.29837        -5.24586
| 67>    C       26.10734        12.08231        -1.69756
| 68>    N       26.85657        11.80752        -0.87943
| 69>    H        4.92111        -2.23977        -3.01782
| 70>    H       10.23259         0.68813        -0.81721
| 71>    H       17.07643         4.89102         0.38744
| 72>    H       22.08199         8.88665        -0.27193
| 73> *
| 74>
| 75>                          ****END OF INPUT****

CARTESIAN COORDINATES (ANGSTROEM)
---------------------------------
  O      0.561340   -3.241120   -7.695780
  N      1.169600   -2.287230   -8.401370
  C      2.174780   -1.833870   -7.690950
  C      3.036420   -0.810680   -8.145460
  N      3.748110    0.015470   -8.488900
  C      2.245140   -2.521290   -6.439100
  C      1.180620   -3.404320   -6.518750
  C      0.723470   -4.361240   -5.591240
  N      0.349250   -5.139950   -4.841630
  C      3.196290   -2.362580   -5.329540
  O      3.164290   -3.003970   -4.313170
  O      4.085930   -1.404140   -5.639120
  C      5.106950   -1.045970   -4.811270
  C      5.453760   -1.487070   -3.567580
  C      6.605400   -0.818250   -3.117790
  C      7.110060    0.116210   -4.024340
  S      6.158190    0.187610   -5.465550
  C      8.262190    0.751260   -3.544120
  C      8.627110    0.292450   -2.271840
  S      7.543000   -0.923770   -1.659550
  C      9.780230    0.895440   -1.767990
  C     10.297020    1.816320   -2.654740
  S      9.355790    1.948340   -4.124240
  C     11.468430    2.592820   -2.463650
  N     12.222090    2.505190   -1.406530
  C     13.259750    3.335970   -1.497910
  C     13.341330    4.116660   -2.663160
  S     12.013380    3.762250   -3.692670
  N     14.383940    4.941430   -2.755790
  C     15.143720    4.848800   -1.707020
  S     14.594160    3.682680   -0.471330
  C     16.332950    5.594330   -1.520580
  C     17.210440    5.537810   -0.459840
  C     18.279300    6.417780   -0.635310
  C     18.215040    7.147390   -1.829660
  S     16.817050    6.740630   -2.751580
  C     19.304010    8.017770   -1.970580
  C     20.186330    7.943690   -0.891420
  S     19.684840    6.801420    0.316800
  C     21.294400    8.802510   -0.996560
  C     21.229920    9.516300   -2.157240
  S     19.833510    9.166400   -3.149000
  O     22.062770   10.461410   -2.679210
  C     23.236060   10.793410   -2.107160
  O     23.695020   10.321960   -1.102520
  C     23.884710   11.840050   -2.910140
  C     25.178580   12.413930   -2.709660
  N     25.416680   13.324380   -3.623580
  O     24.353400   13.395220   -4.424970
  C     23.421010   12.519520   -4.025010
  C     22.194090   12.403960   -4.706840
  N     21.190240   12.298370   -5.245860
  C     26.107340   12.082310   -1.697560
  N     26.856570   11.807520   -0.879430
  H      4.921110   -2.239770   -3.017820
  H     10.232590    0.688130   -0.817210
  H     17.076430    4.891020    0.387440
  H     22.081990    8.886650   -0.271930

 Total Charge           Charge          ....    0
 Multiplicity           Mult            ....    1
 Number of Electrons    NEL             ....  428
 Basis Dimension        Dim             ....  808

ORBITAL ENERGIES
----------------

  NO   OCC          E(Eh)            E(eV)
   0   2.0000     -88.977235     -2421.1936
   1   2.0000     -88.976676     -2421.1785
   2   2.0000     -88.972454     -2421.0636
   3   2.0000     -88.970849     -2421.0199
   4   2.0000     -88.970348     -2421.0062
   5   2.0000     -88.968437     -2420.9542
   6   2.0000     -88.966787     -2420.9093
   7   2.0000     -88.966020     -2420.8885
   8   2.0000     -19.385391      -527.5033
   9   2.0000     -19.384656      -527.4833
  10   2.0000     -19.326729      -525.9070
  11   2.0000     -19.325648      -525.8776
  12   2.0000     -19.256038      -523.9834
  13   2.0000     -19.255258      -523.9622
  14   2.0000     -14.526965      -395.2988
  15   2.0000     -14.525761      -395.2660
  16   2.0000     -14.460763      -393.4974
  17   2.0000     -14.458290      -393.4301
  18   2.0000     -14.447375      -393.1331
  19   2.0000     -14.442631      -393.0040
  20   2.0000     -14.424342      -392.5063
  21   2.0000     -14.422927      -392.4678
  22   2.0000     -10.461673      -284.6766
  23   2.0000     -10.461260      -284.6653
  24   2.0000     -10.431612      -283.8586
  25   2.0000     -10.431566      -283.8573
  26   2.0000     -10.395494      -282.8758
  27   2.0000     -10.393792      -282.8295
  28   2.0000     -10.381188      -282.4865
  29   2.0000     -10.380587      -282.4701
  30   2.0000     -10.360992      -281.9369
  31   2.0000     -10.360857      -281.9333
  32   2.0000     -10.357813      -281.8504
  33   2.0000     -10.354297      -281.7547
  34   2.0000     -10.352513      -281.7062
  35   2.0000     -10.352457      -281.7047
  36   2.0000     -10.345796      -281.5234
  37   2.0000     -10.339936      -281.3640
  38   2.0000     -10.330990      -281.1205
  39   2.0000     -10.330306      -281.1019
  40   2.0000     -10.317826      -280.7623
  41   2.0000     -10.317267      -280.7471
  42   2.0000     -10.316905      -280.7373
  43   2.0000     -10.316748      -280.7330
  44   2.0000     -10.316092      -280.7151
  45   2.0000     -10.314847      -280.6813
  46   2.0000     -10.314077      -280.6603
  47   2.0000     -10.313220      -280.6370
  48   2.0000     -10.310433      -280.5611
  49   2.0000     -10.309902      -280.5467
  50   2.0000     -10.296912      -280.1932
  51   2.0000     -10.296433      -280.1802
  52   2.0000     -10.295749      -280.1616
  53   2.0000     -10.293449      -280.0990
  54   2.0000      -8.072746      -219.6706
  55   2.0000      -8.072224      -219.6564
  56   2.0000      -8.067734      -219.5342
  57   2.0000      -8.066925      -219.5122
  58   2.0000      -8.066218      -219.4929
  59   2.0000      -8.063231      -219.4117
  60   2.0000      -8.061984      -219.3777
  61   2.0000      -8.061244      -219.3576
  62   2.0000      -6.042445      -164.4233
  63   2.0000      -6.041898      -164.4084
  64   2.0000      -6.038340      -164.3116
  65   2.0000      -6.037844      -164.2981
  66   2.0000      -6.037314      -164.2837
  67   2.0000      -6.036084      -164.2502
  68   2.0000      -6.035392      -164.2314
  69   2.0000      -6.033877      -164.1901
  70   2.0000      -6.033364      -164.1762
  71   2.0000      -6.033257      -164.1733
  72   2.0000      -6.032882      -164.1631
  73   2.0000      -6.032421      -164.1505
  74   2.0000      -6.031794      -164.1335
  75   2.0000      -6.031720      -164.1315
  76   2.0000      -6.030973      -164.1111
  77   2.0000      -6.029207      -164.0631
  78   2.0000      -6.028690      -164.0490
  79   2.0000      -6.028625      -164.0472
  80   2.0000      -6.027858      -164.0263
  81   2.0000      -6.027838      -164.0258
  82   2.0000      -6.027113      -164.0061
  83   2.0000      -6.024691      -163.9402
  84   2.0000      -6.022967      -163.8933
  85   2.0000      -6.022220      -163.8729
  86   2.0000      -1.328404       -36.1477
  87   2.0000      -1.327584       -36.1254
  88   2.0000      -1.253802       -34.1177
  89   2.0000      -1.252409       -34.0798
  90   2.0000      -1.159082       -31.5402
  91   2.0000      -1.158796       -31.5324
  92   2.0000      -1.096236       -29.8301
  93   2.0000      -1.056911       -28.7600
  94   2.0000      -1.048557       -28.5327
  95   2.0000      -1.047649       -28.5080
  96   2.0000      -1.036716       -28.2105
  97   2.0000      -1.036394       -28.2017
  98   2.0000      -1.028172       -27.9780
  99   2.0000      -1.026776       -27.9400
 100   2.0000      -1.013100       -27.5679
 101   2.0000      -1.009483       -27.4694
 102   2.0000      -0.990343       -26.9486
 103   2.0000      -0.988984       -26.9116
 104   2.0000      -0.974674       -26.5222
 105   2.0000      -0.974289       -26.5118
 106   2.0000      -0.937130       -25.5006
 107   2.0000      -0.935154       -25.4468
 108   2.0000      -0.915375       -24.9086
 109   2.0000      -0.887079       -24.1387
 110   2.0000      -0.879524       -23.9331
 111   2.0000      -0.876951       -23.8630
 112   2.0000      -0.866834       -23.5877
 113   2.0000      -0.859749       -23.3950
 114   2.0000      -0.846860       -23.0442
 115   2.0000      -0.844259       -22.9735
 116   2.0000      -0.836997       -22.7758
 117   2.0000      -0.819218       -22.2921
 118   2.0000      -0.812112       -22.0987
 119   2.0000      -0.808908       -22.0115
 120   2.0000      -0.806522       -21.9466
 121   2.0000      -0.800957       -21.7951
 122   2.0000      -0.788783       -21.4639
 123   2.0000      -0.780542       -21.2396
 124   2.0000      -0.757609       -20.6156
 125   2.0000      -0.748652       -20.3718
 126   2.0000      -0.739411       -20.1204
 127   2.0000      -0.719990       -19.5919
 128   2.0000      -0.684713       -18.6320
 129   2.0000      -0.682180       -18.5631
 130   2.0000      -0.675672       -18.3860
 131   2.0000      -0.674306       -18.3488
 132   2.0000      -0.657827       -17.9004
 133   2.0000      -0.657430       -17.8896
 134   2.0000      -0.648778       -17.6541
 135   2.0000      -0.646879       -17.6025
 136   2.0000      -0.646273       -17.5860
 137   2.0000      -0.644019       -17.5247
 138   2.0000      -0.639636       -17.4054
 139   2.0000      -0.624143       -16.9838
 140   2.0000      -0.623336       -16.9618
 141   2.0000      -0.620841       -16.8940
 142   2.0000      -0.604644       -16.4532
 143   2.0000      -0.604348       -16.4452
 144   2.0000      -0.603107       -16.4114
 145   2.0000      -0.598176       -16.2772
 146   2.0000      -0.591925       -16.1071
 147   2.0000      -0.585585       -15.9346
 148   2.0000      -0.576194       -15.6790
 149   2.0000      -0.565882       -15.3984
 150   2.0000      -0.562907       -15.3175
 151   2.0000      -0.560099       -15.2411
 152   2.0000      -0.552750       -15.0411
 153   2.0000      -0.548424       -14.9234
 154   2.0000      -0.544735       -14.8230
 155   2.0000      -0.539330       -14.6759
 156   2.0000      -0.527698       -14.3594
 157   2.0000      -0.524885       -14.2828
 158   2.0000      -0.524306       -14.2671
 159   2.0000      -0.523932       -14.2569
 160   2.0000      -0.508729       -13.8432
 161   2.0000      -0.506286       -13.7767
 162   2.0000      -0.505938       -13.7673
 163   2.0000      -0.501673       -13.6512
 164   2.0000      -0.498976       -13.5778
 165   2.0000      -0.494956       -13.4685
 166   2.0000      -0.493436       -13.4271
 167   2.0000      -0.486371       -13.2348
 168   2.0000      -0.485658       -13.2154
 169   2.0000      -0.482980       -13.1426
 170   2.0000      -0.480853       -13.0847
 171   2.0000      -0.480055       -13.0630
 172   2.0000      -0.479306       -13.0426
 173   2.0000      -0.477729       -12.9997
 174   2.0000      -0.475831       -12.9480
 175   2.0000      -0.474662       -12.9162
 176   2.0000      -0.472311       -12.8522
 177   2.0000      -0.469226       -12.7683
 178   2.0000      -0.466181       -12.6854
 179   2.0000      -0.464329       -12.6350
 180   2.0000      -0.460679       -12.5357
 181   2.0000      -0.458437       -12.4747
 182   2.0000      -0.454361       -12.3638
 183   2.0000      -0.452327       -12.3084
 184   2.0000      -0.451990       -12.2993
 185   2.0000      -0.440427       -11.9846
 186   2.0000      -0.438061       -11.9202
 187   2.0000      -0.433994       -11.8096
 188   2.0000      -0.431513       -11.7421
 189   2.0000      -0.430301       -11.7091
 190   2.0000      -0.425557       -11.5800
 191   2.0000      -0.421174       -11.4607
 192   2.0000      -0.418425       -11.3859
 193   2.0000      -0.412243       -11.2177
 194   2.0000      -0.409935       -11.1549
 195   2.0000      -0.405018       -11.0211
 196   2.0000      -0.402218       -10.9449
 197   2.0000      -0.401174       -10.9165
 198   2.0000      -0.401128       -10.9152
 199   2.0000      -0.395489       -10.7618
 200   2.0000      -0.388822       -10.5804
 201   2.0000      -0.388635       -10.5753
 202   2.0000      -0.379008       -10.3133
 203   2.0000      -0.376954       -10.2574
 204   2.0000      -0.356664        -9.7053
 205   2.0000      -0.349450        -9.5090
 206   2.0000      -0.344872        -9.3844
 207   2.0000      -0.342882        -9.3303
 208   2.0000      -0.330100        -8.9825
 209   2.0000      -0.313384        -8.5276
 210   2.0000      -0.293629        -7.9901
 211   2.0000      -0.292250        -7.9525
 212   2.0000      -0.275046        -7.4844
 213   2.0000      -0.242554        -6.6002
 214   0.0000      -0.085323        -2.3218
 215   0.0000      -0.084150        -2.2898
 216   0.0000      -0.064146        -1.7455
 217   0.0000      -0.050267        -1.3678
 218   0.0000      -0.046879        -1.2756

MULLIKEN ATOMIC CHARGES
-----------------------
   0 O :   -0.128665
   1 N :    0.075677
   2 C :   -0.176361
   3 C :   -0.169570
   4 N :    0.250885
   5 C :    0.034193
   6 C :    0.002009
   7 C :   -0.145977
   8 N :    0.254507
   9 C :    0.206277
  10 O :   -0.153324
  11 O :   -0.236587
  12 C :    0.073146
  13 C :   -0.048119
  14 C :   -0.034980
  15 C :   -0.082391
  16 S :    0.187452
  17 C :   -0.079534
  18 C :   -0.026771
  19 S :    0.168770
  20 C :   -0.033012
  21 C :   -0.041945
  22 S :    0.156356
  23 C :   -0.104239
  24 N :   -0.031870
  25 C :   -0.055262
  26 C :   -0.061397
  27 S :    0.124453
  28 N :   -0.038133
  29 C :   -0.100230
  30 S :    0.113384
  31 C :   -0.047135
  32 C :   -0.051456
  33 C :   -0.027902
  34 C :   -0.090261
  35 S :    0.207515
  36 C :   -0.085247
  37 C :   -0.034459
  38 S :    0.165152
  39 C :   -0.043448
  40 C :    0.070679
  41 S :    0.182443
  42 O :   -0.242692
  43 C :    0.208263
  44 O :   -0.146795
  45 C :    0.032187
  46 C :   -0.186206
  47 N :    0.074237
  48 O :   -0.129456
  49 C :    0.018471
  50 C :   -0.154579
  51 N :    0.249089
  52 C :   -0.166701
  53 N :    0.258016
  54 H :    0.020897
  55 H :    0.001776
  56 H :   -0.002096
  57 H :    0.020964
Sum of atomic charges:    0.0000000

LOEWDIN ATOMIC CHARGES
----------------------
   0 O :    0.080607
   1 N :    0.025271
   2 C :   -0.052461
   3 C :   -0.034259
   4 N :    0.002156
   5 C :   -0.077483
   6 C :    0.041059
   7 C :   -0.039975
   8 N :    0.029076
   9 C :    0.100999
  10 O :   -0.126079
  11 O :   -0.031568
  12 C :   -0.102679
  13 C :   -0.090704
  14 C :   -0.191359
  15 C :   -0.220579
  16 S :    0.439629
  17 C :   -0.211223
  18 C :   -0.194169
  19 S :    0.419058
  20 C :   -0.033690
  21 C :   -0.197962
  22 S :    0.428129
  23 C :   -0.131324
  24 N :   -0.102270
  25 C :   -0.210710
  26 C :   -0.213784
  27 S :    0.404151
  28 N :   -0.107459
  29 C :   -0.130616
  30 S :    0.404392
  31 C :   -0.194335
  32 C :   -0.059074
  33 C :   -0.195518
  34 C :   -0.212890
  35 S :    0.463518
  36 C :   -0.220711
  37 C :   -0.191286
  38 S :    0.415633
  39 C :   -0.090924
  40 C :   -0.102956
  41 S :    0.435998
  42 O :   -0.037462
  43 C :    0.102070
  44 O :   -0.119051
  45 C :   -0.075790
  46 C :   -0.046273
  47 N :    0.025938
  48 O :    0.079113
  49 C :    0.033878
  50 C :   -0.043078
  51 N :    0.019398
  52 C :   -0.032817
  53 N :    0.013306
  54 H :    0.042509
  55 H :    0.041646
  56 H :    0.032455
  57 H :    0.042530

  Mayer bond orders larger than 0.100000
B(  0-O ,  1-N ) :   1.0248 B(  0-O ,  6-C ) :   1.1901 B(  1-N ,  2-C ) :   1.7071
B(  1-N ,  6-C ) :   0.1031 B(  2-C ,  3-C ) :   1.1547 B(  2-C ,  5-C ) :   1.2237
B(  3-C ,  4-N ) :   3.0666 B(  5-C ,  6-C ) :   1.5412 B(  5-C ,  9-C ) :   0.8953
B(  6-C ,  7-C ) :   1.1316 B(  7-C ,  8-N ) :   3.0351 B(  9-C , 10-O ) :   2.1560
B(  9-C , 11-O ) :   1.1675 B( 11-O , 12-C ) :   1.0011 B( 12-C , 13-C ) :   1.5466
B( 12-C , 16-S ) :   1.1126 B( 13-C , 14-C ) :   1.1917 B( 13-C , 54-H ) :   1.0088
B( 14-C , 15-C ) :   1.4864 B( 14-C , 19-S ) :   1.0645 B( 15-C , 16-S ) :   1.0487
B( 15-C , 17-C ) :   1.3295 B( 17-C , 18-C ) :   1.4642 B( 17-C , 22-S ) :   1.0838
B( 18-C , 19-S ) :   1.0487 B( 18-C , 20-C ) :   1.2424 B( 20-C , 21-C ) :   1.5362
B( 20-C , 55-H ) :   1.0123 B( 21-C , 22-S ) :   1.0877 B( 21-C , 23-C ) :   1.1071
B( 23-C , 24-N ) :   1.7392 B( 23-C , 27-S ) :   1.0845 B( 24-N , 25-C ) :   1.3948
B( 25-C , 26-C ) :   1.3104 B( 25-C , 30-S ) :   1.0933 B( 26-C , 27-S ) :   1.0965
B( 26-C , 28-N ) :   1.3948 B( 28-N , 29-C ) :   1.7325 B( 29-C , 30-S ) :   1.0861
B( 29-C , 31-C ) :   1.1486 B( 31-C , 32-C ) :   1.5165 B( 31-C , 35-S ) :   1.0943
B( 32-C , 33-C ) :   1.2827 B( 32-C , 56-H ) :   0.9905 B( 33-C , 34-C ) :   1.4671
B( 33-C , 38-S ) :   1.0513 B( 34-C , 35-S ) :   1.0759 B( 34-C , 36-C ) :   1.3280
B( 36-C , 37-C ) :   1.4900 B( 36-C , 41-S ) :   1.0487 B( 37-C , 38-S ) :   1.0625
B( 37-C , 39-C ) :   1.1935 B( 39-C , 40-C ) :   1.5467 B( 39-C , 57-H ) :   1.0081
B( 40-C , 41-S ) :   1.1132 B( 40-C , 42-O ) :   1.0006 B( 42-O , 43-C ) :   1.1578
B( 43-C , 44-O ) :   2.1617 B( 43-C , 45-C ) :   0.8910 B( 45-C , 46-C ) :   1.2446
B( 45-C , 49-C ) :   1.5221 B( 46-C , 47-N ) :   1.7067 B( 46-C , 52-C ) :   1.1557
B( 47-N , 48-O ) :   1.0237 B( 47-N , 49-C ) :   0.1036 B( 48-O , 49-C ) :   1.1875
B( 49-C , 50-C ) :   1.1308 B( 50-C , 51-N ) :   3.0390 B( 52-C , 53-N ) :   3.0643

-----------------------------------------------------------------------------
         ABSORPTION SPECTRUM VIA TRANSITION ELECTRIC DIPOLE MOMENTS
-----------------------------------------------------------------------------
State   Energy  Wavelength   fosc         T2         TX        TY        TZ
        (cm-1)    (nm)                  (au**2)     (au)      (au)      (au)
-----------------------------------------------------------------------------
   0   21606.6    462.8   1.779022032  27.10629   4.25786   2.96593   0.42450
   1   22979.7    435.2   0.332547269   4.76414  -1.79381  -0.96224  -0.78770
   2   24922.9    401.2   0.484473430   6.39952  -2.11364  -1.37708  -0.18894
   3   29780.9    335.8   0.013097062   0.14478  -0.29231  -0.02667  -0.24212
   4   30163.4    331.5   0.025661729   0.28008   0.10974  -0.10918   0.50608
   5   30624.3    326.5   0.002846342   0.03060  -0.14047  -0.05457  -0.08882
   6   30992.0    322.7   0.057784796   0.61382  -0.32804  -0.52352   0.48180
   7   31422.6    318.2   0.029647236   0.31061  -0.46944  -0.30033  -0.00638
   8   31774.1    314.7   0.024300943   0.25178  -0.37716  -0.30651  -0.12484
   9   32950.7    303.5   0.002233613   0.02232   0.10826   0.09263  -0.04490
  10   33336.0    300.0   0.019091356   0.18854  -0.30040  -0.04625  -0.31009
  11   34244.1    292.0   0.072774973   0.69964   0.29190  -0.26309   0.73838
  12   34625.6    288.8   0.062590733   0.59510  -0.16678  -0.46508   0.59244
  13   38203.7    261.8   0.053641309   0.46224   0.52946   0.19178   0.38096
  14   38716.4    258.3   0.009237568   0.07855   0.19271   0.18968  -0.07369
  15   39435.3    253.6   0.007258542   0.06060  -0.20338  -0.11012  -0.08429
  16   39486.5    253.3   0.046650897   0.38894   0.53502   0.23021   0.22293
  17   39731.5    251.7   0.006620515   0.05486   0.18156   0.01948   0.14668
  18   40103.3    249.4   0.051454175   0.42239   0.35753   0.43969  -0.31818
  19   40273.1    248.3   0.022684931   0.18544   0.12333  -0.16104   0.37986

FINAL SINGLE POINT ENERGY     -5292.983119221852

DIPOLE MOMENT
-------------
                                X             Y             Z
Electronic contribution:     -1.90606       3.80038      -8.61824
Nuclear contribution   :      1.39327      -4.01481       8.62072
                        -----------------------------------------
Total Dipole Moment    :     -0.51279      -0.21443       0.00248
                        -----------------------------------------
Magnitude (a.u.)       :      0.55582
Magnitude (Debye)      :      1.41279

Rotational constants in cm-1:     0.005240     0.000220     0.000211
Rotational constants in MHz :   157.093908     6.580993     6.323442

                             ****ORCA TERMINATED NORMALLY****
TOTAL RUN TIME: 0 days 0 hours 3 minutes 38 seconds 947 msec
