                         Program Version 4.2.0 -  RELEASE  -
|  1> # ORCA input file
|  2> # SCF done       -222.098683557434          0.000967235129
|  3> ! CAM-B3LYP def2-SVP def2/J RIJCOSX Grid4 TightSCF
|  4> %maxcore 5000
|  5> %tddft
|  6>     Mode sTDDFT
|  7>     Ethresh 5.0
|  8>     maxcore 5000
|  9> end
| 10>
| 11> %pal
| 12>   nprocs 6
| 13>   end
| 14> * xyz 0 1
| 15>    C        3.65676         2.51795         3.71773
| 16>    C        4.97851         2.74435         3.98099
| 17>    F        5.43636         3.99698         4.09965
| 18>    C        5.87550         1.66711         4.13134
| 19>    F        7.16522         1.91960         4.38934
| 20>    C        5.43775         0.37759         4.01578
| 21>    C        4.08135         0.11180         3.74500
| 22>    C        3.17281         1.19974         3.59434
| 23>    C        1.80586         0.95732         3.32857
| 24>    C        1.35956        -0.33422         3.22125
| 25>    C        2.27535        -1.41218         3.36550
| 26>    C        3.60167        -1.21032         3.61833
| 27>    C        1.56621        -2.69355         3.18682
| 28>    O        2.07322        -3.79268         3.16933
| 29>    C        0.14325        -2.33331         2.94144
| 30>    C        0.02924        -0.88537         2.98131
| 31>    C       -1.12717        -0.15390         2.90132
| 32>    C       -1.17431         1.25521         2.96763
| 33>    N       -1.27924         2.39719         3.00939
| 34>    C       -2.42969        -0.68465         2.77999
| 35>    N       -3.52186        -1.03185         2.70986
| 36>    C       -0.85773        -3.19396         2.58704
| 37>    C       -0.90107        -4.60584         2.68375
| 38>    C       -1.81449        -5.39002         2.00292
| 39>    C       -1.64486        -6.75071         2.38862
| 40>    C       -0.54591        -6.76284         3.36655
| 41>    C       -0.11108        -5.48749         3.53729
| 42>    C        0.03840        -7.88713         3.96727
| 43>    N        0.57896        -8.77970         4.44566
| 44>    C       -2.38616        -7.83986         1.98205
| 45>    C       -2.35064        -9.14730         2.52787
| 46>    C       -3.24150        -9.95611         1.84110
| 47>    C       -3.86792        -9.14216         0.80654
| 48>    C       -3.38546        -7.87556         0.89859
| 49>    C       -3.75035        -6.81469         0.06144
| 50>    N       -4.06543        -5.96602        -0.64496
| 51>    C       -3.46164       -11.31603         2.16647
| 52>    N       -4.09734       -12.26683         1.40611
| 53>    C       -4.66394       -12.11254         0.09329
| 54>    C       -4.08720       -13.53111         2.02653
| 55>    O       -4.57063       -14.52647         1.52660
| 56>    C       -3.40818       -13.30888         3.28314
| 57>    C       -3.03619       -11.95122         3.34203
| 58>    C       -2.40273       -11.71520         4.62837
| 59>    O       -1.96942       -10.71801         5.15734
| 60>    N       -2.40083       -12.98351         5.24474
| 61>    C       -1.82262       -13.18500         6.54605
| 62>    C       -2.99274       -13.93812         4.46521
| 63>    C       -3.09764       -15.29056         4.86132
| 64>    C       -3.69482       -16.24065         4.09257
| 65>    C       -3.78341       -17.60868         4.44839
| 66>    S       -4.62490       -18.68340         3.35716
| 67>    C       -4.35517       -20.08385         4.36404
| 68>    C       -3.60153       -19.71823         5.46945
| 69>    C       -3.30131       -18.33248         5.53404
| 70>    C       -2.51736       -18.04523         6.74040
| 71>    O       -2.05882       -16.98978         7.11009
| 72>    C       -2.37261       -19.36460         7.47371
| 73>    C       -2.88262       -20.43450         6.53079
| 74>    O       -2.67386       -21.62147         6.62375
| 75>    C       -4.91369       -21.33999         3.98584
| 76>    C       -5.27063       -22.32454         4.84833
| 77>    C       -5.27447       -22.11396         6.25415
| 78>    C       -4.99319       -22.93649         7.29695
| 79>    C       -4.60295       -22.25821         8.57004
| 80>    O       -4.80333       -21.09806         8.85410
| 81>    C       -3.83092       -23.25569         9.32476
| 82>    C       -3.14360       -23.09913        10.49436
| 83>    C       -2.41025       -24.18987        11.01093
| 84>    C       -2.39422       -25.42202        10.29449
| 85>    C       -1.64975       -26.50318        10.80796
| 86>    C       -0.95711       -26.36863        11.97843
| 87>    C       -0.97582       -25.15012        12.68730
| 88>    C       -1.68677       -24.08277        12.21485
| 89>    F       -0.28743       -25.04660        13.83131
| 90>    F       -0.25115       -27.39658        12.46509
| 91>    C       -3.11658       -25.55394         9.08670
| 92>    C       -3.83389       -24.48806         8.61178
| 93>    C       -4.66704       -24.34315         7.42029
| 94>    C       -5.16857       -25.38057         6.68335
| 95>    C       -6.13504       -25.23751         5.66850
| 96>    N       -6.94218       -25.17015         4.85509
| 97>    C       -4.84569       -26.73657         6.90826
| 98>    N       -4.61622       -27.85321         7.03792
| 99>    H        2.98387         3.35393         3.60705
|100>    H        6.13624        -0.43609         4.13313
|101>    H        1.14694         1.80265         3.21485
|102>    H        4.27324        -2.04891         3.72296
|103>    H       -1.75612        -2.76111         2.16158
|104>    H       -2.54811        -5.03551         1.30434
|105>    H        0.67594        -5.17491         4.19376
|106>    H       -1.74556        -9.44489         3.36102
|107>    H       -4.61278        -9.46760         0.10708
|108>    H       -3.94964       -11.64871        -0.58790
|109>    H       -5.58419       -11.52585         0.12685
|110>    H       -4.90500       -13.11505        -0.26323
|111>    H       -1.40020       -12.22972         6.85617
|112>    H       -1.03337       -13.93625         6.51075
|113>    H       -2.57983       -13.49664         7.26685
|114>    H       -2.66634       -15.56290         5.81344
|115>    H       -4.13445       -15.96536         3.14173
|116>    H       -3.01401       -19.36049         8.36164
|117>    H       -1.35272       -19.54561         7.81476
|118>    H       -5.04957       -21.49492         2.92401
|119>    H       -5.57164       -23.27783         4.44297
|120>    H       -5.39519       -21.07563         6.55811
|121>    H       -3.15725       -22.15558        11.01849
|122>    H       -1.62673       -27.44353        10.27973
|123>    H       -1.69011       -23.15729        12.76913
|124>    H       -3.07258       -26.49353         8.55972
|125> *
|126>
|127>                          ****END OF INPUT****

CARTESIAN COORDINATES (ANGSTROEM)
---------------------------------
  C      3.656760    2.517950    3.717730
  C      4.978510    2.744350    3.980990
  F      5.436360    3.996980    4.099650
  C      5.875500    1.667110    4.131340
  F      7.165220    1.919600    4.389340
  C      5.437750    0.377590    4.015780
  C      4.081350    0.111800    3.745000
  C      3.172810    1.199740    3.594340
  C      1.805860    0.957320    3.328570
  C      1.359560   -0.334220    3.221250
  C      2.275350   -1.412180    3.365500
  C      3.601670   -1.210320    3.618330
  C      1.566210   -2.693550    3.186820
  O      2.073220   -3.792680    3.169330
  C      0.143250   -2.333310    2.941440
  C      0.029240   -0.885370    2.981310
  C     -1.127170   -0.153900    2.901320
  C     -1.174310    1.255210    2.967630
  N     -1.279240    2.397190    3.009390
  C     -2.429690   -0.684650    2.779990
  N     -3.521860   -1.031850    2.709860
  C     -0.857730   -3.193960    2.587040
  C     -0.901070   -4.605840    2.683750
  C     -1.814490   -5.390020    2.002920
  C     -1.644860   -6.750710    2.388620
  C     -0.545910   -6.762840    3.366550
  C     -0.111080   -5.487490    3.537290
  C      0.038400   -7.887130    3.967270
  N      0.578960   -8.779700    4.445660
  C     -2.386160   -7.839860    1.982050
  C     -2.350640   -9.147300    2.527870
  C     -3.241500   -9.956110    1.841100
  C     -3.867920   -9.142160    0.806540
  C     -3.385460   -7.875560    0.898590
  C     -3.750350   -6.814690    0.061440
  N     -4.065430   -5.966020   -0.644960
  C     -3.461640  -11.316030    2.166470
  N     -4.097340  -12.266830    1.406110
  C     -4.663940  -12.112540    0.093290
  C     -4.087200  -13.531110    2.026530
  O     -4.570630  -14.526470    1.526600
  C     -3.408180  -13.308880    3.283140
  C     -3.036190  -11.951220    3.342030
  C     -2.402730  -11.715200    4.628370
  O     -1.969420  -10.718010    5.157340
  N     -2.400830  -12.983510    5.244740
  C     -1.822620  -13.185000    6.546050
  C     -2.992740  -13.938120    4.465210
  C     -3.097640  -15.290560    4.861320
  C     -3.694820  -16.240650    4.092570
  C     -3.783410  -17.608680    4.448390
  S     -4.624900  -18.683400    3.357160
  C     -4.355170  -20.083850    4.364040
  C     -3.601530  -19.718230    5.469450
  C     -3.301310  -18.332480    5.534040
  C     -2.517360  -18.045230    6.740400
  O     -2.058820  -16.989780    7.110090
  C     -2.372610  -19.364600    7.473710
  C     -2.882620  -20.434500    6.530790
  O     -2.673860  -21.621470    6.623750
  C     -4.913690  -21.339990    3.985840
  C     -5.270630  -22.324540    4.848330
  C     -5.274470  -22.113960    6.254150
  C     -4.993190  -22.936490    7.296950
  C     -4.602950  -22.258210    8.570040
  O     -4.803330  -21.098060    8.854100
  C     -3.830920  -23.255690    9.324760
  C     -3.143600  -23.099130   10.494360
  C     -2.410250  -24.189870   11.010930
  C     -2.394220  -25.422020   10.294490
  C     -1.649750  -26.503180   10.807960
  C     -0.957110  -26.368630   11.978430
  C     -0.975820  -25.150120   12.687300
  C     -1.686770  -24.082770   12.214850
  F     -0.287430  -25.046600   13.831310
  F     -0.251150  -27.396580   12.465090
  C     -3.116580  -25.553940    9.086700
  C     -3.833890  -24.488060    8.611780
  C     -4.667040  -24.343150    7.420290
  C     -5.168570  -25.380570    6.683350
  C     -6.135040  -25.237510    5.668500
  N     -6.942180  -25.170150    4.855090
  C     -4.845690  -26.736570    6.908260
  N     -4.616220  -27.853210    7.037920
  H      2.983870    3.353930    3.607050
  H      6.136240   -0.436090    4.133130
  H      1.146940    1.802650    3.214850
  H      4.273240   -2.048910    3.722960
  H     -1.756120   -2.761110    2.161580
  H     -2.548110   -5.035510    1.304340
  H      0.675940   -5.174910    4.193760
  H     -1.745560   -9.444890    3.361020
  H     -4.612780   -9.467600    0.107080
  H     -3.949640  -11.648710   -0.587900
  H     -5.584190  -11.525850    0.126850
  H     -4.905000  -13.115050   -0.263230
  H     -1.400200  -12.229720    6.856170
  H     -1.033370  -13.936250    6.510750
  H     -2.579830  -13.496640    7.266850
  H     -2.666340  -15.562900    5.813440
  H     -4.134450  -15.965360    3.141730
  H     -3.014010  -19.360490    8.361640
  H     -1.352720  -19.545610    7.814760
  H     -5.049570  -21.494920    2.924010
  H     -5.571640  -23.277830    4.442970
  H     -5.395190  -21.075630    6.558110
  H     -3.157250  -22.155580   11.018490
  H     -1.626730  -27.443530   10.279730
  H     -1.690110  -23.157290   12.769130
  H     -3.072580  -26.493530    8.559720

 Total Charge           Charge          ....    0
 Multiplicity           Mult            ....    1
 Number of Electrons    NEL             ....  572
 Basis Dimension        Dim             .... 1310

ORBITAL ENERGIES
----------------

  NO   OCC          E(Eh)            E(eV)
   0   2.0000     -88.997840     -2421.7543
   1   2.0000     -24.802745      -674.9170
   2   2.0000     -24.802713      -674.9161
   3   2.0000     -24.801960      -674.8956
   4   2.0000     -24.801750      -674.8899
   5   2.0000     -19.235750      -523.4314
   6   2.0000     -19.232185      -523.3344
   7   2.0000     -19.228788      -523.2419
   8   2.0000     -19.227394      -523.2040
   9   2.0000     -19.208749      -522.6966
  10   2.0000     -19.207995      -522.6761
  11   2.0000     -14.473795      -393.8520
  12   2.0000     -14.470213      -393.7545
  13   2.0000     -14.425285      -392.5320
  14   2.0000     -14.423989      -392.4967
  15   2.0000     -14.423710      -392.4891
  16   2.0000     -14.423355      -392.4794
  17   2.0000     -14.417919      -392.3315
  18   2.0000     -14.402548      -391.9133
  19   2.0000     -10.390800      -282.7480
  20   2.0000     -10.390518      -282.7404
  21   2.0000     -10.389226      -282.7052
  22   2.0000     -10.386624      -282.6344
  23   2.0000     -10.386174      -282.6222
  24   2.0000     -10.385980      -282.6169
  25   2.0000     -10.385565      -282.6056
  26   2.0000     -10.385139      -282.5940
  27   2.0000     -10.380298      -282.4623
  28   2.0000     -10.377265      -282.3797
  29   2.0000     -10.357231      -281.8346
  30   2.0000     -10.356915      -281.8260
  31   2.0000     -10.353353      -281.7291
  32   2.0000     -10.353019      -281.7200
  33   2.0000     -10.351280      -281.6726
  34   2.0000     -10.350361      -281.6477
  35   2.0000     -10.350050      -281.6392
  36   2.0000     -10.349927      -281.6358
  37   2.0000     -10.333034      -281.1761
  38   2.0000     -10.332032      -281.1489
  39   2.0000     -10.329911      -281.0912
  40   2.0000     -10.327681      -281.0305
  41   2.0000     -10.327215      -281.0178
  42   2.0000     -10.326062      -280.9864
  43   2.0000     -10.325696      -280.9765
  44   2.0000     -10.325645      -280.9751
  45   2.0000     -10.323333      -280.9122
  46   2.0000     -10.322689      -280.8946
  47   2.0000     -10.322371      -280.8860
  48   2.0000     -10.321470      -280.8615
  49   2.0000     -10.319800      -280.8160
  50   2.0000     -10.319317      -280.8029
  51   2.0000     -10.316475      -280.7256
  52   2.0000     -10.316215      -280.7185
  53   2.0000     -10.316072      -280.7146
  54   2.0000     -10.315809      -280.7074
  55   2.0000     -10.315548      -280.7003
  56   2.0000     -10.315020      -280.6860
  57   2.0000     -10.314389      -280.6688
  58   2.0000     -10.314334      -280.6673
  59   2.0000     -10.314078      -280.6603
  60   2.0000     -10.313635      -280.6483
  61   2.0000     -10.313622      -280.6479
  62   2.0000     -10.312767      -280.6247
  63   2.0000     -10.310380      -280.5597
  64   2.0000     -10.309130      -280.5257
  65   2.0000     -10.308964      -280.5212
  66   2.0000     -10.308881      -280.5189
  67   2.0000     -10.308696      -280.5139
  68   2.0000     -10.307973      -280.4942
  69   2.0000     -10.307911      -280.4925
  70   2.0000     -10.307724      -280.4874
  71   2.0000     -10.306674      -280.4589
  72   2.0000     -10.306179      -280.4454
  73   2.0000     -10.305987      -280.4402
  74   2.0000     -10.305394      -280.4240
  75   2.0000     -10.304907      -280.4108
  76   2.0000     -10.304530      -280.4005
  77   2.0000     -10.303771      -280.3799
  78   2.0000     -10.299984      -280.2768
  79   2.0000     -10.299730      -280.2699
  80   2.0000     -10.292995      -280.0866
  81   2.0000     -10.292183      -280.0645
  82   2.0000     -10.284590      -279.8579
  83   2.0000     -10.280246      -279.7397
  84   2.0000      -8.093375      -220.2319
  85   2.0000      -6.062455      -164.9678
  86   2.0000      -6.058213      -164.8524
  87   2.0000      -6.055882      -164.7889
  88   2.0000      -1.325466       -36.0678
  89   2.0000      -1.325455       -36.0675
  90   2.0000      -1.310588       -35.6629
  91   2.0000      -1.310550       -35.6619
  92   2.0000      -1.153647       -31.3923
  93   2.0000      -1.151313       -31.3288
  94   2.0000      -1.148845       -31.2617
  95   2.0000      -1.144963       -31.1560
  96   2.0000      -1.144749       -31.1502
  97   2.0000      -1.140976       -31.0475
  98   2.0000      -1.081476       -29.4284
  99   2.0000      -1.072631       -29.1878
 100   2.0000      -1.029535       -28.0151
 101   2.0000      -1.027956       -27.9721
 102   2.0000      -1.027443       -27.9581
 103   2.0000      -1.024018       -27.8649
 104   2.0000      -1.011158       -27.5150
 105   2.0000      -1.010942       -27.5091
 106   2.0000      -1.005940       -27.3730
 107   2.0000      -1.003161       -27.2974
 108   2.0000      -1.001773       -27.2596
 109   2.0000      -0.992306       -27.0020
 110   2.0000      -0.988353       -26.8944
 111   2.0000      -0.987612       -26.8743
 112   2.0000      -0.980969       -26.6935
 113   2.0000      -0.951099       -25.8807
 114   2.0000      -0.945991       -25.7417
 115   2.0000      -0.939540       -25.5662
 116   2.0000      -0.937967       -25.5234
 117   2.0000      -0.935222       -25.4487
 118   2.0000      -0.919589       -25.0233
 119   2.0000      -0.915694       -24.9173
 120   2.0000      -0.904094       -24.6017
 121   2.0000      -0.900042       -24.4914
 122   2.0000      -0.897640       -24.4260
 123   2.0000      -0.895194       -24.3595
 124   2.0000      -0.886618       -24.1261
 125   2.0000      -0.875502       -23.8236
 126   2.0000      -0.865383       -23.5483
 127   2.0000      -0.856646       -23.3105
 128   2.0000      -0.849369       -23.1125
 129   2.0000      -0.847532       -23.0625
 130   2.0000      -0.846582       -23.0367
 131   2.0000      -0.846176       -23.0256
 132   2.0000      -0.840082       -22.8598
 133   2.0000      -0.823723       -22.4146
 134   2.0000      -0.810114       -22.0443
 135   2.0000      -0.801878       -21.8202
 136   2.0000      -0.793643       -21.5961
 137   2.0000      -0.778940       -21.1960
 138   2.0000      -0.775129       -21.0923
 139   2.0000      -0.774533       -21.0761
 140   2.0000      -0.773094       -21.0370
 141   2.0000      -0.756439       -20.5837
 142   2.0000      -0.747274       -20.3344
 143   2.0000      -0.738919       -20.1070
 144   2.0000      -0.730395       -19.8751
 145   2.0000      -0.726745       -19.7757
 146   2.0000      -0.726304       -19.7637
 147   2.0000      -0.723900       -19.6983
 148   2.0000      -0.716763       -19.5041
 149   2.0000      -0.715464       -19.4688
 150   2.0000      -0.708051       -19.2670
 151   2.0000      -0.697641       -18.9838
 152   2.0000      -0.695335       -18.9210
 153   2.0000      -0.691712       -18.8224
 154   2.0000      -0.690444       -18.7879
 155   2.0000      -0.682640       -18.5756
 156   2.0000      -0.678293       -18.4573
 157   2.0000      -0.673953       -18.3392
 158   2.0000      -0.667996       -18.1771
 159   2.0000      -0.663085       -18.0435
 160   2.0000      -0.661501       -18.0003
 161   2.0000      -0.651708       -17.7339
 162   2.0000      -0.650163       -17.6918
 163   2.0000      -0.647360       -17.6156
 164   2.0000      -0.646401       -17.5895
 165   2.0000      -0.635881       -17.3032
 166   2.0000      -0.630690       -17.1619
 167   2.0000      -0.622175       -16.9302
 168   2.0000      -0.619088       -16.8462
 169   2.0000      -0.617544       -16.8042
 170   2.0000      -0.608229       -16.5508
 171   2.0000      -0.603374       -16.4186
 172   2.0000      -0.601096       -16.3567
 173   2.0000      -0.599337       -16.3088
 174   2.0000      -0.591494       -16.0954
 175   2.0000      -0.589973       -16.0540
 176   2.0000      -0.589804       -16.0494
 177   2.0000      -0.589271       -16.0349
 178   2.0000      -0.587076       -15.9751
 179   2.0000      -0.583493       -15.8777
 180   2.0000      -0.582999       -15.8642
 181   2.0000      -0.578478       -15.7412
 182   2.0000      -0.577290       -15.7089
 183   2.0000      -0.574091       -15.6218
 184   2.0000      -0.572523       -15.5791
 185   2.0000      -0.569428       -15.4949
 186   2.0000      -0.567358       -15.4386
 187   2.0000      -0.563171       -15.3247
 188   2.0000      -0.559206       -15.2168
 189   2.0000      -0.558854       -15.2072
 190   2.0000      -0.553577       -15.0636
 191   2.0000      -0.551406       -15.0045
 192   2.0000      -0.551385       -15.0039
 193   2.0000      -0.549020       -14.9396
 194   2.0000      -0.548003       -14.9119
 195   2.0000      -0.545819       -14.8525
 196   2.0000      -0.541397       -14.7322
 197   2.0000      -0.539052       -14.6683
 198   2.0000      -0.537695       -14.6314
 199   2.0000      -0.536875       -14.6091
 200   2.0000      -0.535524       -14.5724
 201   2.0000      -0.531964       -14.4755
 202   2.0000      -0.530507       -14.4358
 203   2.0000      -0.529082       -14.3970
 204   2.0000      -0.528162       -14.3720
 205   2.0000      -0.527311       -14.3489
 206   2.0000      -0.526324       -14.3220
 207   2.0000      -0.524983       -14.2855
 208   2.0000      -0.523932       -14.2569
 209   2.0000      -0.519274       -14.1302
 210   2.0000      -0.518633       -14.1127
 211   2.0000      -0.514103       -13.9894
 212   2.0000      -0.512259       -13.9393
 213   2.0000      -0.509950       -13.8765
 214   2.0000      -0.508479       -13.8364
 215   2.0000      -0.507712       -13.8156
 216   2.0000      -0.505710       -13.7611
 217   2.0000      -0.503198       -13.6927
 218   2.0000      -0.502927       -13.6854
 219   2.0000      -0.499000       -13.5785
 220   2.0000      -0.498025       -13.5519
 221   2.0000      -0.495781       -13.4909
 222   2.0000      -0.494089       -13.4448
 223   2.0000      -0.493134       -13.4188
 224   2.0000      -0.489745       -13.3266
 225   2.0000      -0.486456       -13.2371
 226   2.0000      -0.485219       -13.2035
 227   2.0000      -0.482402       -13.1268
 228   2.0000      -0.481026       -13.0894
 229   2.0000      -0.479495       -13.0477
 230   2.0000      -0.476003       -12.9527
 231   2.0000      -0.474956       -12.9242
 232   2.0000      -0.472856       -12.8671
 233   2.0000      -0.469929       -12.7874
 234   2.0000      -0.468742       -12.7551
 235   2.0000      -0.467791       -12.7292
 236   2.0000      -0.466372       -12.6906
 237   2.0000      -0.458262       -12.4699
 238   2.0000      -0.457649       -12.4533
 239   2.0000      -0.455950       -12.4070
 240   2.0000      -0.454293       -12.3619
 241   2.0000      -0.452768       -12.3205
 242   2.0000      -0.452313       -12.3081
 243   2.0000      -0.452133       -12.3032
 244   2.0000      -0.450667       -12.2633
 245   2.0000      -0.449369       -12.2279
 246   2.0000      -0.446300       -12.1444
 247   2.0000      -0.445464       -12.1217
 248   2.0000      -0.439385       -11.9563
 249   2.0000      -0.436327       -11.8731
 250   2.0000      -0.436219       -11.8701
 251   2.0000      -0.434198       -11.8151
 252   2.0000      -0.432625       -11.7723
 253   2.0000      -0.431755       -11.7487
 254   2.0000      -0.430492       -11.7143
 255   2.0000      -0.429641       -11.6911
 256   2.0000      -0.423521       -11.5246
 257   2.0000      -0.421135       -11.4597
 258   2.0000      -0.419966       -11.4279
 259   2.0000      -0.418147       -11.3783
 260   2.0000      -0.415899       -11.3172
 261   2.0000      -0.403304       -10.9745
 262   2.0000      -0.400337       -10.8937
 263   2.0000      -0.399259       -10.8644
 264   2.0000      -0.391561       -10.6549
 265   2.0000      -0.390771       -10.6334
 266   2.0000      -0.377314       -10.2672
 267   2.0000      -0.366627        -9.9764
 268   2.0000      -0.365571        -9.9477
 269   2.0000      -0.364533        -9.9194
 270   2.0000      -0.361639        -9.8407
 271   2.0000      -0.353020        -9.6062
 272   2.0000      -0.352009        -9.5786
 273   2.0000      -0.349618        -9.5136
 274   2.0000      -0.342599        -9.3226
 275   2.0000      -0.334565        -9.1040
 276   2.0000      -0.334080        -9.0908
 277   2.0000      -0.330275        -8.9872
 278   2.0000      -0.323362        -8.7991
 279   2.0000      -0.322890        -8.7863
 280   2.0000      -0.322670        -8.7803
 281   2.0000      -0.309859        -8.4317
 282   2.0000      -0.308356        -8.3908
 283   2.0000      -0.299752        -8.1567
 284   2.0000      -0.296901        -8.0791
 285   2.0000      -0.249719        -6.7952
 286   0.0000      -0.146950        -3.9987
 287   0.0000      -0.110795        -3.0149
 288   0.0000      -0.092509        -2.5173
 289   0.0000      -0.085518        -2.3271
 290   0.0000      -0.065984        -1.7955

MULLIKEN ATOMIC CHARGES
-----------------------
   0 C :   -0.108107
   1 C :    0.243027
   2 F :   -0.169546
   3 C :    0.239359
   4 F :   -0.169729
   5 C :   -0.103737
   6 C :    0.116066
   7 C :    0.114946
   8 C :   -0.082794
   9 C :    0.054595
  10 C :   -0.011967
  11 C :   -0.076872
  12 C :    0.146943
  13 O :   -0.143385
  14 C :   -0.078206
  15 C :    0.312349
  16 C :   -0.334260
  17 C :   -0.182588
  18 N :    0.152655
  19 C :   -0.201180
  20 N :    0.167846
  21 C :   -0.033322
  22 C :    0.089026
  23 C :   -0.076965
  24 C :    0.105133
  25 C :   -0.110820
  26 C :    0.045121
  27 C :   -0.182517
  28 N :    0.152049
  29 C :    0.131292
  30 C :   -0.118715
  31 C :    0.047010
  32 C :   -0.029405
  33 C :   -0.087759
  34 C :   -0.185460
  35 N :    0.150022
  36 C :    0.149075
  37 N :   -0.268442
  38 C :    0.115435
  39 C :    0.160806
  40 O :   -0.203451
  41 C :   -0.071694
  42 C :   -0.058383
  43 C :    0.159141
  44 O :   -0.164371
  45 N :   -0.264549
  46 C :    0.118337
  47 C :    0.143484
  48 C :   -0.023107
  49 C :    0.074915
  50 C :   -0.144931
  51 S :    0.208505
  52 C :   -0.149326
  53 C :    0.017572
  54 C :    0.016774
  55 C :    0.038940
  56 O :   -0.156275
  57 C :    0.085525
  58 C :    0.024061
  59 O :   -0.164943
  60 C :    0.047481
  61 C :    0.038260
  62 C :    0.033508
  63 C :   -0.070180
  64 C :    0.143026
  65 O :   -0.172295
  66 C :    0.026549
  67 C :   -0.086265
  68 C :    0.116131
  69 C :    0.113750
  70 C :   -0.107302
  71 C :    0.243632
  72 C :    0.239835
  73 C :   -0.106329
  74 F :   -0.170187
  75 F :   -0.169259
  76 C :   -0.082435
  77 C :    0.044352
  78 C :    0.282317
  79 C :   -0.319322
  80 C :   -0.187561
  81 N :    0.156835
  82 C :   -0.180161
  83 N :    0.155966
  84 H :    0.010164
  85 H :    0.002083
  86 H :   -0.005065
  87 H :   -0.006659
  88 H :    0.032207
  89 H :    0.020103
  90 H :    0.010981
  91 H :    0.030451
  92 H :   -0.010215
  93 H :    0.040477
  94 H :    0.043933
  95 H :    0.063154
  96 H :    0.066987
  97 H :    0.051071
  98 H :    0.042117
  99 H :   -0.013739
 100 H :    0.003608
 101 H :    0.089080
 102 H :    0.053490
 103 H :    0.020289
 104 H :    0.018172
 105 H :    0.031804
 106 H :   -0.013540
 107 H :    0.007683
 108 H :   -0.000429
 109 H :   -0.001758
Sum of atomic charges:   -0.0000000

LOEWDIN ATOMIC CHARGES
----------------------
   0 C :   -0.028813
   1 C :    0.068354
   2 F :   -0.047146
   3 C :    0.068986
   4 F :   -0.047540
   5 C :   -0.032220
   6 C :   -0.008068
   7 C :   -0.005168
   8 C :    0.018570
   9 C :   -0.023334
  10 C :   -0.054502
  11 C :    0.033014
  12 C :    0.084216
  13 O :   -0.132543
  14 C :   -0.081570
  15 C :    0.071927
  16 C :   -0.128832
  17 C :   -0.016663
  18 N :   -0.046539
  19 C :   -0.025661
  20 N :   -0.039919
  21 C :    0.074668
  22 C :   -0.026472
  23 C :    0.023979
  24 C :    0.037935
  25 C :   -0.088034
  26 C :    0.071679
  27 C :   -0.034183
  28 N :   -0.049894
  29 C :    0.041105
  30 C :    0.008814
  31 C :   -0.030040
  32 C :    0.047248
  33 C :   -0.075938
  34 C :   -0.034074
  35 N :   -0.053896
  36 C :    0.067290
  37 N :   -0.005861
  38 C :    0.029001
  39 C :    0.080179
  40 O :   -0.197742
  41 C :   -0.118036
  42 C :   -0.093438
  43 C :    0.084656
  44 O :   -0.158164
  45 N :    0.001734
  46 C :    0.031908
  47 C :    0.083952
  48 C :   -0.019322
  49 C :    0.000649
  50 C :   -0.129543
  51 S :    0.500573
  52 C :   -0.143741
  53 C :   -0.084293
  54 C :   -0.089329
  55 C :    0.087745
  56 O :   -0.134598
  57 C :   -0.064310
  58 C :    0.082518
  59 O :   -0.132008
  60 C :   -0.008313
  61 C :   -0.001431
  62 C :    0.067654
  63 C :   -0.071298
  64 C :    0.092307
  65 O :   -0.157300
  66 C :   -0.049713
  67 C :    0.031430
  68 C :   -0.008417
  69 C :   -0.004489
  70 C :   -0.029080
  71 C :    0.067833
  72 C :    0.067967
  73 C :   -0.033168
  74 F :   -0.048118
  75 F :   -0.047182
  76 C :    0.017903
  77 C :   -0.015167
  78 C :    0.078020
  79 C :   -0.130267
  80 C :   -0.015508
  81 N :   -0.046486
  82 C :   -0.018424
  83 N :   -0.045554
  84 H :    0.048533
  85 H :    0.045752
  86 H :    0.040376
  87 H :    0.041482
  88 H :    0.052436
  89 H :    0.040784
  90 H :    0.037720
  91 H :    0.039087
  92 H :    0.035963
  93 H :    0.029383
  94 H :    0.026784
  95 H :    0.043724
  96 H :    0.045043
  97 H :    0.034129
  98 H :    0.031263
  99 H :    0.032112
 100 H :    0.036148
 101 H :    0.071876
 102 H :    0.055992
 103 H :    0.042205
 104 H :    0.042019
 105 H :    0.042522
 106 H :    0.039122
 107 H :    0.047966
 108 H :    0.044748
 109 H :    0.040366

  Mayer bond orders larger than 0.100000
B(  0-C ,  1-C ) :   1.4422 B(  0-C ,  5-C ) :   0.1081 B(  0-C ,  7-C ) :   1.1878
B(  0-C , 84-H ) :   1.0069 B(  1-C ,  2-F ) :   1.1365 B(  1-C ,  3-C ) :   1.1888
B(  3-C ,  4-F ) :   1.1354 B(  3-C ,  5-C ) :   1.4447 B(  5-C ,  6-C ) :   1.1916
B(  5-C , 85-H ) :   1.0069 B(  6-C ,  7-C ) :   1.2526 B(  6-C , 11-C ) :   1.1923
B(  7-C ,  8-C ) :   1.2203 B(  8-C ,  9-C ) :   1.4467 B(  8-C , 86-H ) :   0.9897
B(  9-C , 10-C ) :   1.2192 B(  9-C , 15-C ) :   0.9874 B( 10-C , 11-C ) :   1.4684
B( 10-C , 12-C ) :   0.9407 B( 11-C , 87-H ) :   1.0163 B( 12-C , 13-O ) :   2.2203
B( 12-C , 14-C ) :   0.9335 B( 14-C , 15-C ) :   1.0593 B( 14-C , 21-C ) :   1.5789
B( 15-C , 16-C ) :   1.6419 B( 16-C , 17-C ) :   1.1470 B( 16-C , 19-C ) :   1.1382
B( 17-C , 18-N ) :   2.9612 B( 19-C , 20-N ) :   2.9846 B( 21-C , 22-C ) :   1.1395
B( 21-C , 88-H ) :   0.9463 B( 22-C , 23-C ) :   1.4854 B( 22-C , 26-C ) :   1.0520
B( 23-C , 24-C ) :   1.1092 B( 23-C , 89-H ) :   1.0089 B( 24-C , 25-C ) :   1.1187
B( 24-C , 29-C ) :   1.3840 B( 25-C , 26-C ) :   1.6673 B( 25-C , 27-C ) :   1.0915
B( 26-C , 90-H ) :   1.0092 B( 27-C , 28-N ) :   2.9949 B( 29-C , 30-C ) :   1.1319
B( 29-C , 33-C ) :   1.0966 B( 30-C , 31-C ) :   1.5254 B( 30-C , 91-H ) :   0.9887
B( 31-C , 32-C ) :   1.0206 B( 31-C , 36-C ) :   1.0690 B( 32-C , 33-C ) :   1.6691
B( 32-C , 92-H ) :   1.0268 B( 33-C , 34-C ) :   1.0833 B( 34-C , 35-N ) :   2.9763
B( 36-C , 37-N ) :   1.1978 B( 36-C , 42-C ) :   1.3545 B( 37-N , 38-C ) :   0.9607
B( 37-N , 39-C ) :   1.0495 B( 38-C , 93-H ) :   0.9709 B( 38-C , 94-H ) :   0.9704
B( 38-C , 95-H ) :   0.9455 B( 39-C , 40-O ) :   2.0399 B( 39-C , 41-C ) :   0.9953
B( 40-O ,100-H ) :   0.1076 B( 41-C , 42-C ) :   1.2774 B( 41-C , 47-C ) :   1.2738
B( 42-C , 43-C ) :   0.9649 B( 43-C , 44-O ) :   2.1022 B( 43-C , 45-N ) :   1.0380
B( 45-N , 46-C ) :   0.9543 B( 45-N , 47-C ) :   1.1976 B( 46-C , 96-H ) :   0.9504
B( 46-C , 97-H ) :   0.9695 B( 46-C , 98-H ) :   0.9726 B( 47-C , 48-C ) :   1.1801
B( 48-C , 49-C ) :   1.5937 B( 48-C , 99-H ) :   0.9291 B( 49-C , 50-C ) :   1.1581
B( 49-C ,100-H ) :   0.9331 B( 50-C , 51-S ) :   1.1633 B( 50-C , 54-C ) :   1.4266
B( 51-S , 52-C ) :   1.1429 B( 52-C , 53-C ) :   1.4425 B( 52-C , 60-C ) :   1.1196
B( 53-C , 54-C ) :   1.2276 B( 53-C , 58-C ) :   0.9439 B( 54-C , 55-C ) :   0.9495
B( 55-C , 56-O ) :   2.1269 B( 55-C , 57-C ) :   1.0070 B( 56-O , 99-H ) :   0.1205
B( 57-C , 58-C ) :   0.9904 B( 57-C ,101-H ) :   0.8831 B( 57-C ,102-H ) :   0.9008
B( 58-C , 59-O ) :   2.1679 B( 60-C , 61-C ) :   1.7390 B( 60-C ,103-H ) :   0.9559
B( 61-C , 62-C ) :   1.1168 B( 61-C ,104-H ) :   0.9490 B( 62-C , 63-C ) :   1.7264
B( 62-C ,105-H ) :   0.8931 B( 63-C , 64-C ) :   0.9515 B( 63-C , 78-C ) :   1.0059
B( 64-C , 65-O ) :   2.1702 B( 64-C , 66-C ) :   0.9356 B( 66-C , 67-C ) :   1.4696
B( 66-C , 77-C ) :   1.2185 B( 67-C , 68-C ) :   1.1953 B( 67-C ,106-H ) :   1.0165
B( 68-C , 69-C ) :   1.2557 B( 68-C , 73-C ) :   1.1906 B( 69-C , 70-C ) :   1.1898
B( 69-C , 76-C ) :   1.2175 B( 70-C , 71-C ) :   1.4414 B( 70-C , 73-C ) :   0.1086
B( 70-C ,107-H ) :   1.0066 B( 71-C , 72-C ) :   1.1903 B( 71-C , 75-F ) :   1.1364
B( 72-C , 73-C ) :   1.4444 B( 72-C , 74-F ) :   1.1349 B( 73-C ,108-H ) :   1.0068
B( 76-C , 77-C ) :   1.4542 B( 76-C ,109-H ) :   0.9911 B( 77-C , 78-C ) :   1.0094
B( 78-C , 79-C ) :   1.6658 B( 79-C , 80-C ) :   1.1728 B( 79-C , 82-C ) :   1.1213
B( 80-C , 81-N ) :   2.9599 B( 82-C , 83-N ) :   2.9832

-----------------------------------------------------------------------------
         ABSORPTION SPECTRUM VIA TRANSITION ELECTRIC DIPOLE MOMENTS
-----------------------------------------------------------------------------
State   Energy  Wavelength   fosc         T2         TX        TY        TZ
        (cm-1)    (nm)                  (au**2)     (au)      (au)      (au)
-----------------------------------------------------------------------------
   0    7635.7   1309.6   0.573387608  24.72137  -1.13229  -4.75016   0.93555
   1   15698.2    637.0   0.051984768   1.09019  -0.45654  -0.89146  -0.29508
   2   16362.3    611.2   0.500082328  10.06174   0.13690  -2.68644   1.68109
   3   19220.9    520.3   0.015296092   0.26199  -0.00004   0.47311  -0.19533
   4   21401.8    467.3   0.069619958   1.07093  -0.15285  -0.93214  -0.42270
   5   21854.4    457.6   0.541609828   8.15873  -0.73072  -2.75036   0.24556
   6   22377.9    446.9   0.205618307   3.02495  -0.11218  -1.62290   0.61529
   7   22947.8    435.8   0.139916730   2.00726   0.66795   1.18012   0.41039
   8   23130.4    432.3   0.178412383   2.53932  -0.69351  -1.37527  -0.40866
   9   23733.0    421.4   0.015956532   0.22134   0.40250  -0.12004   0.21195
  10   24319.7    411.2   0.001353735   0.01833   0.00444   0.04938   0.12597
  11   25313.6    395.0   0.021288683   0.27687  -0.52326   0.00849  -0.05476
  12   26027.5    384.2   0.013260680   0.16773  -0.33832  -0.22967  -0.02286
  13   26520.6    377.1   0.550041106   6.82791  -1.36360  -2.20777  -0.30698
  14   26742.8    373.9   0.184330235   2.26916  -0.45069   0.93492  -1.09177
  15   27045.5    369.7   0.038209884   0.46511  -0.32823   0.24556  -0.54505
  16   28162.5    355.1   0.043539208   0.50896  -0.17916   0.61722  -0.30968
  17   28275.9    353.7   0.144092532   1.67765  -0.04728  -1.24420  -0.35691
  18   28889.3    346.1   0.010531771   0.12002  -0.00991   0.34625   0.00551
  19   28909.0    345.9   0.126853375   1.44459   1.00233   0.58062   0.32064
  20   28954.1    345.4   0.009283247   0.10555  -0.04017   0.10274  -0.30559
  21   29236.4    342.0   0.037524960   0.42254   0.12285   0.63178  -0.09114
  22   29455.8    339.5   0.019015570   0.21253   0.20973  -0.20070   0.35813
  23   29621.7    337.6   0.045705849   0.50797  -0.37242  -0.60230  -0.08068
  24   29810.1    335.5   0.108497323   1.19821  -0.53389   0.00043  -0.95560
  25   30252.6    330.6   0.015289641   0.16638  -0.16148  -0.27353  -0.25591
  26   30647.0    326.3   0.018776483   0.20170  -0.12769  -0.37074   0.21896
  27   30870.5    323.9   0.006388176   0.06813   0.01537  -0.24424   0.09074
  28   31031.2    322.3   0.315894136   3.35134   1.41871   1.07914   0.41719
  29   31242.4    320.1   0.014530766   0.15312  -0.23128   0.21466   0.23140
  30   31572.7    316.7   0.041054665   0.42808   0.17387  -0.62680   0.07052
  31   31929.1    313.2   0.052787894   0.54428   0.58743   0.42954  -0.12127
  32   32120.1    311.3   0.077660741   0.79598   0.49697   0.34377   0.65637
  33   32795.2    304.9   0.137481106   1.38009   0.56115   1.00297   0.24342
  34   32901.0    303.9   0.008731715   0.08737  -0.00428  -0.29521  -0.01429
  35   33294.6    300.3   0.051549643   0.50971  -0.50983  -0.49978   0.00279
  36   33529.7    298.2   0.343570678   3.37336  -1.38909  -0.65350  -1.00832
  37   33593.3    297.7   0.057834729   0.56678  -0.31811  -0.27424   0.62480
  38   33643.8    297.2   0.026509130   0.25940   0.18965  -0.47266   0.00497
  39   33891.9    295.1   0.193245088   1.87710  -0.64337  -0.26904  -1.17932
  40   33950.0    294.6   0.117767149   1.14198  -0.70515  -0.23271  -0.76850
  41   34123.2    293.1   0.057482287   0.55457   0.03094   0.49690  -0.55381
  42   34270.1    291.8   0.126761663   1.21772   0.63929  -0.03536   0.89877
  43   34535.2    289.6   0.016645278   0.15867   0.35916   0.10088   0.13965
  44   34959.1    286.0   0.013669072   0.12872   0.08943  -0.07950   0.33824
  45   35251.0    283.7   0.007840584   0.07322   0.14783  -0.04256   0.22262
  46   35459.2    282.0   0.008494412   0.07886  -0.20049  -0.03153  -0.19410
  47   35737.0    279.8   0.698891341   6.43825  -2.50104  -0.16277  -0.39569
  48   35908.4    278.5   0.128336158   1.17660  -0.46605   0.28199  -0.93802
  49   36208.8    276.2   0.036500823   0.33187  -0.35899  -0.28647  -0.34774
  50   36414.9    274.6   0.029646165   0.26802  -0.15331  -0.43063  -0.24306
  51   36605.8    273.2   0.023773525   0.21381   0.06783   0.45639  -0.03022
  52   36891.2    271.1   0.031832373   0.28407   0.11561   0.51894   0.03744
  53   37027.8    270.1   0.001678643   0.01492  -0.01465   0.07452   0.09569
  54   37101.8    269.5   0.038860950   0.34482   0.35835   0.23458   0.40172
  55   37480.4    266.8   0.105406820   0.92585   0.69005  -0.47915   0.46914
  56   37592.5    266.0   0.037039306   0.32437   0.04772  -0.53431   0.19133
  57   37830.4    264.3   0.007099068   0.06178   0.05963  -0.22687  -0.08218
  58   37904.7    263.8   0.014007868   0.12166  -0.10299  -0.33125  -0.03642
  59   37957.4    263.5   0.012685533   0.11002   0.20815   0.25131  -0.05950
  60   38267.3    261.3   0.257711666   2.21708  -0.52120  -1.09977  -0.85786
  61   38537.8    259.5   0.048058043   0.41054  -0.43504   0.09880  -0.45991
  62   38665.4    258.6   0.217965296   1.85584   0.43468   1.29091   0.02115
  63   38873.1    257.2   0.087758946   0.74322  -0.26914   0.81813   0.03816
  64   39127.9    255.6   0.001223440   0.01029  -0.00081  -0.08806   0.05039
  65   39252.0    254.8   0.024546729   0.20588   0.19081  -0.20928   0.35450
  66   39300.1    254.5   0.050300582   0.42136   0.17654   0.62282   0.04789
  67   39377.3    254.0   0.104033295   0.86976   0.32784  -0.67457   0.55430
  68   39487.8    253.2   0.004462754   0.03721   0.04209  -0.15517   0.10657
  69   39511.7    253.1   0.006542609   0.05451   0.08137  -0.19696   0.09538
  70   39736.2    251.7   0.002498614   0.02070   0.00554  -0.09058   0.11165
  71   40107.6    249.3   0.044926220   0.36876   0.04215   0.54050  -0.27359

FINAL SINGLE POINT ENERGY     -4174.552344044497

DIPOLE MOMENT
-------------
                                X             Y             Z
Electronic contribution:     24.57659      11.45166      17.87275
Nuclear contribution   :    -23.39032     -12.34282     -17.55705
                        -----------------------------------------
Total Dipole Moment    :      1.18627      -0.89117       0.31570
                        -----------------------------------------
Magnitude (a.u.)       :      1.51693
Magnitude (Debye)      :      3.85573

Rotational constants in cm-1:     0.001459     0.000142     0.000132
Rotational constants in MHz :    43.729843     4.252510     3.945389

                             ****ORCA TERMINATED NORMALLY****
TOTAL RUN TIME: 0 days 0 hours 13 minutes 13 seconds 78 msec
