                         Program Version 4.2.0 -  RELEASE  -
|  1> # ORCA input file
|  2> # SCF done       -199.204565579354          0.000937045522
|  3> ! CAM-B3LYP def2-SVP def2/J RIJCOSX Grid4 TightSCF
|  4> %maxcore 5000
|  5> %tddft
|  6>     Mode sTDDFT
|  7>     Ethresh 5.0
|  8>     maxcore 5000
|  9> end
| 10>
| 11> %pal
| 12>   nprocs 6
| 13>   end
| 14> * xyz 0 1
| 15>    C        4.94938        -0.22734        -0.94865
| 16>    C        5.30114         0.54045        -2.21550
| 17>    O        6.07923         0.22691        -3.06262
| 18>    O        4.58738         1.68168        -2.25725
| 19>    C        3.65857         1.75037        -1.18325
| 20>    C        4.25684         0.83480        -0.09760
| 21>    C        3.26075         0.32473         0.93715
| 22>    C        2.00036        -0.25848         0.31202
| 23>    C        1.32161         0.67306        -0.68529
| 24>    C        2.26908         1.32147        -1.71010
| 25>    O        1.56769         2.46864        -2.17431
| 26>    C        0.59028         2.83859        -1.33754
| 27>    O       -0.10886         3.78690        -1.51761
| 28>    C        0.53834         1.87934        -0.13558
| 29>    C        1.12267         2.59464         1.03521
| 30>    C        0.49449         2.70522         2.21077
| 31>    C        1.00808         3.39861         3.35668
| 32>    S        0.04450         3.50224         4.79846
| 33>    C        1.27431         4.38965         5.64279
| 34>    C        2.38030         4.58781         4.80885
| 35>    C        2.21867         4.02885         3.52902
| 36>    C        3.55382         5.27320         5.16169
| 37>    N        4.53380         5.82092         5.40305
| 38>    C        1.04429         4.78188         6.98244
| 39>    C        1.95344         5.41048         7.77661
| 40>    C        1.67209         5.77322         9.11305
| 41>    N        2.58197         6.38710         9.93917
| 42>    C        3.91517         6.81714         9.58903
| 43>    C        3.90386         8.11220         8.78146
| 44>    C        2.05281         6.62528        11.22364
| 45>    O        2.67081         7.14996        12.12476
| 46>    C        0.70688         6.09955        11.14878
| 47>    C        0.49881         5.58687         9.85345
| 48>    C       -0.85226         5.07411         9.80460
| 49>    O       -1.48354         4.53880         8.91385
| 50>    N       -1.38002         5.32658        11.08566
| 51>    C       -2.71839         4.88896        11.40468
| 52>    C       -2.71785         3.60469        12.22992
| 53>    C       -0.45486         5.93214        11.90752
| 54>    C       -0.53415         6.35421        13.25297
| 55>    C       -1.57388         6.32768        14.13260
| 56>    C       -1.47351         6.78499        15.46920
| 57>    C       -2.49782         6.80027        16.39366
| 58>    C       -2.00781         7.29198        17.63731
| 59>    C       -0.57921         7.59897        17.41356
| 60>    C       -0.27712         7.30324        16.12482
| 61>    C        0.31522         8.14346        18.34205
| 62>    N        1.06275         8.60715        19.08146
| 63>    C       -2.69375         7.44971        18.81454
| 64>    C       -2.15663         7.85089        20.08691
| 65>    C       -3.16247         7.88775        21.00108
| 66>    C       -4.40017         7.52395        20.34374
| 67>    C       -4.13295         7.24330        19.03679
| 68>    C       -5.07407         6.86137        18.07715
| 69>    N       -5.86074         6.55336        17.29765
| 70>    C       -3.03351         8.27764        22.42775
| 71>    C       -3.98462         7.53516        23.37287
| 72>    O       -4.31397         6.39024        23.31400
| 73>    O       -4.42109         8.38255        24.32011
| 74>    C       -3.80146         9.65877        24.19377
| 75>    C       -3.41273         9.74057        22.71205
| 76>    C       -2.35838        10.78598        22.38626
| 77>    C       -1.13351        10.69131        23.28730
| 78>    C       -1.46125        10.67735        24.77712
| 79>    C       -2.60984         9.73023        25.17489
| 80>    O       -3.06683        10.21754        26.42783
| 81>    C       -2.71150        11.49823        26.62757
| 82>    O       -3.01715        12.10892        27.60617
| 83>    C       -1.87533        12.00067        25.45071
| 84>    C       -2.63810        12.97826        24.60003
| 85>    C       -3.92269        13.25955        24.71733
| 86>    H        5.84386        -0.64707        -0.49418
| 87>    H        4.28098        -1.04750        -1.21535
| 88>    H        3.60825         2.79971        -0.87873
| 89>    H        5.03233         1.40819         0.42302
| 90>    H        2.99005         1.14128         1.60686
| 91>    H        3.74932        -0.44289         1.53994
| 92>    H        1.28922        -0.50784         1.10103
| 93>    H        2.24820        -1.18654        -0.20720
| 94>    H        0.59807         0.07791        -1.25501
| 95>    H        2.43074         0.67615        -2.58033
| 96>    H       -0.49785         1.61671         0.08517
| 97>    H        2.07184         3.08491         0.87621
| 98>    H       -0.47357         2.24172         2.34596
| 99>    H        2.97697         4.09763         2.76984
|100>    H        0.06643         4.54707         7.38438
|101>    H        2.93520         5.64020         7.39298
|102>    H        4.42540         6.02312         9.03729
|103>    H        4.43552         6.98033        10.53696
|104>    H        3.37556         7.98233         7.83981
|105>    H        4.92422         8.41491         8.56560
|106>    H        3.41762         8.90182         9.34927
|107>    H       -3.20532         4.70105        10.44288
|108>    H       -3.25644         5.69260        11.91296
|109>    H       -2.25589         2.80123        11.66132
|110>    H       -3.73920         3.31960        12.46626
|111>    H       -2.16524         3.73189        13.15807
|112>    H        0.40815         6.76577        13.59160
|113>    H       -2.54476         5.95002        13.85029
|114>    H       -3.50616         6.47769        16.22193
|115>    H        0.68388         7.42890        15.66232
|116>    H       -1.12130         8.05960        20.26985
|117>    H       -5.35861         7.46686        20.82529
|118>    H       -2.00937         8.07848        22.76179
|119>    H       -4.54121        10.41049        24.48131
|120>    H       -4.31917         9.96756        22.13769
|121>    H       -2.81628        11.77044        22.48332
|122>    H       -2.04875        10.66020        21.34669
|123>    H       -0.46566        11.52823        23.07917
|124>    H       -0.58190         9.77890        23.05084
|125>    H       -0.56810        10.32575        25.30758
|126>    H       -2.25416         8.70797        25.34543
|127>    H       -0.99886        12.52616        25.84180
|128>    H       -2.03103        13.49742        23.86907
|129>    H       -4.55301        12.79204        25.45499
|130>    H       -4.39552        13.99187        24.08519
|131> *
|132>
|133>                          ****END OF INPUT****

CARTESIAN COORDINATES (ANGSTROEM)
---------------------------------
  C      4.949380   -0.227340   -0.948650
  C      5.301140    0.540450   -2.215500
  O      6.079230    0.226910   -3.062620
  O      4.587380    1.681680   -2.257250
  C      3.658570    1.750370   -1.183250
  C      4.256840    0.834800   -0.097600
  C      3.260750    0.324730    0.937150
  C      2.000360   -0.258480    0.312020
  C      1.321610    0.673060   -0.685290
  C      2.269080    1.321470   -1.710100
  O      1.567690    2.468640   -2.174310
  C      0.590280    2.838590   -1.337540
  O     -0.108860    3.786900   -1.517610
  C      0.538340    1.879340   -0.135580
  C      1.122670    2.594640    1.035210
  C      0.494490    2.705220    2.210770
  C      1.008080    3.398610    3.356680
  S      0.044500    3.502240    4.798460
  C      1.274310    4.389650    5.642790
  C      2.380300    4.587810    4.808850
  C      2.218670    4.028850    3.529020
  C      3.553820    5.273200    5.161690
  N      4.533800    5.820920    5.403050
  C      1.044290    4.781880    6.982440
  C      1.953440    5.410480    7.776610
  C      1.672090    5.773220    9.113050
  N      2.581970    6.387100    9.939170
  C      3.915170    6.817140    9.589030
  C      3.903860    8.112200    8.781460
  C      2.052810    6.625280   11.223640
  O      2.670810    7.149960   12.124760
  C      0.706880    6.099550   11.148780
  C      0.498810    5.586870    9.853450
  C     -0.852260    5.074110    9.804600
  O     -1.483540    4.538800    8.913850
  N     -1.380020    5.326580   11.085660
  C     -2.718390    4.888960   11.404680
  C     -2.717850    3.604690   12.229920
  C     -0.454860    5.932140   11.907520
  C     -0.534150    6.354210   13.252970
  C     -1.573880    6.327680   14.132600
  C     -1.473510    6.784990   15.469200
  C     -2.497820    6.800270   16.393660
  C     -2.007810    7.291980   17.637310
  C     -0.579210    7.598970   17.413560
  C     -0.277120    7.303240   16.124820
  C      0.315220    8.143460   18.342050
  N      1.062750    8.607150   19.081460
  C     -2.693750    7.449710   18.814540
  C     -2.156630    7.850890   20.086910
  C     -3.162470    7.887750   21.001080
  C     -4.400170    7.523950   20.343740
  C     -4.132950    7.243300   19.036790
  C     -5.074070    6.861370   18.077150
  N     -5.860740    6.553360   17.297650
  C     -3.033510    8.277640   22.427750
  C     -3.984620    7.535160   23.372870
  O     -4.313970    6.390240   23.314000
  O     -4.421090    8.382550   24.320110
  C     -3.801460    9.658770   24.193770
  C     -3.412730    9.740570   22.712050
  C     -2.358380   10.785980   22.386260
  C     -1.133510   10.691310   23.287300
  C     -1.461250   10.677350   24.777120
  C     -2.609840    9.730230   25.174890
  O     -3.066830   10.217540   26.427830
  C     -2.711500   11.498230   26.627570
  O     -3.017150   12.108920   27.606170
  C     -1.875330   12.000670   25.450710
  C     -2.638100   12.978260   24.600030
  C     -3.922690   13.259550   24.717330
  H      5.843860   -0.647070   -0.494180
  H      4.280980   -1.047500   -1.215350
  H      3.608250    2.799710   -0.878730
  H      5.032330    1.408190    0.423020
  H      2.990050    1.141280    1.606860
  H      3.749320   -0.442890    1.539940
  H      1.289220   -0.507840    1.101030
  H      2.248200   -1.186540   -0.207200
  H      0.598070    0.077910   -1.255010
  H      2.430740    0.676150   -2.580330
  H     -0.497850    1.616710    0.085170
  H      2.071840    3.084910    0.876210
  H     -0.473570    2.241720    2.345960
  H      2.976970    4.097630    2.769840
  H      0.066430    4.547070    7.384380
  H      2.935200    5.640200    7.392980
  H      4.425400    6.023120    9.037290
  H      4.435520    6.980330   10.536960
  H      3.375560    7.982330    7.839810
  H      4.924220    8.414910    8.565600
  H      3.417620    8.901820    9.349270
  H     -3.205320    4.701050   10.442880
  H     -3.256440    5.692600   11.912960
  H     -2.255890    2.801230   11.661320
  H     -3.739200    3.319600   12.466260
  H     -2.165240    3.731890   13.158070
  H      0.408150    6.765770   13.591600
  H     -2.544760    5.950020   13.850290
  H     -3.506160    6.477690   16.221930
  H      0.683880    7.428900   15.662320
  H     -1.121300    8.059600   20.269850
  H     -5.358610    7.466860   20.825290
  H     -2.009370    8.078480   22.761790
  H     -4.541210   10.410490   24.481310
  H     -4.319170    9.967560   22.137690
  H     -2.816280   11.770440   22.483320
  H     -2.048750   10.660200   21.346690
  H     -0.465660   11.528230   23.079170
  H     -0.581900    9.778900   23.050840
  H     -0.568100   10.325750   25.307580
  H     -2.254160    8.707970   25.345430
  H     -0.998860   12.526160   25.841800
  H     -2.031030   13.497420   23.869070
  H     -4.553010   12.792040   25.454990
  H     -4.395520   13.991870   24.085190

 Total Charge           Charge          ....    0
 Multiplicity           Mult            ....    1
 Number of Electrons    NEL             ....  506
 Basis Dimension        Dim             .... 1223

ORBITAL ENERGIES
----------------

  NO   OCC          E(Eh)            E(eV)
   0   2.0000     -88.990500     -2421.5546
   1   2.0000     -19.273308      -524.4534
   2   2.0000     -19.267219      -524.2877
   3   2.0000     -19.266373      -524.2647
   4   2.0000     -19.263341      -524.1822
   5   2.0000     -19.209835      -522.7262
   6   2.0000     -19.209399      -522.7143
   7   2.0000     -19.203569      -522.5557
   8   2.0000     -19.202449      -522.5252
   9   2.0000     -19.200533      -522.4731
  10   2.0000     -19.199718      -522.4509
  11   2.0000     -14.462906      -393.5557
  12   2.0000     -14.462330      -393.5400
  13   2.0000     -14.426643      -392.5689
  14   2.0000     -14.416087      -392.2817
  15   2.0000     -14.408678      -392.0801
  16   2.0000     -10.407838      -283.2117
  17   2.0000     -10.405848      -283.1575
  18   2.0000     -10.402411      -283.0640
  19   2.0000     -10.397464      -282.9294
  20   2.0000     -10.384747      -282.5833
  21   2.0000     -10.382783      -282.5299
  22   2.0000     -10.354411      -281.7578
  23   2.0000     -10.353583      -281.7353
  24   2.0000     -10.353119      -281.7227
  25   2.0000     -10.347038      -281.5572
  26   2.0000     -10.346659      -281.5469
  27   2.0000     -10.345510      -281.5156
  28   2.0000     -10.342347      -281.4296
  29   2.0000     -10.335630      -281.2468
  30   2.0000     -10.334109      -281.2054
  31   2.0000     -10.328212      -281.0449
  32   2.0000     -10.327432      -281.0237
  33   2.0000     -10.324682      -280.9489
  34   2.0000     -10.322935      -280.9014
  35   2.0000     -10.318281      -280.7747
  36   2.0000     -10.315506      -280.6992
  37   2.0000     -10.314627      -280.6753
  38   2.0000     -10.313687      -280.6497
  39   2.0000     -10.313543      -280.6458
  40   2.0000     -10.312197      -280.6091
  41   2.0000     -10.312117      -280.6070
  42   2.0000     -10.311779      -280.5978
  43   2.0000     -10.311614      -280.5933
  44   2.0000     -10.311186      -280.5816
  45   2.0000     -10.310884      -280.5734
  46   2.0000     -10.310009      -280.5496
  47   2.0000     -10.309216      -280.5280
  48   2.0000     -10.309022      -280.5228
  49   2.0000     -10.308381      -280.5053
  50   2.0000     -10.306689      -280.4593
  51   2.0000     -10.305914      -280.4382
  52   2.0000     -10.305767      -280.4342
  53   2.0000     -10.305068      -280.4152
  54   2.0000     -10.304279      -280.3937
  55   2.0000     -10.302880      -280.3556
  56   2.0000     -10.300932      -280.3026
  57   2.0000     -10.299379      -280.2603
  58   2.0000     -10.296709      -280.1877
  59   2.0000     -10.295997      -280.1683
  60   2.0000     -10.292317      -280.0682
  61   2.0000     -10.291842      -280.0552
  62   2.0000     -10.289279      -279.9855
  63   2.0000     -10.287519      -279.9376
  64   2.0000     -10.287014      -279.9239
  65   2.0000     -10.282323      -279.7962
  66   2.0000     -10.276505      -279.6379
  67   2.0000     -10.274315      -279.5783
  68   2.0000     -10.271007      -279.4883
  69   2.0000     -10.268683      -279.4251
  70   2.0000     -10.264621      -279.3145
  71   2.0000      -8.086104      -220.0341
  72   2.0000      -6.055146      -164.7689
  73   2.0000      -6.051081      -164.6583
  74   2.0000      -6.048564      -164.5898
  75   2.0000      -1.211760       -32.9737
  76   2.0000      -1.206835       -32.8396
  77   2.0000      -1.201009       -32.6811
  78   2.0000      -1.197314       -32.5806
  79   2.0000      -1.143178       -31.1075
  80   2.0000      -1.136252       -30.9190
  81   2.0000      -1.120060       -30.4784
  82   2.0000      -1.117825       -30.4176
  83   2.0000      -1.112017       -30.2595
  84   2.0000      -1.108203       -30.1557
  85   2.0000      -1.073332       -29.2069
  86   2.0000      -1.063452       -28.9380
  87   2.0000      -1.028347       -27.9828
  88   2.0000      -1.020259       -27.7627
  89   2.0000      -1.004635       -27.3375
  90   2.0000      -1.004040       -27.3213
  91   2.0000      -0.990548       -26.9542
  92   2.0000      -0.984797       -26.7977
  93   2.0000      -0.966277       -26.2937
  94   2.0000      -0.957845       -26.0643
  95   2.0000      -0.941224       -25.6120
  96   2.0000      -0.936711       -25.4892
  97   2.0000      -0.926877       -25.2216
  98   2.0000      -0.924585       -25.1592
  99   2.0000      -0.918675       -24.9984
 100   2.0000      -0.901420       -24.5289
 101   2.0000      -0.890947       -24.2439
 102   2.0000      -0.883207       -24.0333
 103   2.0000      -0.881261       -23.9803
 104   2.0000      -0.869348       -23.6562
 105   2.0000      -0.866208       -23.5707
 106   2.0000      -0.859964       -23.4008
 107   2.0000      -0.859023       -23.3752
 108   2.0000      -0.855430       -23.2774
 109   2.0000      -0.850283       -23.1374
 110   2.0000      -0.842137       -22.9157
 111   2.0000      -0.833767       -22.6879
 112   2.0000      -0.826616       -22.4934
 113   2.0000      -0.816042       -22.2056
 114   2.0000      -0.808895       -22.0111
 115   2.0000      -0.799009       -21.7421
 116   2.0000      -0.786122       -21.3915
 117   2.0000      -0.768012       -20.8987
 118   2.0000      -0.766276       -20.8514
 119   2.0000      -0.754846       -20.5404
 120   2.0000      -0.746191       -20.3049
 121   2.0000      -0.745776       -20.2936
 122   2.0000      -0.734835       -19.9959
 123   2.0000      -0.729854       -19.8603
 124   2.0000      -0.727179       -19.7875
 125   2.0000      -0.717462       -19.5231
 126   2.0000      -0.712275       -19.3820
 127   2.0000      -0.706547       -19.2261
 128   2.0000      -0.699789       -19.0422
 129   2.0000      -0.694041       -18.8858
 130   2.0000      -0.683902       -18.6099
 131   2.0000      -0.681855       -18.5542
 132   2.0000      -0.681047       -18.5322
 133   2.0000      -0.676082       -18.3971
 134   2.0000      -0.668560       -18.1924
 135   2.0000      -0.659295       -17.9403
 136   2.0000      -0.657498       -17.8914
 137   2.0000      -0.654902       -17.8208
 138   2.0000      -0.652502       -17.7555
 139   2.0000      -0.649069       -17.6621
 140   2.0000      -0.639431       -17.3998
 141   2.0000      -0.638250       -17.3677
 142   2.0000      -0.633451       -17.2371
 143   2.0000      -0.625991       -17.0341
 144   2.0000      -0.621080       -16.9005
 145   2.0000      -0.614240       -16.7143
 146   2.0000      -0.610170       -16.6036
 147   2.0000      -0.609444       -16.5838
 148   2.0000      -0.603044       -16.4097
 149   2.0000      -0.596533       -16.2325
 150   2.0000      -0.594407       -16.1746
 151   2.0000      -0.584446       -15.9036
 152   2.0000      -0.579969       -15.7818
 153   2.0000      -0.579438       -15.7673
 154   2.0000      -0.577361       -15.7108
 155   2.0000      -0.574586       -15.6353
 156   2.0000      -0.571657       -15.5556
 157   2.0000      -0.567679       -15.4473
 158   2.0000      -0.565821       -15.3968
 159   2.0000      -0.555583       -15.1182
 160   2.0000      -0.554798       -15.0968
 161   2.0000      -0.554664       -15.0932
 162   2.0000      -0.547858       -14.9080
 163   2.0000      -0.546801       -14.8792
 164   2.0000      -0.545554       -14.8453
 165   2.0000      -0.544617       -14.8198
 166   2.0000      -0.541990       -14.7483
 167   2.0000      -0.538919       -14.6647
 168   2.0000      -0.538641       -14.6572
 169   2.0000      -0.537861       -14.6359
 170   2.0000      -0.535992       -14.5851
 171   2.0000      -0.532205       -14.4820
 172   2.0000      -0.531129       -14.4528
 173   2.0000      -0.530034       -14.4230
 174   2.0000      -0.527329       -14.3493
 175   2.0000      -0.524656       -14.2766
 176   2.0000      -0.524024       -14.2594
 177   2.0000      -0.521257       -14.1841
 178   2.0000      -0.517501       -14.0819
 179   2.0000      -0.516835       -14.0638
 180   2.0000      -0.513827       -13.9819
 181   2.0000      -0.512996       -13.9593
 182   2.0000      -0.511172       -13.9097
 183   2.0000      -0.505955       -13.7677
 184   2.0000      -0.503884       -13.7114
 185   2.0000      -0.501890       -13.6571
 186   2.0000      -0.498954       -13.5772
 187   2.0000      -0.496975       -13.5234
 188   2.0000      -0.492693       -13.4069
 189   2.0000      -0.490635       -13.3508
 190   2.0000      -0.489587       -13.3223
 191   2.0000      -0.484268       -13.1776
 192   2.0000      -0.482081       -13.1181
 193   2.0000      -0.476196       -12.9580
 194   2.0000      -0.475462       -12.9380
 195   2.0000      -0.475378       -12.9357
 196   2.0000      -0.473597       -12.8872
 197   2.0000      -0.471535       -12.8311
 198   2.0000      -0.470198       -12.7947
 199   2.0000      -0.468832       -12.7576
 200   2.0000      -0.468171       -12.7396
 201   2.0000      -0.465710       -12.6726
 202   2.0000      -0.463443       -12.6109
 203   2.0000      -0.460979       -12.5439
 204   2.0000      -0.459960       -12.5161
 205   2.0000      -0.459290       -12.4979
 206   2.0000      -0.457510       -12.4495
 207   2.0000      -0.456367       -12.4184
 208   2.0000      -0.455653       -12.3989
 209   2.0000      -0.454406       -12.3650
 210   2.0000      -0.452940       -12.3251
 211   2.0000      -0.451955       -12.2983
 212   2.0000      -0.449142       -12.2218
 213   2.0000      -0.448550       -12.2057
 214   2.0000      -0.447533       -12.1780
 215   2.0000      -0.445302       -12.1173
 216   2.0000      -0.442381       -12.0378
 217   2.0000      -0.439492       -11.9592
 218   2.0000      -0.439394       -11.9565
 219   2.0000      -0.438920       -11.9436
 220   2.0000      -0.436022       -11.8647
 221   2.0000      -0.433238       -11.7890
 222   2.0000      -0.430347       -11.7103
 223   2.0000      -0.428412       -11.6577
 224   2.0000      -0.423213       -11.5162
 225   2.0000      -0.420047       -11.4301
 226   2.0000      -0.419950       -11.4274
 227   2.0000      -0.416344       -11.3293
 228   2.0000      -0.412766       -11.2319
 229   2.0000      -0.410480       -11.1697
 230   2.0000      -0.407207       -11.0807
 231   2.0000      -0.406694       -11.0667
 232   2.0000      -0.399926       -10.8825
 233   2.0000      -0.396520       -10.7899
 234   2.0000      -0.394132       -10.7249
 235   2.0000      -0.380451       -10.3526
 236   2.0000      -0.371570       -10.1109
 237   2.0000      -0.366524        -9.9736
 238   2.0000      -0.363860        -9.9011
 239   2.0000      -0.358439        -9.7536
 240   2.0000      -0.355480        -9.6731
 241   2.0000      -0.350805        -9.5459
 242   2.0000      -0.349118        -9.5000
 243   2.0000      -0.348562        -9.4849
 244   2.0000      -0.347005        -9.4425
 245   2.0000      -0.341871        -9.3028
 246   2.0000      -0.338222        -9.2035
 247   2.0000      -0.332778        -9.0554
 248   2.0000      -0.325624        -8.8607
 249   2.0000      -0.310565        -8.4509
 250   2.0000      -0.304942        -8.2979
 251   2.0000      -0.297360        -8.0916
 252   2.0000      -0.242475        -6.5981
 253   0.0000      -0.128178        -3.4879
 254   0.0000      -0.093957        -2.5567
 255   0.0000      -0.045392        -1.2352
 256   0.0000      -0.021085        -0.5738
 257   0.0000      -0.004108        -0.1118

MULLIKEN ATOMIC CHARGES
-----------------------
   0 C :    0.022936
   1 C :    0.140132
   2 O :   -0.153378
   3 O :   -0.262510
   4 C :    0.153415
   5 C :   -0.142650
   6 C :    0.097575
   7 C :    0.100604
   8 C :   -0.087814
   9 C :    0.163030
  10 O :   -0.251432
  11 C :    0.174400
  12 O :   -0.146944
  13 C :   -0.055515
  14 C :   -0.005168
  15 C :    0.093427
  16 C :   -0.079898
  17 S :    0.189232
  18 C :   -0.069043
  19 C :   -0.079713
  20 C :    0.009883
  21 C :   -0.163337
  22 N :    0.117092
  23 C :    0.066717
  24 C :   -0.045004
  25 C :    0.147655
  26 N :   -0.260452
  27 C :    0.094256
  28 C :    0.008460
  29 C :    0.150277
  30 O :   -0.186871
  31 C :   -0.034716
  32 C :   -0.058755
  33 C :    0.158585
  34 O :   -0.216097
  35 N :   -0.261789
  36 C :    0.100047
  37 C :    0.000240
  38 C :    0.125832
  39 C :   -0.042876
  40 C :    0.010123
  41 C :    0.106777
  42 C :   -0.107911
  43 C :    0.121794
  44 C :   -0.104494
  45 C :   -0.003539
  46 C :   -0.165676
  47 N :    0.129473
  48 C :    0.096330
  49 C :   -0.108641
  50 C :    0.070388
  51 C :    0.009493
  52 C :   -0.104100
  53 C :   -0.177429
  54 N :    0.129253
  55 C :   -0.061596
  56 C :    0.179803
  57 O :   -0.142361
  58 O :   -0.253918
  59 C :    0.187022
  60 C :   -0.076874
  61 C :    0.129718
  62 C :    0.071631
  63 C :   -0.091790
  64 C :    0.160707
  65 O :   -0.255200
  66 C :    0.146919
  67 O :   -0.153835
  68 C :    0.000384
  69 C :   -0.074850
  70 C :    0.000919
  71 H :    0.047137
  72 H :    0.043099
  73 H :    0.021402
  74 H :    0.021999
  75 H :    0.012877
  76 H :    0.012209
  77 H :    0.009615
  78 H :    0.009597
  79 H :    0.022819
  80 H :    0.022593
  81 H :    0.027734
  82 H :    0.003287
  83 H :   -0.010359
  84 H :   -0.006383
  85 H :    0.006428
  86 H :   -0.013382
  87 H :    0.035343
  88 H :    0.043023
  89 H :    0.018167
  90 H :    0.030944
  91 H :    0.024875
  92 H :    0.044200
  93 H :    0.029590
  94 H :    0.025976
  95 H :    0.027482
  96 H :    0.021832
  97 H :    0.003828
  98 H :   -0.013890
  99 H :    0.002318
 100 H :    0.017322
 101 H :   -0.006452
 102 H :    0.006741
 103 H :    0.033045
 104 H :    0.013068
 105 H :    0.012442
 106 H :    0.011255
 107 H :    0.010826
 108 H :    0.012857
 109 H :    0.012983
 110 H :    0.018576
 111 H :    0.018724
 112 H :    0.039205
 113 H :    0.018411
 114 H :    0.050175
 115 H :    0.028107
Sum of atomic charges:    0.0000000

LOEWDIN ATOMIC CHARGES
----------------------
   0 C :   -0.057997
   1 C :    0.074997
   2 O :   -0.143152
   3 O :   -0.075246
   4 C :    0.063588
   5 C :   -0.040360
   6 C :   -0.029127
   7 C :   -0.026328
   8 C :   -0.034557
   9 C :    0.068485
  10 O :   -0.065077
  11 C :    0.077578
  12 O :   -0.138310
  13 C :   -0.054003
  14 C :   -0.000308
  15 C :   -0.043147
  16 C :   -0.162783
  17 S :    0.492025
  18 C :   -0.148790
  19 C :   -0.097005
  20 C :   -0.028436
  21 C :   -0.025743
  22 N :   -0.057070
  23 C :    0.008702
  24 C :   -0.037702
  25 C :    0.087251
  26 N :    0.000152
  27 C :    0.036675
  28 C :   -0.058510
  29 C :    0.081151
  30 O :   -0.188194
  31 C :   -0.098986
  32 C :   -0.126457
  33 C :    0.080677
  34 O :   -0.205128
  35 N :   -0.001149
  36 C :    0.035830
  37 C :   -0.062252
  38 C :    0.060386
  39 C :   -0.016726
  40 C :   -0.007917
  41 C :   -0.011954
  42 C :   -0.023256
  43 C :    0.039116
  44 C :   -0.076735
  45 C :    0.059173
  46 C :   -0.027053
  47 N :   -0.065573
  48 C :    0.035851
  49 C :   -0.030273
  50 C :   -0.004216
  51 C :    0.055182
  52 C :   -0.087721
  53 C :   -0.028735
  54 N :   -0.068611
  55 C :   -0.059841
  56 C :    0.077469
  57 O :   -0.139841
  58 O :   -0.067753
  59 C :    0.068902
  60 C :   -0.024661
  61 C :   -0.028392
  62 C :   -0.026975
  63 C :   -0.032457
  64 C :    0.067235
  65 O :   -0.068617
  66 C :    0.080653
  67 O :   -0.142692
  68 C :   -0.059586
  69 C :   -0.017094
  70 C :   -0.044530
  71 H :    0.047046
  72 H :    0.040926
  73 H :    0.026426
  74 H :    0.035584
  75 H :    0.026169
  76 H :    0.033401
  77 H :    0.033352
  78 H :    0.026041
  79 H :    0.039002
  80 H :    0.032150
  81 H :    0.046110
  82 H :    0.021678
  83 H :    0.031607
  84 H :    0.036844
  85 H :    0.038302
  86 H :    0.035968
  87 H :    0.027497
  88 H :    0.038094
  89 H :    0.023536
  90 H :    0.034727
  91 H :    0.030186
  92 H :    0.037961
  93 H :    0.022786
  94 H :    0.031826
  95 H :    0.032880
  96 H :    0.022611
  97 H :    0.044625
  98 H :    0.035065
  99 H :    0.035479
 100 H :    0.041623
 101 H :    0.031779
 102 H :    0.038695
 103 H :    0.048233
 104 H :    0.029681
 105 H :    0.033973
 106 H :    0.028385
 107 H :    0.032900
 108 H :    0.033524
 109 H :    0.026915
 110 H :    0.036946
 111 H :    0.029585
 112 H :    0.051229
 113 H :    0.028263
 114 H :    0.027090
 115 H :    0.029249

  Mayer bond orders larger than 0.100000
B(  0-C ,  1-C ) :   0.9605 B(  0-C ,  5-C ) :   1.0240 B(  0-C , 71-H ) :   0.9298
B(  0-C , 72-H ) :   0.9286 B(  1-C ,  2-O ) :   2.2408 B(  1-C ,  3-O ) :   1.1151
B(  3-O ,  4-C ) :   0.9632 B(  4-C ,  5-C ) :   1.0190 B(  4-C ,  9-C ) :   0.9686
B(  4-C , 73-H ) :   0.9136 B(  5-C ,  6-C ) :   1.0646 B(  5-C , 74-H ) :   0.9163
B(  6-C ,  7-C ) :   1.0616 B(  6-C , 75-H ) :   0.9318 B(  6-C , 76-H ) :   0.9248
B(  7-C ,  8-C ) :   1.0639 B(  7-C , 77-H ) :   0.9244 B(  7-C , 78-H ) :   0.9366
B(  8-C ,  9-C ) :   1.0104 B(  8-C , 13-C ) :   0.9900 B(  8-C , 79-H ) :   0.9086
B(  9-C , 10-O ) :   0.9617 B(  9-C , 80-H ) :   0.9195 B( 10-O , 11-C ) :   1.1331
B( 11-C , 12-O ) :   2.2521 B( 11-C , 13-C ) :   0.8857 B( 13-C , 14-C ) :   1.0077
B( 13-C , 81-H ) :   0.9143 B( 14-C , 15-C ) :   1.8372 B( 14-C , 82-H ) :   0.9454
B( 15-C , 16-C ) :   1.0714 B( 15-C , 83-H ) :   0.9610 B( 16-C , 17-S ) :   1.1373
B( 16-C , 20-C ) :   1.4938 B( 17-S , 18-C ) :   1.1467 B( 18-C , 19-C ) :   1.4251
B( 18-C , 23-C ) :   1.1596 B( 19-C , 20-C ) :   1.3095 B( 19-C , 21-C ) :   1.1211
B( 20-C , 84-H ) :   0.9975 B( 21-C , 22-N ) :   2.9647 B( 23-C , 24-C ) :   1.6018
B( 23-C , 85-H ) :   0.9226 B( 24-C , 25-C ) :   1.1809 B( 24-C , 86-H ) :   0.9472
B( 25-C , 26-N ) :   1.1789 B( 25-C , 32-C ) :   1.2977 B( 26-N , 27-C ) :   0.9366
B( 26-N , 29-C ) :   1.0369 B( 27-C , 28-C ) :   1.1245 B( 27-C , 87-H ) :   0.9480
B( 27-C , 88-H ) :   0.9271 B( 28-C , 89-H ) :   0.9676 B( 28-C , 90-H ) :   0.9671
B( 28-C , 91-H ) :   0.9634 B( 29-C , 30-O ) :   2.1289 B( 29-C , 31-C ) :   0.9702
B( 31-C , 32-C ) :   1.2614 B( 31-C , 38-C ) :   1.3351 B( 32-C , 33-C ) :   0.9916
B( 33-C , 34-O ) :   2.0141 B( 33-C , 35-N ) :   1.0675 B( 34-O , 85-H ) :   0.1154
B( 35-N , 36-C ) :   0.9401 B( 35-N , 38-C ) :   1.1610 B( 36-C , 37-C ) :   1.1181
B( 36-C , 92-H ) :   0.9242 B( 36-C , 93-H ) :   0.9514 B( 37-C , 94-H ) :   0.9620
B( 37-C , 95-H ) :   0.9681 B( 37-C , 96-H ) :   0.9684 B( 38-C , 39-C ) :   1.1868
B( 39-C , 40-C ) :   1.5294 B( 39-C , 97-H ) :   0.9466 B( 40-C , 41-C ) :   1.1331
B( 40-C , 98-H ) :   0.9839 B( 41-C , 42-C ) :   1.5045 B( 41-C , 45-C ) :   1.0381
B( 42-C , 43-C ) :   1.1153 B( 42-C , 99-H ) :   1.0091 B( 43-C , 44-C ) :   1.0959
B( 43-C , 48-C ) :   1.4311 B( 44-C , 45-C ) :   1.6897 B( 44-C , 46-C ) :   1.0928
B( 45-C ,100-H ) :   1.0152 B( 46-C , 47-N ) :   2.9642 B( 48-C , 49-C ) :   1.0791
B( 48-C , 52-C ) :   1.1243 B( 49-C , 50-C ) :   1.6437 B( 49-C ,101-H ) :   1.0064
B( 50-C , 51-C ) :   1.0863 B( 50-C , 55-C ) :   0.9951 B( 51-C , 52-C ) :   1.6367
B( 51-C ,102-H ) :   1.0161 B( 52-C , 53-C ) :   1.0945 B( 53-C , 54-N ) :   2.9612
B( 55-C , 56-C ) :   0.8690 B( 55-C , 60-C ) :   0.9838 B( 55-C ,103-H ) :   0.8691
B( 56-C , 57-O ) :   2.2614 B( 56-C , 58-O ) :   1.1420 B( 58-O , 59-C ) :   0.9503
B( 59-C , 60-C ) :   1.0072 B( 59-C , 64-C ) :   0.9726 B( 59-C ,104-H ) :   0.9123
B( 60-C , 61-C ) :   1.0723 B( 60-C ,105-H ) :   0.9093 B( 61-C , 62-C ) :   1.0652
B( 61-C ,106-H ) :   0.9206 B( 61-C ,107-H ) :   0.9177 B( 62-C , 63-C ) :   1.0729
B( 62-C ,108-H ) :   0.9248 B( 62-C ,109-H ) :   0.9349 B( 63-C , 64-C ) :   1.0168
B( 63-C , 68-C ) :   1.0018 B( 63-C ,110-H ) :   0.9059 B( 64-C , 65-O ) :   0.9683
B( 64-C ,111-H ) :   0.9171 B( 65-O , 66-C ) :   1.1286 B( 66-C , 67-O ) :   2.2356
B( 66-C , 68-C ) :   0.9085 B( 68-C , 69-C ) :   1.0197 B( 68-C ,112-H ) :   0.8865
B( 69-C , 70-C ) :   2.0129 B( 69-C ,113-H ) :   0.9597 B( 70-C ,114-H ) :   0.9260
B( 70-C ,115-H ) :   0.9556

-----------------------------------------------------------------------------
         ABSORPTION SPECTRUM VIA TRANSITION ELECTRIC DIPOLE MOMENTS
-----------------------------------------------------------------------------
State   Energy  Wavelength   fosc         T2         TX        TY        TZ
        (cm-1)    (nm)                  (au**2)     (au)      (au)      (au)
-----------------------------------------------------------------------------
   0   11328.5    882.7   0.895440130  26.02197   2.19412  -0.79734  -4.53564
   1   17363.7    575.9   0.201116470   3.81312  -0.77050   0.31301   1.76677
   2   19230.0    520.0   0.014661437   0.25100  -0.45878  -0.01246   0.20090
   3   21022.7    475.7   0.005319166   0.08330   0.25133   0.02797  -0.13911
   4   24694.3    405.0   0.300369853   4.00438  -0.24383   0.57506   1.90111
   5   25352.3    394.4   0.154444153   2.00553  -0.10367  -0.50771  -1.31796
   6   27502.7    363.6   0.017554378   0.21013  -0.03341  -0.10427  -0.44513
   7   27941.3    357.9   0.234888166   2.76752   0.54477   0.73185   1.39109
   8   28518.0    350.7   0.592722322   6.84240   1.41070  -0.29225  -2.18333
   9   30831.9    324.3   0.007782575   0.08310   0.26144  -0.00910  -0.12110
  10   30972.4    322.9   0.002650555   0.02817  -0.05019  -0.06046  -0.14832
  11   31418.7    318.3   0.131884777   1.38192  -0.13652  -0.38982  -1.10060
  12   31658.3    315.9   0.082368515   0.85654  -0.50434  -0.42483  -0.64938
  13   32959.4    303.4   0.014576217   0.14559   0.34993   0.14558   0.04416
  14   34034.3    293.8   0.215240780   2.08201  -0.11427  -0.52338  -1.33979
  15   34970.8    286.0   0.000497269   0.00468  -0.05607  -0.03920   0.00073
  16   35057.6    285.2   0.005279915   0.04958   0.21001   0.00399  -0.07390
  17   36055.3    277.4   0.000315371   0.00288  -0.02544  -0.03150   0.03521
  18   36692.2    272.5   0.244112655   2.19024   0.49575   0.65938   1.22869
  19   36831.2    271.5   0.053542583   0.47858   0.49663   0.34840   0.33252
  20   37294.9    268.1   0.107565253   0.94951  -0.52105   0.05005   0.82189
  21   37604.0    265.9   0.006035169   0.05284  -0.01032   0.07217   0.21799
  22   37797.2    264.6   0.018881813   0.16446   0.06187   0.13559   0.37716
  23   38378.1    260.6   0.027923024   0.23953  -0.17127   0.08842   0.44986
  24   38597.9    259.1   0.050061368   0.42699   0.23505  -0.13682  -0.59415
  25   39114.6    255.7   0.008461184   0.07121  -0.17366  -0.00845   0.20245
  26   39508.2    253.1   0.000528511   0.00440   0.04404   0.02604  -0.04226
  27   40022.7    249.9   0.067775504   0.55750  -0.72130  -0.18283  -0.06166

FINAL SINGLE POINT ENERGY     -3543.072622618558

DIPOLE MOMENT
-------------
                                X             Y             Z
Electronic contribution:     -9.04577      -1.95069      -1.03969
Nuclear contribution   :      9.61548       0.54730      -0.39775
                        -----------------------------------------
Total Dipole Moment    :      0.56972      -1.40339      -1.43744
                        -----------------------------------------
Magnitude (a.u.)       :      2.08814
Magnitude (Debye)      :      5.30762

Rotational constants in cm-1:     0.003728     0.000166     0.000162
Rotational constants in MHz :   111.753906     4.965414     4.852495

                             ****ORCA TERMINATED NORMALLY****
TOTAL RUN TIME: 0 days 0 hours 11 minutes 18 seconds 304 msec
