                         Program Version 4.2.0 -  RELEASE  -
|  1> # ORCA input file
|  2> # SCF done       -134.206305422570          0.000518952864
|  3> ! CAM-B3LYP def2-SVP def2/J RIJCOSX Grid4 TightSCF
|  4> %maxcore 5000
|  5> %tddft
|  6>     Mode sTDDFT
|  7>     Ethresh 5.0
|  8>     maxcore 5000
|  9> end
| 10>
| 11> %pal
| 12>   nprocs 6
| 13>   end
| 14> * xyz 0 1
| 15>    C       -1.09690         0.61933         0.19831
| 16>    S       -0.90268         2.22999         0.74028
| 17>    C        0.78024         2.23084         0.26098
| 18>    C        1.13680         1.00314        -0.26769
| 19>    C        0.05527         0.09006        -0.30547
| 20>    C        0.16408        -1.31676        -0.82019
| 21>    C        0.08842        -2.30879         0.34575
| 22>    C        1.45559        -1.47970        -1.62706
| 23>    C        2.64745        -0.88747        -0.88441
| 24>    C        2.49981         0.62741        -0.75574
| 25>    C        1.49837         3.44094         0.47768
| 26>    C        2.71965         3.76881        -0.00546
| 27>    C        3.39232         4.99245         0.26625
| 28>    S        4.88517         5.31780        -0.55312
| 29>    C        5.07185         6.85715         0.25278
| 30>    C        3.99902         7.10481         1.10049
| 31>    C        3.06859         6.04793         1.11685
| 32>    O        1.93191         6.02095         1.87464
| 33>    C        2.11558         6.14445         3.27667
| 34>    C        2.31481         7.57674         3.76796
| 35>    C        3.66554         8.16737         3.37371
| 36>    C        3.79491         8.37712         1.86229
| 37>    C        6.20137         7.66907         0.01334
| 38>    C        7.20052         7.35576        -0.85207
| 39>    C        8.35487         8.13742        -1.08860
| 40>    S        9.53910         7.56566        -2.23005
| 41>    C       10.58545         8.93876        -1.97030
| 42>    C       10.01821         9.80254        -1.03847
| 43>    C        8.76339         9.35287        -0.54246
| 44>    C        8.04692        10.09860         0.40524
| 45>    N        7.48448        10.73110         1.18165
| 46>    C       10.57610        11.01381        -0.60007
| 47>    N       10.99641        12.01035        -0.21564
| 48>    C       11.80732         9.00086        -2.68130
| 49>    C       12.76446         9.95308        -2.52508
| 50>    C       13.99302        10.01048        -3.21820
| 51>    S       15.15249        11.20702        -2.69864
| 52>    C       16.34850        10.71014        -3.86766
| 53>    C       15.82939         9.67059        -4.62188
| 54>    C       14.51482         9.26391        -4.27858
| 55>    C       14.06454         8.20891        -5.12099
| 56>    C       14.98433         7.83013        -6.03974
| 57>    C       14.86276         6.77113        -7.07249
| 58>    S       16.47650         8.75026        -5.93396
| 59>    C       17.61803        11.32628        -3.94587
| 60>    C       18.03493        12.43089        -3.04491
| 61>    C       19.27705        12.80085        -3.34408
| 62>    C       19.76295        11.95085        -4.48138
| 63>    O       20.84729        12.00473        -5.01647
| 64>    C       18.64408        11.04875        -4.79289
| 65>    H       -2.05663         0.14744         0.27579
| 66>    H       -0.69014        -1.51459        -1.47879
| 67>    H        0.88387        -2.12765         1.06404
| 68>    H        0.17662        -3.32892        -0.02130
| 69>    H       -0.86198        -2.20868         0.86406
| 70>    H        1.34684        -0.96902        -2.58697
| 71>    H        1.62539        -2.53890        -1.82834
| 72>    H        3.57114        -1.11504        -1.41970
| 73>    H        2.72178        -1.33368         0.10817
| 74>    H        2.66427         1.08903        -1.73570
| 75>    H        3.25864         1.01556        -0.07216
| 76>    H        0.97674         4.17663         1.07336
| 77>    H        3.25118         3.10232        -0.66648
| 78>    H        1.19558         5.73595         3.70490
| 79>    H        2.95939         5.51790         3.59584
| 80>    H        2.22590         7.56816         4.85605
| 81>    H        1.51210         8.19919         3.36695
| 82>    H        3.77949         9.13579         3.86389
| 83>    H        4.47234         7.51920         3.72485
| 84>    H        4.61898         9.06197         1.66680
| 85>    H        2.87726         8.84899         1.49650
| 86>    H        6.26245         8.58891         0.57459
| 87>    H        7.13416         6.43283        -1.41442
| 88>    H       11.96837         8.19100        -3.37652
| 89>    H       12.61272        10.73496        -1.79401
| 90>    H       13.09366         7.75336        -5.06294
| 91>    H       15.62807         6.00896        -6.92811
| 92>    H       15.00018         7.19240        -8.06788
| 93>    H       13.88330         6.30246        -7.01919
| 94>    H       17.38640        12.82773        -2.28399
| 95>    H       19.87706        13.56491        -2.88844
| 96>    H       18.67839        10.30885        -5.56871
| 97> *
| 98>
| 99>                          ****END OF INPUT****

CARTESIAN COORDINATES (ANGSTROEM)
---------------------------------
  C     -1.096900    0.619330    0.198310
  S     -0.902680    2.229990    0.740280
  C      0.780240    2.230840    0.260980
  C      1.136800    1.003140   -0.267690
  C      0.055270    0.090060   -0.305470
  C      0.164080   -1.316760   -0.820190
  C      0.088420   -2.308790    0.345750
  C      1.455590   -1.479700   -1.627060
  C      2.647450   -0.887470   -0.884410
  C      2.499810    0.627410   -0.755740
  C      1.498370    3.440940    0.477680
  C      2.719650    3.768810   -0.005460
  C      3.392320    4.992450    0.266250
  S      4.885170    5.317800   -0.553120
  C      5.071850    6.857150    0.252780
  C      3.999020    7.104810    1.100490
  C      3.068590    6.047930    1.116850
  O      1.931910    6.020950    1.874640
  C      2.115580    6.144450    3.276670
  C      2.314810    7.576740    3.767960
  C      3.665540    8.167370    3.373710
  C      3.794910    8.377120    1.862290
  C      6.201370    7.669070    0.013340
  C      7.200520    7.355760   -0.852070
  C      8.354870    8.137420   -1.088600
  S      9.539100    7.565660   -2.230050
  C     10.585450    8.938760   -1.970300
  C     10.018210    9.802540   -1.038470
  C      8.763390    9.352870   -0.542460
  C      8.046920   10.098600    0.405240
  N      7.484480   10.731100    1.181650
  C     10.576100   11.013810   -0.600070
  N     10.996410   12.010350   -0.215640
  C     11.807320    9.000860   -2.681300
  C     12.764460    9.953080   -2.525080
  C     13.993020   10.010480   -3.218200
  S     15.152490   11.207020   -2.698640
  C     16.348500   10.710140   -3.867660
  C     15.829390    9.670590   -4.621880
  C     14.514820    9.263910   -4.278580
  C     14.064540    8.208910   -5.120990
  C     14.984330    7.830130   -6.039740
  C     14.862760    6.771130   -7.072490
  S     16.476500    8.750260   -5.933960
  C     17.618030   11.326280   -3.945870
  C     18.034930   12.430890   -3.044910
  C     19.277050   12.800850   -3.344080
  C     19.762950   11.950850   -4.481380
  O     20.847290   12.004730   -5.016470
  C     18.644080   11.048750   -4.792890
  H     -2.056630    0.147440    0.275790
  H     -0.690140   -1.514590   -1.478790
  H      0.883870   -2.127650    1.064040
  H      0.176620   -3.328920   -0.021300
  H     -0.861980   -2.208680    0.864060
  H      1.346840   -0.969020   -2.586970
  H      1.625390   -2.538900   -1.828340
  H      3.571140   -1.115040   -1.419700
  H      2.721780   -1.333680    0.108170
  H      2.664270    1.089030   -1.735700
  H      3.258640    1.015560   -0.072160
  H      0.976740    4.176630    1.073360
  H      3.251180    3.102320   -0.666480
  H      1.195580    5.735950    3.704900
  H      2.959390    5.517900    3.595840
  H      2.225900    7.568160    4.856050
  H      1.512100    8.199190    3.366950
  H      3.779490    9.135790    3.863890
  H      4.472340    7.519200    3.724850
  H      4.618980    9.061970    1.666800
  H      2.877260    8.848990    1.496500
  H      6.262450    8.588910    0.574590
  H      7.134160    6.432830   -1.414420
  H     11.968370    8.191000   -3.376520
  H     12.612720   10.734960   -1.794010
  H     13.093660    7.753360   -5.062940
  H     15.628070    6.008960   -6.928110
  H     15.000180    7.192400   -8.067880
  H     13.883300    6.302460   -7.019190
  H     17.386400   12.827730   -2.283990
  H     19.877060   13.564910   -2.888440
  H     18.678390   10.308850   -5.568710

 Total Charge           Charge          ....    0
 Multiplicity           Mult            ....    1
 Number of Electrons    NEL             ....  388
 Basis Dimension        Dim             ....  880

ORBITAL ENERGIES
----------------

  NO   OCC          E(Eh)            E(eV)
   0   2.0000     -88.980617     -2421.2857
   1   2.0000     -88.970287     -2421.0046
   2   2.0000     -88.959613     -2420.7141
   3   2.0000     -88.952404     -2420.5180
   4   2.0000     -88.942900     -2420.2594
   5   2.0000     -19.240151      -523.5511
   6   2.0000     -19.205124      -522.5980
   7   2.0000     -14.411469      -392.1560
   8   2.0000     -14.410927      -392.1413
   9   2.0000     -10.347058      -281.5578
  10   2.0000     -10.335444      -281.2417
  11   2.0000     -10.334080      -281.2046
  12   2.0000     -10.324548      -280.9452
  13   2.0000     -10.324378      -280.9406
  14   2.0000     -10.321491      -280.8620
  15   2.0000     -10.321360      -280.8585
  16   2.0000     -10.318412      -280.7783
  17   2.0000     -10.316975      -280.7392
  18   2.0000     -10.316244      -280.7193
  19   2.0000     -10.311655      -280.5944
  20   2.0000     -10.311444      -280.5886
  21   2.0000     -10.310445      -280.5615
  22   2.0000     -10.301905      -280.3291
  23   2.0000     -10.301477      -280.3174
  24   2.0000     -10.300325      -280.2861
  25   2.0000     -10.300004      -280.2774
  26   2.0000     -10.298638      -280.2402
  27   2.0000     -10.295777      -280.1623
  28   2.0000     -10.294918      -280.1390
  29   2.0000     -10.289243      -279.9845
  30   2.0000     -10.287056      -279.9250
  31   2.0000     -10.286951      -279.9222
  32   2.0000     -10.286563      -279.9116
  33   2.0000     -10.284922      -279.8670
  34   2.0000     -10.283769      -279.8356
  35   2.0000     -10.280409      -279.7442
  36   2.0000     -10.276382      -279.6346
  37   2.0000     -10.275704      -279.6161
  38   2.0000     -10.272623      -279.5323
  39   2.0000     -10.269871      -279.4574
  40   2.0000     -10.268689      -279.4252
  41   2.0000     -10.268258      -279.4135
  42   2.0000     -10.267206      -279.3849
  43   2.0000     -10.267075      -279.3813
  44   2.0000     -10.266843      -279.3750
  45   2.0000     -10.264047      -279.2989
  46   2.0000     -10.261214      -279.2218
  47   2.0000     -10.260529      -279.2032
  48   2.0000     -10.258658      -279.1523
  49   2.0000     -10.253552      -279.0133
  50   2.0000      -8.076399      -219.7700
  51   2.0000      -8.065212      -219.4656
  52   2.0000      -8.055383      -219.1981
  53   2.0000      -8.048080      -218.9994
  54   2.0000      -8.038945      -218.7508
  55   2.0000      -6.045638      -164.5102
  56   2.0000      -6.041573      -164.3996
  57   2.0000      -6.038457      -164.3148
  58   2.0000      -6.034439      -164.2054
  59   2.0000      -6.030339      -164.0939
  60   2.0000      -6.027492      -164.0164
  61   2.0000      -6.025105      -163.9514
  62   2.0000      -6.020789      -163.8340
  63   2.0000      -6.017295      -163.7389
  64   2.0000      -6.016692      -163.7225
  65   2.0000      -6.013506      -163.6358
  66   2.0000      -6.009995      -163.5403
  67   2.0000      -6.008103      -163.4888
  68   2.0000      -6.003973      -163.3764
  69   2.0000      -6.001305      -163.3038
  70   2.0000      -1.144720       -31.1494
  71   2.0000      -1.114180       -30.3184
  72   2.0000      -1.023708       -27.8565
  73   2.0000      -1.015901       -27.6441
  74   2.0000      -0.992664       -27.0118
  75   2.0000      -0.988865       -26.9084
  76   2.0000      -0.983958       -26.7749
  77   2.0000      -0.977270       -26.5929
  78   2.0000      -0.965748       -26.2793
  79   2.0000      -0.952160       -25.9096
  80   2.0000      -0.925866       -25.1941
  81   2.0000      -0.914965       -24.8975
  82   2.0000      -0.909084       -24.7374
  83   2.0000      -0.900407       -24.5013
  84   2.0000      -0.885422       -24.0935
  85   2.0000      -0.882943       -24.0261
  86   2.0000      -0.869440       -23.6587
  87   2.0000      -0.861186       -23.4341
  88   2.0000      -0.857486       -23.3334
  89   2.0000      -0.852068       -23.1859
  90   2.0000      -0.839401       -22.8413
  91   2.0000      -0.820582       -22.3292
  92   2.0000      -0.815586       -22.1932
  93   2.0000      -0.810404       -22.0522
  94   2.0000      -0.794114       -21.6089
  95   2.0000      -0.783366       -21.3165
  96   2.0000      -0.780931       -21.2502
  97   2.0000      -0.777967       -21.1696
  98   2.0000      -0.761975       -20.7344
  99   2.0000      -0.758341       -20.6355
 100   2.0000      -0.752536       -20.4775
 101   2.0000      -0.728289       -19.8177
 102   2.0000      -0.718967       -19.5641
 103   2.0000      -0.705956       -19.2100
 104   2.0000      -0.694297       -18.8928
 105   2.0000      -0.687678       -18.7127
 106   2.0000      -0.674035       -18.3414
 107   2.0000      -0.666924       -18.1479
 108   2.0000      -0.663061       -18.0428
 109   2.0000      -0.654724       -17.8159
 110   2.0000      -0.645411       -17.5625
 111   2.0000      -0.641784       -17.4638
 112   2.0000      -0.638838       -17.3837
 113   2.0000      -0.637182       -17.3386
 114   2.0000      -0.622238       -16.9320
 115   2.0000      -0.617580       -16.8052
 116   2.0000      -0.614502       -16.7215
 117   2.0000      -0.608803       -16.5664
 118   2.0000      -0.593982       -16.1631
 119   2.0000      -0.587839       -15.9959
 120   2.0000      -0.584539       -15.9061
 121   2.0000      -0.572825       -15.5874
 122   2.0000      -0.563717       -15.3395
 123   2.0000      -0.560492       -15.2518
 124   2.0000      -0.554777       -15.0962
 125   2.0000      -0.549367       -14.9490
 126   2.0000      -0.544724       -14.8227
 127   2.0000      -0.539119       -14.6702
 128   2.0000      -0.529221       -14.4008
 129   2.0000      -0.527534       -14.3549
 130   2.0000      -0.526850       -14.3363
 131   2.0000      -0.525717       -14.3055
 132   2.0000      -0.522505       -14.2181
 133   2.0000      -0.512933       -13.9576
 134   2.0000      -0.509431       -13.8623
 135   2.0000      -0.508340       -13.8326
 136   2.0000      -0.507432       -13.8079
 137   2.0000      -0.505413       -13.7530
 138   2.0000      -0.500859       -13.6291
 139   2.0000      -0.499252       -13.5853
 140   2.0000      -0.498064       -13.5530
 141   2.0000      -0.496519       -13.5110
 142   2.0000      -0.491714       -13.3802
 143   2.0000      -0.489404       -13.3174
 144   2.0000      -0.489207       -13.3120
 145   2.0000      -0.486131       -13.2283
 146   2.0000      -0.479887       -13.0584
 147   2.0000      -0.479507       -13.0480
 148   2.0000      -0.477538       -12.9945
 149   2.0000      -0.474587       -12.9142
 150   2.0000      -0.473043       -12.8722
 151   2.0000      -0.465173       -12.6580
 152   2.0000      -0.459681       -12.5085
 153   2.0000      -0.457402       -12.4465
 154   2.0000      -0.454404       -12.3650
 155   2.0000      -0.453224       -12.3329
 156   2.0000      -0.450184       -12.2501
 157   2.0000      -0.449513       -12.2319
 158   2.0000      -0.445466       -12.1217
 159   2.0000      -0.442109       -12.0304
 160   2.0000      -0.439778       -11.9670
 161   2.0000      -0.437740       -11.9115
 162   2.0000      -0.436710       -11.8835
 163   2.0000      -0.434681       -11.8283
 164   2.0000      -0.428316       -11.6551
 165   2.0000      -0.425052       -11.5662
 166   2.0000      -0.424196       -11.5430
 167   2.0000      -0.423928       -11.5357
 168   2.0000      -0.422461       -11.4957
 169   2.0000      -0.417904       -11.3717
 170   2.0000      -0.415316       -11.3013
 171   2.0000      -0.411264       -11.1911
 172   2.0000      -0.407433       -11.0868
 173   2.0000      -0.406570       -11.0633
 174   2.0000      -0.401213       -10.9176
 175   2.0000      -0.399318       -10.8660
 176   2.0000      -0.398670       -10.8484
 177   2.0000      -0.395826       -10.7710
 178   2.0000      -0.386314       -10.5121
 179   2.0000      -0.384741       -10.4693
 180   2.0000      -0.381103       -10.3703
 181   2.0000      -0.366736        -9.9794
 182   2.0000      -0.357215        -9.7203
 183   2.0000      -0.349158        -9.5011
 184   2.0000      -0.335640        -9.1332
 185   2.0000      -0.322269        -8.7694
 186   2.0000      -0.320932        -8.7330
 187   2.0000      -0.315496        -8.5851
 188   2.0000      -0.304440        -8.2842
 189   2.0000      -0.302361        -8.2277
 190   2.0000      -0.299661        -8.1542
 191   2.0000      -0.285562        -7.7705
 192   2.0000      -0.251019        -6.8306
 193   2.0000      -0.227471        -6.1898
 194   0.0000      -0.087077        -2.3695
 195   0.0000      -0.061660        -1.6778
 196   0.0000      -0.041566        -1.1311
 197   0.0000      -0.011498        -0.3129
 198   0.0000       0.007268         0.1978

MULLIKEN ATOMIC CHARGES
-----------------------
   0 C :   -0.136494
   1 S :    0.110091
   2 C :   -0.152075
   3 C :   -0.062074
   4 C :   -0.006688
   5 C :   -0.029320
   6 C :    0.068366
   7 C :    0.051585
   8 C :    0.036870
   9 C :    0.099868
  10 C :    0.043741
  11 C :    0.001433
  12 C :   -0.089392
  13 S :    0.101870
  14 C :   -0.113196
  15 C :   -0.042741
  16 C :    0.121233
  17 O :   -0.331974
  18 C :    0.221451
  19 C :    0.005560
  20 C :   -0.004118
  21 C :    0.123820
  22 C :    0.004063
  23 C :    0.017550
  24 C :   -0.082670
  25 S :    0.154822
  26 C :   -0.096144
  27 C :   -0.020902
  28 C :   -0.025873
  29 C :   -0.258983
  30 N :    0.183086
  31 C :   -0.252345
  32 N :    0.189788
  33 C :    0.040672
  34 C :    0.051852
  35 C :   -0.127569
  36 S :    0.159338
  37 C :   -0.105620
  38 C :   -0.054295
  39 C :    0.130717
  40 C :   -0.016796
  41 C :   -0.192707
  42 C :    0.115735
  43 S :    0.120315
  44 C :    0.064339
  45 C :    0.028317
  46 C :   -0.030972
  47 C :    0.144693
  48 O :   -0.143674
  49 C :   -0.142806
  50 H :    0.009181
  51 H :   -0.003501
  52 H :    0.009240
  53 H :    0.006689
  54 H :    0.004261
  55 H :   -0.001629
  56 H :   -0.006213
  57 H :   -0.004130
  58 H :    0.002179
  59 H :    0.021295
  60 H :    0.017278
  61 H :    0.000418
  62 H :   -0.033780
  63 H :    0.017450
  64 H :    0.001743
  65 H :    0.014155
  66 H :    0.007872
  67 H :    0.014456
  68 H :    0.005108
  69 H :    0.011336
  70 H :    0.019011
  71 H :    0.001468
  72 H :   -0.018011
  73 H :   -0.040304
  74 H :   -0.001682
  75 H :   -0.021730
  76 H :    0.042220
  77 H :    0.041631
  78 H :    0.023347
  79 H :    0.005299
  80 H :   -0.004953
  81 H :   -0.011453
Sum of atomic charges:   -0.0000000

LOEWDIN ATOMIC CHARGES
----------------------
   0 C :   -0.192984
   1 S :    0.431594
   2 C :   -0.180905
   3 C :   -0.053283
   4 C :   -0.059009
   5 C :   -0.028573
   6 C :   -0.042985
   7 C :   -0.025203
   8 C :   -0.028664
   9 C :   -0.029041
  10 C :   -0.024595
  11 C :   -0.063171
  12 C :   -0.169824
  13 S :    0.425025
  14 C :   -0.185296
  15 C :   -0.049612
  16 C :   -0.001082
  17 O :   -0.114846
  18 C :    0.086141
  19 C :   -0.049560
  20 C :   -0.028976
  21 C :   -0.021797
  22 C :    0.000728
  23 C :   -0.083773
  24 C :   -0.125248
  25 S :    0.462979
  26 C :   -0.136989
  27 C :   -0.089830
  28 C :   -0.101229
  29 C :   -0.026857
  30 N :   -0.053742
  31 C :   -0.029015
  32 N :   -0.045267
  33 C :   -0.057827
  34 C :   -0.017287
  35 C :   -0.168067
  36 S :    0.470281
  37 C :   -0.193833
  38 C :   -0.173147
  39 C :   -0.062952
  40 C :   -0.076426
  41 C :   -0.136585
  42 C :   -0.058394
  43 S :    0.408628
  44 C :   -0.016034
  45 C :    0.002223
  46 C :   -0.038692
  47 C :    0.074001
  48 O :   -0.116971
  49 C :   -0.085106
  50 H :    0.018819
  51 H :    0.028882
  52 H :    0.021467
  53 H :    0.020715
  54 H :    0.022461
  55 H :    0.021406
  56 H :    0.021194
  57 H :    0.023568
  58 H :    0.020516
  59 H :    0.030791
  60 H :    0.031649
  61 H :    0.029105
  62 H :    0.023669
  63 H :    0.023768
  64 H :    0.013451
  65 H :    0.031104
  66 H :    0.025957
  67 H :    0.029332
  68 H :    0.022316
  69 H :    0.034580
  70 H :    0.038127
  71 H :    0.039778
  72 H :    0.020589
  73 H :    0.026187
  74 H :    0.038019
  75 H :    0.026258
  76 H :    0.041967
  77 H :    0.041806
  78 H :    0.039451
  79 H :    0.024254
  80 H :    0.031254
  81 H :    0.018642

  Mayer bond orders larger than 0.100000
B(  0-C ,  1-S ) :   1.1633 B(  0-C ,  4-C ) :   1.5489 B(  0-C , 50-H ) :   0.9692
B(  1-S ,  2-C ) :   1.1334 B(  2-C ,  3-C ) :   1.4989 B(  2-C , 10-C ) :   1.1198
B(  3-C ,  4-C ) :   1.3230 B(  3-C ,  9-C ) :   1.0620 B(  4-C ,  5-C ) :   0.9731
B(  5-C ,  6-C ) :   1.0720 B(  5-C ,  7-C ) :   1.0686 B(  5-C , 51-H ) :   0.9092
B(  6-C , 52-H ) :   0.9615 B(  6-C , 53-H ) :   0.9650 B(  6-C , 54-H ) :   0.9645
B(  7-C ,  8-C ) :   1.0687 B(  7-C , 55-H ) :   0.9414 B(  7-C , 56-H ) :   0.9369
B(  8-C ,  9-C ) :   1.0802 B(  8-C , 57-H ) :   0.9308 B(  8-C , 58-H ) :   0.9454
B(  9-C , 59-H ) :   0.9057 B(  9-C , 60-H ) :   0.9125 B( 10-C , 11-C ) :   1.6898
B( 10-C , 61-H ) :   0.9466 B( 11-C , 12-C ) :   1.1343 B( 11-C , 62-H ) :   0.9475
B( 12-C , 13-S ) :   1.1253 B( 12-C , 14-C ) :   0.1035 B( 12-C , 16-C ) :   1.4624
B( 13-S , 14-C ) :   1.0765 B( 14-C , 15-C ) :   1.4648 B( 14-C , 22-C ) :   1.2061
B( 15-C , 16-C ) :   1.2577 B( 15-C , 21-C ) :   1.0691 B( 16-C , 17-O ) :   1.1295
B( 17-O , 18-C ) :   0.9474 B( 18-C , 19-C ) :   1.0867 B( 18-C , 63-H ) :   0.9525
B( 18-C , 64-H ) :   0.9358 B( 19-C , 20-C ) :   1.0839 B( 19-C , 65-H ) :   0.9355
B( 19-C , 66-H ) :   0.9310 B( 20-C , 21-C ) :   1.0745 B( 20-C , 67-H ) :   0.9384
B( 20-C , 68-H ) :   0.9460 B( 21-C , 69-H ) :   0.9092 B( 21-C , 70-H ) :   0.9136
B( 22-C , 23-C ) :   1.6278 B( 22-C , 71-H ) :   0.9566 B( 23-C , 24-C ) :   1.1733
B( 23-C , 72-H ) :   0.9426 B( 24-C , 25-S ) :   1.1205 B( 24-C , 28-C ) :   1.4551
B( 25-S , 26-C ) :   1.1111 B( 26-C , 27-C ) :   1.4611 B( 26-C , 33-C ) :   1.1776
B( 27-C , 28-C ) :   1.3333 B( 27-C , 31-C ) :   1.1689 B( 28-C , 29-C ) :   1.1625
B( 29-C , 30-N ) :   2.9600 B( 31-C , 32-N ) :   2.9385 B( 33-C , 34-C ) :   1.6488
B( 33-C , 73-H ) :   0.9386 B( 34-C , 35-C ) :   1.1769 B( 34-C , 74-H ) :   0.9381
B( 35-C , 36-S ) :   1.1321 B( 35-C , 37-C ) :   0.1069 B( 35-C , 39-C ) :   1.3583
B( 36-S , 37-C ) :   1.1236 B( 37-C , 38-C ) :   1.4841 B( 37-C , 44-C ) :   1.1474
B( 38-C , 39-C ) :   1.2657 B( 38-C , 43-S ) :   1.0675 B( 39-C , 40-C ) :   1.1295
B( 40-C , 41-C ) :   1.6846 B( 40-C , 75-H ) :   0.9919 B( 41-C , 42-C ) :   1.0689
B( 41-C , 43-S ) :   1.0741 B( 42-C , 76-H ) :   0.9477 B( 42-C , 77-H ) :   0.9478
B( 42-C , 78-H ) :   0.9564 B( 44-C , 45-C ) :   0.9919 B( 44-C , 49-C ) :   1.6264
B( 45-C , 46-C ) :   1.7701 B( 45-C , 79-H ) :   0.9956 B( 46-C , 47-C ) :   0.9703
B( 46-C , 80-H ) :   1.0090 B( 47-C , 48-O ) :   2.1670 B( 47-C , 49-C ) :   0.9783
B( 49-C , 81-H ) :   1.0119

-----------------------------------------------------------------------------
         ABSORPTION SPECTRUM VIA TRANSITION ELECTRIC DIPOLE MOMENTS
-----------------------------------------------------------------------------
State   Energy  Wavelength   fosc         T2         TX        TY        TZ
        (cm-1)    (nm)                  (au**2)     (au)      (au)      (au)
-----------------------------------------------------------------------------
   0   17246.9    579.8   2.193206371  41.86443   5.70280   2.43310  -1.85000
   1   21936.0    455.9   0.167736867   2.51736   0.37680   1.51169   0.30028
   2   23677.5    422.3   0.186466357   2.59263   1.37350   0.76708  -0.34309
   3   24797.1    403.3   0.000024390   0.00032   0.01269   0.00600   0.01126
   4   25939.2    385.5   0.233030696   2.95755  -0.19353  -1.44554  -0.91132
   5   28483.1    351.1   0.008321492   0.09618   0.08396  -0.18966  -0.23057
   6   29316.1    341.1   0.029100364   0.32679   0.48724   0.10093  -0.28142
   7   30990.4    322.7   0.102392691   1.08772   0.91305   0.38614  -0.32398
   8   31888.7    313.6   0.167711571   1.73142   0.45140   1.05396   0.64561
   9   32430.0    308.4   0.118480631   1.20275  -0.71395  -0.83200   0.02850
  10   32940.2    303.6   0.032772214   0.32753   0.40022  -0.10786  -0.39462
  11   33576.7    297.8   0.072765019   0.71345  -0.55931   0.33392   0.53769
  12   35136.8    284.6   0.021301492   0.19958  -0.00038  -0.32991  -0.30124
  13   36378.0    274.9   0.002682633   0.02428  -0.11203  -0.10309  -0.03314
  14   36667.5    272.7   0.000557142   0.00500  -0.01740   0.06553  -0.02012
  15   37098.4    269.6   0.035713742   0.31692   0.25585  -0.40436  -0.29657
  16   37693.7    265.3   0.132690676   1.15890  -0.98343  -0.43537   0.04723
  17   38096.7    262.5   0.082339566   0.71154  -0.22085  -0.62389  -0.52299
  18   39339.8    254.2   0.044938864   0.37607  -0.41400   0.15723   0.42421
  19   39415.4    253.7   0.038846401   0.32446   0.03349  -0.47583  -0.31132
  20   39866.8    250.8   0.015816273   0.13061   0.21593   0.27033   0.10443

FINAL SINGLE POINT ENERGY     -3829.489379977037

DIPOLE MOMENT
-------------
                                X             Y             Z
Electronic contribution:     69.36278      60.97067     -19.93771
Nuclear contribution   :    -71.58775     -64.35153      19.56116
                        -----------------------------------------
Total Dipole Moment    :     -2.22497      -3.38087      -0.37655
                        -----------------------------------------
Magnitude (a.u.)       :      4.06479
Magnitude (Debye)      :     10.33188

Rotational constants in cm-1:     0.003220     0.000385     0.000348
Rotational constants in MHz :    96.534341    11.547005    10.418246

                             ****ORCA TERMINATED NORMALLY****
TOTAL RUN TIME: 0 days 0 hours 5 minutes 13 seconds 19 msec
