                         Program Version 4.2.0 -  RELEASE  -
|  1> # ORCA input file
|  2> # SCF done       -140.544229148936          0.000547327646
|  3> ! CAM-B3LYP def2-SVP def2/J RIJCOSX Grid4 TightSCF
|  4> %maxcore 5000
|  5> %tddft
|  6>     Mode sTDDFT
|  7>     Ethresh 5.0
|  8>     maxcore 5000
|  9> end
| 10>
| 11> %pal
| 12>   nprocs 6
| 13>   end
| 14> * xyz 0 1
| 15>    O        1.30875         5.60451        -1.33231
| 16>    C        2.05906         6.55035        -0.71718
| 17>    N        3.04621         6.96573        -1.43861
| 18>    C        2.96597         6.25848        -2.61349
| 19>    C        1.88172         5.42088        -2.52529
| 20>    C        3.91437         6.44215        -3.70208
| 21>    O        3.88561         5.84708        -4.74845
| 22>    C        1.67777         7.04358         0.62107
| 23>    S        0.25158         8.21256         0.41303
| 24>    C       -0.89606         7.07162         1.24960
| 25>    C       -0.03843         6.40215         2.32151
| 26>    C        1.21533         5.93356         1.56886
| 27>    C       -0.82316         5.20090         2.88952
| 28>    O       -0.86191         4.13807         2.31723
| 29>    N       -1.51590         5.48352         4.00611
| 30>    N        0.24831         7.39712         3.34806
| 31>    C        1.27531         7.18426         4.24427
| 32>    S        1.43453         5.67777         5.09538
| 33>    C        2.83960         6.28525         5.94278
| 34>    C        3.12425         7.58881         5.58580
| 35>    C        2.22713         8.09937         4.62563
| 36>    C        2.37466         9.47010         4.03933
| 37>    C        3.84711         9.87090         4.10939
| 38>    C        4.66093         8.95248         3.21150
| 39>    O        4.19667         8.10295         2.49443
| 40>    O        5.96436         9.21313         3.29913
| 41>    C        6.82232         8.41268         2.49535
| 42>    C        4.32815         9.79596         5.56192
| 43>    C        4.30620         8.35758         6.08065
| 44>    C        3.48265         5.39963         6.83211
| 45>    S        4.98349         5.82458         7.70528
| 46>    C        4.93112         4.25780         8.40834
| 47>    C        3.81961         3.55326         7.94320
| 48>    N        3.03965         4.19786         7.08087
| 49>    C        3.76108         2.18742         8.54860
| 50>    C        4.98177         2.20760         9.42152
| 51>    C        5.64113         3.43643         9.31221
| 52>    S        7.04373         3.51528        10.29015
| 53>    C        6.75504         1.88011        10.86271
| 54>    C        5.61295         1.33427        10.29580
| 55>    C        7.66386         1.31547        11.79309
| 56>    C        7.57790         0.07409        12.32051
| 57>    C        8.53753        -0.41571        13.25409
| 58>    N        9.58264         0.20192        13.72762
| 59>    C       10.17835        -0.68485        14.58282
| 60>    C        9.43428        -1.84190        14.58518
| 61>    O        8.40236        -1.67912        13.75250
| 62>    C       11.39085        -0.36696        15.32056
| 63>    O       11.94864        -1.11262        16.08549
| 64>    H        1.46020         4.70584        -3.20110
| 65>    H        4.68402         7.20017        -3.47366
| 66>    H        2.50853         7.62231         1.02751
| 67>    H       -1.27058         6.33898         0.53551
| 68>    H       -1.72188         7.64655         1.66288
| 69>    H        0.94671         5.03504         1.01082
| 70>    H        2.01648         5.68457         2.26423
| 71>    H       -1.36920         6.35397         4.48795
| 72>    H       -2.00468         4.73740         4.47234
| 73>    H        0.31540         8.32241         2.93063
| 74>    H        1.77154        10.19404         4.59486
| 75>    H        2.04226         9.47846         2.99839
| 76>    H        3.98211        10.89147         3.73703
| 77>    H        7.82646         8.80119         2.64279
| 78>    H        6.53083         8.48120         1.44561
| 79>    H        6.76591         7.36790         2.80751
| 80>    H        3.66825        10.41798         6.16973
| 81>    H        5.33973        10.19359         5.64165
| 82>    H        4.31953         8.36016         7.17436
| 83>    H        5.21416         7.83525         5.75945
| 84>    H        3.80767         1.40750         7.78655
| 85>    H        2.84325         2.03875         9.12000
| 86>    H        5.26771         0.34198        10.52040
| 87>    H        8.49406         1.93499        12.10305
| 88>    H        6.78306        -0.60899        12.06478
| 89>    H        9.54466        -2.77123        15.10475
| 90>    H       11.76543         0.65038        15.11021
| 91> *
| 92>
| 93>                          ****END OF INPUT****

CARTESIAN COORDINATES (ANGSTROEM)
---------------------------------
  O      1.308750    5.604510   -1.332310
  C      2.059060    6.550350   -0.717180
  N      3.046210    6.965730   -1.438610
  C      2.965970    6.258480   -2.613490
  C      1.881720    5.420880   -2.525290
  C      3.914370    6.442150   -3.702080
  O      3.885610    5.847080   -4.748450
  C      1.677770    7.043580    0.621070
  S      0.251580    8.212560    0.413030
  C     -0.896060    7.071620    1.249600
  C     -0.038430    6.402150    2.321510
  C      1.215330    5.933560    1.568860
  C     -0.823160    5.200900    2.889520
  O     -0.861910    4.138070    2.317230
  N     -1.515900    5.483520    4.006110
  N      0.248310    7.397120    3.348060
  C      1.275310    7.184260    4.244270
  S      1.434530    5.677770    5.095380
  C      2.839600    6.285250    5.942780
  C      3.124250    7.588810    5.585800
  C      2.227130    8.099370    4.625630
  C      2.374660    9.470100    4.039330
  C      3.847110    9.870900    4.109390
  C      4.660930    8.952480    3.211500
  O      4.196670    8.102950    2.494430
  O      5.964360    9.213130    3.299130
  C      6.822320    8.412680    2.495350
  C      4.328150    9.795960    5.561920
  C      4.306200    8.357580    6.080650
  C      3.482650    5.399630    6.832110
  S      4.983490    5.824580    7.705280
  C      4.931120    4.257800    8.408340
  C      3.819610    3.553260    7.943200
  N      3.039650    4.197860    7.080870
  C      3.761080    2.187420    8.548600
  C      4.981770    2.207600    9.421520
  C      5.641130    3.436430    9.312210
  S      7.043730    3.515280   10.290150
  C      6.755040    1.880110   10.862710
  C      5.612950    1.334270   10.295800
  C      7.663860    1.315470   11.793090
  C      7.577900    0.074090   12.320510
  C      8.537530   -0.415710   13.254090
  N      9.582640    0.201920   13.727620
  C     10.178350   -0.684850   14.582820
  C      9.434280   -1.841900   14.585180
  O      8.402360   -1.679120   13.752500
  C     11.390850   -0.366960   15.320560
  O     11.948640   -1.112620   16.085490
  H      1.460200    4.705840   -3.201100
  H      4.684020    7.200170   -3.473660
  H      2.508530    7.622310    1.027510
  H     -1.270580    6.338980    0.535510
  H     -1.721880    7.646550    1.662880
  H      0.946710    5.035040    1.010820
  H      2.016480    5.684570    2.264230
  H     -1.369200    6.353970    4.487950
  H     -2.004680    4.737400    4.472340
  H      0.315400    8.322410    2.930630
  H      1.771540   10.194040    4.594860
  H      2.042260    9.478460    2.998390
  H      3.982110   10.891470    3.737030
  H      7.826460    8.801190    2.642790
  H      6.530830    8.481200    1.445610
  H      6.765910    7.367900    2.807510
  H      3.668250   10.417980    6.169730
  H      5.339730   10.193590    5.641650
  H      4.319530    8.360160    7.174360
  H      5.214160    7.835250    5.759450
  H      3.807670    1.407500    7.786550
  H      2.843250    2.038750    9.120000
  H      5.267710    0.341980   10.520400
  H      8.494060    1.934990   12.103050
  H      6.783060   -0.608990   12.064780
  H      9.544660   -2.771230   15.104750
  H     11.765430    0.650380   15.110210

 Total Charge           Charge          ....    0
 Multiplicity           Mult            ....    1
 Number of Electrons    NEL             ....  380
 Basis Dimension        Dim             ....  837

ORBITAL ENERGIES
----------------

  NO   OCC          E(Eh)            E(eV)
   0   2.0000     -88.967019     -2420.9157
   1   2.0000     -88.962234     -2420.7855
   2   2.0000     -88.951815     -2420.5019
   3   2.0000     -88.925340     -2419.7815
   4   2.0000     -19.310253      -525.4587
   5   2.0000     -19.305029      -525.3165
   6   2.0000     -19.270699      -524.3824
   7   2.0000     -19.215479      -522.8798
   8   2.0000     -19.205433      -522.6064
   9   2.0000     -19.203350      -522.5497
  10   2.0000     -19.180615      -521.9311
  11   2.0000     -14.435322      -392.8051
  12   2.0000     -14.429722      -392.6527
  13   2.0000     -14.407686      -392.0531
  14   2.0000     -14.405249      -391.9868
  15   2.0000     -14.402980      -391.9250
  16   2.0000     -10.405359      -283.1442
  17   2.0000     -10.371514      -282.2232
  18   2.0000     -10.362340      -281.9736
  19   2.0000     -10.360306      -281.9182
  20   2.0000     -10.350718      -281.6574
  21   2.0000     -10.348204      -281.5890
  22   2.0000     -10.341780      -281.4141
  23   2.0000     -10.340387      -281.3762
  24   2.0000     -10.337638      -281.3014
  25   2.0000     -10.329802      -281.0882
  26   2.0000     -10.329287      -281.0742
  27   2.0000     -10.328880      -281.0631
  28   2.0000     -10.309872      -280.5459
  29   2.0000     -10.306402      -280.4515
  30   2.0000     -10.306038      -280.4415
  31   2.0000     -10.303855      -280.3822
  32   2.0000     -10.299761      -280.2707
  33   2.0000     -10.298477      -280.2358
  34   2.0000     -10.297152      -280.1997
  35   2.0000     -10.295376      -280.1514
  36   2.0000     -10.293878      -280.1107
  37   2.0000     -10.292381      -280.0699
  38   2.0000     -10.290649      -280.0228
  39   2.0000     -10.286438      -279.9082
  40   2.0000     -10.283747      -279.8350
  41   2.0000     -10.281918      -279.7852
  42   2.0000     -10.281423      -279.7717
  43   2.0000     -10.280726      -279.7528
  44   2.0000     -10.279811      -279.7279
  45   2.0000     -10.278670      -279.6968
  46   2.0000     -10.277925      -279.6766
  47   2.0000     -10.273251      -279.5494
  48   2.0000     -10.268723      -279.4262
  49   2.0000      -8.061312      -219.3595
  50   2.0000      -8.057298      -219.2502
  51   2.0000      -8.046742      -218.9630
  52   2.0000      -8.020631      -218.2525
  53   2.0000      -6.030699      -164.1037
  54   2.0000      -6.026642      -163.9933
  55   2.0000      -6.026588      -163.9918
  56   2.0000      -6.023320      -163.9029
  57   2.0000      -6.022541      -163.8817
  58   2.0000      -6.019456      -163.7977
  59   2.0000      -6.016265      -163.7109
  60   2.0000      -6.012122      -163.5982
  61   2.0000      -6.008329      -163.4949
  62   2.0000      -5.991223      -163.0295
  63   2.0000      -5.987140      -162.9184
  64   2.0000      -5.979976      -162.7234
  65   2.0000      -1.240225       -33.7482
  66   2.0000      -1.232419       -33.5358
  67   2.0000      -1.203006       -32.7355
  68   2.0000      -1.123206       -30.5640
  69   2.0000      -1.119054       -30.4510
  70   2.0000      -1.116380       -30.3782
  71   2.0000      -1.107963       -30.1492
  72   2.0000      -1.065716       -28.9996
  73   2.0000      -1.053773       -28.6746
  74   2.0000      -1.017586       -27.6899
  75   2.0000      -1.012693       -27.5568
  76   2.0000      -0.996419       -27.1139
  77   2.0000      -0.989085       -26.9144
  78   2.0000      -0.979422       -26.6514
  79   2.0000      -0.944923       -25.7127
  80   2.0000      -0.934133       -25.4190
  81   2.0000      -0.924543       -25.1581
  82   2.0000      -0.901387       -24.5280
  83   2.0000      -0.895112       -24.3572
  84   2.0000      -0.884715       -24.0743
  85   2.0000      -0.860650       -23.4195
  86   2.0000      -0.853158       -23.2156
  87   2.0000      -0.848729       -23.0951
  88   2.0000      -0.835714       -22.7409
  89   2.0000      -0.825286       -22.4572
  90   2.0000      -0.824895       -22.4465
  91   2.0000      -0.813689       -22.1416
  92   2.0000      -0.808095       -21.9894
  93   2.0000      -0.784089       -21.3361
  94   2.0000      -0.766026       -20.8446
  95   2.0000      -0.762678       -20.7535
  96   2.0000      -0.755429       -20.5563
  97   2.0000      -0.735697       -20.0193
  98   2.0000      -0.729104       -19.8399
  99   2.0000      -0.721743       -19.6396
 100   2.0000      -0.705593       -19.2002
 101   2.0000      -0.700673       -19.0663
 102   2.0000      -0.691807       -18.8250
 103   2.0000      -0.689319       -18.7573
 104   2.0000      -0.679306       -18.4849
 105   2.0000      -0.661502       -18.0004
 106   2.0000      -0.653318       -17.7777
 107   2.0000      -0.651456       -17.7270
 108   2.0000      -0.645646       -17.5689
 109   2.0000      -0.634846       -17.2751
 110   2.0000      -0.628427       -17.1004
 111   2.0000      -0.623988       -16.9796
 112   2.0000      -0.619423       -16.8554
 113   2.0000      -0.616381       -16.7726
 114   2.0000      -0.610886       -16.6230
 115   2.0000      -0.604394       -16.4464
 116   2.0000      -0.598255       -16.2793
 117   2.0000      -0.593144       -16.1403
 118   2.0000      -0.585445       -15.9308
 119   2.0000      -0.579391       -15.7660
 120   2.0000      -0.576629       -15.6909
 121   2.0000      -0.573819       -15.6144
 122   2.0000      -0.571039       -15.5388
 123   2.0000      -0.570501       -15.5241
 124   2.0000      -0.566066       -15.4035
 125   2.0000      -0.563159       -15.3243
 126   2.0000      -0.556405       -15.1406
 127   2.0000      -0.550961       -14.9924
 128   2.0000      -0.550524       -14.9805
 129   2.0000      -0.545474       -14.8431
 130   2.0000      -0.540399       -14.7050
 131   2.0000      -0.538878       -14.6636
 132   2.0000      -0.533568       -14.5191
 133   2.0000      -0.522704       -14.2235
 134   2.0000      -0.518291       -14.1034
 135   2.0000      -0.512695       -13.9511
 136   2.0000      -0.509758       -13.8712
 137   2.0000      -0.505564       -13.7571
 138   2.0000      -0.504392       -13.7252
 139   2.0000      -0.503486       -13.7006
 140   2.0000      -0.500192       -13.6109
 141   2.0000      -0.497228       -13.5303
 142   2.0000      -0.492715       -13.4075
 143   2.0000      -0.487830       -13.2745
 144   2.0000      -0.485327       -13.2064
 145   2.0000      -0.483878       -13.1670
 146   2.0000      -0.478396       -13.0178
 147   2.0000      -0.475001       -12.9254
 148   2.0000      -0.474210       -12.9039
 149   2.0000      -0.472232       -12.8501
 150   2.0000      -0.470164       -12.7938
 151   2.0000      -0.469986       -12.7890
 152   2.0000      -0.467949       -12.7335
 153   2.0000      -0.464127       -12.6295
 154   2.0000      -0.456160       -12.4127
 155   2.0000      -0.454598       -12.3702
 156   2.0000      -0.454026       -12.3547
 157   2.0000      -0.445032       -12.1099
 158   2.0000      -0.442060       -12.0291
 159   2.0000      -0.437320       -11.9001
 160   2.0000      -0.433110       -11.7855
 161   2.0000      -0.432134       -11.7590
 162   2.0000      -0.427503       -11.6329
 163   2.0000      -0.419400       -11.4125
 164   2.0000      -0.417251       -11.3540
 165   2.0000      -0.413632       -11.2555
 166   2.0000      -0.407974       -11.1015
 167   2.0000      -0.402740       -10.9591
 168   2.0000      -0.401459       -10.9242
 169   2.0000      -0.397710       -10.8222
 170   2.0000      -0.391864       -10.6632
 171   2.0000      -0.389056       -10.5867
 172   2.0000      -0.382444       -10.4068
 173   2.0000      -0.370746       -10.0885
 174   2.0000      -0.368539       -10.0284
 175   2.0000      -0.361036        -9.8243
 176   2.0000      -0.360141        -9.7999
 177   2.0000      -0.349040        -9.4979
 178   2.0000      -0.344018        -9.3612
 179   2.0000      -0.340873        -9.2756
 180   2.0000      -0.327529        -8.9125
 181   2.0000      -0.326473        -8.8838
 182   2.0000      -0.324698        -8.8355
 183   2.0000      -0.322454        -8.7744
 184   2.0000      -0.321230        -8.7411
 185   2.0000      -0.309093        -8.4109
 186   2.0000      -0.307391        -8.3645
 187   2.0000      -0.297464        -8.0944
 188   2.0000      -0.268493        -7.3061
 189   2.0000      -0.225258        -6.1296
 190   0.0000      -0.052295        -1.4230
 191   0.0000      -0.011584        -0.3152
 192   0.0000      -0.011314        -0.3079
 193   0.0000      -0.007147        -0.1945
 194   0.0000       0.026869         0.7311

MULLIKEN ATOMIC CHARGES
-----------------------
   0 O :   -0.169873
   1 C :    0.080354
   2 N :   -0.066256
   3 C :   -0.055041
   4 C :    0.129833
   5 C :    0.168384
   6 O :   -0.180571
   7 C :   -0.138623
   8 S :   -0.048850
   9 C :    0.045062
  10 C :   -0.291793
  11 C :    0.218311
  12 C :    0.056469
  13 O :   -0.202475
  14 N :   -0.053319
  15 N :   -0.099938
  16 C :   -0.162334
  17 S :    0.137074
  18 C :   -0.092728
  19 C :   -0.084386
  20 C :   -0.039843
  21 C :    0.195344
  22 C :   -0.130132
  23 C :    0.180742
  24 O :   -0.205078
  25 O :   -0.293011
  26 C :    0.177582
  27 C :    0.099839
  28 C :    0.066574
  29 C :   -0.117344
  30 S :    0.081859
  31 C :   -0.047104
  32 C :   -0.217986
  33 N :   -0.037187
  34 C :    0.394405
  35 C :   -0.168027
  36 C :   -0.096667
  37 S :    0.154191
  38 C :   -0.088751
  39 C :   -0.006264
  40 C :    0.066159
  41 C :   -0.024052
  42 C :    0.093630
  43 N :   -0.091875
  44 C :   -0.052985
  45 C :    0.122878
  46 O :   -0.173938
  47 C :    0.169937
  48 O :   -0.182847
  49 H :    0.033548
  50 H :   -0.015545
  51 H :    0.067087
  52 H :    0.070253
  53 H :    0.046858
  54 H :    0.045683
  55 H :    0.038574
  56 H :    0.132827
  57 H :    0.131980
  58 H :    0.114777
  59 H :    0.009979
  60 H :    0.007931
  61 H :    0.029345
  62 H :    0.037701
  63 H :    0.043621
  64 H :    0.036090
  65 H :    0.010600
  66 H :    0.017909
  67 H :    0.030724
  68 H :    0.029811
  69 H :    0.037011
  70 H :    0.033798
  71 H :   -0.023810
  72 H :    0.007326
  73 H :   -0.007536
  74 H :    0.030274
  75 H :   -0.016161
Sum of atomic charges:   -0.0000000

LOEWDIN ATOMIC CHARGES
----------------------
   0 O :    0.029869
   1 C :    0.024076
   2 N :   -0.099125
   3 C :   -0.110854
   4 C :    0.071906
   5 C :    0.102447
   6 O :   -0.136746
   7 C :   -0.121484
   8 S :    0.235850
   9 C :   -0.109219
  10 C :   -0.044389
  11 C :   -0.024761
  12 C :    0.045774
  13 O :   -0.204386
  14 N :    0.007734
  15 N :   -0.050233
  16 C :   -0.125148
  17 S :    0.443240
  18 C :   -0.223572
  19 C :   -0.041278
  20 C :   -0.104681
  21 C :   -0.018299
  22 C :   -0.052818
  23 C :    0.095020
  24 O :   -0.167685
  25 O :   -0.084048
  26 C :    0.082798
  27 C :   -0.013455
  28 C :   -0.043097
  29 C :   -0.125396
  30 S :    0.410023
  31 C :   -0.231229
  32 C :   -0.030340
  33 N :   -0.112237
  34 C :   -0.011720
  35 C :   -0.055930
  36 C :   -0.191417
  37 S :    0.441158
  38 C :   -0.183175
  39 C :   -0.039534
  40 C :    0.004258
  41 C :   -0.070629
  42 C :    0.046940
  43 N :   -0.111216
  44 C :   -0.109166
  45 C :    0.064457
  46 O :    0.020704
  47 C :    0.102911
  48 O :   -0.138591
  49 H :    0.035171
  50 H :   -0.000227
  51 H :    0.039939
  52 H :    0.033636
  53 H :    0.026550
  54 H :    0.035468
  55 H :    0.035048
  56 H :    0.069871
  57 H :    0.082302
  58 H :    0.057069
  59 H :    0.031117
  60 H :    0.025622
  61 H :    0.043710
  62 H :    0.027250
  63 H :    0.027014
  64 H :    0.024756
  65 H :    0.027408
  66 H :    0.030018
  67 H :    0.030240
  68 H :    0.029164
  69 H :    0.056528
  70 H :    0.055308
  71 H :    0.030605
  72 H :    0.037537
  73 H :    0.032552
  74 H :    0.033194
  75 H :   -0.000153

  Mayer bond orders larger than 0.100000
B(  0-O ,  1-C ) :   1.1658 B(  0-O ,  4-C ) :   1.1686 B(  1-C ,  2-N ) :   1.7964
B(  1-C ,  7-C ) :   0.9599 B(  2-N ,  3-C ) :   1.2832 B(  3-C ,  4-C ) :   1.5286
B(  3-C ,  5-C ) :   0.9751 B(  4-C , 49-H ) :   0.9924 B(  5-C ,  6-O ) :   2.2011
B(  5-C , 50-H ) :   0.9511 B(  7-C ,  8-S ) :   1.0309 B(  7-C , 11-C ) :   0.9805
B(  7-C , 51-H ) :   0.8726 B(  8-S ,  9-C ) :   0.9937 B(  9-C , 10-C ) :   0.9960
B(  9-C , 52-H ) :   0.9466 B(  9-C , 53-H ) :   0.9431 B( 10-C , 11-C ) :   1.0205
B( 10-C , 12-C ) :   0.8515 B( 10-C , 15-N ) :   0.9902 B( 11-C , 54-H ) :   0.9249
B( 11-C , 55-H ) :   0.9081 B( 12-C , 13-O ) :   2.1626 B( 12-C , 14-N ) :   1.3029
B( 14-N , 56-H ) :   0.9228 B( 14-N , 57-H ) :   0.9390 B( 15-N , 16-C ) :   1.1562
B( 15-N , 58-H ) :   0.8986 B( 16-C , 17-S ) :   1.1154 B( 16-C , 18-C ) :   0.1096
B( 16-C , 20-C ) :   1.5267 B( 17-S , 18-C ) :   1.0684 B( 18-C , 19-C ) :   1.5324
B( 18-C , 29-C ) :   1.1470 B( 19-C , 20-C ) :   1.3090 B( 19-C , 28-C ) :   1.0660
B( 20-C , 21-C ) :   1.0306 B( 21-C , 22-C ) :   1.0583 B( 21-C , 59-H ) :   0.9025
B( 21-C , 60-H ) :   0.9044 B( 22-C , 23-C ) :   0.9288 B( 22-C , 27-C ) :   1.0533
B( 22-C , 61-H ) :   0.8941 B( 23-C , 24-O ) :   2.0358 B( 23-C , 25-O ) :   1.2228
B( 25-O , 26-C ) :   0.9169 B( 26-C , 62-H ) :   0.9811 B( 26-C , 63-H ) :   0.9769
B( 26-C , 64-H ) :   0.9769 B( 27-C , 28-C ) :   1.0863 B( 27-C , 65-H ) :   0.9399
B( 27-C , 66-H ) :   0.9278 B( 28-C , 67-H ) :   0.9012 B( 28-C , 68-H ) :   0.9017
B( 29-C , 30-S ) :   1.0781 B( 29-C , 33-N ) :   1.6888 B( 30-S , 31-C ) :   1.0554
B( 31-C , 32-C ) :   1.5028 B( 31-C , 36-C ) :   1.1785 B( 32-C , 33-N ) :   1.4285
B( 32-C , 34-C ) :   1.0464 B( 34-C , 35-C ) :   0.9800 B( 34-C , 69-H ) :   0.8594
B( 34-C , 70-H ) :   0.8601 B( 35-C , 36-C ) :   1.5076 B( 35-C , 39-C ) :   1.3264
B( 36-C , 37-S ) :   1.1010 B( 37-S , 38-C ) :   1.0921 B( 38-C , 39-C ) :   1.4570
B( 38-C , 40-C ) :   1.1195 B( 39-C , 71-H ) :   0.9956 B( 40-C , 41-C ) :   1.7021
B( 40-C , 72-H ) :   0.9641 B( 41-C , 42-C ) :   1.1090 B( 41-C , 73-H ) :   0.9523
B( 42-C , 43-N ) :   1.7228 B( 42-C , 46-O ) :   1.1524 B( 43-N , 44-C ) :   1.3068
B( 44-C , 45-C ) :   1.5127 B( 44-C , 47-C ) :   0.9758 B( 45-C , 46-O ) :   1.1701
B( 45-C , 74-H ) :   0.9915 B( 47-C , 48-O ) :   2.1985 B( 47-C , 75-H ) :   0.9504

-----------------------------------------------------------------------------
         ABSORPTION SPECTRUM VIA TRANSITION ELECTRIC DIPOLE MOMENTS
-----------------------------------------------------------------------------
State   Energy  Wavelength   fosc         T2         TX        TY        TZ
        (cm-1)    (nm)                  (au**2)     (au)      (au)      (au)
-----------------------------------------------------------------------------
   0   22458.7    445.3   2.007262962  29.42359   2.83961  -2.99287   3.52178
   1   31354.6    318.9   0.022752857   0.23890  -0.22333   0.26347  -0.34584
   2   32498.8    307.7   0.051185825   0.51851  -0.15830   0.60697  -0.35362
   3   34477.7    290.0   0.031809958   0.30374   0.33949   0.43261   0.03657
   4   34494.6    289.9   0.000351774   0.00336   0.03977   0.04213   0.00028
   5   36400.2    274.7   0.000021253   0.00019   0.01024   0.00912   0.00207
   6   39253.3    254.8   0.009074716   0.07611   0.07634  -0.16467   0.20776

FINAL SINGLE POINT ENERGY     -3663.865241027723

DIPOLE MOMENT
-------------
                                X             Y             Z
Electronic contribution:      6.61045     -19.70093      16.07917
Nuclear contribution   :     -8.20165      21.65648     -15.65276
                        -----------------------------------------
Total Dipole Moment    :     -1.59120       1.95555       0.42641
                        -----------------------------------------
Magnitude (a.u.)       :      2.55694
Magnitude (Debye)      :      6.49922

Rotational constants in cm-1:     0.003319     0.000514     0.000511
Rotational constants in MHz :    99.506261    15.417687    15.327852

                             ****ORCA TERMINATED NORMALLY****
TOTAL RUN TIME: 0 days 0 hours 5 minutes 49 seconds 661 msec
