                         Program Version 4.2.0 -  RELEASE  -
|  1> # ORCA input file
|  2> # SCF done       -137.120000629453          0.000996606781
|  3> ! CAM-B3LYP def2-SVP def2/J RIJCOSX Grid4 TightSCF
|  4> %maxcore 5000
|  5> %tddft
|  6>     Mode sTDDFT
|  7>     Ethresh 5.0
|  8>     maxcore 5000
|  9> end
| 10>
| 11> %pal
| 12>   nprocs 6
| 13>   end
| 14> * xyz 0 1
| 15>    C        2.80032        -1.87961        -3.58229
| 16>    S        3.02982        -0.31392        -4.34648
| 17>    C        4.80605        -0.48766        -4.30465
| 18>    O        5.58534         0.31949        -4.71933
| 19>    N        5.11524        -1.68729        -3.72375
| 20>    C        4.07894        -2.49580        -3.29829
| 21>    O        4.27143        -3.57498        -2.76396
| 22>    C        6.49778        -2.08350        -3.56657
| 23>    C        1.54123        -2.36587        -3.36119
| 24>    C        1.12193        -3.58020        -2.80120
| 25>    S        2.19469        -4.78370        -2.15479
| 26>    C        0.89948        -5.85445        -1.75066
| 27>    C       -0.34700        -5.31659        -2.13600
| 28>    C       -0.22436        -4.00951        -2.69754
| 29>    C       -1.40145        -3.31856        -3.07969
| 30>    C       -1.42930        -2.01271        -3.61936
| 31>    N       -1.56814        -0.96178        -4.05914
| 32>    C       -2.63910        -3.92612        -2.92574
| 33>    C       -2.74837        -5.22345        -2.43901
| 34>    C       -1.62018        -5.92978        -2.05443
| 35>    C       -1.81234        -7.27976        -1.67999
| 36>    N       -2.05208        -8.37899        -1.45839
| 37>    C        1.14500        -7.07443        -1.08537
| 38>    C        2.40230        -7.53752        -0.84143
| 39>    C        2.72950        -8.74064        -0.18135
| 40>    S        4.38742        -9.28530        -0.20631
| 41>    C        4.00856       -10.74891         0.65846
| 42>    C        2.64933       -10.78346         0.97732
| 43>    C        1.93439        -9.65005         0.51353
| 44>    C        0.57895        -9.45686         0.83317
| 45>    N       -0.51078        -9.31073         1.15995
| 46>    C        2.02279       -11.79931         1.71677
| 47>    N        1.48654       -12.61295         2.32295
| 48>    C        5.04269       -11.67440         0.91581
| 49>    C        4.86685       -12.96003         1.33149
| 50>    C        5.90817       -13.87582         1.56970
| 51>    S        5.51108       -15.58453         1.65600
| 52>    C        7.16949       -16.05600         1.85150
| 53>    C        7.96775       -14.92840         1.88467
| 54>    C        7.28437       -13.69763         1.72966
| 55>    C        8.18194       -12.59930         1.82902
| 56>    C        9.46799       -12.97957         2.02929
| 57>    C       10.65807       -12.10698         2.19031
| 58>    S        9.67109       -14.72156         2.10508
| 59>    C        7.60778       -17.39947         1.93957
| 60>    O        8.93913       -17.61783         2.07050
| 61>    C        9.12976       -18.95372         2.11524
| 62>    C        7.91413       -19.59893         2.01372
| 63>    C        6.92394       -18.60877         1.89966
| 64>    C        5.45858       -18.80106         1.76034
| 65>    C       10.45715       -19.48795         2.24666
| 66>    C       11.55248       -18.73583         2.33615
| 67>    H        6.96914        -2.18801        -4.54400
| 68>    H        6.50374        -3.03707        -3.04133
| 69>    H        7.03617        -1.32945        -2.99297
| 70>    H        0.74264        -1.71190        -3.68588
| 71>    H       -3.52816        -3.38421        -3.21160
| 72>    H       -3.71775        -5.69276        -2.36875
| 73>    H        0.29092        -7.65079        -0.76370
| 74>    H        3.24532        -6.96602        -1.21089
| 75>    H        6.03986       -11.32391         0.69359
| 76>    H        3.86367       -13.34709         1.44353
| 77>    H        7.88650       -11.56748         1.78201
| 78>    H       11.13191       -12.28571         3.15521
| 79>    H       10.37036       -11.06047         2.12727
| 80>    H       11.39507       -12.31894         1.41621
| 81>    H        7.75819       -20.65873         2.01946
| 82>    H        5.21625       -19.85993         1.77297
| 83>    H        5.10334       -18.36753         0.82560
| 84>    H        4.92791       -18.30567         2.57300
| 85>    H       10.51108       -20.56712         2.26825
| 86>    H       11.49135       -17.66094         2.31651
| 87>    H       12.53055       -19.17179         2.43409
| 88> *
| 89>
| 90>                          ****END OF INPUT****

CARTESIAN COORDINATES (ANGSTROEM)
---------------------------------
  C      2.800320   -1.879610   -3.582290
  S      3.029820   -0.313920   -4.346480
  C      4.806050   -0.487660   -4.304650
  O      5.585340    0.319490   -4.719330
  N      5.115240   -1.687290   -3.723750
  C      4.078940   -2.495800   -3.298290
  O      4.271430   -3.574980   -2.763960
  C      6.497780   -2.083500   -3.566570
  C      1.541230   -2.365870   -3.361190
  C      1.121930   -3.580200   -2.801200
  S      2.194690   -4.783700   -2.154790
  C      0.899480   -5.854450   -1.750660
  C     -0.347000   -5.316590   -2.136000
  C     -0.224360   -4.009510   -2.697540
  C     -1.401450   -3.318560   -3.079690
  C     -1.429300   -2.012710   -3.619360
  N     -1.568140   -0.961780   -4.059140
  C     -2.639100   -3.926120   -2.925740
  C     -2.748370   -5.223450   -2.439010
  C     -1.620180   -5.929780   -2.054430
  C     -1.812340   -7.279760   -1.679990
  N     -2.052080   -8.378990   -1.458390
  C      1.145000   -7.074430   -1.085370
  C      2.402300   -7.537520   -0.841430
  C      2.729500   -8.740640   -0.181350
  S      4.387420   -9.285300   -0.206310
  C      4.008560  -10.748910    0.658460
  C      2.649330  -10.783460    0.977320
  C      1.934390   -9.650050    0.513530
  C      0.578950   -9.456860    0.833170
  N     -0.510780   -9.310730    1.159950
  C      2.022790  -11.799310    1.716770
  N      1.486540  -12.612950    2.322950
  C      5.042690  -11.674400    0.915810
  C      4.866850  -12.960030    1.331490
  C      5.908170  -13.875820    1.569700
  S      5.511080  -15.584530    1.656000
  C      7.169490  -16.056000    1.851500
  C      7.967750  -14.928400    1.884670
  C      7.284370  -13.697630    1.729660
  C      8.181940  -12.599300    1.829020
  C      9.467990  -12.979570    2.029290
  C     10.658070  -12.106980    2.190310
  S      9.671090  -14.721560    2.105080
  C      7.607780  -17.399470    1.939570
  O      8.939130  -17.617830    2.070500
  C      9.129760  -18.953720    2.115240
  C      7.914130  -19.598930    2.013720
  C      6.923940  -18.608770    1.899660
  C      5.458580  -18.801060    1.760340
  C     10.457150  -19.487950    2.246660
  C     11.552480  -18.735830    2.336150
  H      6.969140   -2.188010   -4.544000
  H      6.503740   -3.037070   -3.041330
  H      7.036170   -1.329450   -2.992970
  H      0.742640   -1.711900   -3.685880
  H     -3.528160   -3.384210   -3.211600
  H     -3.717750   -5.692760   -2.368750
  H      0.290920   -7.650790   -0.763700
  H      3.245320   -6.966020   -1.210890
  H      6.039860  -11.323910    0.693590
  H      3.863670  -13.347090    1.443530
  H      7.886500  -11.567480    1.782010
  H     11.131910  -12.285710    3.155210
  H     10.370360  -11.060470    2.127270
  H     11.395070  -12.318940    1.416210
  H      7.758190  -20.658730    2.019460
  H      5.216250  -19.859930    1.772970
  H      5.103340  -18.367530    0.825600
  H      4.927910  -18.305670    2.573000
  H     10.511080  -20.567120    2.268250
  H     11.491350  -17.660940    2.316510
  H     12.530550  -19.171790    2.434090

 Total Charge           Charge          ....    0
 Multiplicity           Mult            ....    1
 Number of Electrons    NEL             ....  394
 Basis Dimension        Dim             ....  853

ORBITAL ENERGIES
----------------

  NO   OCC          E(Eh)            E(eV)
   0   2.0000     -88.985149     -2421.4090
   1   2.0000     -88.981595     -2421.3123
   2   2.0000     -88.968710     -2420.9617
   3   2.0000     -88.954381     -2420.5718
   4   2.0000     -88.953471     -2420.5470
   5   2.0000     -19.293379      -524.9995
   6   2.0000     -19.221733      -523.0499
   7   2.0000     -19.216333      -522.9030
   8   2.0000     -14.475599      -393.9011
   9   2.0000     -14.424604      -392.5134
  10   2.0000     -14.416759      -392.3000
  11   2.0000     -14.408570      -392.0771
  12   2.0000     -14.407876      -392.0582
  13   2.0000     -10.411769      -283.3186
  14   2.0000     -10.406414      -283.1729
  15   2.0000     -10.339788      -281.3599
  16   2.0000     -10.339478      -281.3515
  17   2.0000     -10.337441      -281.2961
  18   2.0000     -10.334359      -281.2122
  19   2.0000     -10.333821      -281.1976
  20   2.0000     -10.331562      -281.1361
  21   2.0000     -10.330741      -281.1138
  22   2.0000     -10.328231      -281.0455
  23   2.0000     -10.326739      -281.0049
  24   2.0000     -10.324317      -280.9390
  25   2.0000     -10.324277      -280.9379
  26   2.0000     -10.323895      -280.9275
  27   2.0000     -10.322559      -280.8911
  28   2.0000     -10.321301      -280.8569
  29   2.0000     -10.320863      -280.8450
  30   2.0000     -10.318459      -280.7795
  31   2.0000     -10.317251      -280.7467
  32   2.0000     -10.314278      -280.6658
  33   2.0000     -10.313447      -280.6432
  34   2.0000     -10.313217      -280.6369
  35   2.0000     -10.312995      -280.6309
  36   2.0000     -10.308350      -280.5045
  37   2.0000     -10.307225      -280.4739
  38   2.0000     -10.306773      -280.4616
  39   2.0000     -10.306675      -280.4589
  40   2.0000     -10.303026      -280.3596
  41   2.0000     -10.300598      -280.2935
  42   2.0000     -10.300499      -280.2908
  43   2.0000     -10.291894      -280.0567
  44   2.0000     -10.290567      -280.0206
  45   2.0000     -10.284131      -279.8454
  46   2.0000     -10.283749      -279.8350
  47   2.0000     -10.282371      -279.7976
  48   2.0000     -10.278850      -279.7017
  49   2.0000     -10.274393      -279.5804
  50   2.0000     -10.271859      -279.5115
  51   2.0000     -10.269036      -279.4347
  52   2.0000      -8.078415      -219.8249
  53   2.0000      -8.077534      -219.8009
  54   2.0000      -8.063251      -219.4122
  55   2.0000      -8.052020      -219.1066
  56   2.0000      -8.049029      -219.0252
  57   2.0000      -6.047390      -164.5578
  58   2.0000      -6.046739      -164.5401
  59   2.0000      -6.042935      -164.4366
  60   2.0000      -6.042722      -164.4308
  61   2.0000      -6.041446      -164.3961
  62   2.0000      -6.039555      -164.3447
  63   2.0000      -6.032812      -164.1612
  64   2.0000      -6.028429      -164.0419
  65   2.0000      -6.025197      -163.9540
  66   2.0000      -6.021647      -163.8573
  67   2.0000      -6.018833      -163.7808
  68   2.0000      -6.018049      -163.7594
  69   2.0000      -6.014496      -163.6627
  70   2.0000      -6.012254      -163.6018
  71   2.0000      -6.010219      -163.5464
  72   2.0000      -1.212197       -32.9856
  73   2.0000      -1.172023       -31.8924
  74   2.0000      -1.147192       -31.2167
  75   2.0000      -1.059918       -28.8418
  76   2.0000      -1.031951       -28.0808
  77   2.0000      -1.023888       -27.8614
  78   2.0000      -1.011347       -27.5202
  79   2.0000      -1.009562       -27.4716
  80   2.0000      -1.000751       -27.2318
  81   2.0000      -0.989427       -26.9237
  82   2.0000      -0.986392       -26.8411
  83   2.0000      -0.968779       -26.3618
  84   2.0000      -0.954589       -25.9757
  85   2.0000      -0.952516       -25.9193
  86   2.0000      -0.931660       -25.3518
  87   2.0000      -0.921887       -25.0858
  88   2.0000      -0.913231       -24.8503
  89   2.0000      -0.908271       -24.7153
  90   2.0000      -0.896537       -24.3960
  91   2.0000      -0.883488       -24.0409
  92   2.0000      -0.878281       -23.8992
  93   2.0000      -0.867920       -23.6173
  94   2.0000      -0.857400       -23.3310
  95   2.0000      -0.854281       -23.2462
  96   2.0000      -0.838408       -22.8142
  97   2.0000      -0.824843       -22.4451
  98   2.0000      -0.813031       -22.1237
  99   2.0000      -0.809040       -22.0151
 100   2.0000      -0.804350       -21.8875
 101   2.0000      -0.788537       -21.4572
 102   2.0000      -0.780568       -21.2403
 103   2.0000      -0.776941       -21.1417
 104   2.0000      -0.772088       -21.0096
 105   2.0000      -0.750937       -20.4340
 106   2.0000      -0.738504       -20.0957
 107   2.0000      -0.721122       -19.6227
 108   2.0000      -0.705508       -19.1978
 109   2.0000      -0.701162       -19.0796
 110   2.0000      -0.695098       -18.9146
 111   2.0000      -0.693798       -18.8792
 112   2.0000      -0.688653       -18.7392
 113   2.0000      -0.663854       -18.0644
 114   2.0000      -0.655441       -17.8354
 115   2.0000      -0.654284       -17.8040
 116   2.0000      -0.643291       -17.5048
 117   2.0000      -0.640317       -17.4239
 118   2.0000      -0.633058       -17.2264
 119   2.0000      -0.625421       -17.0186
 120   2.0000      -0.616410       -16.7734
 121   2.0000      -0.606390       -16.5007
 122   2.0000      -0.597743       -16.2654
 123   2.0000      -0.592941       -16.1348
 124   2.0000      -0.592203       -16.1147
 125   2.0000      -0.589699       -16.0465
 126   2.0000      -0.578332       -15.7372
 127   2.0000      -0.569846       -15.5063
 128   2.0000      -0.564208       -15.3529
 129   2.0000      -0.562840       -15.3156
 130   2.0000      -0.556359       -15.1393
 131   2.0000      -0.553405       -15.0589
 132   2.0000      -0.543996       -14.8029
 133   2.0000      -0.541468       -14.7341
 134   2.0000      -0.538298       -14.6478
 135   2.0000      -0.537857       -14.6358
 136   2.0000      -0.529405       -14.4058
 137   2.0000      -0.526126       -14.3166
 138   2.0000      -0.522949       -14.2302
 139   2.0000      -0.519580       -14.1385
 140   2.0000      -0.517826       -14.0908
 141   2.0000      -0.514314       -13.9952
 142   2.0000      -0.507169       -13.8008
 143   2.0000      -0.505713       -13.7611
 144   2.0000      -0.500002       -13.6057
 145   2.0000      -0.499265       -13.5857
 146   2.0000      -0.495643       -13.4871
 147   2.0000      -0.494429       -13.4541
 148   2.0000      -0.493824       -13.4376
 149   2.0000      -0.492246       -13.3947
 150   2.0000      -0.488902       -13.3037
 151   2.0000      -0.486289       -13.2326
 152   2.0000      -0.484504       -13.1840
 153   2.0000      -0.480577       -13.0772
 154   2.0000      -0.478201       -13.0125
 155   2.0000      -0.476914       -12.9775
 156   2.0000      -0.473654       -12.8888
 157   2.0000      -0.471869       -12.8402
 158   2.0000      -0.465552       -12.6683
 159   2.0000      -0.458589       -12.4788
 160   2.0000      -0.456466       -12.4211
 161   2.0000      -0.452700       -12.3186
 162   2.0000      -0.452258       -12.3066
 163   2.0000      -0.450894       -12.2695
 164   2.0000      -0.445870       -12.1327
 165   2.0000      -0.444617       -12.0987
 166   2.0000      -0.441717       -12.0197
 167   2.0000      -0.440372       -11.9831
 168   2.0000      -0.437149       -11.8954
 169   2.0000      -0.435453       -11.8493
 170   2.0000      -0.432647       -11.7729
 171   2.0000      -0.429352       -11.6833
 172   2.0000      -0.421919       -11.4810
 173   2.0000      -0.419444       -11.4136
 174   2.0000      -0.415742       -11.3129
 175   2.0000      -0.415507       -11.3065
 176   2.0000      -0.413391       -11.2489
 177   2.0000      -0.412046       -11.2123
 178   2.0000      -0.409763       -11.1502
 179   2.0000      -0.406902       -11.0724
 180   2.0000      -0.403299       -10.9743
 181   2.0000      -0.399355       -10.8670
 182   2.0000      -0.383908       -10.4467
 183   2.0000      -0.371348       -10.1049
 184   2.0000      -0.370964       -10.0945
 185   2.0000      -0.360736        -9.8161
 186   2.0000      -0.350226        -9.5301
 187   2.0000      -0.347630        -9.4595
 188   2.0000      -0.345269        -9.3952
 189   2.0000      -0.342139        -9.3101
 190   2.0000      -0.335441        -9.1278
 191   2.0000      -0.329092        -8.9550
 192   2.0000      -0.311140        -8.4666
 193   2.0000      -0.305259        -8.3065
 194   2.0000      -0.288128        -7.8404
 195   2.0000      -0.254549        -6.9266
 196   2.0000      -0.226280        -6.1574
 197   0.0000      -0.105747        -2.8775
 198   0.0000      -0.070022        -1.9054
 199   0.0000      -0.054922        -1.4945
 200   0.0000      -0.035572        -0.9680
 201   0.0000      -0.009553        -0.2599

MULLIKEN ATOMIC CHARGES
-----------------------
   0 C :   -0.227783
   1 S :    0.074464
   2 C :    0.137078
   3 O :   -0.178314
   4 N :   -0.266475
   5 C :    0.261019
   6 O :   -0.224120
   7 C :    0.126205
   8 C :    0.034526
   9 C :   -0.117355
  10 S :    0.209953
  11 C :   -0.106090
  12 C :    0.152349
  13 C :    0.179826
  14 C :   -0.108136
  15 C :   -0.174185
  16 N :    0.110795
  17 C :    0.031277
  18 C :    0.011072
  19 C :   -0.075991
  20 C :   -0.193691
  21 N :    0.140390
  22 C :   -0.031384
  23 C :    0.044724
  24 C :   -0.100346
  25 S :    0.160809
  26 C :   -0.077625
  27 C :   -0.038119
  28 C :    0.002460
  29 C :   -0.266915
  30 N :    0.213902
  31 C :   -0.259684
  32 N :    0.195501
  33 C :    0.005260
  34 C :    0.055277
  35 C :   -0.135458
  36 S :    0.146290
  37 C :   -0.193326
  38 C :   -0.029584
  39 C :    0.127910
  40 C :   -0.017555
  41 C :   -0.198704
  42 C :    0.113822
  43 S :    0.136717
  44 C :    0.136191
  45 O :   -0.215515
  46 C :    0.175464
  47 C :   -0.084381
  48 C :   -0.129769
  49 C :    0.120812
  50 C :   -0.026306
  51 C :   -0.002448
  52 H :    0.047498
  53 H :    0.054656
  54 H :    0.049069
  55 H :   -0.000160
  56 H :    0.010185
  57 H :    0.009456
  58 H :    0.030985
  59 H :   -0.000457
  60 H :   -0.025318
  61 H :    0.005479
  62 H :   -0.022044
  63 H :    0.039757
  64 H :    0.023617
  65 H :    0.039566
  66 H :   -0.022920
  67 H :    0.015572
  68 H :    0.035048
  69 H :    0.036772
  70 H :   -0.003417
  71 H :    0.028188
  72 H :    0.023637
Sum of atomic charges:    0.0000000

LOEWDIN ATOMIC CHARGES
----------------------
   0 C :   -0.221655
   1 S :    0.345945
   2 C :   -0.053604
   3 O :   -0.167167
   4 N :   -0.041455
   5 C :    0.067175
   6 O :   -0.203398
   7 C :    0.040864
   8 C :   -0.010664
   9 C :   -0.187111
  10 S :    0.568147
  11 C :   -0.162864
  12 C :   -0.033276
  13 C :   -0.015532
  14 C :   -0.053464
  15 C :   -0.028908
  16 N :   -0.047633
  17 C :    0.022468
  18 C :    0.010339
  19 C :   -0.036022
  20 C :   -0.034142
  21 N :   -0.024593
  22 C :   -0.028700
  23 C :   -0.038284
  24 C :   -0.147590
  25 S :    0.465122
  26 C :   -0.121226
  27 C :   -0.100009
  28 C :   -0.074797
  29 C :   -0.034868
  30 N :   -0.024588
  31 C :   -0.030894
  32 N :   -0.046056
  33 C :   -0.081856
  34 C :    0.000306
  35 C :   -0.190900
  36 S :    0.466253
  37 C :   -0.189431
  38 C :   -0.193641
  39 C :   -0.051312
  40 C :   -0.081054
  41 C :   -0.135486
  42 C :   -0.059037
  43 S :    0.401184
  44 C :   -0.001136
  45 O :    0.010651
  46 C :    0.036351
  47 C :   -0.063680
  48 C :   -0.053348
  49 C :   -0.053231
  50 C :   -0.041419
  51 C :   -0.032762
  52 H :    0.035056
  53 H :    0.036890
  54 H :    0.035715
  55 H :    0.048349
  56 H :    0.047374
  57 H :    0.047310
  58 H :    0.045710
  59 H :    0.025267
  60 H :    0.026613
  61 H :    0.038890
  62 H :    0.026234
  63 H :    0.041261
  64 H :    0.038909
  65 H :    0.040934
  66 H :    0.029829
  67 H :    0.037044
  68 H :    0.035710
  69 H :    0.036317
  70 H :    0.037425
  71 H :    0.024631
  72 H :    0.026519

  Mayer bond orders larger than 0.100000
B(  0-C ,  1-S ) :   1.0452 B(  0-C ,  5-C ) :   0.9902 B(  0-C ,  8-C ) :   1.6577
B(  1-S ,  2-C ) :   0.9973 B(  2-C ,  3-O ) :   2.1302 B(  2-C ,  4-N ) :   1.0566
B(  4-N ,  5-C ) :   1.0922 B(  4-N ,  7-C ) :   0.9321 B(  5-C ,  6-O ) :   2.0268
B(  7-C , 52-H ) :   0.9772 B(  7-C , 53-H ) :   0.9584 B(  7-C , 54-H ) :   0.9756
B(  8-C ,  9-C ) :   1.2536 B(  8-C , 55-H ) :   0.9211 B(  9-C , 10-S ) :   1.1338
B(  9-C , 13-C ) :   1.2923 B( 10-S , 11-C ) :   1.1482 B( 11-C , 12-C ) :   1.2756
B( 11-C , 22-C ) :   1.2077 B( 12-C , 13-C ) :   1.2034 B( 12-C , 19-C ) :   1.2333
B( 13-C , 14-C ) :   1.2180 B( 14-C , 15-C ) :   1.0806 B( 14-C , 17-C ) :   1.5171
B( 15-C , 16-N ) :   2.9630 B( 17-C , 18-C ) :   1.2223 B( 17-C , 56-H ) :   0.9935
B( 18-C , 19-C ) :   1.5117 B( 18-C , 57-H ) :   0.9957 B( 19-C , 20-C ) :   1.0796
B( 20-C , 21-N ) :   2.9957 B( 22-C , 23-C ) :   1.6231 B( 22-C , 58-H ) :   0.9498
B( 23-C , 24-C ) :   1.1707 B( 23-C , 59-H ) :   0.9442 B( 24-C , 25-S ) :   1.1075
B( 24-C , 28-C ) :   1.4581 B( 25-S , 26-C ) :   1.1280 B( 26-C , 27-C ) :   1.4324
B( 26-C , 33-C ) :   1.1892 B( 27-C , 28-C ) :   1.3402 B( 27-C , 31-C ) :   1.1708
B( 28-C , 29-C ) :   1.1617 B( 29-C , 30-N ) :   2.9596 B( 31-C , 32-N ) :   2.9583
B( 33-C , 34-C ) :   1.6166 B( 33-C , 60-H ) :   0.9405 B( 34-C , 35-C ) :   1.2022
B( 34-C , 61-H ) :   0.9421 B( 35-C , 36-S ) :   1.0756 B( 35-C , 37-C ) :   0.1105
B( 35-C , 39-C ) :   1.3626 B( 36-S , 37-C ) :   1.1519 B( 37-C , 38-C ) :   1.4821
B( 37-C , 44-C ) :   1.1437 B( 38-C , 39-C ) :   1.2633 B( 38-C , 43-S ) :   1.0421
B( 39-C , 40-C ) :   1.1425 B( 40-C , 41-C ) :   1.6621 B( 40-C , 62-H ) :   0.9923
B( 41-C , 42-C ) :   1.0702 B( 41-C , 43-S ) :   1.0804 B( 42-C , 63-H ) :   0.9480
B( 42-C , 64-H ) :   0.9579 B( 42-C , 65-H ) :   0.9477 B( 44-C , 45-O ) :   1.1489
B( 44-C , 46-C ) :   0.1030 B( 44-C , 48-C ) :   1.4669 B( 45-O , 46-C ) :   1.1382
B( 46-C , 47-C ) :   1.4397 B( 46-C , 50-C ) :   1.1200 B( 47-C , 48-C ) :   1.2502
B( 47-C , 66-H ) :   1.0126 B( 48-C , 49-C ) :   1.1022 B( 49-C , 67-H ) :   0.9426
B( 49-C , 68-H ) :   0.9414 B( 49-C , 69-H ) :   0.9422 B( 50-C , 51-C ) :   1.9108
B( 50-C , 70-H ) :   0.9600 B( 51-C , 71-H ) :   0.9572 B( 51-C , 72-H ) :   0.9470

-----------------------------------------------------------------------------
         ABSORPTION SPECTRUM VIA TRANSITION ELECTRIC DIPOLE MOMENTS
-----------------------------------------------------------------------------
State   Energy  Wavelength   fosc         T2         TX        TY        TZ
        (cm-1)    (nm)                  (au**2)     (au)      (au)      (au)
-----------------------------------------------------------------------------
   0   13389.6    746.8   1.287821660  31.66385  -1.68029   4.98101  -2.00749
   1   18709.3    534.5   0.332245998   5.84625   2.31388  -0.65213  -0.25872
   2   20164.2    495.9   0.588084779   9.60142   1.48346  -2.63626   0.67150
   3   23357.8    428.1   0.203740032   2.87157   1.50059   0.43421  -0.65672
   4   26698.2    374.6   0.011899439   0.14673   0.25507   0.27358   0.08259
   5   27360.6    365.5   0.181876493   2.18840  -1.44057  -0.29731  -0.15738
   6   28312.3    353.2   0.094482154   1.09863  -0.97202  -0.30738  -0.24355
   7   29927.6    334.1   0.041021481   0.45125   0.41694  -0.46985   0.23802
   8   30404.3    328.9   0.000367545   0.00398  -0.01429  -0.02524  -0.05602
   9   31019.2    322.4   0.015602979   0.16560  -0.36138  -0.04548   0.18147
  10   31619.0    316.3   0.130367129   1.35736   0.21954   1.13903  -0.10848
  11   31784.6    314.6   0.079402193   0.82242   0.60954  -0.67109   0.02290
  12   33091.6    302.2   0.049795328   0.49539  -0.69479   0.08457  -0.07419
  13   33251.0    300.7   0.007411946   0.07338   0.25916  -0.07691   0.01749
  14   34116.6    293.1   0.045385564   0.43795   0.61523   0.16430   0.18015
  15   34352.2    291.1   0.057375376   0.54985   0.72357   0.07403  -0.14427
  16   35417.8    282.3   0.285960656   2.65803  -1.58613   0.23833  -0.29229
  17   35741.8    279.8   0.087818278   0.80888   0.82829  -0.17619   0.30294
  18   36315.9    275.4   0.065905968   0.59745  -0.42136   0.64772   0.01915
  19   36803.6    271.7   0.001979767   0.01771   0.13070  -0.01951  -0.01567
  20   37158.9    269.1   0.076714900   0.67966  -0.34086  -0.73821   0.13612
  21   37721.3    265.1   0.005251127   0.04583   0.18350  -0.04185  -0.10200
  22   38653.8    258.7   0.066473181   0.56615   0.74959  -0.03075   0.05761
  23   38979.9    256.5   0.043418093   0.36670   0.59852   0.08100   0.04372
  24   39327.8    254.3   0.000536968   0.00449   0.03677   0.01014   0.05514
  25   40317.4    248.0   0.008487062   0.06930   0.03902  -0.25186   0.06592

FINAL SINGLE POINT ENERGY     -3985.982469341944

DIPOLE MOMENT
-------------
                                X             Y             Z
Electronic contribution:    -35.59457      40.38595     -12.93217
Nuclear contribution   :     38.59126     -41.91273      12.80478
                        -----------------------------------------
Total Dipole Moment    :      2.99669      -1.52678      -0.12739
                        -----------------------------------------
Magnitude (a.u.)       :      3.36563
Magnitude (Debye)      :      8.55475

Rotational constants in cm-1:     0.002827     0.000452     0.000396
Rotational constants in MHz :    84.744697    13.548280    11.871235

                             ****ORCA TERMINATED NORMALLY****
TOTAL RUN TIME: 0 days 0 hours 5 minutes 15 seconds 906 msec
