                         Program Version 4.2.0 -  RELEASE  -
|  1> # ORCA input file
|  2> # SCF done       -126.036917592548          0.000387791751
|  3> ! CAM-B3LYP def2-SVP def2/J RIJCOSX Grid4 TightSCF
|  4> %maxcore 5000
|  5> %tddft
|  6>     Mode sTDDFT
|  7>     Ethresh 5.0
|  8>     maxcore 5000
|  9> end
| 10>
| 11> %pal
| 12>   nprocs 6
| 13>   end
| 14> * xyz 0 1
| 15>    C       -5.86761        -7.86464        -6.48496
| 16>    C       -6.55718        -7.84068        -7.76662
| 17>    C       -7.75953        -7.26055        -7.63462
| 18>    C       -7.94905        -6.89277        -6.20958
| 19>    O       -8.94460        -6.49579        -5.66754
| 20>    C       -6.63659        -7.26790        -5.54048
| 21>    C       -6.34748        -7.09455        -4.16432
| 22>    S       -5.08815        -8.05708        -3.44034
| 23>    C       -5.33686        -7.33148        -1.87465
| 24>    C       -6.35142        -6.37859        -1.93685
| 25>    C       -6.92031        -6.23926        -3.22970
| 26>    C       -7.87197        -5.23372        -3.49232
| 27>    N       -8.57969        -4.34273        -3.62768
| 28>    C       -6.75147        -5.63011        -0.81707
| 29>    N       -7.05485        -5.03516         0.11499
| 30>    C       -4.55471        -7.70318        -0.75567
| 31>    C       -3.56898        -8.63097        -0.89695
| 32>    C       -2.68490        -9.17517         0.05199
| 33>    C       -2.74826        -9.08470         1.51617
| 34>    C       -1.88457        -9.94413         2.07213
| 35>    C       -1.17776       -10.68390         0.99655
| 36>    O       -0.37414       -11.57846         1.08929
| 37>    C       -1.69209       -10.08767        -0.27714
| 38>    C       -1.24918       -10.46430        -1.55456
| 39>    S       -0.72859       -12.09358        -1.88220
| 40>    C       -0.73033       -11.82476        -3.62140
| 41>    C       -0.96622       -10.47866        -3.87790
| 42>    C       -1.23855        -9.70067        -2.72921
| 43>    C       -1.35478        -8.31837        -3.03508
| 44>    C       -1.18774        -8.06114        -4.35590
| 45>    C       -1.25010        -6.74612        -5.04126
| 46>    S       -0.89821        -9.51060        -5.30062
| 47>    C       -0.51159       -12.91251        -4.48399
| 48>    C       -1.01269       -13.05392        -5.75324
| 49>    C       -0.68551       -14.11680        -6.68316
| 50>    C        0.38690       -14.96455        -6.60368
| 51>    C        1.36557       -14.93167        -5.58742
| 52>    N        2.20904       -14.94752        -4.80868
| 53>    C        0.67704       -15.96194        -7.55819
| 54>    N        0.96263       -16.79168        -8.29822
| 55>    C       -1.65055       -14.05976        -7.77961
| 56>    C       -2.50085       -12.95902        -7.57147
| 57>    C       -2.14561       -12.28565        -6.31347
| 58>    O       -2.73196       -11.34553        -5.80762
| 59>    C       -3.51342       -12.65803        -8.46039
| 60>    C       -3.67613       -13.46881        -9.57336
| 61>    C       -2.85145       -14.56842        -9.79285
| 62>    C       -1.82957       -14.86568        -8.88849
| 63>    C       -3.05412       -15.45289       -10.98111
| 64>    H       -4.88923        -8.28863        -6.33936
| 65>    H       -6.12645        -8.23793        -8.66848
| 66>    H       -8.51047        -7.09623        -8.38242
| 67>    H       -4.76034        -7.20700         0.18218
| 68>    H       -3.44978        -9.04522        -1.89158
| 69>    H       -3.42571        -8.42737         2.03096
| 70>    H       -1.70736       -10.12258         3.11545
| 71>    H       -1.52801        -7.55510        -2.29816
| 72>    H       -0.34257        -6.57152        -5.61743
| 73>    H       -1.36716        -5.94720        -4.31328
| 74>    H       -2.09148        -6.71653        -5.73369
| 75>    H        0.05183       -13.73378        -4.05848
| 76>    H       -4.15604       -11.80933        -8.28237
| 77>    H       -4.46018       -13.24822       -10.28299
| 78>    H       -1.20291       -15.72470        -9.06751
| 79>    H       -3.77265       -15.02356       -11.67415
| 80>    H       -3.42282       -16.42681       -10.65968
| 81>    H       -2.11176       -15.61456       -11.50092
| 82> *
| 83>
| 84>                          ****END OF INPUT****

CARTESIAN COORDINATES (ANGSTROEM)
---------------------------------
  C     -5.867610   -7.864640   -6.484960
  C     -6.557180   -7.840680   -7.766620
  C     -7.759530   -7.260550   -7.634620
  C     -7.949050   -6.892770   -6.209580
  O     -8.944600   -6.495790   -5.667540
  C     -6.636590   -7.267900   -5.540480
  C     -6.347480   -7.094550   -4.164320
  S     -5.088150   -8.057080   -3.440340
  C     -5.336860   -7.331480   -1.874650
  C     -6.351420   -6.378590   -1.936850
  C     -6.920310   -6.239260   -3.229700
  C     -7.871970   -5.233720   -3.492320
  N     -8.579690   -4.342730   -3.627680
  C     -6.751470   -5.630110   -0.817070
  N     -7.054850   -5.035160    0.114990
  C     -4.554710   -7.703180   -0.755670
  C     -3.568980   -8.630970   -0.896950
  C     -2.684900   -9.175170    0.051990
  C     -2.748260   -9.084700    1.516170
  C     -1.884570   -9.944130    2.072130
  C     -1.177760  -10.683900    0.996550
  O     -0.374140  -11.578460    1.089290
  C     -1.692090  -10.087670   -0.277140
  C     -1.249180  -10.464300   -1.554560
  S     -0.728590  -12.093580   -1.882200
  C     -0.730330  -11.824760   -3.621400
  C     -0.966220  -10.478660   -3.877900
  C     -1.238550   -9.700670   -2.729210
  C     -1.354780   -8.318370   -3.035080
  C     -1.187740   -8.061140   -4.355900
  C     -1.250100   -6.746120   -5.041260
  S     -0.898210   -9.510600   -5.300620
  C     -0.511590  -12.912510   -4.483990
  C     -1.012690  -13.053920   -5.753240
  C     -0.685510  -14.116800   -6.683160
  C      0.386900  -14.964550   -6.603680
  C      1.365570  -14.931670   -5.587420
  N      2.209040  -14.947520   -4.808680
  C      0.677040  -15.961940   -7.558190
  N      0.962630  -16.791680   -8.298220
  C     -1.650550  -14.059760   -7.779610
  C     -2.500850  -12.959020   -7.571470
  C     -2.145610  -12.285650   -6.313470
  O     -2.731960  -11.345530   -5.807620
  C     -3.513420  -12.658030   -8.460390
  C     -3.676130  -13.468810   -9.573360
  C     -2.851450  -14.568420   -9.792850
  C     -1.829570  -14.865680   -8.888490
  C     -3.054120  -15.452890  -10.981110
  H     -4.889230   -8.288630   -6.339360
  H     -6.126450   -8.237930   -8.668480
  H     -8.510470   -7.096230   -8.382420
  H     -4.760340   -7.207000    0.182180
  H     -3.449780   -9.045220   -1.891580
  H     -3.425710   -8.427370    2.030960
  H     -1.707360  -10.122580    3.115450
  H     -1.528010   -7.555100   -2.298160
  H     -0.342570   -6.571520   -5.617430
  H     -1.367160   -5.947200   -4.313280
  H     -2.091480   -6.716530   -5.733690
  H      0.051830  -13.733780   -4.058480
  H     -4.156040  -11.809330   -8.282370
  H     -4.460180  -13.248220  -10.282990
  H     -1.202910  -15.724700   -9.067510
  H     -3.772650  -15.023560  -11.674150
  H     -3.422820  -16.426810  -10.659680
  H     -2.111760  -15.614560  -11.500920

 Total Charge           Charge          ....    0
 Multiplicity           Mult            ....    1
 Number of Electrons    NEL             ....  352
 Basis Dimension        Dim             ....  788

ORBITAL ENERGIES
----------------

  NO   OCC          E(Eh)            E(eV)
   0   2.0000     -88.995471     -2421.6899
   1   2.0000     -88.977181     -2421.1922
   2   2.0000     -88.965217     -2420.8666
   3   2.0000     -19.247091      -523.7400
   4   2.0000     -19.242611      -523.6181
   5   2.0000     -19.218607      -522.9649
   6   2.0000     -14.420359      -392.3979
   7   2.0000     -14.416305      -392.2876
   8   2.0000     -14.415935      -392.2775
   9   2.0000     -14.407066      -392.0362
  10   2.0000     -10.385600      -282.6065
  11   2.0000     -10.381189      -282.4865
  12   2.0000     -10.366489      -282.0865
  13   2.0000     -10.351604      -281.6815
  14   2.0000     -10.349803      -281.6324
  15   2.0000     -10.344179      -281.4794
  16   2.0000     -10.341245      -281.3996
  17   2.0000     -10.340902      -281.3902
  18   2.0000     -10.340557      -281.3809
  19   2.0000     -10.335939      -281.2552
  20   2.0000     -10.324551      -280.9453
  21   2.0000     -10.323869      -280.9268
  22   2.0000     -10.322087      -280.8783
  23   2.0000     -10.321288      -280.8565
  24   2.0000     -10.321062      -280.8504
  25   2.0000     -10.320278      -280.8290
  26   2.0000     -10.319478      -280.8073
  27   2.0000     -10.319258      -280.8013
  28   2.0000     -10.318751      -280.7875
  29   2.0000     -10.318692      -280.7859
  30   2.0000     -10.316001      -280.7126
  31   2.0000     -10.315813      -280.7076
  32   2.0000     -10.314313      -280.6667
  33   2.0000     -10.313019      -280.6315
  34   2.0000     -10.308124      -280.4983
  35   2.0000     -10.308086      -280.4973
  36   2.0000     -10.305722      -280.4330
  37   2.0000     -10.303015      -280.3593
  38   2.0000     -10.301751      -280.3249
  39   2.0000     -10.299902      -280.2746
  40   2.0000     -10.296823      -280.1908
  41   2.0000     -10.295697      -280.1602
  42   2.0000     -10.294926      -280.1392
  43   2.0000     -10.292776      -280.0807
  44   2.0000     -10.292186      -280.0646
  45   2.0000     -10.292018      -280.0600
  46   2.0000     -10.289740      -279.9980
  47   2.0000     -10.287474      -279.9364
  48   2.0000     -10.276854      -279.6474
  49   2.0000      -8.090501      -220.1537
  50   2.0000      -8.071909      -219.6478
  51   2.0000      -8.060620      -219.3406
  52   2.0000      -6.059786      -164.8952
  53   2.0000      -6.055633      -164.7822
  54   2.0000      -6.052580      -164.6991
  55   2.0000      -6.041367      -164.3939
  56   2.0000      -6.037037      -164.2761
  57   2.0000      -6.033853      -164.1895
  58   2.0000      -6.030303      -164.0929
  59   2.0000      -6.025858      -163.9719
  60   2.0000      -6.022130      -163.8705
  61   2.0000      -1.159102       -31.5408
  62   2.0000      -1.153162       -31.3791
  63   2.0000      -1.132593       -30.8194
  64   2.0000      -1.037794       -28.2398
  65   2.0000      -1.025067       -27.8935
  66   2.0000      -1.018794       -27.7228
  67   2.0000      -1.000911       -27.2362
  68   2.0000      -0.997378       -27.1400
  69   2.0000      -0.994740       -27.0682
  70   2.0000      -0.994321       -27.0568
  71   2.0000      -0.989949       -26.9379
  72   2.0000      -0.985337       -26.8124
  73   2.0000      -0.963508       -26.2184
  74   2.0000      -0.952598       -25.9215
  75   2.0000      -0.933635       -25.4055
  76   2.0000      -0.912909       -24.8415
  77   2.0000      -0.903256       -24.5789
  78   2.0000      -0.900981       -24.5169
  79   2.0000      -0.879395       -23.9296
  80   2.0000      -0.871106       -23.7040
  81   2.0000      -0.865968       -23.5642
  82   2.0000      -0.858401       -23.3583
  83   2.0000      -0.842932       -22.9373
  84   2.0000      -0.834656       -22.7121
  85   2.0000      -0.822542       -22.3825
  86   2.0000      -0.802210       -21.8292
  87   2.0000      -0.789125       -21.4732
  88   2.0000      -0.788112       -21.4456
  89   2.0000      -0.781744       -21.2723
  90   2.0000      -0.764323       -20.7983
  91   2.0000      -0.744387       -20.2558
  92   2.0000      -0.736973       -20.0541
  93   2.0000      -0.731944       -19.9172
  94   2.0000      -0.715939       -19.4817
  95   2.0000      -0.709751       -19.3133
  96   2.0000      -0.690132       -18.7794
  97   2.0000      -0.683251       -18.5922
  98   2.0000      -0.681482       -18.5441
  99   2.0000      -0.672083       -18.2883
 100   2.0000      -0.663472       -18.0540
 101   2.0000      -0.651427       -17.7262
 102   2.0000      -0.648554       -17.6480
 103   2.0000      -0.637329       -17.3426
 104   2.0000      -0.628982       -17.1155
 105   2.0000      -0.620712       -16.8904
 106   2.0000      -0.614073       -16.7098
 107   2.0000      -0.609918       -16.5967
 108   2.0000      -0.604882       -16.4597
 109   2.0000      -0.598105       -16.2753
 110   2.0000      -0.579559       -15.7706
 111   2.0000      -0.569460       -15.4958
 112   2.0000      -0.567965       -15.4551
 113   2.0000      -0.559730       -15.2310
 114   2.0000      -0.552910       -15.0454
 115   2.0000      -0.550275       -14.9738
 116   2.0000      -0.546628       -14.8745
 117   2.0000      -0.544737       -14.8230
 118   2.0000      -0.541145       -14.7253
 119   2.0000      -0.537835       -14.6352
 120   2.0000      -0.532153       -14.4806
 121   2.0000      -0.531383       -14.4597
 122   2.0000      -0.528025       -14.3683
 123   2.0000      -0.526348       -14.3227
 124   2.0000      -0.525093       -14.2885
 125   2.0000      -0.523053       -14.2330
 126   2.0000      -0.521640       -14.1946
 127   2.0000      -0.519465       -14.1354
 128   2.0000      -0.516756       -14.0616
 129   2.0000      -0.512809       -13.9542
 130   2.0000      -0.510295       -13.8858
 131   2.0000      -0.505581       -13.7576
 132   2.0000      -0.504538       -13.7292
 133   2.0000      -0.498752       -13.5717
 134   2.0000      -0.496891       -13.5211
 135   2.0000      -0.494262       -13.4495
 136   2.0000      -0.492684       -13.4066
 137   2.0000      -0.484805       -13.1922
 138   2.0000      -0.476282       -12.9603
 139   2.0000      -0.474423       -12.9097
 140   2.0000      -0.467529       -12.7221
 141   2.0000      -0.465074       -12.6553
 142   2.0000      -0.455535       -12.3957
 143   2.0000      -0.454502       -12.3676
 144   2.0000      -0.454059       -12.3556
 145   2.0000      -0.451841       -12.2952
 146   2.0000      -0.449781       -12.2392
 147   2.0000      -0.446435       -12.1481
 148   2.0000      -0.444498       -12.0954
 149   2.0000      -0.443301       -12.0628
 150   2.0000      -0.440732       -11.9929
 151   2.0000      -0.434602       -11.8261
 152   2.0000      -0.434058       -11.8113
 153   2.0000      -0.431648       -11.7457
 154   2.0000      -0.427654       -11.6371
 155   2.0000      -0.424291       -11.5455
 156   2.0000      -0.423281       -11.5181
 157   2.0000      -0.423198       -11.5158
 158   2.0000      -0.417746       -11.3674
 159   2.0000      -0.414823       -11.2879
 160   2.0000      -0.411482       -11.1970
 161   2.0000      -0.408667       -11.1204
 162   2.0000      -0.399631       -10.8745
 163   2.0000      -0.388096       -10.5606
 164   2.0000      -0.358519        -9.7558
 165   2.0000      -0.354963        -9.6590
 166   2.0000      -0.352530        -9.5928
 167   2.0000      -0.350624        -9.5410
 168   2.0000      -0.345413        -9.3992
 169   2.0000      -0.339192        -9.2299
 170   2.0000      -0.330177        -8.9846
 171   2.0000      -0.323214        -8.7951
 172   2.0000      -0.313263        -8.5243
 173   2.0000      -0.308186        -8.3862
 174   2.0000      -0.290649        -7.9090
 175   2.0000      -0.254671        -6.9299
 176   0.0000      -0.123526        -3.3613
 177   0.0000      -0.096892        -2.6366
 178   0.0000      -0.079960        -2.1758
 179   0.0000      -0.059016        -1.6059
 180   0.0000      -0.045301        -1.2327

MULLIKEN ATOMIC CHARGES
-----------------------
   0 C :   -0.028364
   1 C :    0.061680
   2 C :   -0.017293
   3 C :    0.137351
   4 O :   -0.084814
   5 C :   -0.050590
   6 C :   -0.060398
   7 S :    0.146537
   8 C :   -0.074873
   9 C :   -0.041641
  10 C :    0.049909
  11 C :   -0.296680
  12 N :    0.221481
  13 C :   -0.260965
  14 N :    0.203654
  15 C :    0.022887
  16 C :   -0.077926
  17 C :    0.069898
  18 C :    0.049140
  19 C :   -0.019067
  20 C :    0.128758
  21 O :   -0.114728
  22 C :   -0.048885
  23 C :   -0.134324
  24 S :    0.214458
  25 C :   -0.170893
  26 C :    0.006748
  27 C :    0.091907
  28 C :   -0.032774
  29 C :   -0.207063
  30 C :    0.118358
  31 S :    0.167486
  32 C :    0.018054
  33 C :   -0.106151
  34 C :    0.299040
  35 C :   -0.339182
  36 C :   -0.205880
  37 N :    0.169854
  38 C :   -0.184675
  39 N :    0.148961
  40 C :    0.048758
  41 C :   -0.012538
  42 C :    0.128294
  43 O :   -0.166790
  44 C :   -0.025647
  45 C :    0.006725
  46 C :   -0.040186
  47 C :   -0.073985
  48 C :    0.093707
  49 H :    0.019125
  50 H :    0.009156
  51 H :    0.008228
  52 H :    0.017855
  53 H :    0.045576
  54 H :    0.007439
  55 H :    0.005159
  56 H :   -0.009335
  57 H :    0.039603
  58 H :    0.028699
  59 H :    0.031986
  60 H :    0.027382
  61 H :   -0.020709
  62 H :   -0.018801
  63 H :   -0.010587
  64 H :    0.013011
  65 H :    0.040936
  66 H :    0.037941
Sum of atomic charges:    0.0000000

LOEWDIN ATOMIC CHARGES
----------------------
   0 C :    0.013589
   1 C :    0.017202
   2 C :   -0.041908
   3 C :    0.094991
   4 O :   -0.058082
   5 C :   -0.087683
   6 C :   -0.126461
   7 S :    0.489113
   8 C :   -0.129933
   9 C :   -0.080507
  10 C :   -0.072423
  11 C :   -0.040780
  12 N :   -0.027504
  13 C :   -0.033310
  14 N :   -0.032877
  15 C :   -0.023025
  16 C :   -0.016567
  17 C :   -0.009526
  18 C :    0.031779
  19 C :   -0.040731
  20 C :    0.084378
  21 O :   -0.097444
  22 C :   -0.075783
  23 C :   -0.144634
  24 S :    0.489359
  25 C :   -0.193679
  26 C :   -0.158658
  27 C :   -0.072900
  28 C :   -0.083931
  29 C :   -0.143478
  30 C :   -0.058335
  31 S :    0.447263
  32 C :    0.038229
  33 C :   -0.103237
  34 C :    0.075529
  35 C :   -0.136462
  36 C :   -0.025174
  37 N :   -0.046737
  38 C :   -0.017717
  39 N :   -0.052699
  40 C :   -0.011564
  41 C :   -0.049972
  42 C :    0.067355
  43 O :   -0.166004
  44 C :    0.009898
  45 C :   -0.013007
  46 C :   -0.000861
  47 C :   -0.003079
  48 C :   -0.043466
  49 H :    0.031185
  50 H :    0.034156
  51 H :    0.036807
  52 H :    0.043215
  53 H :    0.030872
  54 H :    0.035186
  55 H :    0.036459
  56 H :    0.031610
  57 H :    0.041182
  58 H :    0.041526
  59 H :    0.037241
  60 H :    0.046327
  61 H :    0.033255
  62 H :    0.029694
  63 H :    0.036840
  64 H :    0.030503
  65 H :    0.043791
  66 H :    0.041606

  Mayer bond orders larger than 0.100000
B(  0-C ,  1-C ) :   1.0223 B(  0-C ,  5-C ) :   1.6861 B(  0-C , 49-H ) :   0.9997
B(  1-C ,  2-C ) :   1.7269 B(  1-C , 50-H ) :   1.0021 B(  2-C ,  3-C ) :   0.9845
B(  2-C , 51-H ) :   1.0144 B(  3-C ,  4-O ) :   2.2262 B(  3-C ,  5-C ) :   0.8925
B(  5-C ,  6-C ) :   1.1351 B(  6-C ,  7-S ) :   1.1446 B(  6-C , 10-C ) :   1.4782
B(  7-S ,  8-C ) :   1.1097 B(  8-C ,  9-C ) :   1.4568 B(  8-C , 15-C ) :   1.2046
B(  9-C , 10-C ) :   1.3042 B(  9-C , 13-C ) :   1.1574 B( 10-C , 11-C ) :   1.1527
B( 11-C , 12-N ) :   3.0050 B( 13-C , 14-N ) :   3.0095 B( 15-C , 16-C ) :   1.5886
B( 15-C , 52-H ) :   0.9713 B( 16-C , 17-C ) :   1.1676 B( 16-C , 53-H ) :   0.9608
B( 17-C , 18-C ) :   1.0083 B( 17-C , 22-C ) :   1.5420 B( 18-C , 19-C ) :   1.7294
B( 18-C , 54-H ) :   1.0024 B( 19-C , 20-C ) :   0.9880 B( 19-C , 55-H ) :   1.0127
B( 20-C , 21-O ) :   2.2170 B( 20-C , 22-C ) :   0.9042 B( 22-C , 23-C ) :   1.1732
B( 23-C , 24-S ) :   1.1618 B( 23-C , 27-C ) :   1.3372 B( 24-S , 25-C ) :   1.0839
B( 25-C , 26-C ) :   1.4200 B( 25-C , 32-C ) :   1.2291 B( 26-C , 27-C ) :   1.2749
B( 26-C , 31-S ) :   1.0888 B( 27-C , 28-C ) :   1.1443 B( 28-C , 29-C ) :   1.6486
B( 28-C , 56-H ) :   0.9937 B( 29-C , 30-C ) :   1.0718 B( 29-C , 31-S ) :   1.0964
B( 30-C , 57-H ) :   0.9470 B( 30-C , 58-H ) :   0.9570 B( 30-C , 59-H ) :   0.9475
B( 32-C , 33-C ) :   1.5524 B( 32-C , 60-H ) :   0.9324 B( 33-C , 34-C ) :   1.0719
B( 33-C , 42-C ) :   0.9721 B( 34-C , 35-C ) :   1.6472 B( 34-C , 40-C ) :   0.9815
B( 35-C , 36-C ) :   1.1378 B( 35-C , 38-C ) :   1.1450 B( 36-C , 37-N ) :   2.9998
B( 38-C , 39-N ) :   2.9704 B( 40-C , 41-C ) :   1.3241 B( 40-C , 47-C ) :   1.3763
B( 41-C , 42-C ) :   0.9520 B( 41-C , 44-C ) :   1.3868 B( 42-C , 43-O ) :   2.1693
B( 44-C , 45-C ) :   1.3359 B( 44-C , 61-H ) :   1.0062 B( 45-C , 46-C ) :   1.3968
B( 45-C , 62-H ) :   0.9898 B( 46-C , 47-C ) :   1.3444 B( 46-C , 48-C ) :   1.0540
B( 47-C , 63-H ) :   0.9893 B( 48-C , 64-H ) :   0.9595 B( 48-C , 65-H ) :   0.9518
B( 48-C , 66-H ) :   0.9546

-----------------------------------------------------------------------------
         ABSORPTION SPECTRUM VIA TRANSITION ELECTRIC DIPOLE MOMENTS
-----------------------------------------------------------------------------
State   Energy  Wavelength   fosc         T2         TX        TY        TZ
        (cm-1)    (nm)                  (au**2)     (au)      (au)      (au)
-----------------------------------------------------------------------------
   0   12046.2    830.1   0.353068344   9.64907  -1.88043   2.08960   1.32159
   1   19309.8    517.9   0.245686283   4.18869  -0.13809   0.92688   1.81948
   2   19911.5    502.2   0.273149736   4.51619   1.31313  -1.08224   1.27304
   3   21508.2    464.9   0.214109251   3.27723  -0.19056  -1.02763  -1.47813
   4   22644.1    441.6   0.127460993   1.85310  -0.08415  -0.96590  -0.95553
   5   23558.3    424.5   0.031411259   0.43895   0.13088  -0.18443  -0.62274
   6   24051.3    415.8   0.007385023   0.10109   0.28030  -0.10053   0.11139
   7   24704.4    404.8   0.051335562   0.68410  -0.29901   0.34256   0.69090
   8   25181.4    397.1   0.150283337   1.96474  -0.35329  -0.79258  -1.10080
   9   25554.6    391.3   0.064745478   0.83410   0.34814  -0.07173   0.84128
  10   27340.7    365.8   0.132129771   1.59099  -0.65856   0.19394  -1.05815
  11   28279.4    353.6   0.022564941   0.26269   0.02546  -0.31984  -0.39967
  12   28582.3    349.9   0.129483693   1.49140  -0.93571   0.42287  -0.66107
  13   30134.2    331.8   0.033166494   0.36234  -0.26356  -0.40095  -0.36348
  14   30681.4    325.9   0.069026371   0.74065  -0.20472   0.54987   0.62960
  15   31187.2    320.6   0.005073050   0.05355  -0.22301   0.05735  -0.02302
  16   31623.8    316.2   0.024875818   0.25896   0.39911   0.05800   0.31034
  17   31765.1    314.8   0.050013011   0.51833  -0.30143   0.50240  -0.41841
  18   31946.2    313.0   0.125475803   1.29305  -0.41783   0.38761  -0.98398
  19   32749.4    305.3   0.103336396   1.03878  -0.59844  -0.22379  -0.79408
  20   33156.1    301.6   0.077220953   0.76674   0.63937  -0.55842  -0.21474
  21   33434.1    299.1   0.013154370   0.12953  -0.19715   0.28318   0.10231
  22   34024.5    293.9   0.051467675   0.49799  -0.17136  -0.22622   0.64610
  23   34746.2    287.8   0.024596408   0.23305   0.21868  -0.07931  -0.42300
  24   34925.0    286.3   0.084926342   0.80054   0.18787   0.28546  -0.82689
  25   35022.2    285.5   0.105749917   0.99406   0.73285  -0.65304   0.17471
  26   35479.1    281.9   0.089045093   0.82625  -0.42076   0.76925   0.23974
  27   35712.6    280.0   0.127445044   1.17483  -0.73378   0.07451  -0.79426
  28   36235.2    276.0   0.269147323   2.44532  -1.23870   0.87588  -0.37917
  29   36707.4    272.4   0.049825821   0.44687   0.55207  -0.24054   0.29020
  30   36833.6    271.5   0.001889788   0.01689  -0.11253   0.05838  -0.02865
  31   37202.6    268.8   0.035308216   0.31245  -0.39166  -0.36649   0.15728
  32   37785.1    264.7   0.154022700   1.34196  -0.76710   0.86594   0.06055
  33   38232.6    261.6   0.043306090   0.37290   0.47117  -0.35116  -0.16608
  34   38553.9    259.4   0.003817708   0.03260  -0.06927  -0.12917  -0.10544
  35   38807.3    257.7   0.070359725   0.59688  -0.50395  -0.28281  -0.51277
  36   39002.8    256.4   0.150985402   1.27443   0.68047  -0.26108   0.86211
  37   39826.6    251.1   0.030338472   0.25078   0.05656   0.13885  -0.47781
  38   40264.1    248.4   0.152721356   1.24870  -0.59697   0.90849   0.25879

FINAL SINGLE POINT ENERGY     -3133.248094167973

DIPOLE MOMENT
-------------
                                X             Y             Z
Electronic contribution:      1.95145       2.91304      22.42193
Nuclear contribution   :     -2.17619      -2.72758     -24.14116
                        -----------------------------------------
Total Dipole Moment    :     -0.22473       0.18547      -1.71923
                        -----------------------------------------
Magnitude (a.u.)       :      1.74375
Magnitude (Debye)      :      4.43225

Rotational constants in cm-1:     0.002393     0.001268     0.000893
Rotational constants in MHz :    71.749350    38.007683    26.764367

                             ****ORCA TERMINATED NORMALLY****
TOTAL RUN TIME: 0 days 0 hours 5 minutes 5 seconds 480 msec
