                         Program Version 4.2.0 -  RELEASE  -
|  1> # ORCA input file
|  2> # SCF done        -95.312369980260          0.001630332786
|  3> ! CAM-B3LYP def2-SVP def2/J RIJCOSX Grid4 TightSCF
|  4> %maxcore 5000
|  5> %tddft
|  6>     Mode sTDDFT
|  7>     Ethresh 5.0
|  8>     maxcore 5000
|  9> end
| 10>
| 11> %pal
| 12>   nprocs 6
| 13>   end
| 14> * xyz 0 1
| 15>    C        0.22491        -1.87043         3.79407
| 16>    C        1.18324        -1.25705         4.67811
| 17>    C        2.29715        -0.92337         3.99505
| 18>    C        2.11892        -1.30743         2.58688
| 19>    O        2.88883        -1.12411         1.67436
| 20>    C        0.73451        -1.94260         2.52693
| 21>    C        0.08935        -2.48124         1.40009
| 22>    S       -1.59066        -2.96434         1.55700
| 23>    C       -1.70326        -3.53696        -0.09367
| 24>    C       -0.47045        -3.33554        -0.70887
| 25>    C        0.53733        -2.76134         0.10542
| 26>    C        1.77320        -2.63892        -0.58412
| 27>    C        1.71997        -3.09905        -1.85580
| 28>    C        2.80498        -3.13450        -2.86598
| 29>    S        0.13000        -3.71163        -2.28732
| 30>    C       -2.90552        -4.00176        -0.65944
| 31>    C       -3.12425        -4.00538        -2.11413
| 32>    C       -4.39084        -4.32343        -2.39354
| 33>    C       -5.11541        -4.56655        -1.12532
| 34>    O       -6.27130        -4.89888        -1.00056
| 35>    C       -4.09927        -4.36059        -0.04411
| 36>    C       -4.37501        -4.69333         1.29955
| 37>    S       -3.19499        -5.48982         2.31678
| 38>    C       -4.30938        -5.66014         3.65867
| 39>    C       -5.53076        -5.11840         3.29631
| 40>    C       -5.58898        -4.58704         1.98196
| 41>    C       -6.85343        -4.00518         1.69908
| 42>    C       -7.72571        -4.10615         2.72868
| 43>    C       -9.12975        -3.63175         2.79269
| 44>    S       -7.03549        -4.91685         4.12790
| 45>    C       -3.89105        -6.26798         4.86168
| 46>    C       -4.77393        -6.48301         6.03699
| 47>    C       -4.07972        -7.07499         7.00568
| 48>    C       -2.67382        -7.28881         6.52498
| 49>    O       -1.76526        -7.79702         7.14452
| 50>    C       -2.65286        -6.74820         5.16202
| 51>    H       -0.73992        -2.22912         4.10500
| 52>    H        1.00551        -1.10476         5.72801
| 53>    H        3.18801        -0.45249         4.36284
| 54>    H        2.65573        -2.21891        -0.14072
| 55>    H        3.72401        -2.74596        -2.43539
| 56>    H        2.53914        -2.53224        -3.73486
| 57>    H        2.97571        -4.15530        -3.20956
| 58>    H       -2.35640        -3.74997        -2.82054
| 59>    H       -4.86323        -4.38782        -3.35489
| 60>    H       -7.10216        -3.55147         0.75870
| 61>    H       -9.39630        -3.13336         1.86398
| 62>    H       -9.26353        -2.93706         3.62224
| 63>    H       -9.80811        -4.47022         2.94991
| 64>    H       -5.80774        -6.18980         6.05270
| 65>    H       -4.41489        -7.36970         7.98161
| 66>    H       -1.78588        -6.74605         4.52896
| 67> *
| 68>
| 69>                          ****END OF INPUT****

CARTESIAN COORDINATES (ANGSTROEM)
---------------------------------
  C      0.224910   -1.870430    3.794070
  C      1.183240   -1.257050    4.678110
  C      2.297150   -0.923370    3.995050
  C      2.118920   -1.307430    2.586880
  O      2.888830   -1.124110    1.674360
  C      0.734510   -1.942600    2.526930
  C      0.089350   -2.481240    1.400090
  S     -1.590660   -2.964340    1.557000
  C     -1.703260   -3.536960   -0.093670
  C     -0.470450   -3.335540   -0.708870
  C      0.537330   -2.761340    0.105420
  C      1.773200   -2.638920   -0.584120
  C      1.719970   -3.099050   -1.855800
  C      2.804980   -3.134500   -2.865980
  S      0.130000   -3.711630   -2.287320
  C     -2.905520   -4.001760   -0.659440
  C     -3.124250   -4.005380   -2.114130
  C     -4.390840   -4.323430   -2.393540
  C     -5.115410   -4.566550   -1.125320
  O     -6.271300   -4.898880   -1.000560
  C     -4.099270   -4.360590   -0.044110
  C     -4.375010   -4.693330    1.299550
  S     -3.194990   -5.489820    2.316780
  C     -4.309380   -5.660140    3.658670
  C     -5.530760   -5.118400    3.296310
  C     -5.588980   -4.587040    1.981960
  C     -6.853430   -4.005180    1.699080
  C     -7.725710   -4.106150    2.728680
  C     -9.129750   -3.631750    2.792690
  S     -7.035490   -4.916850    4.127900
  C     -3.891050   -6.267980    4.861680
  C     -4.773930   -6.483010    6.036990
  C     -4.079720   -7.074990    7.005680
  C     -2.673820   -7.288810    6.524980
  O     -1.765260   -7.797020    7.144520
  C     -2.652860   -6.748200    5.162020
  H     -0.739920   -2.229120    4.105000
  H      1.005510   -1.104760    5.728010
  H      3.188010   -0.452490    4.362840
  H      2.655730   -2.218910   -0.140720
  H      3.724010   -2.745960   -2.435390
  H      2.539140   -2.532240   -3.734860
  H      2.975710   -4.155300   -3.209560
  H     -2.356400   -3.749970   -2.820540
  H     -4.863230   -4.387820   -3.354890
  H     -7.102160   -3.551470    0.758700
  H     -9.396300   -3.133360    1.863980
  H     -9.263530   -2.937060    3.622240
  H     -9.808110   -4.470220    2.949910
  H     -5.807740   -6.189800    6.052700
  H     -4.414890   -7.369700    7.981610
  H     -1.785880   -6.746050    4.528960

 Total Charge           Charge          ....    0
 Multiplicity           Mult            ....    1
 Number of Electrons    NEL             ....  278
 Basis Dimension        Dim             ....  600

ORBITAL ENERGIES
----------------

  NO   OCC          E(Eh)            E(eV)
   0   2.0000     -88.962782     -2420.8004
   1   2.0000     -88.955805     -2420.6105
   2   2.0000     -88.955707     -2420.6079
   3   2.0000     -88.947018     -2420.3714
   4   2.0000     -19.236329      -523.4471
   5   2.0000     -19.219226      -522.9817
   6   2.0000     -19.199650      -522.4490
   7   2.0000     -10.375166      -282.3226
   8   2.0000     -10.360842      -281.9328
   9   2.0000     -10.341609      -281.4095
  10   2.0000     -10.319874      -280.8180
  11   2.0000     -10.318641      -280.7845
  12   2.0000     -10.312622      -280.6207
  13   2.0000     -10.310656      -280.5672
  14   2.0000     -10.307753      -280.4882
  15   2.0000     -10.307670      -280.4860
  16   2.0000     -10.306567      -280.4559
  17   2.0000     -10.303285      -280.3666
  18   2.0000     -10.301126      -280.3079
  19   2.0000     -10.300397      -280.2880
  20   2.0000     -10.297273      -280.2031
  21   2.0000     -10.296428      -280.1801
  22   2.0000     -10.296061      -280.1701
  23   2.0000     -10.292842      -280.0825
  24   2.0000     -10.291059      -280.0340
  25   2.0000     -10.283433      -279.8264
  26   2.0000     -10.282379      -279.7978
  27   2.0000     -10.281699      -279.7793
  28   2.0000     -10.279127      -279.7093
  29   2.0000     -10.275577      -279.6127
  30   2.0000     -10.274835      -279.5925
  31   2.0000     -10.274130      -279.5733
  32   2.0000     -10.267626      -279.3963
  33   2.0000     -10.264392      -279.3083
  34   2.0000     -10.264174      -279.3024
  35   2.0000     -10.252949      -278.9969
  36   2.0000      -8.057480      -219.2552
  37   2.0000      -8.051676      -219.0973
  38   2.0000      -8.050476      -219.0646
  39   2.0000      -8.042906      -218.8586
  40   2.0000      -6.026992      -164.0028
  41   2.0000      -6.022653      -163.8847
  42   2.0000      -6.021426      -163.8513
  43   2.0000      -6.019915      -163.8102
  44   2.0000      -6.019314      -163.7939
  45   2.0000      -6.017098      -163.7336
  46   2.0000      -6.015680      -163.6950
  47   2.0000      -6.012988      -163.6217
  48   2.0000      -6.012730      -163.6147
  49   2.0000      -6.012410      -163.6060
  50   2.0000      -6.008434      -163.4978
  51   2.0000      -6.004027      -163.3779
  52   2.0000      -1.145736       -31.1771
  53   2.0000      -1.130521       -30.7631
  54   2.0000      -1.108440       -30.1622
  55   2.0000      -1.014001       -27.5924
  56   2.0000      -1.003884       -27.3171
  57   2.0000      -0.974278       -26.5115
  58   2.0000      -0.971561       -26.4375
  59   2.0000      -0.957155       -26.0455
  60   2.0000      -0.943795       -25.6820
  61   2.0000      -0.935820       -25.4650
  62   2.0000      -0.881732       -23.9931
  63   2.0000      -0.873144       -23.7594
  64   2.0000      -0.852450       -23.1963
  65   2.0000      -0.845214       -22.9994
  66   2.0000      -0.830206       -22.5910
  67   2.0000      -0.822688       -22.3865
  68   2.0000      -0.809695       -22.0329
  69   2.0000      -0.800576       -21.7848
  70   2.0000      -0.782415       -21.2906
  71   2.0000      -0.778173       -21.1752
  72   2.0000      -0.770399       -20.9636
  73   2.0000      -0.762807       -20.7570
  74   2.0000      -0.742344       -20.2002
  75   2.0000      -0.731967       -19.9178
  76   2.0000      -0.686962       -18.6932
  77   2.0000      -0.674150       -18.3446
  78   2.0000      -0.663732       -18.0611
  79   2.0000      -0.650751       -17.7078
  80   2.0000      -0.646543       -17.5933
  81   2.0000      -0.636128       -17.3099
  82   2.0000      -0.629629       -17.1331
  83   2.0000      -0.619792       -16.8654
  84   2.0000      -0.615429       -16.7467
  85   2.0000      -0.608282       -16.5522
  86   2.0000      -0.594717       -16.1831
  87   2.0000      -0.587889       -15.9973
  88   2.0000      -0.579145       -15.7593
  89   2.0000      -0.575916       -15.6715
  90   2.0000      -0.566572       -15.4172
  91   2.0000      -0.540814       -14.7163
  92   2.0000      -0.533162       -14.5081
  93   2.0000      -0.528085       -14.3699
  94   2.0000      -0.523504       -14.2453
  95   2.0000      -0.519916       -14.1476
  96   2.0000      -0.517209       -14.0740
  97   2.0000      -0.515743       -14.0341
  98   2.0000      -0.513164       -13.9639
  99   2.0000      -0.511619       -13.9219
 100   2.0000      -0.509211       -13.8563
 101   2.0000      -0.503665       -13.7054
 102   2.0000      -0.502688       -13.6788
 103   2.0000      -0.498110       -13.5543
 104   2.0000      -0.495972       -13.4961
 105   2.0000      -0.492907       -13.4127
 106   2.0000      -0.491705       -13.3800
 107   2.0000      -0.487772       -13.2730
 108   2.0000      -0.485420       -13.2090
 109   2.0000      -0.481202       -13.0942
 110   2.0000      -0.480258       -13.0685
 111   2.0000      -0.477065       -12.9816
 112   2.0000      -0.473698       -12.8900
 113   2.0000      -0.464514       -12.6401
 114   2.0000      -0.460505       -12.5310
 115   2.0000      -0.455310       -12.3896
 116   2.0000      -0.447082       -12.1657
 117   2.0000      -0.443517       -12.0687
 118   2.0000      -0.427702       -11.6384
 119   2.0000      -0.425652       -11.5826
 120   2.0000      -0.421324       -11.4648
 121   2.0000      -0.416873       -11.3437
 122   2.0000      -0.412693       -11.2299
 123   2.0000      -0.409778       -11.1506
 124   2.0000      -0.404188       -10.9985
 125   2.0000      -0.397943       -10.8286
 126   2.0000      -0.387722       -10.5505
 127   2.0000      -0.363469        -9.8905
 128   2.0000      -0.352469        -9.5912
 129   2.0000      -0.343950        -9.3594
 130   2.0000      -0.336243        -9.1496
 131   2.0000      -0.321033        -8.7357
 132   2.0000      -0.316016        -8.5992
 133   2.0000      -0.313580        -8.5329
 134   2.0000      -0.307930        -8.3792
 135   2.0000      -0.300117        -8.1666
 136   2.0000      -0.288782        -7.8582
 137   2.0000      -0.261303        -7.1104
 138   2.0000      -0.225394        -6.1333
 139   0.0000      -0.105377        -2.8674
 140   0.0000      -0.072676        -1.9776
 141   0.0000      -0.055421        -1.5081
 142   0.0000      -0.010010        -0.2724
 143   0.0000       0.007810         0.2125

MULLIKEN ATOMIC CHARGES
-----------------------
   0 C :   -0.049151
   1 C :    0.080053
   2 C :   -0.040710
   3 C :    0.160053
   4 O :   -0.124992
   5 C :   -0.024644
   6 C :   -0.093652
   7 S :    0.149984
   8 C :   -0.155188
   9 C :   -0.041804
  10 C :    0.102278
  11 C :   -0.007980
  12 C :   -0.196793
  13 C :    0.118927
  14 S :    0.097160
  15 C :    0.037638
  16 C :    0.045525
  17 C :   -0.027973
  18 C :    0.129619
  19 O :   -0.132665
  20 C :   -0.080823
  21 C :   -0.174801
  22 S :    0.160964
  23 C :   -0.120930
  24 C :   -0.052356
  25 C :    0.144457
  26 C :    0.022063
  27 C :   -0.203797
  28 C :    0.120056
  29 S :    0.083879
  30 C :    0.060462
  31 C :    0.048721
  32 C :   -0.036096
  33 C :    0.149014
  34 O :   -0.149526
  35 C :   -0.154093
  36 H :    0.010537
  37 H :    0.008980
  38 H :   -0.006178
  39 H :   -0.003084
  40 H :    0.029656
  41 H :    0.036763
  42 H :    0.036582
  43 H :    0.000132
  44 H :   -0.007588
  45 H :   -0.016673
  46 H :    0.025132
  47 H :    0.033436
  48 H :    0.037389
  49 H :   -0.005413
  50 H :   -0.009845
  51 H :   -0.012705
Sum of atomic charges:   -0.0000000

LOEWDIN ATOMIC CHARGES
----------------------
   0 C :   -0.014192
   1 C :    0.031018
   2 C :   -0.069104
   3 C :    0.107544
   4 O :   -0.093795
   5 C :   -0.076280
   6 C :   -0.147318
   7 S :    0.457950
   8 C :   -0.197333
   9 C :   -0.171574
  10 C :   -0.063740
  11 C :   -0.064189
  12 C :   -0.143943
  13 C :   -0.058431
  14 S :    0.390882
  15 C :   -0.026714
  16 C :    0.023581
  17 C :   -0.047361
  18 C :    0.090855
  19 O :   -0.109101
  20 C :   -0.110809
  21 C :   -0.165758
  22 S :    0.451520
  23 C :   -0.195563
  24 C :   -0.173968
  25 C :   -0.058784
  26 C :   -0.056902
  27 C :   -0.147224
  28 C :   -0.058688
  29 S :    0.380487
  30 C :   -0.012933
  31 C :    0.004975
  32 C :   -0.040013
  33 C :    0.070719
  34 O :   -0.123333
  35 C :   -0.095190
  36 H :    0.026183
  37 H :    0.034671
  38 H :    0.031429
  39 H :    0.030658
  40 H :    0.042532
  41 H :    0.039556
  42 H :    0.039308
  43 H :    0.019149
  44 H :    0.032276
  45 H :    0.030400
  46 H :    0.040780
  47 H :    0.037415
  48 H :    0.039600
  49 H :    0.017390
  50 H :    0.029256
  51 H :    0.022109

  Mayer bond orders larger than 0.100000
B(  0-C ,  1-C ) :   1.0393 B(  0-C ,  5-C ) :   1.6436 B(  0-C , 36-H ) :   0.9982
B(  1-C ,  2-C ) :   1.6909 B(  1-C , 37-H ) :   1.0017 B(  2-C ,  3-C ) :   1.0134
B(  2-C , 38-H ) :   1.0147 B(  3-C ,  4-O ) :   2.1619 B(  3-C ,  5-C ) :   0.8856
B(  5-C ,  6-C ) :   1.1846 B(  6-C ,  7-S ) :   1.1288 B(  6-C ,  8-C ) :   0.1006
B(  6-C , 10-C ) :   1.3748 B(  7-S ,  8-C ) :   1.1183 B(  8-C ,  9-C ) :   1.4419
B(  8-C , 15-C ) :   1.1891 B(  9-C , 10-C ) :   1.2466 B(  9-C , 14-S ) :   1.0674
B( 10-C , 11-C ) :   1.1595 B( 11-C , 12-C ) :   1.6597 B( 11-C , 39-H ) :   0.9865
B( 12-C , 13-C ) :   1.0710 B( 12-C , 14-S ) :   1.0550 B( 13-C , 40-H ) :   0.9555
B( 13-C , 41-H ) :   0.9480 B( 13-C , 42-H ) :   0.9482 B( 15-C , 16-C ) :   1.0218
B( 15-C , 20-C ) :   1.5265 B( 16-C , 17-C ) :   1.7390 B( 16-C , 43-H ) :   0.9876
B( 17-C , 18-C ) :   0.9933 B( 17-C , 44-H ) :   1.0138 B( 18-C , 19-O ) :   2.1739
B( 18-C , 20-C ) :   0.9374 B( 20-C , 21-C ) :   1.1427 B( 21-C , 22-S ) :   1.1319
B( 21-C , 23-C ) :   0.1053 B( 21-C , 25-C ) :   1.3913 B( 22-S , 23-C ) :   1.1128
B( 23-C , 24-C ) :   1.4743 B( 23-C , 30-C ) :   1.1556 B( 24-C , 25-C ) :   1.2375
B( 24-C , 29-S ) :   1.0581 B( 25-C , 26-C ) :   1.1505 B( 26-C , 27-C ) :   1.6846
B( 26-C , 45-H ) :   0.9852 B( 27-C , 28-C ) :   1.0697 B( 27-C , 29-S ) :   1.0492
B( 28-C , 46-H ) :   0.9561 B( 28-C , 47-H ) :   0.9492 B( 28-C , 48-H ) :   0.9480
B( 30-C , 31-C ) :   1.0070 B( 30-C , 35-C ) :   1.6048 B( 31-C , 32-C ) :   1.7771
B( 31-C , 49-H ) :   0.9901 B( 32-C , 33-C ) :   0.9695 B( 32-C , 50-H ) :   1.0060
B( 33-C , 34-O ) :   2.1593 B( 33-C , 35-C ) :   0.9859 B( 35-C , 51-H ) :   1.0155

-----------------------------------------------------------------------------
         ABSORPTION SPECTRUM VIA TRANSITION ELECTRIC DIPOLE MOMENTS
-----------------------------------------------------------------------------
State   Energy  Wavelength   fosc         T2         TX        TY        TZ
        (cm-1)    (nm)                  (au**2)     (au)      (au)      (au)
-----------------------------------------------------------------------------
   0   10033.2    996.7   0.216054603   7.08924  -2.03975  -1.57473   0.67000
   1   16310.6    613.1   0.186868284   3.77173   0.28395   0.12489   1.91716
   2   17256.2    579.5   0.081278050   1.55061   0.71707   0.63524   0.79555
   3   20111.2    497.2   0.236423182   3.87015   0.78895  -0.67432   1.67123
   4   21698.9    460.9   0.079719954   1.20950   1.09816  -0.04663   0.03708
   5   23543.5    424.7   0.080505011   1.12571  -1.05315  -0.12421   0.03398
   6   23956.2    417.4   0.003089974   0.04246  -0.20031  -0.03705  -0.03112
   7   24807.1    403.1   0.006087751   0.08079  -0.21585  -0.02083  -0.18375
   8   25113.8    398.2   0.104660585   1.37197   1.14270  -0.02432   0.25617
   9   25939.7    385.5   0.014721924   0.18684   0.14656   0.39902  -0.07837
  10   26178.2    382.0   0.034908263   0.43900   0.16668   0.12289   0.62937
  11   27766.7    360.1   0.009971329   0.11822  -0.23721  -0.09728   0.22911
  12   28221.0    354.3   0.025345954   0.29567   0.33862   0.06908  -0.41980
  13   28538.8    350.4   0.022418232   0.25861   0.16963   0.03926   0.47780
  14   29536.6    338.6   0.038534591   0.42950  -0.56374  -0.29554  -0.15606
  15   29703.7    336.7   0.064560601   0.71554  -0.71828  -0.23073  -0.38259
  16   31948.9    313.0   0.016460160   0.16961   0.37447  -0.17141   0.00079
  17   32750.2    305.3   0.202545981   2.03604   0.34742  -0.13917   1.37694
  18   33424.8    299.2   0.128359969   1.26426   0.51287  -0.21588  -0.97705
  19   33833.2    295.6   0.000543136   0.00528   0.02675  -0.03624  -0.05706
  20   34121.7    293.1   0.010815239   0.10435   0.10281   0.19455   0.23649
  21   34925.4    286.3   0.051086732   0.48155  -0.28485  -0.58927  -0.23059
  22   35861.7    278.8   0.154121192   1.41484   0.13527  -0.16923  -1.16957
  23   36753.7    272.1   0.094175354   0.84355  -0.00547   0.25678  -0.88181
  24   37129.2    269.3   0.033569098   0.29765   0.14374   0.03528   0.52511
  25   37540.0    266.4   0.077303645   0.67793  -0.73740  -0.16758  -0.32570
  26   37952.5    263.5   0.011743705   0.10187   0.27456   0.13791  -0.08639
  27   38615.3    259.0   0.086247907   0.73530   0.36670   0.04897  -0.77359
  28   39045.4    256.1   0.006280549   0.05295   0.10346  -0.11591   0.16975
  29   39262.5    254.7   0.026049954   0.21843  -0.44781   0.13205  -0.02131
  30   39728.1    251.7   0.105097500   0.87090   0.79276   0.08492   0.48500

FINAL SINGLE POINT ENERGY     -2930.863076558885

DIPOLE MOMENT
-------------
                                X             Y             Z
Electronic contribution:     -0.23437      -5.38826       1.58782
Nuclear contribution   :      0.18301       6.99162      -2.48273
                        -----------------------------------------
Total Dipole Moment    :     -0.05136       1.60336      -0.89491
                        -----------------------------------------
Magnitude (a.u.)       :      1.83692
Magnitude (Debye)      :      4.66908

Rotational constants in cm-1:     0.003900     0.002152     0.001605
Rotational constants in MHz :   116.923547    64.505674    48.131675

                             ****ORCA TERMINATED NORMALLY****
TOTAL RUN TIME: 0 days 0 hours 7 minutes 16 seconds 420 msec
