                         Program Version 4.2.0 -  RELEASE  -
|  1> # ORCA input file
|  2> # SCF done       -160.313634731663          0.000348134105
|  3> ! CAM-B3LYP def2-SVP def2/J RIJCOSX Grid4 TightSCF
|  4> %maxcore 5000
|  5> %tddft
|  6>     Mode sTDDFT
|  7>     Ethresh 5.0
|  8>     maxcore 5000
|  9> end
| 10>
| 11> %pal
| 12>   nprocs 6
| 13>   end
| 14> * xyz 0 1
| 15>    C        0.98984         1.25089        -3.69790
| 16>    S        1.25808         0.00441        -2.56734
| 17>    C        2.73390        -0.48006        -3.36327
| 18>    C        2.97038         0.32511        -4.46393
| 19>    C        1.97202         1.31565        -4.65524
| 20>    C        1.93573         2.28049        -5.68550
| 21>    N        1.85858         3.08337        -6.49764
| 22>    C        4.16827         0.14266        -5.34487
| 23>    F        5.31594         0.29233        -4.66246
| 24>    F        4.19957        -1.08329        -5.89451
| 25>    F        4.21040         1.01434        -6.35641
| 26>    C        3.53112        -1.55600        -2.88658
| 27>    C        3.21272        -2.29845        -1.79690
| 28>    C        4.02423        -3.35721        -1.32456
| 29>    C        5.23080        -3.84896        -1.79934
| 30>    C        5.65057        -4.91433        -0.95173
| 31>    C        4.65077        -5.08638         0.08768
| 32>    O        4.58344        -5.86137         1.01853
| 33>    N        3.70407        -4.10983        -0.21069
| 34>    C        6.85503        -5.37239        -1.43934
| 35>    O        7.20686        -4.66194        -2.54194
| 36>    C        6.24045        -3.69485        -2.82354
| 37>    O        6.34049        -2.94611        -3.75491
| 38>    C        7.71685        -6.40487        -0.95930
| 39>    O        8.84523        -6.56525        -1.71548
| 40>    C        9.77284        -7.47866        -1.32520
| 41>    C       10.94030        -7.65066        -2.01551
| 42>    F       11.30807        -6.99246        -3.10673
| 43>    S       11.98002        -8.85851        -1.33919
| 44>    C        7.38480        -7.11132         0.14951
| 45>    S        8.32387        -8.36738         0.87190
| 46>    C        9.70396        -8.34803        -0.21257
| 47>    C       10.81664        -9.16571        -0.06469
| 48>    C       11.00908       -10.11025         0.95653
| 49>    C       12.10166       -10.91514         1.15263
| 50>    C       12.25836       -11.85409         2.20625
| 51>    C       13.44229       -12.52404         2.18516
| 52>    C       14.28727       -12.15219         1.11415
| 53>    S       13.52496       -10.92307         0.13111
| 54>    C       15.54851       -12.63331         0.81079
| 55>    C       16.29557       -13.61823         1.49365
| 56>    C       17.51261       -13.86322         0.93244
| 57>    C       17.78822       -13.08481        -0.21916
| 58>    S       16.44325       -12.02872        -0.56731
| 59>    C       18.94909       -13.14704        -0.96017
| 60>    C       19.26977       -12.40378        -2.09315
| 61>    S       18.21899       -11.19984        -2.82672
| 62>    C       19.42583       -10.80163        -4.15226
| 63>    O       19.19292        -9.97945        -4.99107
| 64>    C       20.57305       -11.64250        -3.92770
| 65>    C       20.46507       -12.50253        -2.80694
| 66>    C       21.60350       -13.33826        -2.58123
| 67>    O       21.83821       -14.16459        -1.74053
| 68>    S       22.81072       -12.93249        -3.91136
| 69>    C       21.75942       -11.73961        -4.63116
| 70>    C       22.11264       -10.98306        -5.79117
| 71>    C       23.27367       -11.10036        -6.43855
| 72>    H        0.12827         1.88392        -3.61735
| 73>    H        4.43895        -1.77906        -3.43185
| 74>    H        2.30535        -2.08834        -1.24353
| 75>    H        2.87190        -3.97516         0.34304
| 76>    H        6.46189        -6.90835         0.67033
| 77>    H       10.19667       -10.19851         1.66700
| 78>    H       11.48822       -11.99852         2.94285
| 79>    H       13.73033       -13.26819         2.90527
| 80>    H       15.92170       -14.11547         2.37033
| 81>    H       18.22557       -14.57683         1.30518
| 82>    H       19.70813       -13.84832        -0.63528
| 83>    H       21.35431       -10.28491        -6.12133
| 84>    H       24.02958       -11.79479        -6.10945
| 85>    H       23.49485       -10.50808        -7.30842
| 86> *
| 87>
| 88>                          ****END OF INPUT****

CARTESIAN COORDINATES (ANGSTROEM)
---------------------------------
  C      0.989840    1.250890   -3.697900
  S      1.258080    0.004410   -2.567340
  C      2.733900   -0.480060   -3.363270
  C      2.970380    0.325110   -4.463930
  C      1.972020    1.315650   -4.655240
  C      1.935730    2.280490   -5.685500
  N      1.858580    3.083370   -6.497640
  C      4.168270    0.142660   -5.344870
  F      5.315940    0.292330   -4.662460
  F      4.199570   -1.083290   -5.894510
  F      4.210400    1.014340   -6.356410
  C      3.531120   -1.556000   -2.886580
  C      3.212720   -2.298450   -1.796900
  C      4.024230   -3.357210   -1.324560
  C      5.230800   -3.848960   -1.799340
  C      5.650570   -4.914330   -0.951730
  C      4.650770   -5.086380    0.087680
  O      4.583440   -5.861370    1.018530
  N      3.704070   -4.109830   -0.210690
  C      6.855030   -5.372390   -1.439340
  O      7.206860   -4.661940   -2.541940
  C      6.240450   -3.694850   -2.823540
  O      6.340490   -2.946110   -3.754910
  C      7.716850   -6.404870   -0.959300
  O      8.845230   -6.565250   -1.715480
  C      9.772840   -7.478660   -1.325200
  C     10.940300   -7.650660   -2.015510
  F     11.308070   -6.992460   -3.106730
  S     11.980020   -8.858510   -1.339190
  C      7.384800   -7.111320    0.149510
  S      8.323870   -8.367380    0.871900
  C      9.703960   -8.348030   -0.212570
  C     10.816640   -9.165710   -0.064690
  C     11.009080  -10.110250    0.956530
  C     12.101660  -10.915140    1.152630
  C     12.258360  -11.854090    2.206250
  C     13.442290  -12.524040    2.185160
  C     14.287270  -12.152190    1.114150
  S     13.524960  -10.923070    0.131110
  C     15.548510  -12.633310    0.810790
  C     16.295570  -13.618230    1.493650
  C     17.512610  -13.863220    0.932440
  C     17.788220  -13.084810   -0.219160
  S     16.443250  -12.028720   -0.567310
  C     18.949090  -13.147040   -0.960170
  C     19.269770  -12.403780   -2.093150
  S     18.218990  -11.199840   -2.826720
  C     19.425830  -10.801630   -4.152260
  O     19.192920   -9.979450   -4.991070
  C     20.573050  -11.642500   -3.927700
  C     20.465070  -12.502530   -2.806940
  C     21.603500  -13.338260   -2.581230
  O     21.838210  -14.164590   -1.740530
  S     22.810720  -12.932490   -3.911360
  C     21.759420  -11.739610   -4.631160
  C     22.112640  -10.983060   -5.791170
  C     23.273670  -11.100360   -6.438550
  H      0.128270    1.883920   -3.617350
  H      4.438950   -1.779060   -3.431850
  H      2.305350   -2.088340   -1.243530
  H      2.871900   -3.975160    0.343040
  H      6.461890   -6.908350    0.670330
  H     10.196670  -10.198510    1.667000
  H     11.488220  -11.998520    2.942850
  H     13.730330  -13.268190    2.905270
  H     15.921700  -14.115470    2.370330
  H     18.225570  -14.576830    1.305180
  H     19.708130  -13.848320   -0.635280
  H     21.354310  -10.284910   -6.121330
  H     24.029580  -11.794790   -6.109450
  H     23.494850  -10.508080   -7.308420

 Total Charge           Charge          ....    0
 Multiplicity           Mult            ....    1
 Number of Electrons    NEL             ....  452
 Basis Dimension        Dim             ....  896

ORBITAL ENERGIES
----------------

  NO   OCC          E(Eh)            E(eV)
   0   2.0000     -89.000910     -2421.8379
   1   2.0000     -88.982633     -2421.3405
   2   2.0000     -88.976530     -2421.1745
   3   2.0000     -88.966267     -2420.8952
   4   2.0000     -88.961221     -2420.7579
   5   2.0000     -88.940338     -2420.1896
   6   2.0000     -88.934133     -2420.0208
   7   2.0000     -24.810587      -675.1304
   8   2.0000     -24.805831      -675.0010
   9   2.0000     -24.800553      -674.8574
  10   2.0000     -24.800359      -674.8521
  11   2.0000     -19.291393      -524.9455
  12   2.0000     -19.290998      -524.9347
  13   2.0000     -19.218814      -522.9705
  14   2.0000     -19.214283      -522.8472
  15   2.0000     -19.210229      -522.7369
  16   2.0000     -19.204332      -522.5765
  17   2.0000     -14.476120      -393.9152
  18   2.0000     -14.413439      -392.2096
  19   2.0000     -10.528279      -286.4890
  20   2.0000     -10.416471      -283.4466
  21   2.0000     -10.399220      -282.9772
  22   2.0000     -10.392701      -282.7998
  23   2.0000     -10.382652      -282.5263
  24   2.0000     -10.379768      -282.4478
  25   2.0000     -10.372404      -282.2475
  26   2.0000     -10.371208      -282.2149
  27   2.0000     -10.363008      -281.9918
  28   2.0000     -10.361650      -281.9548
  29   2.0000     -10.346489      -281.5423
  30   2.0000     -10.343162      -281.4517
  31   2.0000     -10.341744      -281.4132
  32   2.0000     -10.333948      -281.2010
  33   2.0000     -10.332794      -281.1696
  34   2.0000     -10.331684      -281.1394
  35   2.0000     -10.329047      -281.0677
  36   2.0000     -10.328059      -281.0408
  37   2.0000     -10.327687      -281.0307
  38   2.0000     -10.327342      -281.0213
  39   2.0000     -10.326584      -281.0006
  40   2.0000     -10.323814      -280.9253
  41   2.0000     -10.320855      -280.8447
  42   2.0000     -10.319617      -280.8111
  43   2.0000     -10.317453      -280.7522
  44   2.0000     -10.315174      -280.6901
  45   2.0000     -10.312679      -280.6223
  46   2.0000     -10.306375      -280.4507
  47   2.0000     -10.304490      -280.3994
  48   2.0000     -10.304329      -280.3950
  49   2.0000     -10.295904      -280.1658
  50   2.0000     -10.288334      -279.9598
  51   2.0000     -10.288016      -279.9511
  52   2.0000     -10.286672      -279.9146
  53   2.0000     -10.280253      -279.7399
  54   2.0000     -10.278992      -279.7056
  55   2.0000     -10.277330      -279.6604
  56   2.0000     -10.274237      -279.5762
  57   2.0000      -8.096648      -220.3210
  58   2.0000      -8.078296      -219.8216
  59   2.0000      -8.071759      -219.6437
  60   2.0000      -8.062501      -219.3918
  61   2.0000      -8.057313      -219.2506
  62   2.0000      -8.037519      -218.7120
  63   2.0000      -8.031539      -218.5493
  64   2.0000      -6.065710      -165.0564
  65   2.0000      -6.061473      -164.9411
  66   2.0000      -6.059252      -164.8806
  67   2.0000      -6.047776      -164.5684
  68   2.0000      -6.043927      -164.4636
  69   2.0000      -6.041846      -164.4070
  70   2.0000      -6.039499      -164.3431
  71   2.0000      -6.037620      -164.2920
  72   2.0000      -6.032253      -164.1459
  73   2.0000      -6.032203      -164.1446
  74   2.0000      -6.028132      -164.0338
  75   2.0000      -6.027013      -164.0034
  76   2.0000      -6.023397      -163.9050
  77   2.0000      -6.022862      -163.8904
  78   2.0000      -6.018320      -163.7668
  79   2.0000      -6.006933      -163.4570
  80   2.0000      -6.002915      -163.3476
  81   2.0000      -6.000805      -163.2902
  82   2.0000      -5.998697      -163.2329
  83   2.0000      -5.996927      -163.1847
  84   2.0000      -5.992904      -163.0752
  85   2.0000      -1.393730       -37.9253
  86   2.0000      -1.327348       -36.1190
  87   2.0000      -1.297214       -35.2990
  88   2.0000      -1.292643       -35.1746
  89   2.0000      -1.224747       -33.3271
  90   2.0000      -1.200738       -32.6738
  91   2.0000      -1.148456       -31.2511
  92   2.0000      -1.136474       -30.9250
  93   2.0000      -1.128235       -30.7008
  94   2.0000      -1.125479       -30.6258
  95   2.0000      -1.076569       -29.2949
  96   2.0000      -1.034413       -28.1478
  97   2.0000      -1.019387       -27.7389
  98   2.0000      -1.010709       -27.5028
  99   2.0000      -0.995187       -27.0804
 100   2.0000      -0.992894       -27.0180
 101   2.0000      -0.983798       -26.7705
 102   2.0000      -0.956843       -26.0370
 103   2.0000      -0.939171       -25.5562
 104   2.0000      -0.937959       -25.5232
 105   2.0000      -0.925880       -25.1945
 106   2.0000      -0.916246       -24.9323
 107   2.0000      -0.904178       -24.6039
 108   2.0000      -0.900998       -24.5174
 109   2.0000      -0.885008       -24.0823
 110   2.0000      -0.879914       -23.9437
 111   2.0000      -0.869575       -23.6623
 112   2.0000      -0.862742       -23.4764
 113   2.0000      -0.847293       -23.0560
 114   2.0000      -0.841533       -22.8993
 115   2.0000      -0.837901       -22.8004
 116   2.0000      -0.819740       -22.3063
 117   2.0000      -0.817022       -22.2323
 118   2.0000      -0.813154       -22.1271
 119   2.0000      -0.794513       -21.6198
 120   2.0000      -0.785353       -21.3705
 121   2.0000      -0.778522       -21.1847
 122   2.0000      -0.770786       -20.9741
 123   2.0000      -0.764207       -20.7951
 124   2.0000      -0.745961       -20.2986
 125   2.0000      -0.732182       -19.9237
 126   2.0000      -0.725984       -19.7550
 127   2.0000      -0.720427       -19.6038
 128   2.0000      -0.707274       -19.2459
 129   2.0000      -0.701766       -19.0960
 130   2.0000      -0.698025       -18.9942
 131   2.0000      -0.690268       -18.7831
 132   2.0000      -0.681750       -18.5514
 133   2.0000      -0.675176       -18.3725
 134   2.0000      -0.675109       -18.3706
 135   2.0000      -0.662403       -18.0249
 136   2.0000      -0.656698       -17.8697
 137   2.0000      -0.653640       -17.7865
 138   2.0000      -0.648974       -17.6595
 139   2.0000      -0.643641       -17.5144
 140   2.0000      -0.639311       -17.3965
 141   2.0000      -0.626366       -17.0443
 142   2.0000      -0.622904       -16.9501
 143   2.0000      -0.621812       -16.9204
 144   2.0000      -0.617088       -16.7918
 145   2.0000      -0.610327       -16.6078
 146   2.0000      -0.600340       -16.3361
 147   2.0000      -0.596743       -16.2382
 148   2.0000      -0.594382       -16.1739
 149   2.0000      -0.591471       -16.0947
 150   2.0000      -0.587686       -15.9918
 151   2.0000      -0.584059       -15.8931
 152   2.0000      -0.583731       -15.8841
 153   2.0000      -0.571174       -15.5424
 154   2.0000      -0.554761       -15.0958
 155   2.0000      -0.553493       -15.0613
 156   2.0000      -0.553172       -15.0526
 157   2.0000      -0.551956       -15.0195
 158   2.0000      -0.550713       -14.9857
 159   2.0000      -0.549288       -14.9469
 160   2.0000      -0.541046       -14.7226
 161   2.0000      -0.539831       -14.6896
 162   2.0000      -0.537214       -14.6183
 163   2.0000      -0.532076       -14.4785
 164   2.0000      -0.531005       -14.4494
 165   2.0000      -0.529795       -14.4164
 166   2.0000      -0.527848       -14.3635
 167   2.0000      -0.524210       -14.2645
 168   2.0000      -0.523836       -14.2543
 169   2.0000      -0.517183       -14.0733
 170   2.0000      -0.515909       -14.0386
 171   2.0000      -0.512925       -13.9574
 172   2.0000      -0.511644       -13.9225
 173   2.0000      -0.508688       -13.8421
 174   2.0000      -0.505098       -13.7444
 175   2.0000      -0.503686       -13.7060
 176   2.0000      -0.501287       -13.6407
 177   2.0000      -0.497634       -13.5413
 178   2.0000      -0.495391       -13.4803
 179   2.0000      -0.493899       -13.4397
 180   2.0000      -0.488771       -13.3001
 181   2.0000      -0.487183       -13.2569
 182   2.0000      -0.486536       -13.2393
 183   2.0000      -0.485723       -13.2172
 184   2.0000      -0.483791       -13.1646
 185   2.0000      -0.477863       -13.0033
 186   2.0000      -0.476911       -12.9774
 187   2.0000      -0.473012       -12.8713
 188   2.0000      -0.469132       -12.7657
 189   2.0000      -0.464771       -12.6471
 190   2.0000      -0.462225       -12.5778
 191   2.0000      -0.456238       -12.4149
 192   2.0000      -0.454261       -12.3611
 193   2.0000      -0.453090       -12.3292
 194   2.0000      -0.448962       -12.2169
 195   2.0000      -0.443299       -12.0628
 196   2.0000      -0.440852       -11.9962
 197   2.0000      -0.436521       -11.8783
 198   2.0000      -0.433712       -11.8019
 199   2.0000      -0.431049       -11.7294
 200   2.0000      -0.429496       -11.6872
 201   2.0000      -0.427340       -11.6285
 202   2.0000      -0.425563       -11.5802
 203   2.0000      -0.417671       -11.3654
 204   2.0000      -0.415942       -11.3183
 205   2.0000      -0.408108       -11.1052
 206   2.0000      -0.401399       -10.9226
 207   2.0000      -0.398651       -10.8479
 208   2.0000      -0.381920       -10.3926
 209   2.0000      -0.375500       -10.2179
 210   2.0000      -0.364225        -9.9111
 211   2.0000      -0.359139        -9.7727
 212   2.0000      -0.356573        -9.7028
 213   2.0000      -0.354582        -9.6487
 214   2.0000      -0.352583        -9.5943
 215   2.0000      -0.340965        -9.2781
 216   2.0000      -0.336965        -9.1693
 217   2.0000      -0.330565        -8.9951
 218   2.0000      -0.328089        -8.9278
 219   2.0000      -0.323681        -8.8078
 220   2.0000      -0.315270        -8.5789
 221   2.0000      -0.307407        -8.3650
 222   2.0000      -0.291528        -7.9329
 223   2.0000      -0.269682        -7.3384
 224   2.0000      -0.253647        -6.9021
 225   2.0000      -0.222335        -6.0500
 226   0.0000      -0.109715        -2.9855
 227   0.0000      -0.098909        -2.6915
 228   0.0000      -0.055592        -1.5127
 229   0.0000      -0.044330        -1.2063
 230   0.0000      -0.020540        -0.5589

MULLIKEN ATOMIC CHARGES
-----------------------
   0 C :   -0.045345
   1 S :    0.160548
   2 C :   -0.138640
   3 C :   -0.008964
   4 C :   -0.092360
   5 C :   -0.184240
   6 N :    0.147558
   7 C :    0.536511
   8 F :   -0.156204
   9 F :   -0.157112
  10 F :   -0.136328
  11 C :    0.025891
  12 C :    0.002561
  13 C :    0.080740
  14 C :   -0.112818
  15 C :   -0.072596
  16 C :    0.169306
  17 O :   -0.188161
  18 N :   -0.110158
  19 C :    0.151379
  20 O :   -0.228604
  21 C :    0.243320
  22 O :   -0.132771
  23 C :    0.162001
  24 O :   -0.237234
  25 C :    0.221694
  26 C :    0.072118
  27 F :   -0.138508
  28 S :    0.115041
  29 C :   -0.133634
  30 S :    0.126788
  31 C :   -0.039667
  32 C :   -0.134915
  33 C :   -0.016609
  34 C :   -0.039217
  35 C :    0.040923
  36 C :    0.028834
  37 C :   -0.025475
  38 S :    0.079491
  39 C :   -0.046276
  40 C :    0.042754
  41 C :    0.026622
  42 C :   -0.005813
  43 S :    0.102816
  44 C :   -0.054424
  45 C :   -0.065953
  46 S :    0.008442
  47 C :    0.043392
  48 O :   -0.147489
  49 C :    0.075107
  50 C :    0.066682
  51 C :    0.018165
  52 O :   -0.169495
  53 S :    0.023650
  54 C :   -0.102737
  55 C :   -0.013545
  56 C :    0.002352
  57 H :    0.049582
  58 H :    0.043184
  59 H :   -0.024137
  60 H :    0.128797
  61 H :    0.065059
  62 H :    0.004714
  63 H :   -0.002018
  64 H :   -0.006085
  65 H :   -0.006547
  66 H :    0.001773
  67 H :    0.014716
  68 H :    0.021103
  69 H :    0.034613
  70 H :    0.035851
Sum of atomic charges:   -0.0000000

LOEWDIN ATOMIC CHARGES
----------------------
   0 C :   -0.134491
   1 S :    0.487063
   2 C :   -0.150158
   3 C :   -0.087715
   4 C :   -0.091954
   5 C :   -0.041406
   6 N :   -0.035346
   7 C :    0.169263
   8 F :   -0.053853
   9 F :   -0.054600
  10 F :   -0.034945
  11 C :    0.011376
  12 C :   -0.044370
  13 C :    0.065774
  14 C :   -0.126499
  15 C :   -0.123732
  16 C :    0.075294
  17 O :   -0.193812
  18 N :    0.033739
  19 C :    0.103430
  20 O :   -0.033534
  21 C :    0.105512
  22 O :   -0.132345
  23 C :    0.001754
  24 O :   -0.042293
  25 C :   -0.034484
  26 C :   -0.090293
  27 F :   -0.033134
  28 S :    0.432079
  29 C :   -0.169710
  30 S :    0.408428
  31 C :   -0.203042
  32 C :   -0.193960
  33 C :   -0.059230
  34 C :   -0.156302
  35 C :   -0.016700
  36 C :   -0.035908
  37 C :   -0.156918
  38 S :    0.381541
  39 C :   -0.186361
  40 C :   -0.016665
  41 C :   -0.032450
  42 C :   -0.120507
  43 S :    0.397757
  44 C :   -0.082801
  45 C :   -0.097452
  46 S :    0.313477
  47 C :   -0.034164
  48 O :   -0.143291
  49 C :   -0.134471
  50 C :   -0.147431
  51 C :   -0.042741
  52 O :   -0.165094
  53 S :    0.325745
  54 C :   -0.100299
  55 C :   -0.042407
  56 C :   -0.007504
  57 H :    0.040667
  58 H :    0.043819
  59 H :    0.023427
  60 H :    0.091763
  61 H :    0.042288
  62 H :    0.039360
  63 H :    0.037697
  64 H :    0.035272
  65 H :    0.034967
  66 H :    0.039450
  67 H :    0.047059
  68 H :    0.041960
  69 H :    0.022707
  70 H :    0.031705

  Mayer bond orders larger than 0.100000
B(  0-C ,  1-S ) :   1.1877 B(  0-C ,  4-C ) :   1.5577 B(  0-C , 57-H ) :   0.9728
B(  1-S ,  2-C ) :   1.1423 B(  2-C ,  3-C ) :   1.4917 B(  2-C , 11-C ) :   1.1531
B(  3-C ,  4-C ) :   1.3003 B(  3-C ,  7-C ) :   0.9329 B(  4-C ,  5-C ) :   1.0973
B(  5-C ,  6-N ) :   3.0481 B(  7-C ,  8-F ) :   1.1635 B(  7-C ,  9-F ) :   1.1631
B(  7-C , 10-F ) :   1.1733 B( 11-C , 12-C ) :   1.6129 B( 11-C , 58-H ) :   0.9386
B( 12-C , 13-C ) :   1.1571 B( 12-C , 59-H ) :   0.9614 B( 13-C , 14-C ) :   1.3846
B( 13-C , 18-N ) :   1.1756 B( 14-C , 15-C ) :   1.1917 B( 14-C , 21-C ) :   0.9902
B( 15-C , 16-C ) :   0.9462 B( 15-C , 19-C ) :   1.4304 B( 16-C , 17-O ) :   2.1041
B( 16-C , 18-N ) :   1.0926 B( 17-O , 61-H ) :   0.1100 B( 18-N , 60-H ) :   0.9219
B( 19-C , 20-O ) :   1.1798 B( 19-C , 23-C ) :   1.1143 B( 20-O , 21-C ) :   1.0053
B( 21-C , 22-O ) :   2.1608 B( 23-C , 24-O ) :   1.0934 B( 23-C , 29-C ) :   1.7053
B( 24-O , 25-C ) :   1.0648 B( 25-C , 26-C ) :   1.4658 B( 25-C , 31-C ) :   1.2392
B( 26-C , 27-F ) :   1.1708 B( 26-C , 28-S ) :   1.1244 B( 28-S , 32-C ) :   1.0755
B( 29-C , 30-S ) :   1.0553 B( 29-C , 61-H ) :   0.8818 B( 30-S , 31-C ) :   0.9909
B( 31-C , 32-C ) :   1.5179 B( 32-C , 33-C ) :   1.2050 B( 33-C , 34-C ) :   1.5869
B( 33-C , 62-H ) :   0.9616 B( 34-C , 35-C ) :   1.1419 B( 34-C , 38-S ) :   1.0316
B( 35-C , 36-C ) :   1.5897 B( 35-C , 63-H ) :   1.0003 B( 36-C , 37-C ) :   1.1856
B( 36-C , 64-H ) :   0.9940 B( 37-C , 38-S ) :   1.0611 B( 37-C , 39-C ) :   1.4961
B( 39-C , 40-C ) :   1.1959 B( 39-C , 43-S ) :   1.0404 B( 40-C , 41-C ) :   1.5648
B( 40-C , 65-H ) :   0.9947 B( 41-C , 42-C ) :   1.1635 B( 41-C , 66-H ) :   1.0027
B( 42-C , 43-S ) :   1.0714 B( 42-C , 44-C ) :   1.4689 B( 44-C , 45-C ) :   1.2885
B( 44-C , 67-H ) :   0.9610 B( 45-C , 46-S ) :   1.0541 B( 45-C , 50-C ) :   1.4055
B( 46-S , 47-C ) :   0.9785 B( 46-S , 48-O ) :   0.1072 B( 47-C , 48-O ) :   2.1606
B( 47-C , 49-C ) :   0.9523 B( 49-C , 50-C ) :   1.1579 B( 49-C , 54-C ) :   1.4802
B( 50-C , 51-C ) :   0.9906 B( 51-C , 52-O ) :   2.1176 B( 51-C , 53-S ) :   0.9843
B( 52-O , 53-S ) :   0.1084 B( 53-S , 54-C ) :   1.0826 B( 54-C , 55-C ) :   1.1645
B( 55-C , 56-C ) :   1.8681 B( 55-C , 68-H ) :   0.9555 B( 56-C , 69-H ) :   0.9549
B( 56-C , 70-H ) :   0.9505

-----------------------------------------------------------------------------
         ABSORPTION SPECTRUM VIA TRANSITION ELECTRIC DIPOLE MOMENTS
-----------------------------------------------------------------------------
State   Energy  Wavelength   fosc         T2         TX        TY        TZ
        (cm-1)    (nm)                  (au**2)     (au)      (au)      (au)
-----------------------------------------------------------------------------
   0   11988.3    834.1   1.720902974  47.25772   6.22563  -2.46948  -1.54948
   1   16786.8    595.7   0.408601970   8.01326   1.12218  -2.19210   1.39594
   2   18303.7    546.3   0.135942584   2.44508  -1.03351   1.11054  -0.37902
   3   19961.9    501.0   0.019472539   0.32114  -0.47236   0.25854   0.17657
   4   20654.8    484.1   0.071299667   1.13643  -0.68528   0.76957  -0.27312
   5   22911.6    436.5   0.208280298   2.99274   0.26783  -1.17699   1.23923
   6   24831.1    402.7   0.033161683   0.43966  -0.52217   0.40627   0.04410
   7   26471.4    377.8   0.034764260   0.43235   0.24925   0.28171  -0.53931
   8   27325.2    366.0   0.087435405   1.05341  -0.43062  -0.41513   0.83406
   9   27347.0    365.7   0.000485205   0.00584  -0.02188  -0.01797   0.07099
  10   27569.8    362.7   0.026685502   0.31865   0.33922  -0.38830   0.22978
  11   28204.3    354.6   0.009846860   0.11494  -0.04128   0.22586  -0.24944
  12   28754.1    347.8   0.013944186   0.15965   0.18932   0.14141  -0.32219
  13   28761.9    347.7   0.040071075   0.45866  -0.30608  -0.23755   0.55547
  14   29409.9    340.0   0.190774220   2.13551   0.17137  -0.98750   1.06348
  15   30664.0    326.1   0.019881910   0.21345   0.16839  -0.33466   0.27037
  16   30840.3    324.3   0.000350647   0.00374   0.01810   0.04710   0.03460
  17   31058.0    322.0   0.000855838   0.00907  -0.03798  -0.07720  -0.04085
  18   31290.9    319.6   0.033382987   0.35122  -0.03688  -0.36833   0.46281
  19   31983.5    312.7   0.041410821   0.42625  -0.31747   0.44095  -0.36198
  20   32695.6    305.9   0.512347199   5.15883  -0.57968   1.69977  -1.39053
  21   33243.9    300.8   0.036058429   0.35708  -0.50523   0.24389   0.20576
  22   34031.8    293.8   0.060682611   0.58702   0.60792   0.05012  -0.46362
  23   34986.8    285.8   0.000111259   0.00105   0.00199  -0.00720   0.03148
  24   35142.5    284.6   0.063003088   0.59021  -0.16804  -0.40916   0.62814
  25   35286.9    283.4   0.097203970   0.90687   0.22019  -0.66850   0.64148
  26   36316.6    275.4   0.023143229   0.20979  -0.01056   0.31483  -0.33251
  27   36476.8    274.1   0.024241272   0.21878  -0.01167   0.32407  -0.33709
  28   36619.4    273.1   0.042701538   0.38389  -0.01166   0.42632  -0.44945
  29   37149.6    269.2   0.000037341   0.00033  -0.00482   0.01287  -0.01192
  30   37728.6    265.1   0.000155407   0.00136  -0.01097  -0.02313  -0.02647
  31   37864.8    264.1   0.022915120   0.19923   0.19782  -0.33709   0.21557
  32   38109.1    262.4   0.076461721   0.66053  -0.73428   0.17430   0.30164
  33   38872.1    257.3   0.022199293   0.18801  -0.34531  -0.02179   0.26133
  34   38936.6    256.8   0.001553535   0.01314  -0.08824  -0.00127   0.07313
  35   39459.5    253.4   0.039755818   0.33168  -0.10246  -0.33329   0.45837
  36   40229.9    248.6   0.026713472   0.21860   0.37561  -0.01725  -0.27789
  37   40277.7    248.3   0.027341439   0.22348  -0.35281  -0.04897   0.31081

FINAL SINGLE POINT ENERGY     -5200.207534871169

DIPOLE MOMENT
-------------
                                X             Y             Z
Electronic contribution:    -38.49484      39.23263     -18.61011
Nuclear contribution   :     35.29210     -40.44098      22.58471
                        -----------------------------------------
Total Dipole Moment    :     -3.20274      -1.20835       3.97460
                        -----------------------------------------
Magnitude (a.u.)       :      5.24548
Magnitude (Debye)      :     13.33295

Rotational constants in cm-1:     0.002266     0.000272     0.000244
Rotational constants in MHz :    67.921563     8.168203     7.305407

                             ****ORCA TERMINATED NORMALLY****
TOTAL RUN TIME: 0 days 0 hours 5 minutes 16 seconds 464 msec
