                         Program Version 4.2.0 -  RELEASE  -
|  1> # ORCA input file
|  2> # SCF done       -133.267024168617          0.000459521017
|  3> ! CAM-B3LYP def2-SVP def2/J RIJCOSX Grid4 TightSCF
|  4> %maxcore 5000
|  5> %tddft
|  6>     Mode sTDDFT
|  7>     Ethresh 5.0
|  8>     maxcore 5000
|  9> end
| 10>
| 11> %pal
| 12>   nprocs 6
| 13>   end
| 14> * xyz 0 1
| 15>    C        0.47013         1.34989        -5.13013
| 16>    S       -0.22921        -0.20633        -4.93126
| 17>    C       -1.55875         0.21835        -5.93108
| 18>    C       -1.46786         1.49032        -6.38573
| 19>    C       -0.29818         2.15822        -5.91988
| 20>    N       -0.02671         3.46111        -6.31786
| 21>    C        0.70271         4.41452        -5.68579
| 22>    C        1.26653         4.34710        -4.45855
| 23>    C        1.99418         5.42693        -3.89801
| 24>    O        2.18401         6.59170        -4.58651
| 25>    C        2.58843         5.55366        -2.65899
| 26>    C        2.85656         4.87172        -1.40185
| 27>    O        2.57809         3.76510        -1.01135
| 28>    N        3.56570         5.82330        -0.65560
| 29>    C        3.77496         7.03392        -1.29502
| 30>    O        4.35256         7.98818        -0.81400
| 31>    C        3.14902         6.85950        -2.59807
| 32>    C        2.87872         7.47149        -3.80745
| 33>    C        3.17865         8.77752        -4.26960
| 34>    C        3.79982         9.64838        -3.43582
| 35>    C        4.11729        10.99977        -3.67735
| 36>    S        3.84149        11.80366        -5.20165
| 37>    C        4.38935        13.29595        -4.55626
| 38>    C        4.76593        13.20588        -3.25560
| 39>    C        4.62335        11.89539        -2.73293
| 40>    N        4.94098        11.52314        -1.45204
| 41>    C        5.05373        12.35224        -0.38585
| 42>    C        5.41279        11.93084         0.84774
| 43>    C        5.43474        12.79198         1.97454
| 44>    O        4.96141        14.06934         1.88136
| 45>    C        5.83428        12.57526         3.27656
| 46>    C        6.40773        11.59301         4.18823
| 47>    O        6.77287        10.45624         4.01907
| 48>    N        6.46509        12.27301         5.40782
| 49>    C        5.99070        13.58145         5.38302
| 50>    O        5.96242        14.32362         6.33606
| 51>    C        5.58140        13.77649         3.99694
| 52>    C        5.03308        14.67439         3.10429
| 53>    C        4.51489        15.98749         3.24525
| 54>    C        4.52500        16.64972         4.42793
| 55>    C        3.95580        17.92903         4.66004
| 56>    S        4.49669        18.81099         6.07174
| 57>    C        3.58119        20.18851         5.62610
| 58>    C        2.86970        19.98801         4.48890
| 59>    C        3.04620        18.69277         3.93497
| 60>    N        2.36081        18.32231         2.79138
| 61>    C        1.69999        17.12775         2.56024
| 62>    C        1.56965        16.10567         3.39791
| 63>    H        1.41549         1.55440        -4.67372
| 64>    H       -2.33196        -0.49902        -6.11846
| 65>    H       -2.19863         1.95449        -7.02437
| 66>    H       -0.52817         3.75280        -7.14355
| 67>    H        0.81276         5.32861        -6.25457
| 68>    H        1.15745         3.49125        -3.81545
| 69>    H        3.89396         5.64039         0.28176
| 70>    H        2.87683         9.05066        -5.26933
| 71>    H        4.05490         9.28103        -2.45150
| 72>    H        4.41164        14.16253        -5.18663
| 73>    H        5.15351        14.03741        -2.69636
| 74>    H        5.00522        10.53014        -1.25670
| 75>    H        4.82207        13.39323        -0.55681
| 76>    H        5.67872        10.90181         1.03440
| 77>    H        6.82642        11.84496         6.24786
| 78>    H        4.11237        16.43155         2.34975
| 79>    H        5.02090        16.19184         5.27427
| 80>    H        3.60914        21.06729         6.23911
| 81>    H        2.21968        20.72758         4.05330
| 82>    H        1.99998        19.10865         2.26922
| 83>    H        1.28044        17.08010         1.56299
| 84>    H        1.94397        16.12819         4.40389
| 85>    H        1.05429        15.21571         3.08945
| 86> *
| 87>
| 88>                          ****END OF INPUT****

CARTESIAN COORDINATES (ANGSTROEM)
---------------------------------
  C      0.470130    1.349890   -5.130130
  S     -0.229210   -0.206330   -4.931260
  C     -1.558750    0.218350   -5.931080
  C     -1.467860    1.490320   -6.385730
  C     -0.298180    2.158220   -5.919880
  N     -0.026710    3.461110   -6.317860
  C      0.702710    4.414520   -5.685790
  C      1.266530    4.347100   -4.458550
  C      1.994180    5.426930   -3.898010
  O      2.184010    6.591700   -4.586510
  C      2.588430    5.553660   -2.658990
  C      2.856560    4.871720   -1.401850
  O      2.578090    3.765100   -1.011350
  N      3.565700    5.823300   -0.655600
  C      3.774960    7.033920   -1.295020
  O      4.352560    7.988180   -0.814000
  C      3.149020    6.859500   -2.598070
  C      2.878720    7.471490   -3.807450
  C      3.178650    8.777520   -4.269600
  C      3.799820    9.648380   -3.435820
  C      4.117290   10.999770   -3.677350
  S      3.841490   11.803660   -5.201650
  C      4.389350   13.295950   -4.556260
  C      4.765930   13.205880   -3.255600
  C      4.623350   11.895390   -2.732930
  N      4.940980   11.523140   -1.452040
  C      5.053730   12.352240   -0.385850
  C      5.412790   11.930840    0.847740
  C      5.434740   12.791980    1.974540
  O      4.961410   14.069340    1.881360
  C      5.834280   12.575260    3.276560
  C      6.407730   11.593010    4.188230
  O      6.772870   10.456240    4.019070
  N      6.465090   12.273010    5.407820
  C      5.990700   13.581450    5.383020
  O      5.962420   14.323620    6.336060
  C      5.581400   13.776490    3.996940
  C      5.033080   14.674390    3.104290
  C      4.514890   15.987490    3.245250
  C      4.525000   16.649720    4.427930
  C      3.955800   17.929030    4.660040
  S      4.496690   18.810990    6.071740
  C      3.581190   20.188510    5.626100
  C      2.869700   19.988010    4.488900
  C      3.046200   18.692770    3.934970
  N      2.360810   18.322310    2.791380
  C      1.699990   17.127750    2.560240
  C      1.569650   16.105670    3.397910
  H      1.415490    1.554400   -4.673720
  H     -2.331960   -0.499020   -6.118460
  H     -2.198630    1.954490   -7.024370
  H     -0.528170    3.752800   -7.143550
  H      0.812760    5.328610   -6.254570
  H      1.157450    3.491250   -3.815450
  H      3.893960    5.640390    0.281760
  H      2.876830    9.050660   -5.269330
  H      4.054900    9.281030   -2.451500
  H      4.411640   14.162530   -5.186630
  H      5.153510   14.037410   -2.696360
  H      5.005220   10.530140   -1.256700
  H      4.822070   13.393230   -0.556810
  H      5.678720   10.901810    1.034400
  H      6.826420   11.844960    6.247860
  H      4.112370   16.431550    2.349750
  H      5.020900   16.191840    5.274270
  H      3.609140   21.067290    6.239110
  H      2.219680   20.727580    4.053300
  H      1.999980   19.108650    2.269220
  H      1.280440   17.080100    1.562990
  H      1.943970   16.128190    4.403890
  H      1.054290   15.215710    3.089450

 Total Charge           Charge          ....    0
 Multiplicity           Mult            ....    1
 Number of Electrons    NEL             ....  358
 Basis Dimension        Dim             ....  799

ORBITAL ENERGIES
----------------

  NO   OCC          E(Eh)            E(eV)
   0   2.0000     -88.955956     -2420.6146
   1   2.0000     -88.953685     -2420.5528
   2   2.0000     -88.941759     -2420.2283
   3   2.0000     -19.293985      -525.0160
   4   2.0000     -19.285138      -524.7753
   5   2.0000     -19.202168      -522.5175
   6   2.0000     -19.191846      -522.2367
   7   2.0000     -19.188375      -522.1422
   8   2.0000     -19.183559      -522.0112
   9   2.0000     -14.458250      -393.4290
  10   2.0000     -14.454061      -393.3150
  11   2.0000     -14.440630      -392.9495
  12   2.0000     -14.435732      -392.8162
  13   2.0000     -14.430314      -392.6688
  14   2.0000     -10.388370      -282.6819
  15   2.0000     -10.381283      -282.4891
  16   2.0000     -10.375992      -282.3451
  17   2.0000     -10.373285      -282.2714
  18   2.0000     -10.346174      -281.5337
  19   2.0000     -10.345571      -281.5173
  20   2.0000     -10.338557      -281.3264
  21   2.0000     -10.335435      -281.2415
  22   2.0000     -10.326759      -281.0054
  23   2.0000     -10.325767      -280.9784
  24   2.0000     -10.320217      -280.8274
  25   2.0000     -10.318234      -280.7734
  26   2.0000     -10.308129      -280.4984
  27   2.0000     -10.304707      -280.4053
  28   2.0000     -10.296116      -280.1716
  29   2.0000     -10.295550      -280.1562
  30   2.0000     -10.294447      -280.1261
  31   2.0000     -10.289321      -279.9867
  32   2.0000     -10.286570      -279.9118
  33   2.0000     -10.284987      -279.8687
  34   2.0000     -10.284442      -279.8539
  35   2.0000     -10.280526      -279.7473
  36   2.0000     -10.277632      -279.6686
  37   2.0000     -10.277476      -279.6644
  38   2.0000     -10.269756      -279.4543
  39   2.0000     -10.268094      -279.4091
  40   2.0000     -10.267405      -279.3903
  41   2.0000     -10.265991      -279.3518
  42   2.0000     -10.265435      -279.3367
  43   2.0000     -10.264599      -279.3139
  44   2.0000     -10.263734      -279.2904
  45   2.0000     -10.260529      -279.2032
  46   2.0000     -10.258828      -279.1569
  47   2.0000     -10.238060      -278.5918
  48   2.0000      -8.051667      -219.0970
  49   2.0000      -8.049909      -219.0491
  50   2.0000      -8.037847      -218.7209
  51   2.0000      -6.021039      -163.8408
  52   2.0000      -6.019280      -163.7929
  53   2.0000      -6.016889      -163.7279
  54   2.0000      -6.014818      -163.6715
  55   2.0000      -6.013680      -163.6406
  56   2.0000      -6.012121      -163.5981
  57   2.0000      -6.007239      -163.4653
  58   2.0000      -6.002966      -163.3490
  59   2.0000      -5.999816      -163.2633
  60   2.0000      -1.207292       -32.8521
  61   2.0000      -1.198975       -32.6258
  62   2.0000      -1.139887       -31.0179
  63   2.0000      -1.129874       -30.7454
  64   2.0000      -1.117973       -30.4216
  65   2.0000      -1.108777       -30.1713
  66   2.0000      -1.060515       -28.8581
  67   2.0000      -1.057196       -28.7678
  68   2.0000      -1.036629       -28.2081
  69   2.0000      -1.027149       -27.9501
  70   2.0000      -1.016885       -27.6709
  71   2.0000      -0.977513       -26.5995
  72   2.0000      -0.973433       -26.4885
  73   2.0000      -0.961899       -26.1746
  74   2.0000      -0.917817       -24.9751
  75   2.0000      -0.906727       -24.6733
  76   2.0000      -0.904322       -24.6079
  77   2.0000      -0.896490       -24.3947
  78   2.0000      -0.882982       -24.0272
  79   2.0000      -0.875248       -23.8167
  80   2.0000      -0.846125       -23.0242
  81   2.0000      -0.841683       -22.9034
  82   2.0000      -0.837829       -22.7985
  83   2.0000      -0.823373       -22.4051
  84   2.0000      -0.816099       -22.2072
  85   2.0000      -0.811583       -22.0843
  86   2.0000      -0.795257       -21.6400
  87   2.0000      -0.786099       -21.3908
  88   2.0000      -0.771353       -20.9896
  89   2.0000      -0.752286       -20.4707
  90   2.0000      -0.750479       -20.4216
  91   2.0000      -0.742932       -20.2162
  92   2.0000      -0.741615       -20.1804
  93   2.0000      -0.725038       -19.7293
  94   2.0000      -0.719478       -19.5780
  95   2.0000      -0.701129       -19.0787
  96   2.0000      -0.688244       -18.7281
  97   2.0000      -0.685302       -18.6480
  98   2.0000      -0.678598       -18.4656
  99   2.0000      -0.674220       -18.3465
 100   2.0000      -0.668689       -18.1960
 101   2.0000      -0.662423       -18.0254
 102   2.0000      -0.655807       -17.8454
 103   2.0000      -0.646030       -17.5794
 104   2.0000      -0.637534       -17.3482
 105   2.0000      -0.619117       -16.8470
 106   2.0000      -0.607390       -16.5279
 107   2.0000      -0.602014       -16.3816
 108   2.0000      -0.601456       -16.3665
 109   2.0000      -0.593457       -16.1488
 110   2.0000      -0.586226       -15.9520
 111   2.0000      -0.584799       -15.9132
 112   2.0000      -0.582024       -15.8377
 113   2.0000      -0.579244       -15.7620
 114   2.0000      -0.573849       -15.6152
 115   2.0000      -0.570002       -15.5105
 116   2.0000      -0.567414       -15.4401
 117   2.0000      -0.566579       -15.4174
 118   2.0000      -0.558913       -15.2088
 119   2.0000      -0.555194       -15.1076
 120   2.0000      -0.544590       -14.8191
 121   2.0000      -0.535028       -14.5589
 122   2.0000      -0.532582       -14.4923
 123   2.0000      -0.528283       -14.3753
 124   2.0000      -0.528097       -14.3703
 125   2.0000      -0.524055       -14.2603
 126   2.0000      -0.518824       -14.1179
 127   2.0000      -0.518114       -14.0986
 128   2.0000      -0.511293       -13.9130
 129   2.0000      -0.509196       -13.8559
 130   2.0000      -0.507181       -13.8011
 131   2.0000      -0.502415       -13.6714
 132   2.0000      -0.502030       -13.6609
 133   2.0000      -0.501903       -13.6575
 134   2.0000      -0.493973       -13.4417
 135   2.0000      -0.490028       -13.3343
 136   2.0000      -0.487297       -13.2600
 137   2.0000      -0.484904       -13.1949
 138   2.0000      -0.478977       -13.0336
 139   2.0000      -0.475584       -12.9413
 140   2.0000      -0.472734       -12.8638
 141   2.0000      -0.469704       -12.7813
 142   2.0000      -0.468131       -12.7385
 143   2.0000      -0.464193       -12.6313
 144   2.0000      -0.461078       -12.5466
 145   2.0000      -0.460441       -12.5292
 146   2.0000      -0.458436       -12.4747
 147   2.0000      -0.450314       -12.2537
 148   2.0000      -0.449309       -12.2263
 149   2.0000      -0.448678       -12.2091
 150   2.0000      -0.445864       -12.1326
 151   2.0000      -0.442031       -12.0283
 152   2.0000      -0.440095       -11.9756
 153   2.0000      -0.436232       -11.8705
 154   2.0000      -0.421391       -11.4666
 155   2.0000      -0.418728       -11.3942
 156   2.0000      -0.412130       -11.2146
 157   2.0000      -0.408012       -11.1026
 158   2.0000      -0.404384       -11.0038
 159   2.0000      -0.389385       -10.5957
 160   2.0000      -0.367654       -10.0044
 161   2.0000      -0.361834        -9.8460
 162   2.0000      -0.356104        -9.6901
 163   2.0000      -0.355127        -9.6635
 164   2.0000      -0.347520        -9.4565
 165   2.0000      -0.345824        -9.4103
 166   2.0000      -0.344601        -9.3771
 167   2.0000      -0.336843        -9.1660
 168   2.0000      -0.332100        -9.0369
 169   2.0000      -0.321752        -8.7553
 170   2.0000      -0.320659        -8.7256
 171   2.0000      -0.320551        -8.7226
 172   2.0000      -0.315706        -8.5908
 173   2.0000      -0.311774        -8.4838
 174   2.0000      -0.286964        -7.8087
 175   2.0000      -0.270027        -7.3478
 176   2.0000      -0.259596        -7.0640
 177   2.0000      -0.234379        -6.3778
 178   2.0000      -0.216686        -5.8963
 179   0.0000      -0.047861        -1.3024
 180   0.0000      -0.030991        -0.8433
 181   0.0000      -0.020515        -0.5583
 182   0.0000      -0.008138        -0.2214
 183   0.0000       0.022569         0.6141

MULLIKEN ATOMIC CHARGES
-----------------------
   0 C :   -0.170684
   1 S :    0.117839
   2 C :   -0.081489
   3 C :    0.020587
   4 C :    0.100668
   5 N :   -0.027846
   6 C :    0.068387
   7 C :   -0.084677
   8 C :    0.084670
   9 O :   -0.228378
  10 C :   -0.029604
  11 C :    0.147861
  12 O :   -0.154188
  13 N :   -0.155895
  14 C :    0.197218
  15 O :   -0.205574
  16 C :   -0.092315
  17 C :    0.129084
  18 C :   -0.030662
  19 C :   -0.001367
  20 C :   -0.125375
  21 S :    0.118138
  22 C :   -0.047578
  23 C :   -0.017804
  24 C :    0.113789
  25 N :   -0.025861
  26 C :    0.072314
  27 C :   -0.058349
  28 C :    0.076946
  29 O :   -0.229293
  30 C :   -0.029532
  31 C :    0.147053
  32 O :   -0.155644
  33 N :   -0.164482
  34 C :    0.174484
  35 O :   -0.169983
  36 C :   -0.078039
  37 C :    0.105478
  38 C :    0.017492
  39 C :    0.011921
  40 C :   -0.180484
  41 S :    0.125680
  42 C :   -0.055799
  43 C :    0.004677
  44 C :    0.081047
  45 N :   -0.064356
  46 C :   -0.003659
  47 C :   -0.025107
  48 H :    0.032026
  49 H :    0.032303
  50 H :   -0.021657
  51 H :    0.128848
  52 H :    0.016069
  53 H :    0.009828
  54 H :    0.135174
  55 H :   -0.024811
  56 H :   -0.017579
  57 H :    0.032992
  58 H :   -0.012248
  59 H :    0.147503
  60 H :    0.018333
  61 H :    0.014203
  62 H :    0.130137
  63 H :   -0.011841
  64 H :    0.002388
  65 H :    0.028411
  66 H :   -0.031578
  67 H :    0.120858
  68 H :    0.002499
  69 H :    0.030834
  70 H :    0.016000
Sum of atomic charges:   -0.0000000

LOEWDIN ATOMIC CHARGES
----------------------
   0 C :   -0.223286
   1 S :    0.445365
   2 C :   -0.176579
   3 C :   -0.083960
   4 C :   -0.023377
   5 N :    0.033707
   6 C :    0.054308
   7 C :   -0.127266
   8 C :    0.083392
   9 O :   -0.003761
  10 C :   -0.122939
  11 C :    0.084200
  12 O :   -0.173585
  13 N :   -0.002515
  14 C :    0.090977
  15 O :   -0.199295
  16 C :   -0.118989
  17 C :    0.068991
  18 C :   -0.069716
  19 C :   -0.007285
  20 C :   -0.220416
  21 S :    0.427836
  22 C :   -0.157581
  23 C :   -0.085300
  24 C :    0.005535
  25 N :    0.050558
  26 C :    0.056160
  27 C :   -0.109654
  28 C :    0.077235
  29 O :   -0.002888
  30 C :   -0.119077
  31 C :    0.081994
  32 O :   -0.175592
  33 N :   -0.008432
  34 C :    0.084784
  35 O :   -0.177845
  36 C :   -0.112116
  37 C :    0.069769
  38 C :   -0.045000
  39 C :   -0.020947
  40 C :   -0.206899
  41 S :    0.438613
  42 C :   -0.173964
  43 C :   -0.086250
  44 C :   -0.013013
  45 N :    0.005897
  46 C :    0.004304
  47 C :   -0.106804
  48 H :    0.025648
  49 H :    0.025714
  50 H :    0.026681
  51 H :    0.090999
  52 H :    0.031967
  53 H :    0.041227
  54 H :    0.093172
  55 H :    0.027571
  56 H :    0.031365
  57 H :    0.027189
  58 H :    0.031381
  59 H :    0.096798
  60 H :    0.030799
  61 H :    0.045373
  62 H :    0.090056
  63 H :    0.033593
  64 H :    0.032156
  65 H :    0.024703
  66 H :    0.025206
  67 H :    0.083943
  68 H :    0.022576
  69 H :    0.026325
  70 H :    0.026266

  Mayer bond orders larger than 0.100000
B(  0-C ,  1-S ) :   1.1428 B(  0-C ,  4-C ) :   1.5524 B(  0-C , 48-H ) :   0.9756
B(  1-S ,  2-C ) :   1.1994 B(  2-C ,  3-C ) :   1.5834 B(  2-C , 49-H ) :   0.9680
B(  3-C ,  4-C ) :   1.2451 B(  3-C , 50-H ) :   0.9949 B(  4-C ,  5-N ) :   1.0726
B(  5-N ,  6-C ) :   1.2032 B(  5-N , 51-H ) :   0.9262 B(  6-C ,  7-C ) :   1.6118
B(  6-C , 52-H ) :   0.9614 B(  7-C ,  8-C ) :   1.2130 B(  7-C , 53-H ) :   0.9432
B(  8-C ,  9-O ) :   1.1331 B(  8-C , 10-C ) :   1.4080 B(  9-O , 17-C ) :   1.1229
B( 10-C , 11-C ) :   0.9017 B( 10-C , 16-C ) :   1.2355 B( 11-C , 12-O ) :   2.2577
B( 11-C , 13-N ) :   1.0575 B( 13-N , 14-C ) :   1.1306 B( 13-N , 54-H ) :   0.9154
B( 14-C , 15-O ) :   2.0775 B( 14-C , 16-C ) :   0.9170 B( 15-O , 56-H ) :   0.1078
B( 16-C , 17-C ) :   1.4280 B( 17-C , 18-C ) :   1.1683 B( 18-C , 19-C ) :   1.6170
B( 18-C , 55-H ) :   0.9800 B( 19-C , 20-C ) :   1.1966 B( 19-C , 56-H ) :   0.9366
B( 20-C , 21-S ) :   1.0769 B( 20-C , 24-C ) :   1.4233 B( 21-S , 22-C ) :   1.1826
B( 22-C , 23-C ) :   1.5609 B( 22-C , 57-H ) :   0.9669 B( 23-C , 24-C ) :   1.2330
B( 23-C , 58-H ) :   0.9988 B( 24-C , 25-N ) :   1.1709 B( 25-N , 26-C ) :   1.1750
B( 25-N , 59-H ) :   0.9070 B( 26-C , 27-C ) :   1.6061 B( 26-C , 60-H ) :   0.9690
B( 27-C , 28-C ) :   1.2090 B( 27-C , 61-H ) :   0.9525 B( 28-C , 29-O ) :   1.1361
B( 28-C , 30-C ) :   1.4078 B( 29-O , 37-C ) :   1.1224 B( 30-C , 31-C ) :   0.8947
B( 30-C , 36-C ) :   1.2390 B( 31-C , 32-O ) :   2.2612 B( 31-C , 33-N ) :   1.0672
B( 33-N , 34-C ) :   1.1003 B( 33-N , 62-H ) :   0.9167 B( 34-C , 35-O ) :   2.1647
B( 34-C , 36-C ) :   0.8962 B( 36-C , 37-C ) :   1.4354 B( 37-C , 38-C ) :   1.1860
B( 38-C , 39-C ) :   1.6381 B( 38-C , 63-H ) :   0.9556 B( 39-C , 40-C ) :   1.1574
B( 39-C , 64-H ) :   0.9335 B( 40-C , 41-S ) :   1.1091 B( 40-C , 44-C ) :   1.4624
B( 41-S , 42-C ) :   1.1784 B( 42-C , 43-C ) :   1.5614 B( 42-C , 65-H ) :   0.9684
B( 43-C , 44-C ) :   1.2476 B( 43-C , 66-H ) :   0.9939 B( 44-C , 45-N ) :   1.1265
B( 45-N , 46-C ) :   1.1011 B( 45-N , 67-H ) :   0.9256 B( 46-C , 47-C ) :   1.9238
B( 46-C , 68-H ) :   0.9647 B( 47-C , 69-H ) :   0.9453 B( 47-C , 70-H ) :   0.9535

-----------------------------------------------------------------------------
         ABSORPTION SPECTRUM VIA TRANSITION ELECTRIC DIPOLE MOMENTS
-----------------------------------------------------------------------------
State   Energy  Wavelength   fosc         T2         TX        TY        TZ
        (cm-1)    (nm)                  (au**2)     (au)      (au)      (au)
-----------------------------------------------------------------------------
   0   20473.2    488.4   1.068072975  17.17480  -0.94536  -3.55601  -1.90681
   1   24917.4    401.3   0.414209352   5.47258   1.30716  -1.75818  -0.82020
   2   26198.6    381.7   0.332940880   4.18374  -0.07865  -1.63056   1.23240
   3   27888.0    358.6   0.759844126   8.96982   1.35451   1.31355   2.32587
   4   29544.1    338.5   0.183590956   2.04576   0.52880   0.40759  -1.26491
   5   30273.1    330.3   0.258472975   2.81083   0.77052  -0.27258   1.46384
   6   32536.2    307.4   0.130671227   1.32218  -0.56487  -0.82378  -0.56964
   7   33083.4    302.3   0.151062167   1.50322  -0.28292   1.10228   0.45624
   8   33412.2    299.3   0.106361479   1.04799   0.21098   0.84250   0.54191
   9   35179.5    284.3   0.099443946   0.93060   0.04783   0.89484  -0.35718
  10   35761.2    279.6   0.110807232   1.02007  -0.05748   0.53507  -0.85468
  11   36810.7    271.7   0.167578091   1.49871  -0.25010   1.08134  -0.51659
  12   37495.6    266.7   0.105735030   0.92835   0.08175   0.29452   0.91374
  13   37720.0    265.1   0.033395869   0.29147   0.18124   0.47484  -0.18207
  14   39197.3    255.1   0.039438820   0.33124   0.29207   0.15687   0.47045
  15   39949.8    250.3   0.051861887   0.42738  -0.40802   0.37306  -0.34888

FINAL SINGLE POINT ENERGY     -3226.257589377409

DIPOLE MOMENT
-------------
                                X             Y             Z
Electronic contribution:     11.87602     -13.79195       2.87795
Nuclear contribution   :    -14.06589      14.91142      -6.60518
                        -----------------------------------------
Total Dipole Moment    :     -2.18987       1.11947      -3.72723
                        -----------------------------------------
Magnitude (a.u.)       :      4.46553
Magnitude (Debye)      :     11.35048

Rotational constants in cm-1:     0.003410     0.000485     0.000460
Rotational constants in MHz :   102.243940    14.554381    13.802660

                             ****ORCA TERMINATED NORMALLY****
TOTAL RUN TIME: 0 days 0 hours 5 minutes 49 seconds 480 msec
