                         Program Version 4.2.0 -  RELEASE  -
|  1> # ORCA input file
|  2> # SCF done       -179.312514589186          0.000183918427
|  3> ! CAM-B3LYP def2-SVP def2/J RIJCOSX Grid4 TightSCF
|  4> %maxcore 5000
|  5> %tddft
|  6>     Mode sTDDFT
|  7>     Ethresh 5.0
|  8>     maxcore 5000
|  9> end
| 10>
| 11> %pal
| 12>   nprocs 6
| 13>   end
| 14> * xyz 0 1
| 15>    C        1.51008        24.12263         3.12217
| 16>    S        2.16306        23.72232         4.65788
| 17>    C        3.64337        23.23465         3.93452
| 18>    C        3.63352        23.37729         2.58784
| 19>    C        2.39404        23.88567         2.10580
| 20>    N        2.11183        24.18379         0.77781
| 21>    C        2.52448        23.51830        -0.32890
| 22>    C        3.20870        22.35017        -0.37228
| 23>    C        3.57742        21.76834        -1.61180
| 24>    O        4.23320        20.57609        -1.62181
| 25>    C        3.38736        22.17024        -2.92097
| 26>    C        2.82808        23.21042        -3.76806
| 27>    O        2.24586        24.23616        -3.49190
| 28>    N        3.09947        22.77201        -5.06050
| 29>    C        3.76927        21.54868        -5.14544
| 30>    O        4.08177        21.00697        -6.17561
| 31>    C        3.95397        21.16291        -3.74943
| 32>    C        4.46606        20.19128        -2.91597
| 33>    C        5.11148        18.96439        -3.20737
| 34>    C        5.58637        18.12486        -2.25562
| 35>    C        6.18672        16.86761        -2.51040
| 36>    S        6.29063        16.21034        -4.11891
| 37>    C        7.02569        14.74909        -3.52999
| 38>    C        7.17753        14.78910        -2.15163
| 39>    C        6.71748        15.98349        -1.58145
| 40>    C        6.77719        16.26734        -0.11014
| 41>    C        7.71482        15.29891         0.61800
| 42>    C        9.16428        15.74065         0.44952
| 43>    F        9.53575        15.99528        -0.80953
| 44>    F        9.40204        16.87143         1.14077
| 45>    F       10.03015        14.82682         0.92213
| 46>    C        7.48937        13.86095         0.14557
| 47>    C        7.79371        13.68980        -1.34145
| 48>    C        7.37276        13.67867        -4.39944
| 49>    C        7.21320        13.71617        -5.74127
| 50>    C        7.47517        12.66653        -6.66857
| 51>    S        7.60749        13.10195        -8.35256
| 52>    C        7.88518        11.45066        -8.80884
| 53>    C        7.84263        10.61761        -7.71696
| 54>    C        7.61392        11.30139        -6.50216
| 55>    C        7.49452        10.56812        -5.20231
| 56>    C        7.20047         9.08614        -5.42250
| 57>    C        8.18663         8.49906        -6.43682
| 58>    O        8.05788         7.09950        -6.60263
| 59>    C        8.59439         6.32379        -5.56318
| 60>    C        7.91729         9.12638        -7.80389
| 61>    C        8.09765        11.10964       -10.19656
| 62>    S        6.83730        11.37606       -11.36075
| 63>    C        7.84417        10.79608       -12.65308
| 64>    C        9.08275        10.42264       -12.18534
| 65>    C        9.22688        10.60640       -10.79076
| 66>    C       10.50373        10.32049       -10.05995
| 67>    C       11.69564        10.27535       -11.02005
| 68>    C       12.12219        11.68309       -11.41852
| 69>    F       11.14124        12.47135       -11.86855
| 70>    F       12.66681        12.33013       -10.37102
| 71>    F       13.06532        11.66876       -12.37785
| 72>    C       11.36955         9.39638       -12.23059
| 73>    C       10.20782         9.94895       -13.05510
| 74>    C        7.37021        10.75785       -14.00964
| 75>    C        6.16353        11.15554       -14.40340
| 76>    H        0.51638        24.51763         3.05211
| 77>    H        4.44168        22.88216         4.55618
| 78>    H        4.47863        23.17128         1.95878
| 79>    H        1.41776        24.90242         0.63587
| 80>    H        2.25062        23.99838        -1.25944
| 81>    H        3.46905        21.79727         0.51550
| 82>    H        2.82664        23.29585        -5.87935
| 83>    H        5.19932        18.72503        -4.25712
| 84>    H        5.49232        18.41538        -1.21814
| 85>    H        5.77458        16.16706         0.31696
| 86>    H        7.10623        17.29522         0.06108
| 87>    H        7.53086        15.35691         1.69706
| 88>    H        6.44204        13.61606         0.33287
| 89>    H        8.10747        13.17658         0.72920
| 90>    H        7.41291        12.72094        -1.67216
| 91>    H        8.87546        13.68642        -1.50610
| 92>    H        7.79944        12.81156        -3.92205
| 93>    H        6.86312        14.64055        -6.18489
| 94>    H        6.69880        11.01472        -4.60129
| 95>    H        8.43314        10.66822        -4.64566
| 96>    H        6.18745         8.95468        -5.80671
| 97>    H        7.27340         8.55843        -4.47024
| 98>    H        9.21598         8.73456        -6.11325
| 99>    H        8.54191         5.28934        -5.89745
|100>    H        8.02556         6.42583        -4.63225
|101>    H        9.64092         6.59050        -5.36786
|102>    H        6.96234         8.73442        -8.16690
|103>    H        8.67890         8.80848        -8.51480
|104>    H       10.43913         9.34593        -9.56632
|105>    H       10.66257        11.07043        -9.28077
|106>    H       12.56623         9.86060       -10.49850
|107>    H       11.10984         8.40575       -11.85185
|108>    H       12.25169         9.29469       -12.86509
|109>    H        9.85515         9.17202       -13.73724
|110>    H       10.55300        10.78661       -13.66894
|111>    H        8.07827        10.37611       -14.73304
|112>    H        5.44414        11.54491       -13.70210
|113>    H        5.86111        11.10764       -15.43421
|114> *
|115>
|116>                          ****END OF INPUT****

CARTESIAN COORDINATES (ANGSTROEM)
---------------------------------
  C      1.510080   24.122630    3.122170
  S      2.163060   23.722320    4.657880
  C      3.643370   23.234650    3.934520
  C      3.633520   23.377290    2.587840
  C      2.394040   23.885670    2.105800
  N      2.111830   24.183790    0.777810
  C      2.524480   23.518300   -0.328900
  C      3.208700   22.350170   -0.372280
  C      3.577420   21.768340   -1.611800
  O      4.233200   20.576090   -1.621810
  C      3.387360   22.170240   -2.920970
  C      2.828080   23.210420   -3.768060
  O      2.245860   24.236160   -3.491900
  N      3.099470   22.772010   -5.060500
  C      3.769270   21.548680   -5.145440
  O      4.081770   21.006970   -6.175610
  C      3.953970   21.162910   -3.749430
  C      4.466060   20.191280   -2.915970
  C      5.111480   18.964390   -3.207370
  C      5.586370   18.124860   -2.255620
  C      6.186720   16.867610   -2.510400
  S      6.290630   16.210340   -4.118910
  C      7.025690   14.749090   -3.529990
  C      7.177530   14.789100   -2.151630
  C      6.717480   15.983490   -1.581450
  C      6.777190   16.267340   -0.110140
  C      7.714820   15.298910    0.618000
  C      9.164280   15.740650    0.449520
  F      9.535750   15.995280   -0.809530
  F      9.402040   16.871430    1.140770
  F     10.030150   14.826820    0.922130
  C      7.489370   13.860950    0.145570
  C      7.793710   13.689800   -1.341450
  C      7.372760   13.678670   -4.399440
  C      7.213200   13.716170   -5.741270
  C      7.475170   12.666530   -6.668570
  S      7.607490   13.101950   -8.352560
  C      7.885180   11.450660   -8.808840
  C      7.842630   10.617610   -7.716960
  C      7.613920   11.301390   -6.502160
  C      7.494520   10.568120   -5.202310
  C      7.200470    9.086140   -5.422500
  C      8.186630    8.499060   -6.436820
  O      8.057880    7.099500   -6.602630
  C      8.594390    6.323790   -5.563180
  C      7.917290    9.126380   -7.803890
  C      8.097650   11.109640  -10.196560
  S      6.837300   11.376060  -11.360750
  C      7.844170   10.796080  -12.653080
  C      9.082750   10.422640  -12.185340
  C      9.226880   10.606400  -10.790760
  C     10.503730   10.320490  -10.059950
  C     11.695640   10.275350  -11.020050
  C     12.122190   11.683090  -11.418520
  F     11.141240   12.471350  -11.868550
  F     12.666810   12.330130  -10.371020
  F     13.065320   11.668760  -12.377850
  C     11.369550    9.396380  -12.230590
  C     10.207820    9.948950  -13.055100
  C      7.370210   10.757850  -14.009640
  C      6.163530   11.155540  -14.403400
  H      0.516380   24.517630    3.052110
  H      4.441680   22.882160    4.556180
  H      4.478630   23.171280    1.958780
  H      1.417760   24.902420    0.635870
  H      2.250620   23.998380   -1.259440
  H      3.469050   21.797270    0.515500
  H      2.826640   23.295850   -5.879350
  H      5.199320   18.725030   -4.257120
  H      5.492320   18.415380   -1.218140
  H      5.774580   16.167060    0.316960
  H      7.106230   17.295220    0.061080
  H      7.530860   15.356910    1.697060
  H      6.442040   13.616060    0.332870
  H      8.107470   13.176580    0.729200
  H      7.412910   12.720940   -1.672160
  H      8.875460   13.686420   -1.506100
  H      7.799440   12.811560   -3.922050
  H      6.863120   14.640550   -6.184890
  H      6.698800   11.014720   -4.601290
  H      8.433140   10.668220   -4.645660
  H      6.187450    8.954680   -5.806710
  H      7.273400    8.558430   -4.470240
  H      9.215980    8.734560   -6.113250
  H      8.541910    5.289340   -5.897450
  H      8.025560    6.425830   -4.632250
  H      9.640920    6.590500   -5.367860
  H      6.962340    8.734420   -8.166900
  H      8.678900    8.808480   -8.514800
  H     10.439130    9.345930   -9.566320
  H     10.662570   11.070430   -9.280770
  H     12.566230    9.860600  -10.498500
  H     11.109840    8.405750  -11.851850
  H     12.251690    9.294690  -12.865090
  H      9.855150    9.172020  -13.737240
  H     10.553000   10.786610  -13.668940
  H      8.078270   10.376110  -14.733040
  H      5.444140   11.544910  -13.702100
  H      5.861110   11.107640  -15.434210

 Total Charge           Charge          ....    0
 Multiplicity           Mult            ....    1
 Number of Electrons    NEL             ....  472
 Basis Dimension        Dim             .... 1060

ORBITAL ENERGIES
----------------

  NO   OCC          E(Eh)            E(eV)
   0   2.0000     -88.957227     -2420.6492
   1   2.0000     -88.941906     -2420.2323
   2   2.0000     -88.940778     -2420.2016
   3   2.0000     -88.937543     -2420.1136
   4   2.0000     -24.795968      -674.7326
   5   2.0000     -24.793625      -674.6688
   6   2.0000     -24.790527      -674.5845
   7   2.0000     -24.790354      -674.5798
   8   2.0000     -24.787053      -674.4900
   9   2.0000     -24.783839      -674.4025
  10   2.0000     -19.289861      -524.9038
  11   2.0000     -19.207484      -522.6622
  12   2.0000     -19.194275      -522.3028
  13   2.0000     -19.190717      -522.2060
  14   2.0000     -14.455239      -393.3470
  15   2.0000     -14.436573      -392.8391
  16   2.0000     -10.504964      -285.8546
  17   2.0000     -10.498917      -285.6901
  18   2.0000     -10.381736      -282.5014
  19   2.0000     -10.380085      -282.4565
  20   2.0000     -10.347413      -281.5674
  21   2.0000     -10.338149      -281.3153
  22   2.0000     -10.321581      -280.8645
  23   2.0000     -10.318706      -280.7863
  24   2.0000     -10.312585      -280.6197
  25   2.0000     -10.305787      -280.4347
  26   2.0000     -10.298458      -280.2353
  27   2.0000     -10.297023      -280.1962
  28   2.0000     -10.292088      -280.0620
  29   2.0000     -10.291178      -280.0372
  30   2.0000     -10.290543      -280.0199
  31   2.0000     -10.289885      -280.0020
  32   2.0000     -10.289636      -279.9952
  33   2.0000     -10.288429      -279.9624
  34   2.0000     -10.288175      -279.9555
  35   2.0000     -10.284443      -279.8539
  36   2.0000     -10.281289      -279.7681
  37   2.0000     -10.280832      -279.7557
  38   2.0000     -10.279536      -279.7204
  39   2.0000     -10.276957      -279.6502
  40   2.0000     -10.276789      -279.6457
  41   2.0000     -10.276457      -279.6366
  42   2.0000     -10.275567      -279.6124
  43   2.0000     -10.274709      -279.5890
  44   2.0000     -10.274480      -279.5828
  45   2.0000     -10.274063      -279.5715
  46   2.0000     -10.274025      -279.5704
  47   2.0000     -10.270713      -279.4803
  48   2.0000     -10.270497      -279.4744
  49   2.0000     -10.270088      -279.4633
  50   2.0000     -10.268762      -279.4272
  51   2.0000     -10.268512      -279.4204
  52   2.0000     -10.268331      -279.4155
  53   2.0000     -10.267684      -279.3979
  54   2.0000     -10.266982      -279.3788
  55   2.0000     -10.264524      -279.3119
  56   2.0000     -10.263305      -279.2787
  57   2.0000     -10.260972      -279.2152
  58   2.0000     -10.260964      -279.2150
  59   2.0000     -10.260444      -279.2009
  60   2.0000     -10.256046      -279.0812
  61   2.0000      -8.053296      -219.1413
  62   2.0000      -8.037391      -218.7085
  63   2.0000      -8.036626      -218.6877
  64   2.0000      -8.033370      -218.5991
  65   2.0000      -6.022599      -163.8833
  66   2.0000      -6.018258      -163.7651
  67   2.0000      -6.015606      -163.6930
  68   2.0000      -6.006542      -163.4463
  69   2.0000      -6.005767      -163.4252
  70   2.0000      -6.002755      -163.3433
  71   2.0000      -6.002558      -163.3379
  72   2.0000      -6.001777      -163.3167
  73   2.0000      -5.999432      -163.2529
  74   2.0000      -5.998818      -163.2361
  75   2.0000      -5.998575      -163.2295
  76   2.0000      -5.995467      -163.1449
  77   2.0000      -1.383633       -37.6506
  78   2.0000      -1.377529       -37.4845
  79   2.0000      -1.287039       -35.0221
  80   2.0000      -1.282888       -34.9092
  81   2.0000      -1.281177       -34.8626
  82   2.0000      -1.276433       -34.7335
  83   2.0000      -1.203934       -32.7607
  84   2.0000      -1.135925       -30.9101
  85   2.0000      -1.115032       -30.3416
  86   2.0000      -1.109490       -30.1907
  87   2.0000      -1.055279       -28.7156
  88   2.0000      -1.023290       -27.8451
  89   2.0000      -0.987266       -26.8649
  90   2.0000      -0.984583       -26.7919
  91   2.0000      -0.974855       -26.5272
  92   2.0000      -0.970150       -26.3991
  93   2.0000      -0.934831       -25.4381
  94   2.0000      -0.927666       -25.2431
  95   2.0000      -0.914631       -24.8884
  96   2.0000      -0.905606       -24.6428
  97   2.0000      -0.903053       -24.5733
  98   2.0000      -0.896395       -24.3922
  99   2.0000      -0.883126       -24.0311
 100   2.0000      -0.869911       -23.6715
 101   2.0000      -0.859054       -23.3760
 102   2.0000      -0.851122       -23.1602
 103   2.0000      -0.846043       -23.0220
 104   2.0000      -0.833666       -22.6852
 105   2.0000      -0.830794       -22.6071
 106   2.0000      -0.825346       -22.4588
 107   2.0000      -0.824692       -22.4410
 108   2.0000      -0.815980       -22.2039
 109   2.0000      -0.809537       -22.0286
 110   2.0000      -0.800936       -21.7946
 111   2.0000      -0.782460       -21.2918
 112   2.0000      -0.775268       -21.0961
 113   2.0000      -0.764239       -20.7960
 114   2.0000      -0.756848       -20.5949
 115   2.0000      -0.751106       -20.4386
 116   2.0000      -0.748018       -20.3546
 117   2.0000      -0.741321       -20.1724
 118   2.0000      -0.724419       -19.7124
 119   2.0000      -0.722976       -19.6732
 120   2.0000      -0.718400       -19.5487
 121   2.0000      -0.710608       -19.3366
 122   2.0000      -0.707072       -19.2404
 123   2.0000      -0.696076       -18.9412
 124   2.0000      -0.694781       -18.9059
 125   2.0000      -0.683390       -18.5960
 126   2.0000      -0.680220       -18.5097
 127   2.0000      -0.678699       -18.4683
 128   2.0000      -0.669048       -18.2057
 129   2.0000      -0.666466       -18.1355
 130   2.0000      -0.664615       -18.0851
 131   2.0000      -0.662531       -18.0284
 132   2.0000      -0.658856       -17.9284
 133   2.0000      -0.649329       -17.6691
 134   2.0000      -0.639559       -17.4033
 135   2.0000      -0.636028       -17.3072
 136   2.0000      -0.628337       -17.0979
 137   2.0000      -0.627786       -17.0829
 138   2.0000      -0.623428       -16.9643
 139   2.0000      -0.617525       -16.8037
 140   2.0000      -0.609152       -16.5759
 141   2.0000      -0.597154       -16.2494
 142   2.0000      -0.590110       -16.0577
 143   2.0000      -0.587847       -15.9961
 144   2.0000      -0.583117       -15.8674
 145   2.0000      -0.578657       -15.7461
 146   2.0000      -0.576116       -15.6769
 147   2.0000      -0.571856       -15.5610
 148   2.0000      -0.565920       -15.3995
 149   2.0000      -0.564156       -15.3515
 150   2.0000      -0.563299       -15.3282
 151   2.0000      -0.554832       -15.0977
 152   2.0000      -0.545502       -14.8439
 153   2.0000      -0.545147       -14.8342
 154   2.0000      -0.543218       -14.7817
 155   2.0000      -0.541004       -14.7215
 156   2.0000      -0.539735       -14.6869
 157   2.0000      -0.539183       -14.6719
 158   2.0000      -0.538222       -14.6458
 159   2.0000      -0.536620       -14.6022
 160   2.0000      -0.535898       -14.5825
 161   2.0000      -0.529459       -14.4073
 162   2.0000      -0.528211       -14.3733
 163   2.0000      -0.525565       -14.3013
 164   2.0000      -0.524118       -14.2620
 165   2.0000      -0.521881       -14.2011
 166   2.0000      -0.520541       -14.1646
 167   2.0000      -0.514146       -13.9906
 168   2.0000      -0.512979       -13.9589
 169   2.0000      -0.507322       -13.8049
 170   2.0000      -0.505252       -13.7486
 171   2.0000      -0.502944       -13.6858
 172   2.0000      -0.501749       -13.6533
 173   2.0000      -0.500900       -13.6302
 174   2.0000      -0.500097       -13.6083
 175   2.0000      -0.497158       -13.5284
 176   2.0000      -0.496368       -13.5069
 177   2.0000      -0.491945       -13.3865
 178   2.0000      -0.489550       -13.3213
 179   2.0000      -0.485299       -13.2057
 180   2.0000      -0.485196       -13.2028
 181   2.0000      -0.483730       -13.1630
 182   2.0000      -0.482438       -13.1278
 183   2.0000      -0.481129       -13.0922
 184   2.0000      -0.479397       -13.0451
 185   2.0000      -0.476956       -12.9786
 186   2.0000      -0.476305       -12.9609
 187   2.0000      -0.474047       -12.8995
 188   2.0000      -0.472820       -12.8661
 189   2.0000      -0.472100       -12.8465
 190   2.0000      -0.469673       -12.7805
 191   2.0000      -0.468478       -12.7479
 192   2.0000      -0.464617       -12.6429
 193   2.0000      -0.464378       -12.6364
 194   2.0000      -0.461450       -12.5567
 195   2.0000      -0.459854       -12.5133
 196   2.0000      -0.457020       -12.4362
 197   2.0000      -0.445696       -12.1280
 198   2.0000      -0.443609       -12.0712
 199   2.0000      -0.442527       -12.0418
 200   2.0000      -0.439032       -11.9467
 201   2.0000      -0.434918       -11.8347
 202   2.0000      -0.432574       -11.7709
 203   2.0000      -0.430315       -11.7095
 204   2.0000      -0.423841       -11.5333
 205   2.0000      -0.421854       -11.4792
 206   2.0000      -0.419764       -11.4224
 207   2.0000      -0.414015       -11.2659
 208   2.0000      -0.412267       -11.2184
 209   2.0000      -0.409376       -11.1397
 210   2.0000      -0.407671       -11.0933
 211   2.0000      -0.406693       -11.0667
 212   2.0000      -0.404749       -11.0138
 213   2.0000      -0.401146       -10.9157
 214   2.0000      -0.400883       -10.9086
 215   2.0000      -0.395524       -10.7628
 216   2.0000      -0.390495       -10.6259
 217   2.0000      -0.387439       -10.5427
 218   2.0000      -0.375597       -10.2205
 219   2.0000      -0.373043       -10.1510
 220   2.0000      -0.361918        -9.8483
 221   2.0000      -0.360056        -9.7976
 222   2.0000      -0.351212        -9.5570
 223   2.0000      -0.347536        -9.4569
 224   2.0000      -0.339335        -9.2338
 225   2.0000      -0.328575        -8.9410
 226   2.0000      -0.323686        -8.8080
 227   2.0000      -0.319279        -8.6880
 228   2.0000      -0.311296        -8.4708
 229   2.0000      -0.303207        -8.2507
 230   2.0000      -0.300607        -8.1799
 231   2.0000      -0.294767        -8.0210
 232   2.0000      -0.288231        -7.8432
 233   2.0000      -0.264143        -7.1877
 234   2.0000      -0.246606        -6.7105
 235   2.0000      -0.217752        -5.9253
 236   0.0000      -0.055123        -1.5000
 237   0.0000      -0.018355        -0.4995
 238   0.0000      -0.012971        -0.3530
 239   0.0000       0.001203         0.0327
 240   0.0000       0.021314         0.5800

MULLIKEN ATOMIC CHARGES
-----------------------
   0 C :   -0.150894
   1 S :    0.111903
   2 C :   -0.085554
   3 C :    0.023569
   4 C :    0.094388
   5 N :   -0.040604
   6 C :    0.061106
   7 C :   -0.071615
   8 C :    0.141662
   9 O :   -0.224065
  10 C :   -0.103276
  11 C :    0.179692
  12 O :   -0.186735
  13 N :   -0.162468
  14 C :    0.151544
  15 O :   -0.150378
  16 C :   -0.014856
  17 C :    0.073408
  18 C :   -0.035565
  19 C :   -0.017840
  20 C :   -0.075148
  21 S :    0.100006
  22 C :   -0.084073
  23 C :   -0.062772
  24 C :   -0.078174
  25 C :    0.145816
  26 C :   -0.163023
  27 C :    0.475978
  28 F :   -0.154254
  29 F :   -0.171486
  30 F :   -0.168613
  31 C :    0.058340
  32 C :    0.096372
  33 C :   -0.033360
  34 C :    0.041258
  35 C :   -0.127929
  36 S :    0.150394
  37 C :   -0.209849
  38 C :   -0.031573
  39 C :   -0.106701
  40 C :    0.095342
  41 C :    0.075680
  42 C :    0.065791
  43 O :   -0.374151
  44 C :    0.196021
  45 C :    0.218064
  46 C :   -0.197146
  47 S :    0.128549
  48 C :   -0.121039
  49 C :   -0.071850
  50 C :   -0.024573
  51 C :    0.167444
  52 C :   -0.170308
  53 C :    0.481127
  54 F :   -0.153926
  55 F :   -0.172345
  56 F :   -0.170601
  57 C :    0.053565
  58 C :    0.095810
  59 C :   -0.001127
  60 C :   -0.025818
  61 H :    0.007578
  62 H :    0.032229
  63 H :    0.000460
  64 H :    0.135224
  65 H :    0.027286
  66 H :   -0.015122
  67 H :    0.131490
  68 H :    0.014903
  69 H :   -0.004266
  70 H :    0.025262
  71 H :    0.032989
  72 H :    0.028957
  73 H :    0.013416
  74 H :    0.017107
  75 H :    0.015879
  76 H :    0.033926
  77 H :   -0.019478
  78 H :   -0.006204
  79 H :    0.017283
  80 H :    0.022039
  81 H :    0.005606
  82 H :   -0.010997
  83 H :   -0.021607
  84 H :    0.026755
  85 H :    0.001546
  86 H :   -0.004927
  87 H :    0.019627
  88 H :   -0.005884
  89 H :    0.022495
  90 H :    0.030662
  91 H :    0.026899
  92 H :    0.011137
  93 H :    0.016454
  94 H :    0.018208
  95 H :    0.032410
  96 H :   -0.011311
  97 H :    0.021817
  98 H :    0.021013
Sum of atomic charges:   -0.0000000

LOEWDIN ATOMIC CHARGES
----------------------
   0 C :   -0.226971
   1 S :    0.439706
   2 C :   -0.177093
   3 C :   -0.075599
   4 C :   -0.023745
   5 N :    0.036058
   6 C :    0.073303
   7 C :   -0.140205
   8 C :    0.090099
   9 O :    0.000282
  10 C :   -0.138193
  11 C :    0.085256
  12 O :   -0.191198
  13 N :   -0.006856
  14 C :    0.083176
  15 O :   -0.169106
  16 C :   -0.098948
  17 C :    0.060675
  18 C :   -0.049183
  19 C :   -0.026094
  20 C :   -0.176052
  21 S :    0.433617
  22 C :   -0.163646
  23 C :   -0.063354
  24 C :   -0.056434
  25 C :   -0.017898
  26 C :   -0.065618
  27 C :    0.162679
  28 F :   -0.049482
  29 F :   -0.069676
  30 F :   -0.066884
  31 C :   -0.019460
  32 C :   -0.031556
  33 C :   -0.048181
  34 C :   -0.041509
  35 C :   -0.175426
  36 S :    0.439904
  37 C :   -0.204616
  38 C :   -0.054436
  39 C :   -0.059875
  40 C :   -0.027789
  41 C :   -0.036785
  42 C :    0.066345
  43 O :   -0.170281
  44 C :    0.067046
  45 C :   -0.023395
  46 C :   -0.200589
  47 S :    0.434748
  48 C :   -0.178846
  49 C :   -0.060442
  50 C :   -0.062094
  51 C :   -0.015915
  52 C :   -0.066738
  53 C :    0.163308
  54 F :   -0.048349
  55 F :   -0.069702
  56 F :   -0.068765
  57 C :   -0.020086
  58 C :   -0.031595
  59 C :   -0.038124
  60 C :   -0.051345
  61 H :    0.020330
  62 H :    0.025562
  63 H :    0.034047
  64 H :    0.095019
  65 H :    0.034282
  66 H :    0.031839
  67 H :    0.090859
  68 H :    0.038785
  69 H :    0.032743
  70 H :    0.039286
  71 H :    0.035509
  72 H :    0.043767
  73 H :    0.029767
  74 H :    0.028745
  75 H :    0.032017
  76 H :    0.032491
  77 H :    0.029573
  78 H :    0.022375
  79 H :    0.033165
  80 H :    0.029171
  81 H :    0.026212
  82 H :    0.020889
  83 H :    0.002861
  84 H :    0.023205
  85 H :    0.002948
  86 H :    0.004681
  87 H :    0.039725
  88 H :    0.029648
  89 H :    0.033645
  90 H :    0.037489
  91 H :    0.043167
  92 H :    0.029096
  93 H :    0.028617
  94 H :    0.033559
  95 H :    0.032734
  96 H :    0.031560
  97 H :    0.017398
  98 H :    0.025164

  Mayer bond orders larger than 0.100000
B(  0-C ,  1-S ) :   1.1480 B(  0-C ,  4-C ) :   1.5546 B(  0-C , 61-H ) :   0.9770
B(  1-S ,  2-C ) :   1.1961 B(  2-C ,  3-C ) :   1.5721 B(  2-C , 62-H ) :   0.9667
B(  3-C ,  4-C ) :   1.2527 B(  3-C , 63-H ) :   0.9986 B(  4-C ,  5-N ) :   1.0559
B(  5-N ,  6-C ) :   1.2232 B(  5-N , 64-H ) :   0.9299 B(  6-C ,  7-C ) :   1.5932
B(  6-C , 65-H ) :   0.9334 B(  7-C ,  8-C ) :   1.2042 B(  7-C , 66-H ) :   0.9509
B(  8-C ,  9-O ) :   1.1477 B(  8-C , 10-C ) :   1.4001 B(  9-O , 17-C ) :   1.1196
B( 10-C , 11-C ) :   0.9127 B( 10-C , 16-C ) :   1.2412 B( 11-C , 12-O ) :   2.1280
B( 11-C , 13-N ) :   1.1051 B( 12-O , 65-H ) :   0.1060 B( 13-N , 14-C ) :   1.0694
B( 13-N , 67-H ) :   0.9164 B( 14-C , 15-O ) :   2.2633 B( 14-C , 16-C ) :   0.8886
B( 16-C , 17-C ) :   1.4098 B( 17-C , 18-C ) :   1.1928 B( 18-C , 19-C ) :   1.6000
B( 18-C , 68-H ) :   0.9603 B( 19-C , 20-C ) :   1.1488 B( 19-C , 69-H ) :   0.9784
B( 20-C , 21-S ) :   1.0991 B( 20-C , 24-C ) :   1.4896 B( 21-S , 22-C ) :   1.1099
B( 22-C , 23-C ) :   1.4947 B( 22-C , 33-C ) :   1.1658 B( 23-C , 24-C ) :   1.3144
B( 23-C , 32-C ) :   1.0471 B( 24-C , 25-C ) :   1.0439 B( 25-C , 26-C ) :   1.0368
B( 25-C , 70-H ) :   0.9042 B( 25-C , 71-H ) :   0.9117 B( 26-C , 27-C ) :   0.9830
B( 26-C , 31-C ) :   1.0417 B( 26-C , 72-H ) :   0.9013 B( 27-C , 28-F ) :   1.1442
B( 27-C , 29-F ) :   1.1384 B( 27-C , 30-F ) :   1.1434 B( 31-C , 32-C ) :   1.0886
B( 31-C , 73-H ) :   0.9422 B( 31-C , 74-H ) :   0.9315 B( 32-C , 75-H ) :   0.9090
B( 32-C , 76-H ) :   0.9076 B( 33-C , 34-C ) :   1.6653 B( 33-C , 77-H ) :   0.9641
B( 34-C , 35-C ) :   1.1145 B( 34-C , 78-H ) :   0.9492 B( 35-C , 36-S ) :   1.1118
B( 35-C , 37-C ) :   0.1131 B( 35-C , 39-C ) :   1.5312 B( 36-S , 37-C ) :   1.1468
B( 37-C , 38-C ) :   1.5705 B( 37-C , 46-C ) :   0.9927 B( 38-C , 39-C ) :   1.2912
B( 38-C , 45-C ) :   1.0236 B( 39-C , 40-C ) :   1.0537 B( 40-C , 41-C ) :   1.0769
B( 40-C , 79-H ) :   0.9108 B( 40-C , 80-H ) :   0.9030 B( 41-C , 42-C ) :   1.0353
B( 41-C , 81-H ) :   0.9277 B( 41-C , 82-H ) :   0.9225 B( 42-C , 43-O ) :   1.0341
B( 42-C , 45-C ) :   1.0401 B( 42-C , 83-H ) :   0.9334 B( 43-O , 44-C ) :   0.9977
B( 44-C , 84-H ) :   0.9827 B( 44-C , 85-H ) :   0.9662 B( 44-C , 86-H ) :   0.9639
B( 45-C , 87-H ) :   0.8972 B( 45-C , 88-H ) :   0.9002 B( 46-C , 47-S ) :   1.1443
B( 46-C , 48-C ) :   0.1101 B( 46-C , 50-C ) :   1.5963 B( 47-S , 48-C ) :   1.1014
B( 48-C , 49-C ) :   1.5525 B( 48-C , 59-C ) :   1.1177 B( 49-C , 50-C ) :   1.2697
B( 49-C , 58-C ) :   1.0458 B( 50-C , 51-C ) :   1.0526 B( 51-C , 52-C ) :   1.0412
B( 51-C , 89-H ) :   0.8975 B( 51-C , 90-H ) :   0.9071 B( 52-C , 53-C ) :   0.9828
B( 52-C , 57-C ) :   1.0389 B( 52-C , 91-H ) :   0.9010 B( 53-C , 54-F ) :   1.1454
B( 53-C , 55-F ) :   1.1396 B( 53-C , 56-F ) :   1.1415 B( 57-C , 58-C ) :   1.0902
B( 57-C , 92-H ) :   0.9412 B( 57-C , 93-H ) :   0.9327 B( 58-C , 94-H ) :   0.9101
B( 58-C , 95-H ) :   0.9098 B( 59-C , 60-C ) :   1.9265 B( 59-C , 96-H ) :   0.9585
B( 60-C , 97-H ) :   0.9554 B( 60-C , 98-H ) :   0.9486

-----------------------------------------------------------------------------
         ABSORPTION SPECTRUM VIA TRANSITION ELECTRIC DIPOLE MOMENTS
-----------------------------------------------------------------------------
State   Energy  Wavelength   fosc         T2         TX        TY        TZ
        (cm-1)    (nm)                  (au**2)     (au)      (au)      (au)
-----------------------------------------------------------------------------
   0   20259.3    493.6   1.533610399  24.92102   1.83058  -4.20493  -1.97194
   1   27373.8    365.3   0.288439581   3.46893   0.08776   0.39047   1.81900
   2   27941.3    357.9   0.408576595   4.81396   0.42051  -0.50515  -2.09331
   3   30224.2    330.9   0.258090608   2.81120   0.56595  -0.37183   1.53384
   4   32215.0    310.4   0.048681514   0.49749  -0.17095   0.43105  -0.53147
   5   34079.9    293.4   0.079899372   0.77183   0.11707  -0.14702   0.85820
   6   35464.4    282.0   0.104072682   0.96609   0.35977  -0.41721  -0.81400
   7   35685.5    280.2   0.026931536   0.24845  -0.34858   0.35118   0.06013
   8   36610.6    273.1   0.215587948   1.93862   0.42497  -0.43676   1.25190
   9   37651.8    265.6   0.171262397   1.49745  -0.07683  -0.15742   1.21110
  10   38087.9    262.6   0.110725439   0.95705  -0.15609   0.32239  -0.91036
  11   38570.3    259.3   0.349519800   2.98328  -0.05328   0.59292   1.62139
  12   40246.9    248.5   0.014169478   0.11590  -0.30817  -0.13851  -0.04185

FINAL SINGLE POINT ENERGY     -4336.163017220891

DIPOLE MOMENT
-------------
                                X             Y             Z
Electronic contribution:     11.91101      58.88186       6.24856
Nuclear contribution   :    -12.49399     -60.33717      -3.70190
                        -----------------------------------------
Total Dipole Moment    :     -0.58298      -1.45531       2.54666
                        -----------------------------------------
Magnitude (a.u.)       :      2.99053
Magnitude (Debye)      :      7.60132

Rotational constants in cm-1:     0.001714     0.000347     0.000311
Rotational constants in MHz :    51.388110    10.393441     9.332791

                             ****ORCA TERMINATED NORMALLY****
TOTAL RUN TIME: 0 days 0 hours 7 minutes 26 seconds 912 msec
