                         Program Version 4.2.0 -  RELEASE  -
|  1> # ORCA input file
|  2> # SCF done       -122.066438307042          0.000950416279
|  3> ! CAM-B3LYP def2-SVP def2/J RIJCOSX Grid4 TightSCF
|  4> %maxcore 5000
|  5> %tddft
|  6>     Mode sTDDFT
|  7>     Ethresh 5.0
|  8>     maxcore 5000
|  9> end
| 10>
| 11> %pal
| 12>   nprocs 6
| 13>   end
| 14> * xyz 0 1
| 15>    C       -0.98773         0.48816        -0.04921
| 16>    S        0.26015         1.49239         0.56212
| 17>    C        1.35716         0.92150        -0.67310
| 18>    C        0.74196         0.00304        -1.49108
| 19>    C       -0.59303        -0.23967        -1.13073
| 20>    C        2.66041         1.38806        -0.73818
| 21>    C        3.79822         1.81430        -0.76455
| 22>    C        5.09915         2.29301        -0.78746
| 23>    C        6.03532         1.90899        -1.68433
| 24>    C        7.37113         2.42482        -1.65354
| 25>    N        7.71015         3.31261        -0.72925
| 26>    N        8.90213         3.81052        -0.62854
| 27>    C        9.90375         3.48549        -1.43243
| 28>    C        9.67730         2.54778        -2.48048
| 29>    C        8.35849         2.00078        -2.59194
| 30>    N        8.25515         1.13989        -3.59884
| 31>    S        9.68271         1.03279        -4.33374
| 32>    N       10.49970         2.07057        -3.40969
| 33>    C       11.16441         4.10408        -1.17755
| 34>    S       11.28444         5.23038         0.13135
| 35>    C       12.98195         5.45673        -0.20106
| 36>    C       13.39708         4.68954        -1.27630
| 37>    C       12.37034         3.92922        -1.82708
| 38>    C       13.74288         6.30744         0.57799
| 39>    C       14.36421         7.05607         1.30887
| 40>    C       15.05765         7.90307         2.15691
| 41>    C       16.40706         8.05319         2.14225
| 42>    C       17.13274         8.88805         3.02607
| 43>    N       16.57912         9.70143         3.99211
| 44>    C       17.53244        10.39765         4.73889
| 45>    O       17.25142        11.16658         5.63254
| 46>    C       18.79864         9.96307         4.17308
| 47>    C       18.50554         9.04233         3.12087
| 48>    C       19.75437         8.59040         2.54933
| 49>    O       20.02265         7.82488         1.64972
| 50>    N       20.71692         9.27555         3.30690
| 51>    C       20.17327        10.08929         4.27376
| 52>    C       20.96103        10.88414         5.18534
| 53>    C       22.38101        10.85048         5.14958
| 54>    C       23.13144        11.59547         6.00916
| 55>    C       22.50278        12.42487         6.96125
| 56>    C       21.08027        12.46766         7.00815
| 57>    C       20.32592        11.69102         6.11424
| 58>    N       20.44932        13.25266         7.91020
| 59>    C       21.19473        13.95303         8.71768
| 60>    C       22.60578        13.90850         8.66887
| 61>    N       23.24719        13.16183         7.81083
| 62>    H       -1.94679         0.49437         0.43001
| 63>    H        1.24484        -0.46991        -2.31532
| 64>    H       -1.23696        -0.92588        -1.65115
| 65>    H        5.37173         3.01783        -0.03042
| 66>    H        5.81519         1.18951        -2.45989
| 67>    H       14.41130         4.69430        -1.63368
| 68>    H       12.47893         3.26580        -2.66601
| 69>    H       14.44387         8.44133         2.86986
| 70>    H       17.00560         7.49851         1.43381
| 71>    H       15.59194         9.80936         4.16049
| 72>    H       21.70285         9.16193         3.13537
| 73>    H       22.88479        10.22151         4.43087
| 74>    H       24.20988        11.57198         5.98734
| 75>    H       19.24978        11.74370         6.17719
| 76>    H       20.68012        14.57890         9.43468
| 77>    H       23.20950        14.49738         9.34660
| 78> *
| 79>
| 80>                          ****END OF INPUT****

CARTESIAN COORDINATES (ANGSTROEM)
---------------------------------
  C     -0.987730    0.488160   -0.049210
  S      0.260150    1.492390    0.562120
  C      1.357160    0.921500   -0.673100
  C      0.741960    0.003040   -1.491080
  C     -0.593030   -0.239670   -1.130730
  C      2.660410    1.388060   -0.738180
  C      3.798220    1.814300   -0.764550
  C      5.099150    2.293010   -0.787460
  C      6.035320    1.908990   -1.684330
  C      7.371130    2.424820   -1.653540
  N      7.710150    3.312610   -0.729250
  N      8.902130    3.810520   -0.628540
  C      9.903750    3.485490   -1.432430
  C      9.677300    2.547780   -2.480480
  C      8.358490    2.000780   -2.591940
  N      8.255150    1.139890   -3.598840
  S      9.682710    1.032790   -4.333740
  N     10.499700    2.070570   -3.409690
  C     11.164410    4.104080   -1.177550
  S     11.284440    5.230380    0.131350
  C     12.981950    5.456730   -0.201060
  C     13.397080    4.689540   -1.276300
  C     12.370340    3.929220   -1.827080
  C     13.742880    6.307440    0.577990
  C     14.364210    7.056070    1.308870
  C     15.057650    7.903070    2.156910
  C     16.407060    8.053190    2.142250
  C     17.132740    8.888050    3.026070
  N     16.579120    9.701430    3.992110
  C     17.532440   10.397650    4.738890
  O     17.251420   11.166580    5.632540
  C     18.798640    9.963070    4.173080
  C     18.505540    9.042330    3.120870
  C     19.754370    8.590400    2.549330
  O     20.022650    7.824880    1.649720
  N     20.716920    9.275550    3.306900
  C     20.173270   10.089290    4.273760
  C     20.961030   10.884140    5.185340
  C     22.381010   10.850480    5.149580
  C     23.131440   11.595470    6.009160
  C     22.502780   12.424870    6.961250
  C     21.080270   12.467660    7.008150
  C     20.325920   11.691020    6.114240
  N     20.449320   13.252660    7.910200
  C     21.194730   13.953030    8.717680
  C     22.605780   13.908500    8.668870
  N     23.247190   13.161830    7.810830
  H     -1.946790    0.494370    0.430010
  H      1.244840   -0.469910   -2.315320
  H     -1.236960   -0.925880   -1.651150
  H      5.371730    3.017830   -0.030420
  H      5.815190    1.189510   -2.459890
  H     14.411300    4.694300   -1.633680
  H     12.478930    3.265800   -2.666010
  H     14.443870    8.441330    2.869860
  H     17.005600    7.498510    1.433810
  H     15.591940    9.809360    4.160490
  H     21.702850    9.161930    3.135370
  H     22.884790   10.221510    4.430870
  H     24.209880   11.571980    5.987340
  H     19.249780   11.743700    6.177190
  H     20.680120   14.578900    9.434680
  H     23.209500   14.497380    9.346600

 Total Charge           Charge          ....    0
 Multiplicity           Mult            ....    1
 Number of Electrons    NEL             ....  340
 Basis Dimension        Dim             ....  750

ORBITAL ENERGIES
----------------

  NO   OCC          E(Eh)            E(eV)
   0   2.0000     -89.043771     -2423.0042
   1   2.0000     -88.958477     -2420.6832
   2   2.0000     -88.957992     -2420.6700
   3   2.0000     -19.185998      -522.0775
   4   2.0000     -19.185483      -522.0635
   5   2.0000     -14.459144      -393.4533
   6   2.0000     -14.459070      -393.4513
   7   2.0000     -14.451999      -393.2589
   8   2.0000     -14.449773      -393.1983
   9   2.0000     -14.441429      -392.9712
  10   2.0000     -14.437947      -392.8765
  11   2.0000     -14.420712      -392.4075
  12   2.0000     -14.418856      -392.3570
  13   2.0000     -10.375507      -282.3319
  14   2.0000     -10.374517      -282.3050
  15   2.0000     -10.343425      -281.4589
  16   2.0000     -10.341253      -281.3998
  17   2.0000     -10.339077      -281.3406
  18   2.0000     -10.337338      -281.2933
  19   2.0000     -10.335101      -281.2324
  20   2.0000     -10.329214      -281.0722
  21   2.0000     -10.316034      -280.7136
  22   2.0000     -10.315921      -280.7105
  23   2.0000     -10.314664      -280.6763
  24   2.0000     -10.313809      -280.6530
  25   2.0000     -10.311804      -280.5984
  26   2.0000     -10.311799      -280.5983
  27   2.0000     -10.309414      -280.5334
  28   2.0000     -10.305360      -280.4231
  29   2.0000     -10.299808      -280.2720
  30   2.0000     -10.297424      -280.2071
  31   2.0000     -10.295811      -280.1632
  32   2.0000     -10.294393      -280.1247
  33   2.0000     -10.292400      -280.0704
  34   2.0000     -10.284828      -279.8644
  35   2.0000     -10.282118      -279.7907
  36   2.0000     -10.281914      -279.7851
  37   2.0000     -10.281029      -279.7610
  38   2.0000     -10.280745      -279.7533
  39   2.0000     -10.279774      -279.7269
  40   2.0000     -10.279420      -279.7172
  41   2.0000     -10.278562      -279.6939
  42   2.0000     -10.278536      -279.6932
  43   2.0000     -10.274882      -279.5938
  44   2.0000     -10.274139      -279.5735
  45   2.0000     -10.263526      -279.2847
  46   2.0000     -10.262498      -279.2568
  47   2.0000      -8.135494      -221.3781
  48   2.0000      -8.053987      -219.1601
  49   2.0000      -8.053305      -219.1416
  50   2.0000      -6.106670      -166.1709
  51   2.0000      -6.098822      -165.9574
  52   2.0000      -6.098028      -165.9358
  53   2.0000      -6.023270      -163.9015
  54   2.0000      -6.022641      -163.8844
  55   2.0000      -6.018910      -163.7829
  56   2.0000      -6.018350      -163.7676
  57   2.0000      -6.016253      -163.7106
  58   2.0000      -6.015471      -163.6893
  59   2.0000      -1.146276       -31.1918
  60   2.0000      -1.128370       -30.7045
  61   2.0000      -1.121306       -30.5123
  62   2.0000      -1.117199       -30.4005
  63   2.0000      -1.075416       -29.2636
  64   2.0000      -1.058206       -28.7953
  65   2.0000      -1.045733       -28.4558
  66   2.0000      -1.002543       -27.2806
  67   2.0000      -0.998189       -27.1621
  68   2.0000      -0.986265       -26.8376
  69   2.0000      -0.982631       -26.7387
  70   2.0000      -0.955108       -25.9898
  71   2.0000      -0.943209       -25.6660
  72   2.0000      -0.921492       -25.0751
  73   2.0000      -0.915448       -24.9106
  74   2.0000      -0.893618       -24.3166
  75   2.0000      -0.890654       -24.2359
  76   2.0000      -0.873665       -23.7736
  77   2.0000      -0.868604       -23.6359
  78   2.0000      -0.856464       -23.3056
  79   2.0000      -0.849198       -23.1078
  80   2.0000      -0.832961       -22.6660
  81   2.0000      -0.830937       -22.6110
  82   2.0000      -0.829717       -22.5777
  83   2.0000      -0.808499       -22.0004
  84   2.0000      -0.797793       -21.7090
  85   2.0000      -0.783831       -21.3291
  86   2.0000      -0.773793       -21.0560
  87   2.0000      -0.761266       -20.7151
  88   2.0000      -0.751856       -20.4590
  89   2.0000      -0.748137       -20.3578
  90   2.0000      -0.732688       -19.9374
  91   2.0000      -0.726679       -19.7739
  92   2.0000      -0.707634       -19.2557
  93   2.0000      -0.698485       -19.0067
  94   2.0000      -0.692279       -18.8379
  95   2.0000      -0.677254       -18.4290
  96   2.0000      -0.671861       -18.2823
  97   2.0000      -0.664599       -18.0847
  98   2.0000      -0.643736       -17.5170
  99   2.0000      -0.638301       -17.3690
 100   2.0000      -0.636449       -17.3187
 101   2.0000      -0.635369       -17.2893
 102   2.0000      -0.630356       -17.1529
 103   2.0000      -0.619593       -16.8600
 104   2.0000      -0.609557       -16.5869
 105   2.0000      -0.607767       -16.5382
 106   2.0000      -0.604806       -16.4576
 107   2.0000      -0.600294       -16.3348
 108   2.0000      -0.591171       -16.0866
 109   2.0000      -0.582413       -15.8483
 110   2.0000      -0.580205       -15.7882
 111   2.0000      -0.571876       -15.5615
 112   2.0000      -0.571762       -15.5584
 113   2.0000      -0.558393       -15.1946
 114   2.0000      -0.551386       -15.0040
 115   2.0000      -0.541134       -14.7250
 116   2.0000      -0.530036       -14.4230
 117   2.0000      -0.526143       -14.3171
 118   2.0000      -0.524556       -14.2739
 119   2.0000      -0.520993       -14.1769
 120   2.0000      -0.518776       -14.1166
 121   2.0000      -0.517123       -14.0716
 122   2.0000      -0.512664       -13.9503
 123   2.0000      -0.512399       -13.9431
 124   2.0000      -0.508245       -13.8301
 125   2.0000      -0.505462       -13.7543
 126   2.0000      -0.502770       -13.6811
 127   2.0000      -0.498629       -13.5684
 128   2.0000      -0.495749       -13.4900
 129   2.0000      -0.485786       -13.2189
 130   2.0000      -0.485617       -13.2143
 131   2.0000      -0.479659       -13.0522
 132   2.0000      -0.478233       -13.0134
 133   2.0000      -0.477358       -12.9896
 134   2.0000      -0.474829       -12.9208
 135   2.0000      -0.471345       -12.8259
 136   2.0000      -0.463705       -12.6180
 137   2.0000      -0.459065       -12.4918
 138   2.0000      -0.452504       -12.3133
 139   2.0000      -0.451286       -12.2801
 140   2.0000      -0.444174       -12.0866
 141   2.0000      -0.439524       -11.9600
 142   2.0000      -0.432882       -11.7793
 143   2.0000      -0.428230       -11.6527
 144   2.0000      -0.423916       -11.5354
 145   2.0000      -0.419721       -11.4212
 146   2.0000      -0.418830       -11.3969
 147   2.0000      -0.409820       -11.1518
 148   2.0000      -0.405202       -11.0261
 149   2.0000      -0.391579       -10.6554
 150   2.0000      -0.388412       -10.5692
 151   2.0000      -0.381911       -10.3923
 152   2.0000      -0.376802       -10.2533
 153   2.0000      -0.373998       -10.1770
 154   2.0000      -0.354587        -9.6488
 155   2.0000      -0.348242        -9.4761
 156   2.0000      -0.344991        -9.3877
 157   2.0000      -0.343085        -9.3358
 158   2.0000      -0.333956        -9.0874
 159   2.0000      -0.330141        -8.9836
 160   2.0000      -0.328534        -8.9399
 161   2.0000      -0.327271        -8.9055
 162   2.0000      -0.324413        -8.8277
 163   2.0000      -0.321311        -8.7433
 164   2.0000      -0.316564        -8.6141
 165   2.0000      -0.316206        -8.6044
 166   2.0000      -0.300132        -8.1670
 167   2.0000      -0.285458        -7.7677
 168   2.0000      -0.257622        -7.0102
 169   2.0000      -0.235926        -6.4199
 170   0.0000      -0.097743        -2.6597
 171   0.0000      -0.077705        -2.1145
 172   0.0000      -0.039558        -1.0764
 173   0.0000      -0.032105        -0.8736
 174   0.0000      -0.019810        -0.5390

MULLIKEN ATOMIC CHARGES
-----------------------
   0 C :   -0.069438
   1 S :    0.156382
   2 C :   -0.195486
   3 C :    0.063176
   4 C :    0.036462
   5 C :    0.045103
   6 C :    0.024777
   7 C :   -0.037347
   8 C :   -0.043086
   9 C :   -0.048811
  10 N :   -0.064133
  11 N :   -0.058622
  12 C :    0.034793
  13 C :    0.033965
  14 C :    0.058475
  15 N :   -0.252416
  16 S :    0.531876
  17 N :   -0.261709
  18 C :   -0.135987
  19 S :    0.214781
  20 C :   -0.141891
  21 C :    0.060422
  22 C :   -0.004686
  23 C :    0.064550
  24 C :   -0.015024
  25 C :   -0.084633
  26 C :    0.032156
  27 C :    0.037573
  28 N :   -0.118060
  29 C :    0.159494
  30 O :   -0.182936
  31 C :   -0.106356
  32 C :   -0.044255
  33 C :    0.127607
  34 O :   -0.171604
  35 N :   -0.121419
  36 C :    0.084243
  37 C :    0.140438
  38 C :   -0.019852
  39 C :    0.004086
  40 C :   -0.028096
  41 C :   -0.001491
  42 C :   -0.062238
  43 N :    0.003708
  44 C :    0.020968
  45 C :    0.024321
  46 N :   -0.017856
  47 H :    0.033527
  48 H :   -0.006049
  49 H :   -0.003179
  50 H :    0.052360
  51 H :    0.003754
  52 H :   -0.007630
  53 H :   -0.001739
  54 H :    0.021159
  55 H :    0.021540
  56 H :    0.125463
  57 H :    0.125592
  58 H :   -0.032738
  59 H :   -0.020108
  60 H :   -0.011058
  61 H :    0.014253
  62 H :    0.012930
Sum of atomic charges:   -0.0000000

LOEWDIN ATOMIC CHARGES
----------------------
   0 C :   -0.174989
   1 S :    0.454157
   2 C :   -0.195569
   3 C :   -0.031163
   4 C :   -0.066344
   5 C :   -0.041307
   6 C :   -0.029991
   7 C :    0.010417
   8 C :   -0.024565
   9 C :   -0.012899
  10 N :   -0.049519
  11 N :   -0.060113
  12 C :   -0.029042
  13 C :   -0.055693
  14 C :   -0.058687
  15 N :   -0.268506
  16 S :    0.664508
  17 N :   -0.271721
  18 C :   -0.179544
  19 S :    0.494677
  20 C :   -0.184301
  21 C :   -0.031813
  22 C :   -0.039377
  23 C :   -0.036486
  24 C :   -0.028697
  25 C :   -0.024085
  26 C :   -0.010311
  27 C :    0.065895
  28 N :    0.025376
  29 C :    0.078599
  30 O :   -0.190466
  31 C :   -0.127406
  32 C :   -0.112672
  33 C :    0.074341
  34 O :   -0.191793
  35 N :    0.024069
  36 C :    0.086214
  37 C :   -0.041323
  38 C :   -0.014428
  39 C :   -0.008843
  40 C :   -0.009000
  41 C :   -0.015947
  42 C :    0.029722
  43 N :   -0.029002
  44 C :    0.002544
  45 C :    0.006306
  46 N :   -0.042033
  47 H :    0.025582
  48 H :    0.034916
  49 H :    0.032255
  50 H :    0.052293
  51 H :    0.037838
  52 H :    0.035858
  53 H :    0.033173
  54 H :    0.040210
  55 H :    0.051365
  56 H :    0.085504
  57 H :    0.084059
  58 H :    0.024998
  59 H :    0.037468
  60 H :    0.042029
  61 H :    0.026941
  62 H :    0.026320

  Mayer bond orders larger than 0.100000
B(  0-C ,  1-S ) :   1.1818 B(  0-C ,  4-C ) :   1.5541 B(  0-C , 47-H ) :   0.9729
B(  1-S ,  2-C ) :   1.1226 B(  2-C ,  3-C ) :   1.5131 B(  2-C ,  5-C ) :   1.0102
B(  3-C ,  4-C ) :   1.2659 B(  3-C , 48-H ) :   1.0025 B(  4-C , 49-H ) :   0.9943
B(  5-C ,  6-C ) :   2.2848 B(  6-C ,  7-C ) :   0.9478 B(  7-C ,  8-C ) :   1.6766
B(  7-C , 50-H ) :   0.9538 B(  8-C ,  9-C ) :   1.1516 B(  8-C , 51-H ) :   0.9844
B(  9-C , 10-N ) :   1.6473 B(  9-C , 12-C ) :   0.1158 B(  9-C , 14-C ) :   1.0757
B( 10-N , 11-N ) :   1.2347 B( 11-N , 12-C ) :   1.7029 B( 12-C , 13-C ) :   1.1279
B( 12-C , 18-C ) :   1.1380 B( 13-C , 14-C ) :   1.1940 B( 13-C , 17-N ) :   1.5499
B( 14-C , 15-N ) :   1.5620 B( 15-N , 16-S ) :   1.2779 B( 15-N , 17-N ) :   0.1460
B( 16-S , 17-N ) :   1.2663 B( 18-C , 19-S ) :   1.1260 B( 18-C , 20-C ) :   0.1114
B( 18-C , 22-C ) :   1.5106 B( 19-S , 20-C ) :   1.1063 B( 20-C , 21-C ) :   1.4713
B( 20-C , 23-C ) :   0.9885 B( 21-C , 22-C ) :   1.2640 B( 21-C , 52-H ) :   1.0036
B( 22-C , 53-H ) :   0.9827 B( 23-C , 24-C ) :   2.2669 B( 24-C , 25-C ) :   1.0280
B( 25-C , 26-C ) :   1.6163 B( 25-C , 54-H ) :   0.9538 B( 26-C , 27-C ) :   1.1830
B( 26-C , 55-H ) :   0.9608 B( 27-C , 28-N ) :   1.1903 B( 27-C , 32-C ) :   1.3692
B( 28-N , 29-C ) :   1.0858 B( 28-N , 56-H ) :   0.9182 B( 29-C , 30-O ) :   2.1121
B( 29-C , 31-C ) :   0.9588 B( 30-O , 60-H ) :   0.1033 B( 31-C , 32-C ) :   1.2125
B( 31-C , 36-C ) :   1.4129 B( 32-C , 33-C ) :   0.9619 B( 33-C , 34-O ) :   2.2217
B( 33-C , 35-N ) :   1.0422 B( 35-N , 36-C ) :   1.2309 B( 35-N , 57-H ) :   0.9143
B( 36-C , 37-C ) :   1.0576 B( 37-C , 38-C ) :   1.1606 B( 37-C , 42-C ) :   1.3724
B( 38-C , 39-C ) :   1.4974 B( 38-C , 58-H ) :   0.9964 B( 39-C , 40-C ) :   1.2374
B( 39-C , 42-C ) :   0.1005 B( 39-C , 59-H ) :   1.0011 B( 40-C , 41-C ) :   1.2331
B( 40-C , 46-N ) :   1.4336 B( 41-C , 42-C ) :   1.2200 B( 41-C , 43-N ) :   1.4459
B( 42-C , 60-H ) :   0.9918 B( 43-N , 44-C ) :   1.6821 B( 44-C , 45-C ) :   1.2205
B( 44-C , 61-H ) :   0.9739 B( 45-C , 46-N ) :   1.6707 B( 45-C , 62-H ) :   0.9735

-----------------------------------------------------------------------------
         ABSORPTION SPECTRUM VIA TRANSITION ELECTRIC DIPOLE MOMENTS
-----------------------------------------------------------------------------
State   Energy  Wavelength   fosc         T2         TX        TY        TZ
        (cm-1)    (nm)                  (au**2)     (au)      (au)      (au)
-----------------------------------------------------------------------------
   0   16332.7    612.3   2.010617988  40.52727   5.53127   2.69295   1.63719
   1   19316.9    517.7   0.001817491   0.03097  -0.11089  -0.08959  -0.10320
   2   19909.0    502.3   0.123991257   2.05030   0.36837   0.50022   1.29011
   3   22661.1    441.3   0.221386278   3.21622  -1.74246  -0.40998   0.10946
   4   26042.3    384.0   0.200000447   2.52829   0.08732   1.01011   1.22488
   5   27206.9    367.6   0.105820695   1.28046  -1.09160  -0.29784  -0.01272
   6   28715.2    348.2   0.000280499   0.00322   0.03958   0.02784   0.02956
   7   28740.3    347.9   0.005039620   0.05773  -0.08243  -0.21848   0.05657
   8   29529.9    338.6   0.004885421   0.05446  -0.01063   0.15932  -0.17020
   9   31049.2    322.1   0.151021708   1.60127  -1.05212  -0.68115  -0.17416
  10   31274.6    319.7   0.340809312   3.58753   1.83215   0.38256  -0.29050
  11   32012.2    312.4   0.165587537   1.70290  -1.25717  -0.17846   0.30096
  12   32113.2    311.4   0.008259001   0.08467   0.27031  -0.01397  -0.10680
  13   32633.3    306.4   0.006917605   0.06979  -0.02682  -0.20084   0.16951
  14   33117.9    302.0   0.000734256   0.00730  -0.02472  -0.07419   0.03440
  15   33303.2    300.3   0.054077290   0.53457   0.22814   0.43165   0.54424
  16   34651.8    288.6   0.129692220   1.23215  -0.43439   0.66175   0.77817
  17   34761.9    287.7   0.000565681   0.00536  -0.03817   0.01807  -0.05978
  18   35459.2    282.0   0.003554354   0.03300   0.07268   0.02717   0.16425
  19   35682.7    280.2   0.004806230   0.04434  -0.04830  -0.15411  -0.13512
  20   35918.8    278.4   0.001339772   0.01228   0.09684   0.02170  -0.04929
  21   36210.9    276.2   0.008230723   0.07483  -0.01751  -0.21506  -0.16815
  22   36217.4    276.1   0.010135198   0.09213   0.02311   0.09640   0.28688
  23   36983.2    270.4   0.161491465   1.43754  -1.09358  -0.47328  -0.13275
  24   37184.3    268.9   0.273813654   2.42422   0.34572   0.92487   1.20388
  25   37673.9    265.4   0.005363380   0.04687  -0.19825  -0.08433   0.02132
  26   38606.6    259.0   0.134831347   1.14975  -0.58186  -0.65899  -0.61395
  27   39544.6    252.9   0.015931842   0.13263  -0.35041  -0.01764   0.09764
  28   40087.5    249.5   0.015189618   0.12474   0.05965   0.15110   0.31361
  29   40156.4    249.0   0.056996014   0.46727  -0.10945   0.41899   0.52890

FINAL SINGLE POINT ENERGY     -3085.395272331551

DIPOLE MOMENT
-------------
                                X             Y             Z
Electronic contribution:    -10.91310     -11.09710     -13.48913
Nuclear contribution   :     10.25051       9.91350      12.43724
                        -----------------------------------------
Total Dipole Moment    :     -0.66259      -1.18360      -1.05189
                        -----------------------------------------
Magnitude (a.u.)       :      1.71651
Magnitude (Debye)      :      4.36301

Rotational constants in cm-1:     0.004331     0.000322     0.000300
Rotational constants in MHz :   129.839760     9.645213     8.999498

                             ****ORCA TERMINATED NORMALLY****
TOTAL RUN TIME: 0 days 0 hours 3 minutes 20 seconds 509 msec
