                         Program Version 4.2.0 -  RELEASE  -
|  1> # ORCA input file
|  2> # SCF done       -118.041060452529          0.000546729657
|  3> ! CAM-B3LYP def2-SVP def2/J RIJCOSX Grid4 TightSCF
|  4> %maxcore 5000
|  5> %tddft
|  6>     Mode sTDDFT
|  7>     Ethresh 5.0
|  8>     maxcore 5000
|  9> end
| 10>
| 11> %pal
| 12>   nprocs 6
| 13>   end
| 14> * xyz 0 1
| 15>    C        0.25188         0.01847        -3.17423
| 16>    C        0.49011        -0.29407        -1.90337
| 17>    C        0.58174         0.81172        -0.96930
| 18>    C        0.41014         2.02781        -1.51589
| 19>    S        0.11971         1.80561        -3.29539
| 20>    O        1.20664         2.37358        -4.03974
| 21>    O       -1.21050         2.22486        -3.63084
| 22>    C        0.41743         3.34533        -1.01535
| 23>    S        0.12244         4.65548        -2.10687
| 24>    C        0.29937         5.82990        -0.83433
| 25>    C        0.57500         5.21107         0.38800
| 26>    C        0.63974         3.80106         0.28321
| 27>    C        0.89977         2.95376         1.37396
| 28>    N        1.11114         2.26172         2.26342
| 29>    C        0.76838         5.86074         1.61901
| 30>    N        0.93244         6.34979         2.64372
| 31>    C        0.15319         7.20696        -1.14444
| 32>    C        0.31571         8.24488        -0.28258
| 33>    C        0.13750         9.57619        -0.70091
| 34>    C        0.27156        10.74536        -0.02820
| 35>    C        0.00415        11.94337        -0.75804
| 36>    C       -0.36379        11.77179        -2.05025
| 37>    S       -0.37098         9.99061        -2.38922
| 38>    O        0.64550         9.66847        -3.35048
| 39>    O       -1.70687         9.54358        -2.66536
| 40>    C       -0.71328        12.64737        -3.09034
| 41>    S       -1.17803        11.98797        -4.62490
| 42>    C       -1.43356        13.57271        -5.29450
| 43>    C       -1.16184        14.56786        -4.35246
| 44>    C       -0.75531        14.04315        -3.10291
| 45>    C       -0.42862        14.84528        -1.99706
| 46>    N       -0.16299        15.50218        -1.09542
| 47>    C       -1.26593        15.95422        -4.55979
| 48>    N       -1.33619        17.09255        -4.68357
| 49>    C       -1.87257        13.68729        -6.64154
| 50>    C       -2.09064        14.84274        -7.31572
| 51>    C       -2.54264        14.83414        -8.65459
| 52>    C       -2.80512        15.84357        -9.50497
| 53>    C       -3.27003        15.45140       -10.81933
| 54>    C       -3.38669        14.14346       -11.03255
| 55>    S       -2.89648        13.28117        -9.53104
| 56>    O       -1.69503        12.52180        -9.73818
| 57>    O       -4.01358        12.60406        -8.93405
| 58>    H        0.14677        -0.62649        -4.02107
| 59>    H        0.61577        -1.30150        -1.53851
| 60>    H        0.77322         0.62926         0.07583
| 61>    H       -0.10528         7.43118        -2.17095
| 62>    H        0.58876         8.07714         0.75095
| 63>    H        0.56522        10.79728         1.00847
| 64>    H        0.09478        12.90722        -0.28256
| 65>    H       -2.04200        12.75264        -7.15917
| 66>    H       -1.92733        15.80526        -6.84863
| 67>    H       -2.68728        16.88663        -9.25697
| 68>    H       -3.49754        16.21038       -11.55199
| 69>    H       -3.70781        13.62823       -11.91364
| 70> *
| 71>
| 72>                          ****END OF INPUT****

CARTESIAN COORDINATES (ANGSTROEM)
---------------------------------
  C      0.251880    0.018470   -3.174230
  C      0.490110   -0.294070   -1.903370
  C      0.581740    0.811720   -0.969300
  C      0.410140    2.027810   -1.515890
  S      0.119710    1.805610   -3.295390
  O      1.206640    2.373580   -4.039740
  O     -1.210500    2.224860   -3.630840
  C      0.417430    3.345330   -1.015350
  S      0.122440    4.655480   -2.106870
  C      0.299370    5.829900   -0.834330
  C      0.575000    5.211070    0.388000
  C      0.639740    3.801060    0.283210
  C      0.899770    2.953760    1.373960
  N      1.111140    2.261720    2.263420
  C      0.768380    5.860740    1.619010
  N      0.932440    6.349790    2.643720
  C      0.153190    7.206960   -1.144440
  C      0.315710    8.244880   -0.282580
  C      0.137500    9.576190   -0.700910
  C      0.271560   10.745360   -0.028200
  C      0.004150   11.943370   -0.758040
  C     -0.363790   11.771790   -2.050250
  S     -0.370980    9.990610   -2.389220
  O      0.645500    9.668470   -3.350480
  O     -1.706870    9.543580   -2.665360
  C     -0.713280   12.647370   -3.090340
  S     -1.178030   11.987970   -4.624900
  C     -1.433560   13.572710   -5.294500
  C     -1.161840   14.567860   -4.352460
  C     -0.755310   14.043150   -3.102910
  C     -0.428620   14.845280   -1.997060
  N     -0.162990   15.502180   -1.095420
  C     -1.265930   15.954220   -4.559790
  N     -1.336190   17.092550   -4.683570
  C     -1.872570   13.687290   -6.641540
  C     -2.090640   14.842740   -7.315720
  C     -2.542640   14.834140   -8.654590
  C     -2.805120   15.843570   -9.504970
  C     -3.270030   15.451400  -10.819330
  C     -3.386690   14.143460  -11.032550
  S     -2.896480   13.281170   -9.531040
  O     -1.695030   12.521800   -9.738180
  O     -4.013580   12.604060   -8.934050
  H      0.146770   -0.626490   -4.021070
  H      0.615770   -1.301500   -1.538510
  H      0.773220    0.629260    0.075830
  H     -0.105280    7.431180   -2.170950
  H      0.588760    8.077140    0.750950
  H      0.565220   10.797280    1.008470
  H      0.094780   12.907220   -0.282560
  H     -2.042000   12.752640   -7.159170
  H     -1.927330   15.805260   -6.848630
  H     -2.687280   16.886630   -9.256970
  H     -3.497540   16.210380  -11.551990
  H     -3.707810   13.628230  -11.913640

 Total Charge           Charge          ....    0
 Multiplicity           Mult            ....    1
 Number of Electrons    NEL             ....  336
 Basis Dimension        Dim             ....  682

ORBITAL ENERGIES
----------------

  NO   OCC          E(Eh)            E(eV)
   0   2.0000     -89.165379     -2426.3133
   1   2.0000     -89.161772     -2426.2152
   2   2.0000     -89.150824     -2425.9173
   3   2.0000     -89.006406     -2421.9874
   4   2.0000     -89.003439     -2421.9067
   5   2.0000     -19.223556      -523.0995
   6   2.0000     -19.223348      -523.0939
   7   2.0000     -19.218009      -522.9486
   8   2.0000     -19.217692      -522.9400
   9   2.0000     -19.206674      -522.6402
  10   2.0000     -19.206248      -522.6286
  11   2.0000     -14.433420      -392.7533
  12   2.0000     -14.432575      -392.7303
  13   2.0000     -14.431441      -392.6995
  14   2.0000     -14.429628      -392.6501
  15   2.0000     -10.362929      -281.9896
  16   2.0000     -10.360939      -281.9355
  17   2.0000     -10.357995      -281.8554
  18   2.0000     -10.355182      -281.7788
  19   2.0000     -10.352982      -281.7190
  20   2.0000     -10.350580      -281.6536
  21   2.0000     -10.350076      -281.6399
  22   2.0000     -10.346959      -281.5551
  23   2.0000     -10.339913      -281.3633
  24   2.0000     -10.338868      -281.3349
  25   2.0000     -10.334619      -281.2193
  26   2.0000     -10.332310      -281.1564
  27   2.0000     -10.331997      -281.1479
  28   2.0000     -10.330303      -281.1018
  29   2.0000     -10.329702      -281.0855
  30   2.0000     -10.329482      -281.0795
  31   2.0000     -10.329214      -281.0722
  32   2.0000     -10.329046      -281.0676
  33   2.0000     -10.327598      -281.0282
  34   2.0000     -10.324563      -280.9456
  35   2.0000     -10.324072      -280.9323
  36   2.0000     -10.323043      -280.9043
  37   2.0000     -10.322342      -280.8852
  38   2.0000     -10.320342      -280.8308
  39   2.0000     -10.318033      -280.7680
  40   2.0000     -10.316997      -280.7398
  41   2.0000     -10.316123      -280.7160
  42   2.0000     -10.314984      -280.6850
  43   2.0000      -8.231385      -223.9874
  44   2.0000      -8.227827      -223.8906
  45   2.0000      -8.216582      -223.5846
  46   2.0000      -8.101610      -220.4560
  47   2.0000      -8.098698      -220.3768
  48   2.0000      -6.200164      -168.7150
  49   2.0000      -6.200082      -168.7128
  50   2.0000      -6.199472      -168.6962
  51   2.0000      -6.196830      -168.6243
  52   2.0000      -6.196438      -168.6137
  53   2.0000      -6.195861      -168.5979
  54   2.0000      -6.185378      -168.3127
  55   2.0000      -6.185332      -168.3114
  56   2.0000      -6.184719      -168.2948
  57   2.0000      -6.070755      -165.1936
  58   2.0000      -6.067888      -165.1156
  59   2.0000      -6.066397      -165.0751
  60   2.0000      -6.064006      -165.0100
  61   2.0000      -6.063468      -164.9953
  62   2.0000      -6.061068      -164.9301
  63   2.0000      -1.229278       -33.4504
  64   2.0000      -1.224281       -33.3144
  65   2.0000      -1.211483       -32.9661
  66   2.0000      -1.106222       -30.1018
  67   2.0000      -1.101622       -29.9767
  68   2.0000      -1.089276       -29.6407
  69   2.0000      -1.049665       -28.5628
  70   2.0000      -1.047050       -28.4917
  71   2.0000      -1.014361       -27.6022
  72   2.0000      -1.011947       -27.5365
  73   2.0000      -1.011682       -27.5293
  74   2.0000      -1.009651       -27.4740
  75   2.0000      -0.998202       -27.1625
  76   2.0000      -0.992945       -27.0194
  77   2.0000      -0.986259       -26.8375
  78   2.0000      -0.951085       -25.8803
  79   2.0000      -0.937146       -25.5010
  80   2.0000      -0.918006       -24.9802
  81   2.0000      -0.912271       -24.8242
  82   2.0000      -0.903415       -24.5832
  83   2.0000      -0.891007       -24.2455
  84   2.0000      -0.861727       -23.4488
  85   2.0000      -0.844353       -22.9760
  86   2.0000      -0.827659       -22.5217
  87   2.0000      -0.815499       -22.1908
  88   2.0000      -0.813761       -22.1436
  89   2.0000      -0.799684       -21.7605
  90   2.0000      -0.776148       -21.1201
  91   2.0000      -0.767456       -20.8835
  92   2.0000      -0.752081       -20.4652
  93   2.0000      -0.738761       -20.1027
  94   2.0000      -0.728685       -19.8285
  95   2.0000      -0.728178       -19.8147
  96   2.0000      -0.694518       -18.8988
  97   2.0000      -0.690857       -18.7992
  98   2.0000      -0.683676       -18.6038
  99   2.0000      -0.676088       -18.3973
 100   2.0000      -0.661215       -17.9926
 101   2.0000      -0.647702       -17.6249
 102   2.0000      -0.647288       -17.6136
 103   2.0000      -0.641957       -17.4686
 104   2.0000      -0.624909       -17.0046
 105   2.0000      -0.621596       -16.9145
 106   2.0000      -0.615064       -16.7367
 107   2.0000      -0.592717       -16.1287
 108   2.0000      -0.585539       -15.9333
 109   2.0000      -0.578423       -15.7397
 110   2.0000      -0.575635       -15.6638
 111   2.0000      -0.566008       -15.4018
 112   2.0000      -0.563599       -15.3363
 113   2.0000      -0.559852       -15.2344
 114   2.0000      -0.556320       -15.1382
 115   2.0000      -0.554718       -15.0946
 116   2.0000      -0.553286       -15.0557
 117   2.0000      -0.549461       -14.9516
 118   2.0000      -0.547266       -14.8919
 119   2.0000      -0.543807       -14.7977
 120   2.0000      -0.541166       -14.7259
 121   2.0000      -0.539752       -14.6874
 122   2.0000      -0.534594       -14.5470
 123   2.0000      -0.532730       -14.4963
 124   2.0000      -0.527645       -14.3580
 125   2.0000      -0.514894       -14.0110
 126   2.0000      -0.507635       -13.8135
 127   2.0000      -0.502391       -13.6708
 128   2.0000      -0.499748       -13.5988
 129   2.0000      -0.495359       -13.4794
 130   2.0000      -0.491151       -13.3649
 131   2.0000      -0.484607       -13.1868
 132   2.0000      -0.481558       -13.1039
 133   2.0000      -0.478378       -13.0173
 134   2.0000      -0.477507       -12.9936
 135   2.0000      -0.471841       -12.8394
 136   2.0000      -0.462768       -12.5926
 137   2.0000      -0.460993       -12.5443
 138   2.0000      -0.459560       -12.5053
 139   2.0000      -0.457683       -12.4542
 140   2.0000      -0.457431       -12.4473
 141   2.0000      -0.456163       -12.4128
 142   2.0000      -0.455067       -12.3830
 143   2.0000      -0.443055       -12.0562
 144   2.0000      -0.438506       -11.9324
 145   2.0000      -0.436977       -11.8908
 146   2.0000      -0.432939       -11.7809
 147   2.0000      -0.431667       -11.7463
 148   2.0000      -0.429233       -11.6800
 149   2.0000      -0.425892       -11.5891
 150   2.0000      -0.420967       -11.4551
 151   2.0000      -0.417373       -11.3573
 152   2.0000      -0.409108       -11.1324
 153   2.0000      -0.408579       -11.1180
 154   2.0000      -0.401596       -10.9280
 155   2.0000      -0.390712       -10.6318
 156   2.0000      -0.386457       -10.5160
 157   2.0000      -0.382152       -10.3989
 158   2.0000      -0.379223       -10.3192
 159   2.0000      -0.377327       -10.2676
 160   2.0000      -0.375087       -10.2066
 161   2.0000      -0.366522        -9.9736
 162   2.0000      -0.360690        -9.8149
 163   2.0000      -0.355063        -9.6617
 164   2.0000      -0.353001        -9.6056
 165   2.0000      -0.333264        -9.0686
 166   2.0000      -0.301422        -8.2021
 167   2.0000      -0.273163        -7.4332
 168   0.0000      -0.119366        -3.2481
 169   0.0000      -0.091657        -2.4941
 170   0.0000      -0.080241        -2.1835
 171   0.0000      -0.047511        -1.2929
 172   0.0000      -0.024021        -0.6537

MULLIKEN ATOMIC CHARGES
-----------------------
   0 C :   -0.002347
   1 C :    0.049465
   2 C :   -0.000178
   3 C :   -0.052185
   4 S :    0.718820
   5 O :   -0.438292
   6 O :   -0.438005
   7 C :   -0.045249
   8 S :    0.263863
   9 C :   -0.096913
  10 C :   -0.003928
  11 C :   -0.014161
  12 C :   -0.269967
  13 N :    0.220326
  14 C :   -0.262193
  15 N :    0.201920
  16 C :    0.057507
  17 C :    0.018977
  18 C :    0.002313
  19 C :    0.026105
  20 C :   -0.001340
  21 C :   -0.033010
  22 S :    0.727381
  23 O :   -0.438589
  24 O :   -0.438131
  25 C :   -0.043208
  26 S :    0.257411
  27 C :   -0.090553
  28 C :   -0.008750
  29 C :   -0.009977
  30 C :   -0.273115
  31 N :    0.217922
  32 C :   -0.260008
  33 N :    0.197879
  34 C :    0.060753
  35 C :    0.018055
  36 C :   -0.019242
  37 C :    0.009247
  38 C :    0.043607
  39 C :   -0.006998
  40 S :    0.739779
  41 O :   -0.450119
  42 O :   -0.449999
  43 H :    0.060391
  44 H :    0.027474
  45 H :    0.031833
  46 H :    0.016175
  47 H :    0.013105
  48 H :    0.017198
  49 H :    0.025448
  50 H :    0.016091
  51 H :    0.010445
  52 H :    0.017895
  53 H :    0.023594
  54 H :    0.055478
Sum of atomic charges:   -0.0000000

LOEWDIN ATOMIC CHARGES
----------------------
   0 C :   -0.140275
   1 C :   -0.006605
   2 C :   -0.007002
   3 C :   -0.169232
   4 S :    1.151632
   5 O :   -0.483255
   6 O :   -0.483034
   7 C :   -0.154038
   8 S :    0.542242
   9 C :   -0.133635
  10 C :   -0.079754
  11 C :   -0.071279
  12 C :   -0.027769
  13 N :   -0.029008
  14 C :   -0.029139
  15 N :   -0.031941
  16 C :   -0.026893
  17 C :   -0.009724
  18 C :   -0.140767
  19 C :   -0.008819
  20 C :   -0.003054
  21 C :   -0.169961
  22 S :    1.155861
  23 O :   -0.482044
  24 O :   -0.481687
  25 C :   -0.155354
  26 S :    0.536385
  27 C :   -0.129975
  28 C :   -0.081138
  29 C :   -0.072271
  30 C :   -0.028104
  31 N :   -0.030103
  32 C :   -0.028197
  33 N :   -0.033790
  34 C :   -0.029853
  35 C :   -0.006764
  36 C :   -0.142139
  37 C :   -0.018127
  38 C :   -0.013744
  39 C :   -0.141420
  40 S :    1.164195
  41 O :   -0.489971
  42 O :   -0.489818
  43 H :    0.042679
  44 H :    0.045493
  45 H :    0.045936
  46 H :    0.031269
  47 H :    0.047687
  48 H :    0.046846
  49 H :    0.048172
  50 H :    0.031189
  51 H :    0.045916
  52 H :    0.041520
  53 H :    0.042403
  54 H :    0.040256

  Mayer bond orders larger than 0.100000
B(  0-C ,  1-C ) :   1.7693 B(  0-C ,  4-S ) :   0.8218 B(  0-C , 43-H ) :   0.9757
B(  1-C ,  2-C ) :   1.0702 B(  1-C , 44-H ) :   0.9894 B(  2-C ,  3-C ) :   1.7044
B(  2-C , 45-H ) :   0.9865 B(  3-C ,  4-S ) :   0.7838 B(  3-C ,  7-C ) :   1.1874
B(  4-S ,  5-O ) :   1.7138 B(  4-S ,  6-O ) :   1.7123 B(  7-C ,  8-S ) :   1.1640
B(  7-C , 11-C ) :   1.4908 B(  8-S ,  9-C ) :   1.1539 B(  9-C , 10-C ) :   1.4361
B(  9-C , 16-C ) :   1.1636 B( 10-C , 11-C ) :   1.3651 B( 10-C , 14-C ) :   1.1613
B( 11-C , 12-C ) :   1.1560 B( 12-C , 13-N ) :   2.9715 B( 14-C , 15-N ) :   2.9399
B( 16-C , 17-C ) :   1.6312 B( 16-C , 46-H ) :   0.9252 B( 17-C , 18-C ) :   1.2181
B( 17-C , 47-H ) :   0.9676 B( 18-C , 19-C ) :   1.6175 B( 18-C , 22-S ) :   0.7772
B( 19-C , 20-C ) :   1.1004 B( 19-C , 48-H ) :   0.9966 B( 20-C , 21-C ) :   1.6553
B( 20-C , 49-H ) :   0.9889 B( 21-C , 22-S ) :   0.7725 B( 21-C , 25-C ) :   1.1997
B( 22-S , 23-O ) :   1.6964 B( 22-S , 24-O ) :   1.7003 B( 25-C , 26-S ) :   1.1575
B( 25-C , 29-C ) :   1.4805 B( 26-S , 27-C ) :   1.1543 B( 27-C , 28-C ) :   1.4411
B( 27-C , 34-C ) :   1.1537 B( 28-C , 29-C ) :   1.3616 B( 28-C , 32-C ) :   1.1611
B( 29-C , 30-C ) :   1.1590 B( 30-C , 31-N ) :   2.9648 B( 32-C , 33-N ) :   2.9403
B( 34-C , 35-C ) :   1.6514 B( 34-C , 50-H ) :   0.9250 B( 35-C , 36-C ) :   1.2046
B( 35-C , 51-H ) :   0.9701 B( 36-C , 37-C ) :   1.6684 B( 36-C , 40-S ) :   0.7900
B( 37-C , 38-C ) :   1.0789 B( 37-C , 52-H ) :   0.9988 B( 38-C , 39-C ) :   1.7705
B( 38-C , 53-H ) :   0.9912 B( 39-C , 40-S ) :   0.8240 B( 39-C , 54-H ) :   0.9764
B( 40-S , 41-O ) :   1.6959 B( 40-S , 42-O ) :   1.7004

-----------------------------------------------------------------------------
         ABSORPTION SPECTRUM VIA TRANSITION ELECTRIC DIPOLE MOMENTS
-----------------------------------------------------------------------------
State   Energy  Wavelength   fosc         T2         TX        TY        TZ
        (cm-1)    (nm)                  (au**2)     (au)      (au)      (au)
-----------------------------------------------------------------------------
   0   18630.9    536.7   1.528943980  27.01677  -0.96131   4.53868  -2.34372
   1   25644.8    389.9   0.018977274   0.24362   0.06093  -0.46841   0.14317
   2   26098.0    383.2   0.912457255  11.51015  -0.71978  -1.66766  -2.86548
   3   27674.9    361.3   0.056362641   0.67047   0.34338   0.02372   0.74297
   4   31699.8    315.5   0.003031382   0.03148  -0.13903   0.05813  -0.09367
   5   32752.8    305.3   0.023154019   0.23273   0.04995  -0.47982   0.00332
   6   33048.5    302.6   0.000315871   0.00315  -0.03757  -0.02202   0.03535
   7   33776.0    296.1   0.105162953   1.02502  -0.31286   0.33276  -0.90355
   8   34324.0    291.3   0.093851615   0.90016   0.10171   0.77098   0.54351
   9   34946.3    286.2   0.170242415   1.60377   0.26110   0.21684   1.22007
  10   35596.4    280.9   0.032012969   0.29607   0.08620  -0.14988   0.51592
  11   36429.2    274.5   0.001215753   0.01099   0.10402   0.00877   0.00943
  12   37097.4    269.6   0.002442134   0.02167  -0.01947  -0.10781  -0.09833
  13   37274.6    268.3   0.026124190   0.23073   0.06113   0.41869   0.22737
  14   38905.3    257.0   0.009776911   0.08273   0.07227   0.24751   0.12746
  15   38914.6    257.0   0.048668715   0.41173   0.07532  -0.54584   0.32880
  16   39726.8    251.7   0.036808147   0.30503  -0.12879  -0.00971  -0.53698
  17   39931.8    250.4   0.046328175   0.38195  -0.05659  -0.43093  -0.43937
  18   40226.2    248.6   0.061654379   0.50458   0.05405  -0.70620   0.05429

FINAL SINGLE POINT ENERGY     -3732.307426032547

DIPOLE MOMENT
-------------
                                X             Y             Z
Electronic contribution:      2.82333      -5.11058       8.52010
Nuclear contribution   :     -3.03569       4.41507      -9.85693
                        -----------------------------------------
Total Dipole Moment    :     -0.21236      -0.69552      -1.33683
                        -----------------------------------------
Magnitude (a.u.)       :      1.52183
Magnitude (Debye)      :      3.86818

Rotational constants in cm-1:     0.003426     0.000766     0.000633
Rotational constants in MHz :   102.715025    22.955604    18.988627

                             ****ORCA TERMINATED NORMALLY****
TOTAL RUN TIME: 0 days 0 hours 4 minutes 0 seconds 755 msec
