                         Program Version 4.2.0 -  RELEASE  -
|  1> # ORCA input file
|  2> # SCF done       -197.111607976166          0.000650375313
|  3> ! CAM-B3LYP def2-SVP def2/J RIJCOSX Grid4 TightSCF
|  4> %maxcore 5000
|  5> %tddft
|  6>     Mode sTDDFT
|  7>     Ethresh 5.0
|  8>     maxcore 5000
|  9> end
| 10>
| 11> %pal
| 12>   nprocs 6
| 13>   end
| 14> * xyz 0 1
| 15>    C        0.97944        -0.00832         6.40218
| 16>    S        1.31841         1.63250         6.06119
| 17>    C       -0.31321         2.09334         6.49444
| 18>    C       -1.04993         0.99784         6.88469
| 19>    C       -0.30597        -0.20466         6.80981
| 20>    C       -0.95588        -1.52861         7.05105
| 21>    C       -2.41108        -1.41805         6.56684
| 22>    C       -2.41590        -1.01629         5.17866
| 23>    N       -2.39949        -0.65579         4.09434
| 24>    C       -3.14537        -0.34184         7.39980
| 25>    C       -3.15035        -0.76267         8.78447
| 26>    N       -3.15885        -1.12429         9.86794
| 27>    C       -2.49775         1.04929         7.25078
| 28>    C       -0.68550         3.46817         6.33379
| 29>    C       -1.19756         4.37316         7.24175
| 30>    N       -1.51458         4.16811         8.59047
| 31>    O       -1.87500         5.13462         9.24063
| 32>    O       -1.40815         3.03858         9.05081
| 33>    C       -1.24589         5.68537         6.63245
| 34>    C       -0.73110         5.60471         5.38513
| 35>    C       -0.39108         4.23234         5.11330
| 36>    C       -0.04891         3.68479         3.89493
| 37>    C       -0.33346         2.35871         3.43902
| 38>    C       -0.05974         2.29121         2.11011
| 39>    C        0.46051         3.55313         1.66148
| 40>    N        0.90485         3.69476         0.33881
| 41>    O        1.14464         4.81008        -0.10530
| 42>    O        1.02294         2.67489        -0.31992
| 43>    C        0.50622         4.43713         2.74501
| 44>    C        1.12990         5.68123         2.95751
| 45>    C        1.47590         6.62909         2.03105
| 46>    C        2.11651         7.82359         2.40579
| 47>    N        2.44575         8.82252         1.51629
| 48>    C        2.27187         8.76991         0.08212
| 49>    C        3.27312         7.83616        -0.58939
| 50>    C        3.04238         9.91457         2.14758
| 51>    O        3.39046        10.93161         1.56828
| 52>    C        3.08935         9.54622         3.54707
| 53>    C        2.51449         8.26440         3.67657
| 54>    C        2.55630         7.89740         5.07842
| 55>    O        2.16747         6.91225         5.67361
| 56>    N        3.17681         8.99089         5.70557
| 57>    C        3.37301         9.02580         7.13704
| 58>    C        4.77498         8.56411         7.52623
| 59>    C        3.50710         9.97452         4.81436
| 60>    C        4.15563        11.17433         5.20290
| 61>    C        4.28917        12.23397         4.37364
| 62>    C        4.89481        13.48857         4.73810
| 63>    C        4.89067        13.98923         6.05429
| 64>    C        4.16633        13.56339         7.28105
| 65>    O        3.41473        12.64362         7.46450
| 66>    O        4.46114        14.43290         8.27179
| 67>    C        5.33190        15.45562         7.83006
| 68>    C        5.56178        15.16185         6.38500
| 69>    C        6.26603        15.88664         5.44137
| 70>    C        6.23870        15.43649         4.13796
| 71>    C        5.55984        14.27082         3.75607
| 72>    C        5.53572        13.91300         2.34995
| 73>    C        6.54578        14.18964         1.50356
| 74>    C        6.59395        14.01879         0.08583
| 75>    S        8.10220        14.44403        -0.68736
| 76>    C        7.43903        14.17148        -2.23661
| 77>    C        6.13775        13.76800        -2.18077
| 78>    C        5.64813        13.65949        -0.85586
| 79>    C        4.24039        13.25553        -0.55181
| 80>    C        3.47081        12.80780        -1.80661
| 81>    C        3.78908        11.43655        -2.13127
| 82>    N        4.04275        10.35844        -2.41292
| 83>    C        3.81003        13.69173        -3.02749
| 84>    C        3.54755        15.07627        -2.70850
| 85>    N        3.35143        16.17043        -2.44440
| 86>    C        5.29106        13.50776        -3.38758
| 87>    H        1.74651        -0.74710         6.27964
| 88>    H       -0.95180        -1.77776         8.11619
| 89>    H       -0.42567        -2.31620         6.51215
| 90>    H       -2.92572        -2.38071         6.66430
| 91>    H       -4.19300        -0.28406         7.07829
| 92>    H       -2.58636         1.59005         8.20026
| 93>    H       -3.03590         1.62623         6.49281
| 94>    H       -1.63153         6.55076         7.13617
| 95>    H       -0.68333         6.39947         4.66793
| 96>    H       -0.80261         1.58688         4.01709
| 97>    H       -0.20654         1.44992         1.45945
| 98>    H        1.35047         5.89678         3.99508
| 99>    H        1.23723         6.48235         0.99047
|100>    H        2.42913         9.79031        -0.27577
|101>    H        1.24770         8.46693        -0.15055
|102>    H        4.28339         8.08303        -0.27246
|103>    H        3.21418         7.96666        -1.66514
|104>    H        3.06714         6.79647        -0.35155
|105>    H        2.63510         8.34102         7.56377
|106>    H        3.17551        10.03662         7.50141
|107>    H        4.93996         7.54364         7.18839
|108>    H        4.88010         8.59354         8.60681
|109>    H        5.53569         9.20359         7.08378
|110>    H        4.52895        11.22062         6.21115
|111>    H        3.95097        12.12326         3.35319
|112>    H        6.25354        15.42038         8.42245
|113>    H        4.85019        16.42579         7.99431
|114>    H        6.78999        16.79037         5.70994
|115>    H        6.72689        16.02158         3.37437
|116>    H        4.65344        13.41093         1.99267
|117>    H        7.46130        14.60186         1.91103
|118>    H        8.03849        14.32854        -3.11130
|119>    H        3.71783        14.10749        -0.10371
|120>    H        4.22609        12.43515         0.17065
|121>    H        2.39494        12.85633        -1.59724
|122>    H        3.17971        13.41009        -3.87994
|123>    H        5.57499        14.18606        -4.19563
|124>    H        5.44412        12.48280        -3.74052
|125> *
|126>
|127>                          ****END OF INPUT****

CARTESIAN COORDINATES (ANGSTROEM)
---------------------------------
  C      0.979440   -0.008320    6.402180
  S      1.318410    1.632500    6.061190
  C     -0.313210    2.093340    6.494440
  C     -1.049930    0.997840    6.884690
  C     -0.305970   -0.204660    6.809810
  C     -0.955880   -1.528610    7.051050
  C     -2.411080   -1.418050    6.566840
  C     -2.415900   -1.016290    5.178660
  N     -2.399490   -0.655790    4.094340
  C     -3.145370   -0.341840    7.399800
  C     -3.150350   -0.762670    8.784470
  N     -3.158850   -1.124290    9.867940
  C     -2.497750    1.049290    7.250780
  C     -0.685500    3.468170    6.333790
  C     -1.197560    4.373160    7.241750
  N     -1.514580    4.168110    8.590470
  O     -1.875000    5.134620    9.240630
  O     -1.408150    3.038580    9.050810
  C     -1.245890    5.685370    6.632450
  C     -0.731100    5.604710    5.385130
  C     -0.391080    4.232340    5.113300
  C     -0.048910    3.684790    3.894930
  C     -0.333460    2.358710    3.439020
  C     -0.059740    2.291210    2.110110
  C      0.460510    3.553130    1.661480
  N      0.904850    3.694760    0.338810
  O      1.144640    4.810080   -0.105300
  O      1.022940    2.674890   -0.319920
  C      0.506220    4.437130    2.745010
  C      1.129900    5.681230    2.957510
  C      1.475900    6.629090    2.031050
  C      2.116510    7.823590    2.405790
  N      2.445750    8.822520    1.516290
  C      2.271870    8.769910    0.082120
  C      3.273120    7.836160   -0.589390
  C      3.042380    9.914570    2.147580
  O      3.390460   10.931610    1.568280
  C      3.089350    9.546220    3.547070
  C      2.514490    8.264400    3.676570
  C      2.556300    7.897400    5.078420
  O      2.167470    6.912250    5.673610
  N      3.176810    8.990890    5.705570
  C      3.373010    9.025800    7.137040
  C      4.774980    8.564110    7.526230
  C      3.507100    9.974520    4.814360
  C      4.155630   11.174330    5.202900
  C      4.289170   12.233970    4.373640
  C      4.894810   13.488570    4.738100
  C      4.890670   13.989230    6.054290
  C      4.166330   13.563390    7.281050
  O      3.414730   12.643620    7.464500
  O      4.461140   14.432900    8.271790
  C      5.331900   15.455620    7.830060
  C      5.561780   15.161850    6.385000
  C      6.266030   15.886640    5.441370
  C      6.238700   15.436490    4.137960
  C      5.559840   14.270820    3.756070
  C      5.535720   13.913000    2.349950
  C      6.545780   14.189640    1.503560
  C      6.593950   14.018790    0.085830
  S      8.102200   14.444030   -0.687360
  C      7.439030   14.171480   -2.236610
  C      6.137750   13.768000   -2.180770
  C      5.648130   13.659490   -0.855860
  C      4.240390   13.255530   -0.551810
  C      3.470810   12.807800   -1.806610
  C      3.789080   11.436550   -2.131270
  N      4.042750   10.358440   -2.412920
  C      3.810030   13.691730   -3.027490
  C      3.547550   15.076270   -2.708500
  N      3.351430   16.170430   -2.444400
  C      5.291060   13.507760   -3.387580
  H      1.746510   -0.747100    6.279640
  H     -0.951800   -1.777760    8.116190
  H     -0.425670   -2.316200    6.512150
  H     -2.925720   -2.380710    6.664300
  H     -4.193000   -0.284060    7.078290
  H     -2.586360    1.590050    8.200260
  H     -3.035900    1.626230    6.492810
  H     -1.631530    6.550760    7.136170
  H     -0.683330    6.399470    4.667930
  H     -0.802610    1.586880    4.017090
  H     -0.206540    1.449920    1.459450
  H      1.350470    5.896780    3.995080
  H      1.237230    6.482350    0.990470
  H      2.429130    9.790310   -0.275770
  H      1.247700    8.466930   -0.150550
  H      4.283390    8.083030   -0.272460
  H      3.214180    7.966660   -1.665140
  H      3.067140    6.796470   -0.351550
  H      2.635100    8.341020    7.563770
  H      3.175510   10.036620    7.501410
  H      4.939960    7.543640    7.188390
  H      4.880100    8.593540    8.606810
  H      5.535690    9.203590    7.083780
  H      4.528950   11.220620    6.211150
  H      3.950970   12.123260    3.353190
  H      6.253540   15.420380    8.422450
  H      4.850190   16.425790    7.994310
  H      6.789990   16.790370    5.709940
  H      6.726890   16.021580    3.374370
  H      4.653440   13.410930    1.992670
  H      7.461300   14.601860    1.911030
  H      8.038490   14.328540   -3.111300
  H      3.717830   14.107490   -0.103710
  H      4.226090   12.435150    0.170650
  H      2.394940   12.856330   -1.597240
  H      3.179710   13.410090   -3.879940
  H      5.574990   14.186060   -4.195630
  H      5.444120   12.482800   -3.740520

 Total Charge           Charge          ....    0
 Multiplicity           Mult            ....    1
 Number of Electrons    NEL             ....  514
 Basis Dimension        Dim             .... 1206

ORBITAL ENERGIES
----------------

  NO   OCC          E(Eh)            E(eV)
   0   2.0000     -88.962007     -2420.7793
   1   2.0000     -88.957625     -2420.6600
   2   2.0000     -19.267963      -524.3079
   3   2.0000     -19.233795      -523.3782
   4   2.0000     -19.233180      -523.3614
   5   2.0000     -19.232933      -523.3547
   6   2.0000     -19.230570      -523.2904
   7   2.0000     -19.207864      -522.6726
   8   2.0000     -19.204504      -522.5811
   9   2.0000     -19.196899      -522.3742
  10   2.0000     -14.641570      -398.4174
  11   2.0000     -14.640511      -398.3886
  12   2.0000     -14.460875      -393.5004
  13   2.0000     -14.455641      -393.3580
  14   2.0000     -14.416285      -392.2871
  15   2.0000     -14.415270      -392.2594
  16   2.0000     -14.411671      -392.1615
  17   2.0000     -14.408573      -392.0772
  18   2.0000     -10.410639      -283.2879
  19   2.0000     -10.383895      -282.5602
  20   2.0000     -10.379753      -282.4474
  21   2.0000     -10.350260      -281.6449
  22   2.0000     -10.348431      -281.5951
  23   2.0000     -10.338832      -281.3339
  24   2.0000     -10.338282      -281.3190
  25   2.0000     -10.337714      -281.3035
  26   2.0000     -10.336611      -281.2735
  27   2.0000     -10.336569      -281.2723
  28   2.0000     -10.325606      -280.9740
  29   2.0000     -10.324437      -280.9422
  30   2.0000     -10.321992      -280.8757
  31   2.0000     -10.317999      -280.7670
  32   2.0000     -10.317553      -280.7549
  33   2.0000     -10.316847      -280.7357
  34   2.0000     -10.315592      -280.7015
  35   2.0000     -10.314651      -280.6759
  36   2.0000     -10.310968      -280.5757
  37   2.0000     -10.310404      -280.5604
  38   2.0000     -10.308867      -280.5185
  39   2.0000     -10.307090      -280.4702
  40   2.0000     -10.305208      -280.4190
  41   2.0000     -10.304943      -280.4117
  42   2.0000     -10.303559      -280.3741
  43   2.0000     -10.302134      -280.3353
  44   2.0000     -10.301302      -280.3127
  45   2.0000     -10.300091      -280.2797
  46   2.0000     -10.299236      -280.2564
  47   2.0000     -10.299165      -280.2545
  48   2.0000     -10.298332      -280.2319
  49   2.0000     -10.298238      -280.2293
  50   2.0000     -10.296675      -280.1868
  51   2.0000     -10.295550      -280.1561
  52   2.0000     -10.295410      -280.1524
  53   2.0000     -10.293421      -280.0982
  54   2.0000     -10.292813      -280.0817
  55   2.0000     -10.292772      -280.0806
  56   2.0000     -10.291020      -280.0329
  57   2.0000     -10.290268      -280.0124
  58   2.0000     -10.290014      -280.0055
  59   2.0000     -10.289657      -279.9958
  60   2.0000     -10.288151      -279.9548
  61   2.0000     -10.286321      -279.9050
  62   2.0000     -10.286010      -279.8966
  63   2.0000     -10.285991      -279.8961
  64   2.0000     -10.284328      -279.8508
  65   2.0000     -10.281873      -279.7840
  66   2.0000     -10.278364      -279.6885
  67   2.0000     -10.274736      -279.5898
  68   2.0000     -10.272508      -279.5292
  69   2.0000     -10.267594      -279.3954
  70   2.0000     -10.262486      -279.2564
  71   2.0000     -10.244455      -278.7658
  72   2.0000      -8.057105      -219.2450
  73   2.0000      -8.053678      -219.1517
  74   2.0000      -6.026422      -163.9873
  75   2.0000      -6.022796      -163.8886
  76   2.0000      -6.022091      -163.8694
  77   2.0000      -6.019420      -163.7968
  78   2.0000      -6.018714      -163.7775
  79   2.0000      -6.016066      -163.7055
  80   2.0000      -1.311413       -35.6854
  81   2.0000      -1.310181       -35.6518
  82   2.0000      -1.204831       -32.7851
  83   2.0000      -1.142518       -31.0895
  84   2.0000      -1.132764       -30.8241
  85   2.0000      -1.128391       -30.7051
  86   2.0000      -1.126194       -30.6453
  87   2.0000      -1.114247       -30.3202
  88   2.0000      -1.071667       -29.1615
  89   2.0000      -1.060449       -28.8563
  90   2.0000      -1.019181       -27.7333
  91   2.0000      -1.016297       -27.6548
  92   2.0000      -1.011591       -27.5268
  93   2.0000      -0.998953       -27.1829
  94   2.0000      -0.997127       -27.1332
  95   2.0000      -0.994021       -27.0487
  96   2.0000      -0.990730       -26.9591
  97   2.0000      -0.986277       -26.8380
  98   2.0000      -0.983602       -26.7652
  99   2.0000      -0.951859       -25.9014
 100   2.0000      -0.950813       -25.8729
 101   2.0000      -0.931260       -25.3409
 102   2.0000      -0.920306       -25.0428
 103   2.0000      -0.913642       -24.8615
 104   2.0000      -0.909086       -24.7375
 105   2.0000      -0.905507       -24.6401
 106   2.0000      -0.887215       -24.1424
 107   2.0000      -0.885566       -24.0975
 108   2.0000      -0.876143       -23.8411
 109   2.0000      -0.873531       -23.7700
 110   2.0000      -0.864208       -23.5163
 111   2.0000      -0.862397       -23.4670
 112   2.0000      -0.857106       -23.3230
 113   2.0000      -0.851977       -23.1835
 114   2.0000      -0.847960       -23.0742
 115   2.0000      -0.841834       -22.9075
 116   2.0000      -0.827277       -22.5114
 117   2.0000      -0.817502       -22.2454
 118   2.0000      -0.811028       -22.0692
 119   2.0000      -0.806939       -21.9579
 120   2.0000      -0.787344       -21.4247
 121   2.0000      -0.782211       -21.2850
 122   2.0000      -0.762531       -20.7495
 123   2.0000      -0.757147       -20.6030
 124   2.0000      -0.756613       -20.5885
 125   2.0000      -0.750076       -20.4106
 126   2.0000      -0.746972       -20.3261
 127   2.0000      -0.746077       -20.3018
 128   2.0000      -0.740262       -20.1435
 129   2.0000      -0.722147       -19.6506
 130   2.0000      -0.720910       -19.6169
 131   2.0000      -0.715393       -19.4668
 132   2.0000      -0.705541       -19.1988
 133   2.0000      -0.691041       -18.8042
 134   2.0000      -0.684030       -18.6134
 135   2.0000      -0.679990       -18.5035
 136   2.0000      -0.671372       -18.2690
 137   2.0000      -0.664577       -18.0841
 138   2.0000      -0.663046       -18.0424
 139   2.0000      -0.658225       -17.9112
 140   2.0000      -0.650574       -17.7030
 141   2.0000      -0.643664       -17.5150
 142   2.0000      -0.637925       -17.3588
 143   2.0000      -0.634849       -17.2751
 144   2.0000      -0.630682       -17.1617
 145   2.0000      -0.625682       -17.0257
 146   2.0000      -0.622080       -16.9277
 147   2.0000      -0.621201       -16.9037
 148   2.0000      -0.616759       -16.7829
 149   2.0000      -0.615764       -16.7558
 150   2.0000      -0.612022       -16.6540
 151   2.0000      -0.600453       -16.3392
 152   2.0000      -0.599133       -16.3032
 153   2.0000      -0.598437       -16.2843
 154   2.0000      -0.597962       -16.2714
 155   2.0000      -0.594599       -16.1799
 156   2.0000      -0.591199       -16.0874
 157   2.0000      -0.589854       -16.0507
 158   2.0000      -0.585814       -15.9408
 159   2.0000      -0.583198       -15.8696
 160   2.0000      -0.582266       -15.8443
 161   2.0000      -0.579297       -15.7635
 162   2.0000      -0.577874       -15.7248
 163   2.0000      -0.568593       -15.4722
 164   2.0000      -0.563972       -15.3465
 165   2.0000      -0.556629       -15.1467
 166   2.0000      -0.552534       -15.0352
 167   2.0000      -0.551025       -14.9942
 168   2.0000      -0.549795       -14.9607
 169   2.0000      -0.547652       -14.9024
 170   2.0000      -0.541054       -14.7228
 171   2.0000      -0.538030       -14.6406
 172   2.0000      -0.537319       -14.6212
 173   2.0000      -0.535162       -14.5625
 174   2.0000      -0.531775       -14.4703
 175   2.0000      -0.531433       -14.4610
 176   2.0000      -0.529649       -14.4125
 177   2.0000      -0.524302       -14.2670
 178   2.0000      -0.520796       -14.1716
 179   2.0000      -0.518486       -14.1087
 180   2.0000      -0.516845       -14.0641
 181   2.0000      -0.515780       -14.0351
 182   2.0000      -0.511805       -13.9269
 183   2.0000      -0.508073       -13.8254
 184   2.0000      -0.505284       -13.7495
 185   2.0000      -0.503311       -13.6958
 186   2.0000      -0.500251       -13.6125
 187   2.0000      -0.499106       -13.5814
 188   2.0000      -0.497951       -13.5499
 189   2.0000      -0.496590       -13.5129
 190   2.0000      -0.492455       -13.4004
 191   2.0000      -0.490142       -13.3374
 192   2.0000      -0.486156       -13.2290
 193   2.0000      -0.482950       -13.1417
 194   2.0000      -0.480610       -13.0781
 195   2.0000      -0.479179       -13.0391
 196   2.0000      -0.475257       -12.9324
 197   2.0000      -0.472519       -12.8579
 198   2.0000      -0.471868       -12.8402
 199   2.0000      -0.469150       -12.7662
 200   2.0000      -0.466191       -12.6857
 201   2.0000      -0.464617       -12.6429
 202   2.0000      -0.462666       -12.5898
 203   2.0000      -0.459558       -12.5052
 204   2.0000      -0.456406       -12.4194
 205   2.0000      -0.454086       -12.3563
 206   2.0000      -0.451116       -12.2755
 207   2.0000      -0.449458       -12.2304
 208   2.0000      -0.448279       -12.1983
 209   2.0000      -0.447508       -12.1773
 210   2.0000      -0.444452       -12.0942
 211   2.0000      -0.443922       -12.0797
 212   2.0000      -0.443188       -12.0597
 213   2.0000      -0.441181       -12.0051
 214   2.0000      -0.438949       -11.9444
 215   2.0000      -0.436256       -11.8711
 216   2.0000      -0.435524       -11.8512
 217   2.0000      -0.434104       -11.8126
 218   2.0000      -0.432660       -11.7733
 219   2.0000      -0.430384       -11.7113
 220   2.0000      -0.429107       -11.6766
 221   2.0000      -0.427979       -11.6459
 222   2.0000      -0.426526       -11.6064
 223   2.0000      -0.425093       -11.5674
 224   2.0000      -0.423730       -11.5303
 225   2.0000      -0.422424       -11.4947
 226   2.0000      -0.414448       -11.2777
 227   2.0000      -0.411567       -11.1993
 228   2.0000      -0.409803       -11.1513
 229   2.0000      -0.402293       -10.9469
 230   2.0000      -0.401872       -10.9355
 231   2.0000      -0.398407       -10.8412
 232   2.0000      -0.396657       -10.7936
 233   2.0000      -0.394286       -10.7291
 234   2.0000      -0.384351       -10.4587
 235   2.0000      -0.382890       -10.4190
 236   2.0000      -0.381061       -10.3692
 237   2.0000      -0.379273       -10.3205
 238   2.0000      -0.375580       -10.2200
 239   2.0000      -0.372312       -10.1311
 240   2.0000      -0.365638        -9.9495
 241   2.0000      -0.359132        -9.7725
 242   2.0000      -0.358585        -9.7576
 243   2.0000      -0.357333        -9.7235
 244   2.0000      -0.355180        -9.6649
 245   2.0000      -0.341465        -9.2917
 246   2.0000      -0.340812        -9.2740
 247   2.0000      -0.335329        -9.1248
 248   2.0000      -0.327513        -8.9121
 249   2.0000      -0.320783        -8.7290
 250   2.0000      -0.319129        -8.6839
 251   2.0000      -0.315124        -8.5750
 252   2.0000      -0.314754        -8.5649
 253   2.0000      -0.296521        -8.0687
 254   2.0000      -0.282914        -7.6985
 255   2.0000      -0.269847        -7.3429
 256   2.0000      -0.238409        -6.4874
 257   0.0000      -0.130688        -3.5562
 258   0.0000      -0.083784        -2.2799
 259   0.0000      -0.047078        -1.2811
 260   0.0000      -0.038019        -1.0345
 261   0.0000      -0.026668        -0.7257

MULLIKEN ATOMIC CHARGES
-----------------------
   0 C :   -0.120931
   1 S :    0.170867
   2 C :   -0.298870
   3 C :    0.073536
   4 C :   -0.094967
   5 C :    0.202755
   6 C :   -0.112818
   7 C :   -0.206893
   8 N :    0.121539
   9 C :   -0.080377
  10 C :   -0.257198
  11 N :    0.147105
  12 C :    0.157199
  13 C :    0.036389
  14 C :    0.076413
  15 N :    0.272124
  16 O :   -0.244328
  17 O :   -0.251459
  18 C :    0.008669
  19 C :    0.032961
  20 C :    0.025854
  21 C :    0.015685
  22 C :    0.034930
  23 C :    0.018489
  24 C :    0.068924
  25 N :    0.276918
  26 O :   -0.262189
  27 O :   -0.247752
  28 C :    0.093397
  29 C :   -0.106756
  30 C :   -0.001000
  31 C :    0.133120
  32 N :   -0.249902
  33 C :    0.101126
  34 C :    0.013656
  35 C :    0.173471
  36 O :   -0.231294
  37 C :   -0.066330
  38 C :   -0.060220
  39 C :    0.168360
  40 O :   -0.196890
  41 N :   -0.248800
  42 C :    0.086062
  43 C :    0.005806
  44 C :    0.117267
  45 C :    0.037113
  46 C :   -0.022181
  47 C :    0.066002
  48 C :   -0.088661
  49 C :    0.210747
  50 O :   -0.170258
  51 O :   -0.277805
  52 C :    0.328382
  53 C :   -0.108369
  54 C :   -0.019430
  55 C :   -0.028613
  56 C :    0.079385
  57 C :   -0.054132
  58 C :    0.066582
  59 C :   -0.164931
  60 S :    0.120978
  61 C :   -0.125122
  62 C :   -0.060637
  63 C :   -0.032720
  64 C :    0.102768
  65 C :   -0.055915
  66 C :   -0.233467
  67 N :    0.129368
  68 C :   -0.104492
  69 C :   -0.234855
  70 N :    0.145791
  71 C :    0.168608
  72 H :    0.018570
  73 H :    0.057950
  74 H :    0.023108
  75 H :    0.053248
  76 H :    0.055614
  77 H :    0.063761
  78 H :    0.029971
  79 H :   -0.001363
  80 H :   -0.003541
  81 H :   -0.005483
  82 H :    0.009706
  83 H :    0.037562
  84 H :    0.009090
  85 H :    0.024821
  86 H :    0.024858
  87 H :    0.014969
  88 H :    0.038913
  89 H :    0.020279
  90 H :    0.040193
  91 H :    0.053418
  92 H :    0.026530
  93 H :    0.029031
  94 H :    0.012119
  95 H :   -0.013419
  96 H :    0.009986
  97 H :    0.046239
  98 H :    0.043762
  99 H :   -0.018582
 100 H :   -0.004058
 101 H :    0.014694
 102 H :   -0.018752
 103 H :    0.015115
 104 H :    0.048834
 105 H :    0.086747
 106 H :    0.052369
 107 H :    0.052708
 108 H :    0.029118
 109 H :    0.054133
Sum of atomic charges:   -0.0000000

LOEWDIN ATOMIC CHARGES
----------------------
   0 C :   -0.179823
   1 S :    0.475131
   2 C :   -0.176725
   3 C :   -0.036844
   4 C :   -0.071201
   5 C :   -0.000809
   6 C :   -0.035840
   7 C :   -0.025115
   8 N :   -0.061238
   9 C :   -0.034085
  10 C :   -0.037331
  11 N :   -0.053145
  12 C :   -0.013876
  13 C :   -0.010506
  14 C :   -0.040922
  15 N :    0.286124
  16 O :   -0.209055
  17 O :   -0.209408
  18 C :    0.005454
  19 C :   -0.025293
  20 C :    0.029849
  21 C :    0.047243
  22 C :   -0.040891
  23 C :    0.021530
  24 C :   -0.047841
  25 N :    0.287001
  26 O :   -0.222532
  27 O :   -0.212297
  28 C :    0.009328
  29 C :   -0.000088
  30 C :   -0.003552
  31 C :    0.061956
  32 N :    0.009155
  33 C :    0.037584
  34 C :   -0.059821
  35 C :    0.085623
  36 O :   -0.221996
  37 C :   -0.124386
  38 C :   -0.102553
  39 C :    0.083416
  40 O :   -0.182262
  41 N :    0.011463
  42 C :    0.036856
  43 C :   -0.060098
  44 C :    0.094609
  45 C :   -0.019763
  46 C :    0.031027
  47 C :   -0.002099
  48 C :   -0.072409
  49 C :    0.090488
  50 O :   -0.162374
  51 O :   -0.078853
  52 C :    0.100699
  53 C :   -0.024717
  54 C :   -0.020654
  55 C :    0.009195
  56 C :   -0.004186
  57 C :   -0.030923
  58 C :   -0.026721
  59 C :   -0.174857
  60 S :    0.446312
  61 C :   -0.186316
  62 C :   -0.069994
  63 C :   -0.049492
  64 C :   -0.014427
  65 C :   -0.032213
  66 C :   -0.021280
  67 N :   -0.056223
  68 C :   -0.036883
  69 C :   -0.033857
  70 N :   -0.054794
  71 C :   -0.004309
  72 H :    0.025766
  73 H :    0.046756
  74 H :    0.039954
  75 H :    0.059635
  76 H :    0.062527
  77 H :    0.046477
  78 H :    0.041594
  79 H :    0.036453
  80 H :    0.031062
  81 H :    0.031689
  82 H :    0.040608
  83 H :    0.039586
  84 H :    0.030676
  85 H :    0.028606
  86 H :    0.025293
  87 H :    0.028065
  88 H :    0.034574
  89 H :    0.021711
  90 H :    0.037067
  91 H :    0.034242
  92 H :    0.030450
  93 H :    0.033232
  94 H :    0.020813
  95 H :    0.031110
  96 H :    0.035340
  97 H :    0.037697
  98 H :    0.037474
  99 H :    0.032975
 100 H :    0.034059
 101 H :    0.033465
 102 H :    0.025364
 103 H :    0.023487
 104 H :    0.044093
 105 H :    0.046587
 106 H :    0.062506
 107 H :    0.059557
 108 H :    0.041367
 109 H :    0.044921

  Mayer bond orders larger than 0.100000
B(  0-C ,  1-S ) :   1.1755 B(  0-C ,  2-C ) :   0.1006 B(  0-C ,  4-C ) :   1.5629
B(  0-C , 72-H ) :   0.9697 B(  1-S ,  2-C ) :   1.1537 B(  2-C ,  3-C ) :   1.5357
B(  2-C , 13-C ) :   1.0445 B(  3-C ,  4-C ) :   1.2721 B(  3-C , 12-C ) :   1.0786
B(  4-C ,  5-C ) :   1.0091 B(  5-C ,  6-C ) :   1.0462 B(  5-C , 73-H ) :   0.9122
B(  5-C , 74-H ) :   0.9240 B(  6-C ,  7-C ) :   1.0983 B(  6-C ,  9-C ) :   1.1024
B(  6-C , 75-H ) :   0.8582 B(  7-C ,  8-N ) :   3.0482 B(  9-C , 10-C ) :   1.1193
B(  9-C , 12-C ) :   1.0306 B(  9-C , 76-H ) :   0.8601 B( 10-C , 11-N ) :   3.1011
B( 12-C , 77-H ) :   0.8798 B( 12-C , 78-H ) :   0.8932 B( 13-C , 14-C ) :   1.5887
B( 13-C , 20-C ) :   1.0691 B( 14-C , 15-N ) :   0.9528 B( 14-C , 18-C ) :   1.1093
B( 15-N , 16-O ) :   1.5321 B( 15-N , 17-O ) :   1.4694 B( 16-O , 17-O ) :   0.2563
B( 18-C , 19-C ) :   1.6071 B( 18-C , 79-H ) :   1.0114 B( 19-C , 20-C ) :   1.1121
B( 19-C , 80-H ) :   1.0020 B( 20-C , 21-C ) :   1.4983 B( 21-C , 22-C ) :   1.1228
B( 21-C , 28-C ) :   1.0051 B( 22-C , 23-C ) :   1.5675 B( 22-C , 81-H ) :   1.0043
B( 23-C , 24-C ) :   1.1264 B( 23-C , 82-H ) :   1.0117 B( 24-C , 25-N ) :   0.9675
B( 24-C , 28-C ) :   1.4572 B( 25-N , 26-O ) :   1.4552 B( 25-N , 27-O ) :   1.5373
B( 26-O , 27-O ) :   0.2470 B( 28-C , 29-C ) :   1.1806 B( 29-C , 30-C ) :   1.5297
B( 29-C , 83-H ) :   0.9354 B( 30-C , 31-C ) :   1.1754 B( 30-C , 84-H ) :   0.9535
B( 31-C , 32-N ) :   1.1494 B( 31-C , 38-C ) :   1.3031 B( 32-N , 33-C ) :   0.9317
B( 32-N , 35-C ) :   1.0966 B( 33-C , 34-C ) :   1.1256 B( 33-C , 85-H ) :   0.9268
B( 33-C , 86-H ) :   0.9450 B( 34-C , 87-H ) :   0.9609 B( 34-C , 88-H ) :   0.9594
B( 34-C , 89-H ) :   0.9617 B( 35-C , 36-O ) :   1.9399 B( 35-C , 37-C ) :   1.0008
B( 37-C , 38-C ) :   1.2847 B( 37-C , 44-C ) :   1.2819 B( 38-C , 39-C ) :   0.9760
B( 39-C , 40-O ) :   2.0218 B( 39-C , 41-N ) :   1.0611 B( 40-O , 83-H ) :   0.1078
B( 41-N , 42-C ) :   0.9306 B( 41-N , 44-C ) :   1.1898 B( 42-C , 43-C ) :   1.1232
B( 42-C , 90-H ) :   0.9295 B( 42-C , 91-H ) :   0.9442 B( 43-C , 92-H ) :   0.9634
B( 43-C , 93-H ) :   0.9679 B( 43-C , 94-H ) :   0.9684 B( 44-C , 45-C ) :   1.1794
B( 45-C , 46-C ) :   1.6683 B( 45-C , 95-H ) :   0.9353 B( 46-C , 47-C ) :   1.0899
B( 46-C , 96-H ) :   0.9406 B( 47-C , 48-C ) :   1.2909 B( 47-C , 56-C ) :   1.3325
B( 48-C , 49-C ) :   0.9095 B( 48-C , 53-C ) :   1.4369 B( 49-C , 50-O ) :   2.1391
B( 49-C , 51-O ) :   1.1430 B( 51-O , 52-C ) :   0.9731 B( 52-C , 53-C ) :   1.0117
B( 52-C , 97-H ) :   0.9252 B( 52-C , 98-H ) :   0.9275 B( 53-C , 54-C ) :   1.3379
B( 54-C , 55-C ) :   1.3871 B( 54-C , 99-H ) :   1.0083 B( 55-C , 56-C ) :   1.3439
B( 55-C ,100-H ) :   0.9881 B( 56-C , 57-C ) :   1.0556 B( 57-C , 58-C ) :   1.7454
B( 57-C ,101-H ) :   0.9509 B( 58-C , 59-C ) :   1.1205 B( 58-C ,102-H ) :   0.9456
B( 59-C , 60-S ) :   1.1397 B( 59-C , 63-C ) :   1.5230 B( 60-S , 61-C ) :   1.1704
B( 61-C , 62-C ) :   1.5614 B( 61-C ,103-H ) :   0.9711 B( 62-C , 63-C ) :   1.2978
B( 62-C , 71-C ) :   1.0101 B( 63-C , 64-C ) :   1.0476 B( 64-C , 65-C ) :   1.0399
B( 64-C ,104-H ) :   0.8934 B( 64-C ,105-H ) :   0.8869 B( 65-C , 66-C ) :   1.1163
B( 65-C , 68-C ) :   1.0763 B( 65-C ,106-H ) :   0.8519 B( 66-C , 67-N ) :   3.0521
B( 68-C , 69-C ) :   1.1055 B( 68-C , 71-C ) :   1.0605 B( 68-C ,107-H ) :   0.8622
B( 69-C , 70-N ) :   3.1106 B( 71-C ,108-H ) :   0.9249 B( 71-C ,109-H ) :   0.9096

-----------------------------------------------------------------------------
         ABSORPTION SPECTRUM VIA TRANSITION ELECTRIC DIPOLE MOMENTS
-----------------------------------------------------------------------------
State   Energy  Wavelength   fosc         T2         TX        TY        TZ
        (cm-1)    (nm)                  (au**2)     (au)      (au)      (au)
-----------------------------------------------------------------------------
   0    7318.8   1366.3   0.231242884  10.40170  -1.59469  -2.80292   0.04814
   1   14027.7    712.9   0.019695412   0.46223  -0.34961   0.30534  -0.49675
   2   16881.1    592.4   0.216875104   4.22946   0.95037   1.44390   1.11418
   3   17735.6    563.8   0.132506125   2.45960  -0.70588  -1.23417  -0.66195
   4   19586.7    510.6   0.063430584   1.06614  -0.22765  -0.46905   0.89124
   5   21469.5    465.8   0.018985688   0.29113   0.34107   0.04542  -0.41561
   6   23011.5    434.6   0.035423647   0.50678  -0.23700   0.64154   0.19759
   7   23205.4    430.9   0.015264833   0.21656   0.06469  -0.41009  -0.21023
   8   24741.5    404.2   0.033580390   0.44682  -0.08856   0.39022   0.53545
   9   25438.3    393.1   0.026193861   0.33899   0.12685   0.03281  -0.56729
  10   26045.6    383.9   0.077405971   0.97840   0.23777  -0.06344  -0.95804
  11   26232.7    381.2   0.045836355   0.57523   0.27105   0.37188  -0.60288
  12   27656.1    361.6   0.035895184   0.42729  -0.05656   0.64337  -0.10082
  13   27673.1    361.4   0.109373587   1.30116  -0.34474  -0.44452   0.99233
  14   28004.7    357.1   0.103897953   1.22138   0.21175  -0.13216  -1.07660
  15   28306.6    353.3   0.242502630   2.82036   0.76829   1.43645  -0.40829
  16   29243.2    342.0   0.170660712   1.92125   0.28571  -0.09697  -1.35286
  17   30143.3    331.7   0.121554914   1.32757  -0.18180  -1.03817  -0.46554
  18   30301.3    330.0   0.173222489   1.88199   0.40255   1.25108   0.39339
  19   30761.0    325.1   0.007219547   0.07727  -0.04752  -0.01277   0.27358
  20   30869.3    323.9   0.070272293   0.74943  -0.22280   0.00737   0.83650
  21   30940.7    323.2   0.072940532   0.77609   0.25015   0.21481  -0.81693
  22   31633.2    316.1   0.009061016   0.09430   0.05607   0.03586  -0.29978
  23   31949.7    313.0   0.244923327   2.52371  -0.41744   0.45679   1.46314
  24   32478.9    307.9   0.018778622   0.19034   0.02674  -0.42370  -0.10055
  25   32708.5    305.7   0.022992396   0.23142  -0.12323   0.22152   0.40885
  26   33659.0    297.1   0.522469003   5.11017   0.40350  -0.18608  -2.21647
  27   34229.2    292.1   0.061611778   0.59257   0.40519  -0.34747  -0.55467
  28   34441.3    290.3   0.076087884   0.72730   0.05721  -0.37977  -0.76145
  29   34594.5    289.1   0.078991930   0.75171   0.10391  -0.69164  -0.51239
  30   34625.6    288.8   0.070717691   0.67237  -0.00123   0.32016   0.75489
  31   34855.3    286.9   0.014631664   0.13820  -0.11647   0.21674   0.27867
  32   35119.5    284.7   0.067927356   0.63675  -0.34039  -0.65528   0.30248
  33   35584.2    281.0   0.436510030   4.03843  -0.48978   0.80796   1.77363
  34   35701.5    280.1   0.070892550   0.65372  -0.12633  -0.29609  -0.74168
  35   36220.1    276.1   0.154276011   1.40225  -0.45626  -1.08545   0.12596
  36   36906.6    271.0   0.012902186   0.11509   0.00956   0.22759   0.25139
  37   36998.3    270.3   0.064042377   0.56985  -0.21139  -0.50090   0.52370
  38   37554.8    266.3   0.010564296   0.09261  -0.06684   0.06355   0.29000
  39   37883.1    264.0   0.104422107   0.90745  -0.29505  -0.07298   0.90281
  40   38258.9    261.4   0.025204538   0.21688   0.06584   0.20714   0.41187
  41   38403.0    260.4   0.009057930   0.07765   0.11338  -0.09288  -0.23699
  42   38526.5    259.6   0.079139225   0.67625  -0.35529   0.25864   0.69507
  43   39105.1    255.7   0.029536938   0.24866  -0.15369   0.20127   0.42957
  44   39363.2    254.0   0.005149984   0.04307  -0.05063   0.18089   0.08824

FINAL SINGLE POINT ENERGY     -3912.405805858652

DIPOLE MOMENT
-------------
                                X             Y             Z
Electronic contribution:    -11.36105     -15.04619       8.90116
Nuclear contribution   :     13.47804      17.28562      -9.57654
                        -----------------------------------------
Total Dipole Moment    :      2.11699       2.23943      -0.67538
                        -----------------------------------------
Magnitude (a.u.)       :      3.15481
Magnitude (Debye)      :      8.01889

Rotational constants in cm-1:     0.001633     0.000401     0.000337
Rotational constants in MHz :    48.956396    12.018765    10.113354

                             ****ORCA TERMINATED NORMALLY****
TOTAL RUN TIME: 0 days 0 hours 12 minutes 29 seconds 434 msec
