                         Program Version 4.2.0 -  RELEASE  -
|  1> # ORCA input file
|  2> # SCF done       -203.377552633266          0.000995223857
|  3> ! CAM-B3LYP def2-SVP def2/J RIJCOSX Grid4 TightSCF
|  4> %maxcore 5000
|  5> %tddft
|  6>     Mode sTDDFT
|  7>     Ethresh 5.0
|  8>     maxcore 5000
|  9> end
| 10>
| 11> %pal
| 12>   nprocs 6
| 13>   end
| 14> * xyz 0 1
| 15>    C        1.04735         2.58610         1.31727
| 16>    C       -0.16107         2.74800         0.69647
| 17>    C       -1.25958         1.88332         0.88825
| 18>    N       -2.18381         1.21764         1.02700
| 19>    C       -0.42628         3.74788        -0.26121
| 20>    N       -0.68361         4.51606        -1.07397
| 21>    C        1.43602         1.44099         2.13055
| 22>    C        2.86028         1.37931         2.18153
| 23>    C        3.51127         0.38056         2.84750
| 24>    C        2.75578        -0.60966         3.51425
| 25>    C        1.33211        -0.54178         3.48430
| 26>    C        0.68425         0.49810         2.77992
| 27>    C        0.59058        -1.52978         4.16382
| 28>    C        1.22247        -2.53921         4.83742
| 29>    C        2.62371        -2.60707         4.86377
| 30>    C        3.37392        -1.66342         4.21609
| 31>    C        3.42565         2.52494         1.45074
| 32>    O        4.58459         2.77582         1.22425
| 33>    C        2.24636         3.37729         1.09042
| 34>    C        2.44477         4.66837         0.75185
| 35>    C        1.48452         5.74609         0.69246
| 36>    C        1.69784         6.80902        -0.18239
| 37>    C        0.79024         7.85111        -0.25598
| 38>    N        1.15101         8.98971        -1.06499
| 39>    O        0.69848        10.06930        -0.74513
| 40>    O        1.92109         8.80435        -1.98206
| 41>    C       -0.37174         7.86481         0.52869
| 42>    C       -0.52624         6.84210         1.46898
| 43>    C        0.37759         5.80874         1.55092
| 44>    C       -1.38477         8.90122         0.46056
| 45>    N       -1.98755         9.37290        -0.67418
| 46>    C       -1.93259         8.79604        -1.99827
| 47>    C       -2.40964         7.34855        -2.01412
| 48>    C       -2.89245        10.41082        -0.37496
| 49>    O       -3.55025        10.99288        -1.21719
| 50>    C       -2.82459        10.55187         1.06050
| 51>    C       -1.90481         9.57803         1.54464
| 52>    C       -1.85599         9.68271         2.98925
| 53>    O       -1.23064         9.07108         3.82949
| 54>    N       -2.77871        10.70286         3.28565
| 55>    C       -3.03924        11.12176         4.64321
| 56>    C       -4.23072        10.37666         5.24043
| 57>    C       -3.35213        11.22584         2.15365
| 58>    C       -4.34710        12.24897         2.17858
| 59>    C       -4.65141        12.94158         1.06368
| 60>    C       -5.68207        13.94237         0.91350
| 61>    C       -6.13574        14.78870         1.93828
| 62>    C       -5.72376        14.95925         3.35554
| 63>    O       -4.90274        14.37285         4.00792
| 64>    O       -6.45033        15.96540         3.89214
| 65>    C       -7.34400        16.52589         2.95099
| 66>    C       -7.10514        15.76042         1.69234
| 67>    C       -7.67419        15.92901         0.44521
| 68>    C       -7.23362        15.11089        -0.57648
| 69>    C       -6.25202        14.13380        -0.37486
| 70>    C       -5.84652        13.29839        -1.48810
| 71>    C       -5.86524        13.69354        -2.78057
| 72>    C       -5.39749        12.84460        -3.81915
| 73>    C       -5.39121        13.18579        -5.13927
| 74>    C       -4.87071        12.39736        -6.24423
| 75>    C       -4.39642        11.11373        -6.18988
| 76>    C       -3.91220        10.40336        -7.30967
| 77>    N       -3.51338         9.76476        -8.17669
| 78>    C       -4.33460        10.29021        -5.04668
| 79>    N       -4.25200         9.52437        -4.19489
| 80>    C       -4.96278        13.20916        -7.45331
| 81>    C       -5.57668        14.45040        -7.12310
| 82>    C       -5.88843        14.47747        -5.68469
| 83>    O       -6.44650        15.37589        -5.08775
| 84>    C       -5.80247        15.41835        -8.05872
| 85>    C       -5.41179        15.18808        -9.39623
| 86>    C       -4.79114        13.95139        -9.73552
| 87>    C       -4.57377        12.96669        -8.74477
| 88>    C       -4.40160        13.73265       -11.07282
| 89>    C       -4.61477        14.68741       -12.02936
| 90>    C       -5.22679        15.90449       -11.69388
| 91>    C       -5.61682        16.14940       -10.40531
| 92>    H        4.59039         0.34706         2.86678
| 93>    H       -0.39416         0.53187         2.78102
| 94>    H       -0.48778        -1.47528         4.13762
| 95>    H        0.64584        -3.29188         5.35368
| 96>    H        3.10554        -3.41048         5.40038
| 97>    H        4.45285        -1.71045         4.23335
| 98>    H        3.47640         4.93857         0.54796
| 99>    H        2.57280         6.83714        -0.81536
|100>    H       -1.37737         6.87207         2.13002
|101>    H        0.24547         5.04700         2.30459
|102>    H       -0.92735         8.87189        -2.41981
|103>    H       -2.60419         9.40551        -2.61060
|104>    H       -1.73606         6.68888        -1.47148
|105>    H       -2.46766         7.00784        -3.04331
|106>    H       -3.40199         7.27811        -1.57522
|107>    H       -3.20913        12.20051         4.66193
|108>    H       -2.13908        10.88803         5.21831
|109>    H       -5.13347        10.56050         4.66225
|110>    H       -4.39697        10.71164         6.26015
|111>    H       -4.03530         9.30689         5.25096
|112>    H       -4.84329        12.44210         3.11427
|113>    H       -4.09476        12.70995         0.16761
|114>    H       -7.12291        17.59379         2.84360
|115>    H       -8.36873        16.41911         3.32529
|116>    H       -8.43102        16.67832         0.27469
|117>    H       -7.66995        15.21391        -1.55754
|118>    H       -5.47904        12.30507        -1.27047
|119>    H       -6.19471        14.68287        -3.06066
|120>    H       -4.99173        11.88966        -3.50861
|121>    H       -6.27150        16.35040        -7.77984
|122>    H       -4.09926        12.04335        -9.03600
|123>    H       -3.93104        12.79405       -11.32647
|124>    H       -4.31251        14.51043       -13.05070
|125>    H       -5.38716        16.64686       -12.46145
|126>    H       -6.08828        17.08466       -10.14054
|127> *
|128>
|129>                          ****END OF INPUT****

CARTESIAN COORDINATES (ANGSTROEM)
---------------------------------
  C      1.047350    2.586100    1.317270
  C     -0.161070    2.748000    0.696470
  C     -1.259580    1.883320    0.888250
  N     -2.183810    1.217640    1.027000
  C     -0.426280    3.747880   -0.261210
  N     -0.683610    4.516060   -1.073970
  C      1.436020    1.440990    2.130550
  C      2.860280    1.379310    2.181530
  C      3.511270    0.380560    2.847500
  C      2.755780   -0.609660    3.514250
  C      1.332110   -0.541780    3.484300
  C      0.684250    0.498100    2.779920
  C      0.590580   -1.529780    4.163820
  C      1.222470   -2.539210    4.837420
  C      2.623710   -2.607070    4.863770
  C      3.373920   -1.663420    4.216090
  C      3.425650    2.524940    1.450740
  O      4.584590    2.775820    1.224250
  C      2.246360    3.377290    1.090420
  C      2.444770    4.668370    0.751850
  C      1.484520    5.746090    0.692460
  C      1.697840    6.809020   -0.182390
  C      0.790240    7.851110   -0.255980
  N      1.151010    8.989710   -1.064990
  O      0.698480   10.069300   -0.745130
  O      1.921090    8.804350   -1.982060
  C     -0.371740    7.864810    0.528690
  C     -0.526240    6.842100    1.468980
  C      0.377590    5.808740    1.550920
  C     -1.384770    8.901220    0.460560
  N     -1.987550    9.372900   -0.674180
  C     -1.932590    8.796040   -1.998270
  C     -2.409640    7.348550   -2.014120
  C     -2.892450   10.410820   -0.374960
  O     -3.550250   10.992880   -1.217190
  C     -2.824590   10.551870    1.060500
  C     -1.904810    9.578030    1.544640
  C     -1.855990    9.682710    2.989250
  O     -1.230640    9.071080    3.829490
  N     -2.778710   10.702860    3.285650
  C     -3.039240   11.121760    4.643210
  C     -4.230720   10.376660    5.240430
  C     -3.352130   11.225840    2.153650
  C     -4.347100   12.248970    2.178580
  C     -4.651410   12.941580    1.063680
  C     -5.682070   13.942370    0.913500
  C     -6.135740   14.788700    1.938280
  C     -5.723760   14.959250    3.355540
  O     -4.902740   14.372850    4.007920
  O     -6.450330   15.965400    3.892140
  C     -7.344000   16.525890    2.950990
  C     -7.105140   15.760420    1.692340
  C     -7.674190   15.929010    0.445210
  C     -7.233620   15.110890   -0.576480
  C     -6.252020   14.133800   -0.374860
  C     -5.846520   13.298390   -1.488100
  C     -5.865240   13.693540   -2.780570
  C     -5.397490   12.844600   -3.819150
  C     -5.391210   13.185790   -5.139270
  C     -4.870710   12.397360   -6.244230
  C     -4.396420   11.113730   -6.189880
  C     -3.912200   10.403360   -7.309670
  N     -3.513380    9.764760   -8.176690
  C     -4.334600   10.290210   -5.046680
  N     -4.252000    9.524370   -4.194890
  C     -4.962780   13.209160   -7.453310
  C     -5.576680   14.450400   -7.123100
  C     -5.888430   14.477470   -5.684690
  O     -6.446500   15.375890   -5.087750
  C     -5.802470   15.418350   -8.058720
  C     -5.411790   15.188080   -9.396230
  C     -4.791140   13.951390   -9.735520
  C     -4.573770   12.966690   -8.744770
  C     -4.401600   13.732650  -11.072820
  C     -4.614770   14.687410  -12.029360
  C     -5.226790   15.904490  -11.693880
  C     -5.616820   16.149400  -10.405310
  H      4.590390    0.347060    2.866780
  H     -0.394160    0.531870    2.781020
  H     -0.487780   -1.475280    4.137620
  H      0.645840   -3.291880    5.353680
  H      3.105540   -3.410480    5.400380
  H      4.452850   -1.710450    4.233350
  H      3.476400    4.938570    0.547960
  H      2.572800    6.837140   -0.815360
  H     -1.377370    6.872070    2.130020
  H      0.245470    5.047000    2.304590
  H     -0.927350    8.871890   -2.419810
  H     -2.604190    9.405510   -2.610600
  H     -1.736060    6.688880   -1.471480
  H     -2.467660    7.007840   -3.043310
  H     -3.401990    7.278110   -1.575220
  H     -3.209130   12.200510    4.661930
  H     -2.139080   10.888030    5.218310
  H     -5.133470   10.560500    4.662250
  H     -4.396970   10.711640    6.260150
  H     -4.035300    9.306890    5.250960
  H     -4.843290   12.442100    3.114270
  H     -4.094760   12.709950    0.167610
  H     -7.122910   17.593790    2.843600
  H     -8.368730   16.419110    3.325290
  H     -8.431020   16.678320    0.274690
  H     -7.669950   15.213910   -1.557540
  H     -5.479040   12.305070   -1.270470
  H     -6.194710   14.682870   -3.060660
  H     -4.991730   11.889660   -3.508610
  H     -6.271500   16.350400   -7.779840
  H     -4.099260   12.043350   -9.036000
  H     -3.931040   12.794050  -11.326470
  H     -4.312510   14.510430  -13.050700
  H     -5.387160   16.646860  -12.461450
  H     -6.088280   17.084660  -10.140540

 Total Charge           Charge          ....    0
 Multiplicity           Mult            ....    1
 Number of Electrons    NEL             ....  520
 Basis Dimension        Dim             .... 1253

ORBITAL ENERGIES
----------------

  NO   OCC          E(Eh)            E(eV)
   0   2.0000     -19.265063      -524.2290
   1   2.0000     -19.244005      -523.6560
   2   2.0000     -19.243123      -523.6320
   3   2.0000     -19.221059      -523.0316
   4   2.0000     -19.211414      -522.7692
   5   2.0000     -19.205680      -522.6131
   6   2.0000     -19.186347      -522.0870
   7   2.0000     -19.184524      -522.0374
   8   2.0000     -14.649138      -398.6233
   9   2.0000     -14.446288      -393.1035
  10   2.0000     -14.443662      -393.0320
  11   2.0000     -14.422194      -392.4479
  12   2.0000     -14.421828      -392.4379
  13   2.0000     -14.411082      -392.1455
  14   2.0000     -14.408389      -392.0722
  15   2.0000     -10.408041      -283.2172
  16   2.0000     -10.371938      -282.2348
  17   2.0000     -10.369303      -282.1631
  18   2.0000     -10.367827      -282.1229
  19   2.0000     -10.361951      -281.9630
  20   2.0000     -10.351441      -281.6770
  21   2.0000     -10.349128      -281.6141
  22   2.0000     -10.348319      -281.5921
  23   2.0000     -10.337517      -281.2982
  24   2.0000     -10.335953      -281.2556
  25   2.0000     -10.335437      -281.2415
  26   2.0000     -10.334802      -281.2243
  27   2.0000     -10.334394      -281.2132
  28   2.0000     -10.323978      -280.9297
  29   2.0000     -10.323886      -280.9272
  30   2.0000     -10.322494      -280.8893
  31   2.0000     -10.320161      -280.8259
  32   2.0000     -10.314184      -280.6632
  33   2.0000     -10.311503      -280.5903
  34   2.0000     -10.311477      -280.5896
  35   2.0000     -10.309652      -280.5399
  36   2.0000     -10.309635      -280.5394
  37   2.0000     -10.306980      -280.4672
  38   2.0000     -10.306786      -280.4619
  39   2.0000     -10.306152      -280.4447
  40   2.0000     -10.305796      -280.4350
  41   2.0000     -10.303061      -280.3606
  42   2.0000     -10.302810      -280.3537
  43   2.0000     -10.302617      -280.3485
  44   2.0000     -10.302378      -280.3419
  45   2.0000     -10.301875      -280.3283
  46   2.0000     -10.299683      -280.2686
  47   2.0000     -10.299427      -280.2616
  48   2.0000     -10.297614      -280.2123
  49   2.0000     -10.296986      -280.1952
  50   2.0000     -10.296919      -280.1934
  51   2.0000     -10.296043      -280.1696
  52   2.0000     -10.295147      -280.1452
  53   2.0000     -10.295126      -280.1446
  54   2.0000     -10.293496      -280.1003
  55   2.0000     -10.293160      -280.0911
  56   2.0000     -10.292311      -280.0680
  57   2.0000     -10.291945      -280.0581
  58   2.0000     -10.291668      -280.0505
  59   2.0000     -10.290763      -280.0259
  60   2.0000     -10.290551      -280.0201
  61   2.0000     -10.290331      -280.0141
  62   2.0000     -10.290114      -280.0082
  63   2.0000     -10.289662      -279.9959
  64   2.0000     -10.286318      -279.9049
  65   2.0000     -10.284295      -279.8499
  66   2.0000     -10.283192      -279.8199
  67   2.0000     -10.283068      -279.8165
  68   2.0000     -10.282488      -279.8007
  69   2.0000     -10.282130      -279.7910
  70   2.0000     -10.281558      -279.7754
  71   2.0000     -10.281033      -279.7611
  72   2.0000     -10.277376      -279.6616
  73   2.0000     -10.256585      -279.0959
  74   2.0000     -10.254353      -279.0351
  75   2.0000     -10.254008      -279.0257
  76   2.0000     -10.233620      -278.4710
  77   2.0000      -1.324723       -36.0475
  78   2.0000      -1.201968       -32.7072
  79   2.0000      -1.143884       -31.1267
  80   2.0000      -1.136760       -30.9328
  81   2.0000      -1.126669       -30.6582
  82   2.0000      -1.125515       -30.6268
  83   2.0000      -1.119962       -30.4757
  84   2.0000      -1.111761       -30.2526
  85   2.0000      -1.057865       -28.7860
  86   2.0000      -1.049093       -28.5473
  87   2.0000      -1.025510       -27.9055
  88   2.0000      -1.012263       -27.5451
  89   2.0000      -1.004345       -27.3296
  90   2.0000      -1.001557       -27.2537
  91   2.0000      -0.993629       -27.0380
  92   2.0000      -0.993476       -27.0338
  93   2.0000      -0.987758       -26.8782
  94   2.0000      -0.985722       -26.8229
  95   2.0000      -0.976655       -26.5761
  96   2.0000      -0.966387       -26.2967
  97   2.0000      -0.934193       -25.4207
  98   2.0000      -0.926676       -25.2161
  99   2.0000      -0.922075       -25.0909
 100   2.0000      -0.920134       -25.0381
 101   2.0000      -0.915965       -24.9247
 102   2.0000      -0.908966       -24.7342
 103   2.0000      -0.899780       -24.4843
 104   2.0000      -0.893222       -24.3058
 105   2.0000      -0.890997       -24.2453
 106   2.0000      -0.886341       -24.1186
 107   2.0000      -0.877483       -23.8775
 108   2.0000      -0.873299       -23.7637
 109   2.0000      -0.867912       -23.6171
 110   2.0000      -0.858740       -23.3675
 111   2.0000      -0.853745       -23.2316
 112   2.0000      -0.838600       -22.8195
 113   2.0000      -0.833499       -22.6807
 114   2.0000      -0.823837       -22.4177
 115   2.0000      -0.820816       -22.3355
 116   2.0000      -0.815731       -22.1972
 117   2.0000      -0.805743       -21.9254
 118   2.0000      -0.797785       -21.7088
 119   2.0000      -0.793060       -21.5803
 120   2.0000      -0.776163       -21.1205
 121   2.0000      -0.768744       -20.9186
 122   2.0000      -0.761076       -20.7099
 123   2.0000      -0.756473       -20.5847
 124   2.0000      -0.746258       -20.3067
 125   2.0000      -0.738617       -20.0988
 126   2.0000      -0.728086       -19.8122
 127   2.0000      -0.725356       -19.7379
 128   2.0000      -0.718439       -19.5497
 129   2.0000      -0.707569       -19.2539
 130   2.0000      -0.702228       -19.1086
 131   2.0000      -0.700046       -19.0492
 132   2.0000      -0.697524       -18.9806
 133   2.0000      -0.694931       -18.9100
 134   2.0000      -0.690122       -18.7792
 135   2.0000      -0.683604       -18.6018
 136   2.0000      -0.682386       -18.5687
 137   2.0000      -0.674077       -18.3426
 138   2.0000      -0.670573       -18.2472
 139   2.0000      -0.668880       -18.2012
 140   2.0000      -0.650224       -17.6935
 141   2.0000      -0.644797       -17.5458
 142   2.0000      -0.640449       -17.4275
 143   2.0000      -0.638835       -17.3836
 144   2.0000      -0.635610       -17.2958
 145   2.0000      -0.634082       -17.2542
 146   2.0000      -0.630447       -17.1553
 147   2.0000      -0.617985       -16.8162
 148   2.0000      -0.616694       -16.7811
 149   2.0000      -0.612983       -16.6801
 150   2.0000      -0.606901       -16.5146
 151   2.0000      -0.603942       -16.4341
 152   2.0000      -0.602415       -16.3925
 153   2.0000      -0.601989       -16.3810
 154   2.0000      -0.599410       -16.3108
 155   2.0000      -0.595461       -16.2033
 156   2.0000      -0.591938       -16.1075
 157   2.0000      -0.585482       -15.9318
 158   2.0000      -0.580474       -15.7955
 159   2.0000      -0.576898       -15.6982
 160   2.0000      -0.573738       -15.6122
 161   2.0000      -0.567227       -15.4350
 162   2.0000      -0.563474       -15.3329
 163   2.0000      -0.562434       -15.3046
 164   2.0000      -0.552194       -15.0260
 165   2.0000      -0.551524       -15.0077
 166   2.0000      -0.546501       -14.8711
 167   2.0000      -0.543759       -14.7964
 168   2.0000      -0.542222       -14.7546
 169   2.0000      -0.540048       -14.6955
 170   2.0000      -0.538831       -14.6623
 171   2.0000      -0.537813       -14.6346
 172   2.0000      -0.535500       -14.5717
 173   2.0000      -0.533836       -14.5264
 174   2.0000      -0.531622       -14.4662
 175   2.0000      -0.530798       -14.4437
 176   2.0000      -0.530426       -14.4336
 177   2.0000      -0.525066       -14.2878
 178   2.0000      -0.522139       -14.2081
 179   2.0000      -0.521245       -14.1838
 180   2.0000      -0.518452       -14.1078
 181   2.0000      -0.516415       -14.0524
 182   2.0000      -0.515217       -14.0198
 183   2.0000      -0.513598       -13.9757
 184   2.0000      -0.510014       -13.8782
 185   2.0000      -0.509594       -13.8668
 186   2.0000      -0.509280       -13.8582
 187   2.0000      -0.505662       -13.7598
 188   2.0000      -0.501107       -13.6358
 189   2.0000      -0.499433       -13.5903
 190   2.0000      -0.498269       -13.5586
 191   2.0000      -0.494981       -13.4691
 192   2.0000      -0.494277       -13.4500
 193   2.0000      -0.492131       -13.3916
 194   2.0000      -0.490947       -13.3593
 195   2.0000      -0.490420       -13.3450
 196   2.0000      -0.484985       -13.1971
 197   2.0000      -0.483061       -13.1448
 198   2.0000      -0.481756       -13.1093
 199   2.0000      -0.474161       -12.9026
 200   2.0000      -0.471165       -12.8210
 201   2.0000      -0.470627       -12.8064
 202   2.0000      -0.466388       -12.6911
 203   2.0000      -0.462769       -12.5926
 204   2.0000      -0.461163       -12.5489
 205   2.0000      -0.459631       -12.5072
 206   2.0000      -0.458251       -12.4697
 207   2.0000      -0.453775       -12.3478
 208   2.0000      -0.452804       -12.3214
 209   2.0000      -0.449507       -12.2317
 210   2.0000      -0.448558       -12.2059
 211   2.0000      -0.444422       -12.0933
 212   2.0000      -0.443570       -12.0701
 213   2.0000      -0.442652       -12.0452
 214   2.0000      -0.441107       -12.0031
 215   2.0000      -0.439034       -11.9467
 216   2.0000      -0.438957       -11.9446
 217   2.0000      -0.436277       -11.8717
 218   2.0000      -0.435160       -11.8413
 219   2.0000      -0.434199       -11.8151
 220   2.0000      -0.432633       -11.7725
 221   2.0000      -0.428930       -11.6718
 222   2.0000      -0.428553       -11.6615
 223   2.0000      -0.427853       -11.6425
 224   2.0000      -0.426392       -11.6027
 225   2.0000      -0.423725       -11.5301
 226   2.0000      -0.422576       -11.4989
 227   2.0000      -0.420351       -11.4383
 228   2.0000      -0.418362       -11.3842
 229   2.0000      -0.415123       -11.2961
 230   2.0000      -0.414518       -11.2796
 231   2.0000      -0.409476       -11.1424
 232   2.0000      -0.402777       -10.9601
 233   2.0000      -0.400292       -10.8925
 234   2.0000      -0.395603       -10.7649
 235   2.0000      -0.388341       -10.5673
 236   2.0000      -0.384332       -10.4582
 237   2.0000      -0.381765       -10.3884
 238   2.0000      -0.380713       -10.3597
 239   2.0000      -0.378543       -10.3007
 240   2.0000      -0.375623       -10.2212
 241   2.0000      -0.369888       -10.0652
 242   2.0000      -0.369296       -10.0491
 243   2.0000      -0.364571        -9.9205
 244   2.0000      -0.354244        -9.6395
 245   2.0000      -0.348137        -9.4733
 246   2.0000      -0.344809        -9.3827
 247   2.0000      -0.341346        -9.2885
 248   2.0000      -0.340653        -9.2696
 249   2.0000      -0.329523        -8.9668
 250   2.0000      -0.326369        -8.8810
 251   2.0000      -0.323504        -8.8030
 252   2.0000      -0.319363        -8.6903
 253   2.0000      -0.314326        -8.5532
 254   2.0000      -0.312112        -8.4930
 255   2.0000      -0.304985        -8.2991
 256   2.0000      -0.298828        -8.1315
 257   2.0000      -0.293266        -7.9802
 258   2.0000      -0.279907        -7.6167
 259   2.0000      -0.241996        -6.5851
 260   0.0000      -0.099320        -2.7026
 261   0.0000      -0.091049        -2.4776
 262   0.0000      -0.071409        -1.9431
 263   0.0000      -0.058519        -1.5924
 264   0.0000      -0.052603        -1.4314

MULLIKEN ATOMIC CHARGES
-----------------------
   0 C :    0.257772
   1 C :   -0.335001
   2 C :   -0.179663
   3 N :    0.162602
   4 C :   -0.183050
   5 N :    0.192920
   6 C :    0.035455
   7 C :    0.015089
   8 C :   -0.080171
   9 C :    0.095743
  10 C :    0.094537
  11 C :   -0.079429
  12 C :   -0.018644
  13 C :    0.037369
  14 C :    0.037304
  15 C :   -0.016346
  16 C :    0.137269
  17 O :   -0.132887
  18 C :   -0.110569
  19 C :    0.034639
  20 C :    0.066988
  21 C :   -0.050931
  22 C :    0.175759
  23 N :    0.229300
  24 O :   -0.215835
  25 O :   -0.228988
  26 C :   -0.012543
  27 C :    0.024550
  28 C :    0.030480
  29 C :    0.068743
  30 N :   -0.237761
  31 C :    0.087870
  32 C :    0.000807
  33 C :    0.176001
  34 O :   -0.213644
  35 C :   -0.071773
  36 C :   -0.018255
  37 C :    0.135016
  38 O :   -0.194062
  39 N :   -0.261411
  40 C :    0.093945
  41 C :    0.009427
  42 C :    0.104986
  43 C :    0.017675
  44 C :   -0.057032
  45 C :    0.080216
  46 C :   -0.078824
  47 C :    0.216308
  48 O :   -0.170432
  49 O :   -0.280692
  50 C :    0.326064
  51 C :   -0.104311
  52 C :   -0.024517
  53 C :   -0.013367
  54 C :    0.071473
  55 C :    0.003604
  56 C :   -0.012574
  57 C :   -0.041266
  58 C :   -0.069661
  59 C :    0.341234
  60 C :   -0.356604
  61 C :   -0.190371
  62 N :    0.147993
  63 C :   -0.171099
  64 N :    0.153373
  65 C :    0.044666
  66 C :    0.002469
  67 C :    0.148160
  68 O :   -0.158321
  69 C :   -0.083790
  70 C :    0.099356
  71 C :    0.096109
  72 C :   -0.084434
  73 C :   -0.017824
  74 C :    0.036748
  75 C :    0.034063
  76 C :   -0.015873
  77 H :   -0.007735
  78 H :   -0.003306
  79 H :   -0.007512
  80 H :   -0.002326
  81 H :   -0.002924
  82 H :   -0.013771
  83 H :    0.031740
  84 H :    0.008829
  85 H :    0.004409
  86 H :    0.007741
  87 H :    0.022596
  88 H :    0.044838
  89 H :    0.027279
  90 H :    0.026133
  91 H :    0.011547
  92 H :    0.047221
  93 H :    0.035969
  94 H :    0.011576
  95 H :    0.023312
  96 H :    0.024670
  97 H :    0.006717
  98 H :    0.039652
  99 H :    0.046840
 100 H :    0.046500
 101 H :   -0.016044
 102 H :    0.004080
 103 H :    0.038261
 104 H :    0.025870
 105 H :    0.031768
 106 H :   -0.016584
 107 H :   -0.008615
 108 H :   -0.009324
 109 H :   -0.005931
 110 H :   -0.005610
 111 H :   -0.019997
Sum of atomic charges:   -0.0000000

LOEWDIN ATOMIC CHARGES
----------------------
   0 C :    0.067676
   1 C :   -0.131957
   2 C :   -0.019117
   3 N :   -0.044546
   4 C :   -0.011085
   5 N :   -0.031792
   6 C :   -0.024769
   7 C :   -0.058188
   8 C :    0.035485
   9 C :   -0.007766
  10 C :   -0.004695
  11 C :    0.018645
  12 C :   -0.005526
  13 C :   -0.010760
  14 C :   -0.010498
  15 C :   -0.008266
  16 C :    0.085671
  17 O :   -0.133330
  18 C :   -0.078224
  19 C :    0.075919
  20 C :   -0.034827
  21 C :    0.027428
  22 C :   -0.017673
  23 N :    0.282009
  24 O :   -0.184498
  25 O :   -0.197578
  26 C :    0.002789
  27 C :    0.023253
  28 C :    0.021815
  29 C :    0.071739
  30 N :    0.012047
  31 C :    0.028958
  32 C :   -0.061445
  33 C :    0.090168
  34 O :   -0.205244
  35 C :   -0.124166
  36 C :   -0.111974
  37 C :    0.079976
  38 O :   -0.197577
  39 N :    0.000104
  40 C :    0.037571
  41 C :   -0.060178
  42 C :    0.084306
  43 C :   -0.012850
  44 C :    0.013510
  45 C :    0.013134
  46 C :   -0.073888
  47 C :    0.093240
  48 O :   -0.159872
  49 O :   -0.080514
  50 C :    0.100300
  51 C :   -0.015546
  52 C :   -0.025551
  53 C :    0.023612
  54 C :   -0.021563
  55 C :    0.041300
  56 C :   -0.028208
  57 C :    0.082785
  58 C :   -0.095972
  59 C :    0.077724
  60 C :   -0.138850
  61 C :   -0.016174
  62 N :   -0.056451
  63 C :   -0.011475
  64 N :   -0.041291
  65 C :   -0.025103
  66 C :   -0.054897
  67 C :    0.086238
  68 O :   -0.151181
  69 C :    0.030382
  70 C :   -0.008481
  71 C :   -0.006426
  72 C :    0.019445
  73 C :   -0.005089
  74 C :   -0.014400
  75 C :   -0.013410
  76 C :   -0.010430
  77 H :    0.040873
  78 H :    0.039405
  79 H :    0.035262
  80 H :    0.034171
  81 H :    0.033764
  82 H :    0.033048
  83 H :    0.050214
  84 H :    0.045252
  85 H :    0.044843
  86 H :    0.037186
  87 H :    0.015788
  88 H :    0.032378
  89 H :    0.016692
  90 H :    0.035672
  91 H :    0.025904
  92 H :    0.033488
  93 H :    0.035475
  94 H :    0.020857
  95 H :    0.031101
  96 H :    0.029213
  97 H :    0.031251
  98 H :    0.040627
  99 H :    0.038489
 100 H :    0.038191
 101 H :    0.033684
 102 H :    0.039483
 103 H :    0.038257
 104 H :    0.029414
 105 H :    0.048585
 106 H :    0.037642
 107 H :    0.038947
 108 H :    0.034761
 109 H :    0.032749
 110 H :    0.032369
 111 H :    0.031037

  Mayer bond orders larger than 0.100000
B(  0-C ,  1-C ) :   1.6767 B(  0-C ,  6-C ) :   1.0051 B(  0-C , 18-C ) :   1.0042
B(  1-C ,  2-C ) :   1.1312 B(  1-C ,  4-C ) :   1.1561 B(  2-C ,  3-N ) :   2.9916
B(  4-C ,  5-N ) :   2.9789 B(  6-C ,  7-C ) :   1.2120 B(  6-C , 11-C ) :   1.4514
B(  7-C ,  8-C ) :   1.4703 B(  7-C , 16-C ) :   0.9227 B(  8-C ,  9-C ) :   1.1880
B(  8-C , 77-H ) :   1.0161 B(  9-C , 10-C ) :   1.2539 B(  9-C , 15-C ) :   1.2441
B( 10-C , 11-C ) :   1.2089 B( 10-C , 12-C ) :   1.2391 B( 11-C , 78-H ) :   0.9942
B( 12-C , 13-C ) :   1.4912 B( 12-C , 79-H ) :   0.9976 B( 13-C , 14-C ) :   1.2596
B( 13-C , 80-H ) :   0.9885 B( 14-C , 15-C ) :   1.4907 B( 14-C , 81-H ) :   0.9884
B( 15-C , 82-H ) :   0.9978 B( 16-C , 17-O ) :   2.2805 B( 16-C , 18-C ) :   0.9200
B( 18-C , 19-C ) :   1.7462 B( 19-C , 20-C ) :   1.0234 B( 19-C , 83-H ) :   0.9437
B( 20-C , 21-C ) :   1.3009 B( 20-C , 28-C ) :   1.3139 B( 21-C , 22-C ) :   1.3778
B( 21-C , 84-H ) :   0.9993 B( 22-C , 23-N ) :   0.8709 B( 22-C , 26-C ) :   1.3602
B( 23-N , 24-O ) :   1.5386 B( 23-N , 25-O ) :   1.5363 B( 24-O , 25-O ) :   0.2710
B( 26-C , 27-C ) :   1.3837 B( 26-C , 29-C ) :   0.9810 B( 27-C , 28-C ) :   1.3891
B( 27-C , 85-H ) :   0.9951 B( 28-C , 86-H ) :   0.9920 B( 29-C , 30-N ) :   1.2093
B( 29-C , 36-C ) :   1.4667 B( 30-N , 31-C ) :   0.9275 B( 30-N , 33-C ) :   1.0586
B( 31-C , 32-C ) :   1.1146 B( 31-C , 87-H ) :   0.9424 B( 31-C , 88-H ) :   0.9140
B( 32-C , 89-H ) :   0.9579 B( 32-C , 90-H ) :   0.9613 B( 32-C , 91-H ) :   0.9594
B( 33-C , 34-O ) :   1.9906 B( 33-C , 35-C ) :   0.9996 B( 35-C , 36-C ) :   1.2069
B( 35-C , 42-C ) :   1.3685 B( 36-C , 37-C ) :   0.9502 B( 37-C , 38-O ) :   2.1458
B( 37-C , 39-N ) :   1.0395 B( 39-N , 40-C ) :   0.9358 B( 39-N , 42-C ) :   1.1702
B( 40-C , 41-C ) :   1.1237 B( 40-C , 92-H ) :   0.9473 B( 40-C , 93-H ) :   0.9308
B( 41-C , 94-H ) :   0.9679 B( 41-C , 95-H ) :   0.9677 B( 41-C , 96-H ) :   0.9639
B( 42-C , 43-C ) :   1.1332 B( 43-C , 44-C ) :   1.6901 B( 43-C , 97-H ) :   0.9436
B( 44-C , 45-C ) :   1.0803 B( 44-C , 98-H ) :   0.9446 B( 45-C , 46-C ) :   1.3076
B( 45-C , 54-C ) :   1.3334 B( 46-C , 47-C ) :   0.9084 B( 46-C , 51-C ) :   1.4231
B( 47-C , 48-O ) :   2.1374 B( 47-C , 49-O ) :   1.1408 B( 49-O , 50-C ) :   0.9718
B( 50-C , 51-C ) :   1.0111 B( 50-C , 99-H ) :   0.9279 B( 50-C ,100-H ) :   0.9252
B( 51-C , 52-C ) :   1.3468 B( 52-C , 53-C ) :   1.3768 B( 52-C ,101-H ) :   1.0095
B( 53-C , 54-C ) :   1.3447 B( 53-C ,102-H ) :   0.9919 B( 54-C , 55-C ) :   1.0320
B( 55-C , 56-C ) :   1.6475 B( 55-C ,103-H ) :   0.9530 B( 56-C , 57-C ) :   1.1434
B( 56-C ,104-H ) :   0.9741 B( 57-C , 58-C ) :   1.5478 B( 57-C ,105-H ) :   0.9669
B( 58-C , 59-C ) :   1.0555 B( 58-C , 67-C ) :   0.9423 B( 59-C , 60-C ) :   1.6307
B( 59-C , 65-C ) :   0.9879 B( 60-C , 61-C ) :   1.1465 B( 60-C , 63-C ) :   1.1540
B( 61-C , 62-N ) :   2.9639 B( 63-C , 64-N ) :   2.8973 B( 65-C , 66-C ) :   1.2170
B( 65-C , 72-C ) :   1.4467 B( 66-C , 67-C ) :   0.9452 B( 66-C , 69-C ) :   1.4729
B( 67-C , 68-O ) :   2.1914 B( 69-C , 70-C ) :   1.1776 B( 69-C ,106-H ) :   1.0153
B( 70-C , 71-C ) :   1.2574 B( 70-C , 76-C ) :   1.2455 B( 71-C , 72-C ) :   1.2086
B( 71-C , 73-C ) :   1.2383 B( 72-C ,107-H ) :   0.9882 B( 73-C , 74-C ) :   1.4908
B( 73-C ,108-H ) :   0.9966 B( 74-C , 75-C ) :   1.2602 B( 74-C ,109-H ) :   0.9879
B( 75-C , 76-C ) :   1.4882 B( 75-C ,110-H ) :   0.9888 B( 76-C ,111-H ) :   0.9969

-----------------------------------------------------------------------------
         ABSORPTION SPECTRUM VIA TRANSITION ELECTRIC DIPOLE MOMENTS
-----------------------------------------------------------------------------
State   Energy  Wavelength   fosc         T2         TX        TY        TZ
        (cm-1)    (nm)                  (au**2)     (au)      (au)      (au)
-----------------------------------------------------------------------------
   0   15791.2    633.3   0.335657573   6.99774   1.46171  -2.19966   0.15053
   1   18138.2    551.3   0.073761278   1.33878   0.14428  -0.60409  -0.97624
   2   21333.3    468.8   0.116050094   1.79087   0.83836  -0.46301  -0.93469
   3   23631.4    423.2   0.057504932   0.80111   0.27157  -0.85233   0.02980
   4   24820.6    402.9   0.799477912  10.60399  -0.45951   0.90564   3.09397
   5   26249.7    381.0   0.030078343   0.37723  -0.25117   0.46771   0.30885
   6   26717.7    374.3   0.040973054   0.50486   0.22749  -0.20303   0.64179
   7   27276.2    366.6   0.314428119   3.79502   0.02228   0.40400  -1.90560
   8   27772.9    360.1   0.012240791   0.14510   0.12541   0.34653   0.09637
   9   27899.5    358.4   0.007549226   0.08908  -0.02321   0.08598  -0.28487
  10   28338.1    352.9   0.166793712   1.93769   0.17448   1.38068   0.03123
  11   28477.9    351.1   0.081623448   0.94359   0.32327  -0.20117  -0.89365
  12   28670.7    348.8   0.092076313   1.05727   0.63009  -0.81256  -0.00066
  13   28999.0    344.8   0.130779907   1.48468  -0.50689   1.04914  -0.35642
  14   29396.4    340.2   0.114980862   1.28768  -0.08772  -1.12836   0.08244
  15   29497.5    339.0   0.092788063   1.03558  -0.30556   0.87478  -0.42067
  16   30041.4    332.9   0.032156980   0.35240  -0.09931   0.49196  -0.31703
  17   31192.4    320.6   0.126111398   1.33101  -0.28615   0.45943  -1.01885
  18   31632.0    316.1   0.043770862   0.45555  -0.32492   0.57394   0.14341
  19   31896.1    313.5   0.037655714   0.38866  -0.00493   0.13343  -0.60896
  20   32243.1    310.1   0.037463094   0.38251   0.13606   0.18772  -0.57337
  21   32469.0    308.0   0.651038265   6.60106   0.76726  -1.71462   1.75283
  22   33079.3    302.3   0.026636274   0.26509   0.31824  -0.39788   0.07417
  23   33259.9    300.7   0.075981049   0.75207   0.51335  -0.08273  -0.69404
  24   33542.6    298.1   0.226041057   2.21853   0.92987  -1.00225   0.59107
  25   33717.9    296.6   0.206989082   2.02098   0.56614  -0.98013   0.86012
  26   33904.7    294.9   0.315116649   3.05976  -0.50961  -0.29831   1.64653
  27   34052.2    293.7   0.258999973   2.50398  -0.37071   1.04061  -1.13300
  28   34294.7    291.6   0.342875120   3.29142  -0.52310   1.41837  -1.00300
  29   34485.3    290.0   0.322889641   3.08245  -1.03206   1.17275  -0.80122
  30   34526.2    289.6   0.248823074   2.37256   0.24008  -1.20001   0.93535
  31   34613.1    288.9   0.020370192   0.19374   0.23446   0.12408  -0.35125
  32   35052.0    285.3   0.023857468   0.22407  -0.36117   0.29911   0.06454
  33   35351.9    282.9   0.013186999   0.12280  -0.27708  -0.15282   0.15059
  34   35944.7    278.2   0.066377750   0.60794  -0.27377  -0.05122  -0.72827
  35   36317.6    275.3   0.123224488   1.11701  -0.54254   0.86714  -0.26594
  36   36641.1    272.9   0.064634573   0.58073  -0.61624   0.36411  -0.26154
  37   36849.4    271.4   0.004345814   0.03883  -0.07601  -0.14513   0.10948
  38   37413.2    267.3   0.157869534   1.38915   0.47058  -1.01367   0.37442
  39   37587.2    266.0   0.051480795   0.45090   0.42138  -0.49897   0.15610
  40   38166.0    262.0   0.003329312   0.02872  -0.16377   0.04319   0.00576
  41   38228.1    261.6   0.018961611   0.16329  -0.15018   0.31226  -0.20792
  42   38603.7    259.0   0.121926500   1.03979  -0.43956   0.91265  -0.11680
  43   38710.0    258.3   0.099442384   0.84572  -0.02927  -0.75627   0.52242
  44   39063.8    256.0   0.005793746   0.04883   0.01578  -0.17719   0.13108
  45   39179.6    255.2   0.007380014   0.06201  -0.20258  -0.12694  -0.06971
  46   39481.8    253.3   0.035749226   0.29809  -0.51690   0.14877  -0.09363
  47   39836.3    251.0   0.035406697   0.29261   0.10291   0.27804   0.45245
  48   39873.0    250.8   0.019751007   0.16307  -0.26525   0.16878   0.25344
  49   40076.3    249.5   0.017475425   0.14355  -0.26519   0.05592  -0.26476

FINAL SINGLE POINT ENERGY     -3364.406232698964

DIPOLE MOMENT
-------------
                                X             Y             Z
Electronic contribution:     14.80473      -6.39142     -10.61754
Nuclear contribution   :    -16.11966       6.86933      11.73749
                        -----------------------------------------
Total Dipole Moment    :     -1.31493       0.47791       1.11995
                        -----------------------------------------
Magnitude (a.u.)       :      1.79213
Magnitude (Debye)      :      4.55522

Rotational constants in cm-1:     0.001148     0.000357     0.000289
Rotational constants in MHz :    34.408399    10.691625     8.669240

                             ****ORCA TERMINATED NORMALLY****
TOTAL RUN TIME: 0 days 0 hours 34 minutes 53 seconds 219 msec
