                         Program Version 4.2.0 -  RELEASE  -
|  1> # ORCA input file
|  2> # SCF done       -193.620308338850          0.000749699964
|  3> ! CAM-B3LYP def2-SVP def2/J RIJCOSX Grid4 TightSCF
|  4> %maxcore 5000
|  5> %tddft
|  6>     Mode sTDDFT
|  7>     Ethresh 5.0
|  8>     maxcore 5000
|  9> end
| 10>
| 11> %pal
| 12>   nprocs 6
| 13>   end
| 14> * xyz 0 1
| 15>    C       -2.38415         4.65208         3.38304
| 16>    C       -3.03216         5.41817         2.45206
| 17>    C       -3.76404         6.58135         2.77085
| 18>    N       -4.35038         7.54572         2.97817
| 19>    C       -3.12698         5.07591         1.08615
| 20>    N       -3.27195         4.80691        -0.01978
| 21>    C       -2.50898         4.79140         4.82959
| 22>    C       -2.14388         3.55289         5.43659
| 23>    C       -2.20869         3.37130         6.78848
| 24>    C       -2.63834         4.43929         7.60769
| 25>    C       -2.98730         5.68462         7.00813
| 26>    C       -2.91588         5.84347         5.60505
| 27>    C       -3.40891         6.74340         7.83780
| 28>    C       -3.48654         6.58112         9.19430
| 29>    C       -3.14339         5.35501         9.78366
| 30>    C       -2.72838         4.30701         9.00749
| 31>    C       -1.70243         2.60885         4.39675
| 32>    O       -1.36913         1.45451         4.51909
| 33>    C       -1.67608         3.41198         3.13349
| 34>    C       -0.91437         2.97856         2.09790
| 35>    C       -0.39774         3.71282         0.99960
| 36>    O       -0.53223         5.06282         0.92011
| 37>    C        0.11577         5.49722        -0.17159
| 38>    C        0.71438         4.40306        -0.80617
| 39>    C        0.37709         3.26619        -0.05495
| 40>    N        1.66870         4.40078        -1.86902
| 41>    O        2.31999         5.41056        -2.02790
| 42>    O        1.81747         3.36321        -2.46685
| 43>    C        0.04887         6.86023        -0.57691
| 44>    N       -0.17303         7.92908         0.25812
| 45>    C       -0.27535         7.90784         1.69623
| 46>    C        1.07104         7.63804         2.36171
| 47>    C       -0.16030         9.15125        -0.45288
| 48>    O       -0.30492        10.23282         0.07243
| 49>    C        0.03412         8.75224        -1.82701
| 50>    C        0.15586         7.34429        -1.87119
| 51>    C        0.26058         6.95964        -3.26535
| 52>    O        0.28801         5.87911        -3.80524
| 53>    N        0.28390         8.18662        -3.96829
| 54>    C        0.33179         8.17213        -5.41101
| 55>    C       -1.00459         8.56829        -6.03215
| 56>    C        0.14452         9.25771        -3.12074
| 57>    C        0.14978        10.65546        -3.38397
| 58>    C        0.48298        11.31832        -4.51432
| 59>    C        0.51601        12.74247        -4.59583
| 60>    O        1.00447        13.29815        -5.74551
| 61>    C        0.98917        14.61616        -5.61303
| 62>    C        0.45481        14.95045        -4.37679
| 63>    C        0.15821        13.73792        -3.71525
| 64>    N        0.31092        16.27218        -3.90541
| 65>    O        0.67319        17.16161        -4.65847
| 66>    O       -0.15395        16.43933        -2.80114
| 67>    C        1.47651        15.52159        -6.65164
| 68>    C        2.76564        15.88936        -6.68750
| 69>    C        3.45394        16.82595        -7.57095
| 70>    C        2.94919        17.36321        -8.71938
| 71>    C        3.65735        18.25434        -9.55583
| 72>    N        4.18847        18.97763       -10.27008
| 73>    C        1.66684        17.06613        -9.23174
| 74>    N        0.64268        16.84408        -9.69824
| 75>    C        4.78184        17.04084        -7.01582
| 76>    C        4.95149        16.21331        -5.86455
| 77>    C        3.72871        15.44270        -5.63017
| 78>    O        3.49469        14.62980        -4.76489
| 79>    C        6.11065        16.21340        -5.14034
| 80>    C        7.17294        17.05279        -5.53969
| 81>    C        7.01204        17.88362        -6.68779
| 82>    C        5.80191        17.86561        -7.41657
| 83>    C        8.08047        18.71799        -7.07626
| 84>    C        9.25044        18.73245        -6.36673
| 85>    C        9.40683        17.91542        -5.23648
| 86>    C        8.39044        17.09323        -4.83163
| 87>    H       -1.93594         2.42353         7.22815
| 88>    H       -3.17625         6.79934         5.17762
| 89>    H       -3.67512         7.68437         7.37938
| 90>    H       -3.81366         7.39704         9.82101
| 91>    H       -3.20946         5.24507        10.85561
| 92>    H       -2.46293         3.36082         9.45565
| 93>    H       -0.56480         1.95469         2.16386
| 94>    H        0.67912         2.26023        -0.26250
| 95>    H       -1.01177         7.16069         2.00067
| 96>    H       -0.63795         8.90007         1.98013
| 97>    H        1.45661         6.65967         2.08273
| 98>    H        0.95992         7.67247         3.44203
| 99>    H        1.79271         8.39346         2.06090
|100>    H        0.56893         7.13915        -5.68334
|101>    H        1.14401         8.81298        -5.76281
|102>    H       -1.77646         7.86731        -5.72459
|103>    H       -0.92694         8.54300        -7.11547
|104>    H       -1.30303         9.56767        -5.72414
|105>    H       -0.09932        11.23422        -2.50416
|106>    H        0.78858        10.81418        -5.41737
|107>    H       -0.25354        13.64193        -2.73270
|108>    H        0.73934        15.91162        -7.34070
|109>    H        6.21247        15.58037        -4.27140
|110>    H        5.70793        18.51088        -8.27570
|111>    H        7.95600        19.34542        -7.94638
|112>    H       10.06275        19.37445        -6.67219
|113>    H       10.33647        17.94116        -4.68829
|114>    H        8.50451        16.46232        -3.96254
|115> *
|116>
|117>                          ****END OF INPUT****

CARTESIAN COORDINATES (ANGSTROEM)
---------------------------------
  C     -2.384150    4.652080    3.383040
  C     -3.032160    5.418170    2.452060
  C     -3.764040    6.581350    2.770850
  N     -4.350380    7.545720    2.978170
  C     -3.126980    5.075910    1.086150
  N     -3.271950    4.806910   -0.019780
  C     -2.508980    4.791400    4.829590
  C     -2.143880    3.552890    5.436590
  C     -2.208690    3.371300    6.788480
  C     -2.638340    4.439290    7.607690
  C     -2.987300    5.684620    7.008130
  C     -2.915880    5.843470    5.605050
  C     -3.408910    6.743400    7.837800
  C     -3.486540    6.581120    9.194300
  C     -3.143390    5.355010    9.783660
  C     -2.728380    4.307010    9.007490
  C     -1.702430    2.608850    4.396750
  O     -1.369130    1.454510    4.519090
  C     -1.676080    3.411980    3.133490
  C     -0.914370    2.978560    2.097900
  C     -0.397740    3.712820    0.999600
  O     -0.532230    5.062820    0.920110
  C      0.115770    5.497220   -0.171590
  C      0.714380    4.403060   -0.806170
  C      0.377090    3.266190   -0.054950
  N      1.668700    4.400780   -1.869020
  O      2.319990    5.410560   -2.027900
  O      1.817470    3.363210   -2.466850
  C      0.048870    6.860230   -0.576910
  N     -0.173030    7.929080    0.258120
  C     -0.275350    7.907840    1.696230
  C      1.071040    7.638040    2.361710
  C     -0.160300    9.151250   -0.452880
  O     -0.304920   10.232820    0.072430
  C      0.034120    8.752240   -1.827010
  C      0.155860    7.344290   -1.871190
  C      0.260580    6.959640   -3.265350
  O      0.288010    5.879110   -3.805240
  N      0.283900    8.186620   -3.968290
  C      0.331790    8.172130   -5.411010
  C     -1.004590    8.568290   -6.032150
  C      0.144520    9.257710   -3.120740
  C      0.149780   10.655460   -3.383970
  C      0.482980   11.318320   -4.514320
  C      0.516010   12.742470   -4.595830
  O      1.004470   13.298150   -5.745510
  C      0.989170   14.616160   -5.613030
  C      0.454810   14.950450   -4.376790
  C      0.158210   13.737920   -3.715250
  N      0.310920   16.272180   -3.905410
  O      0.673190   17.161610   -4.658470
  O     -0.153950   16.439330   -2.801140
  C      1.476510   15.521590   -6.651640
  C      2.765640   15.889360   -6.687500
  C      3.453940   16.825950   -7.570950
  C      2.949190   17.363210   -8.719380
  C      3.657350   18.254340   -9.555830
  N      4.188470   18.977630  -10.270080
  C      1.666840   17.066130   -9.231740
  N      0.642680   16.844080   -9.698240
  C      4.781840   17.040840   -7.015820
  C      4.951490   16.213310   -5.864550
  C      3.728710   15.442700   -5.630170
  O      3.494690   14.629800   -4.764890
  C      6.110650   16.213400   -5.140340
  C      7.172940   17.052790   -5.539690
  C      7.012040   17.883620   -6.687790
  C      5.801910   17.865610   -7.416570
  C      8.080470   18.717990   -7.076260
  C      9.250440   18.732450   -6.366730
  C      9.406830   17.915420   -5.236480
  C      8.390440   17.093230   -4.831630
  H     -1.935940    2.423530    7.228150
  H     -3.176250    6.799340    5.177620
  H     -3.675120    7.684370    7.379380
  H     -3.813660    7.397040    9.821010
  H     -3.209460    5.245070   10.855610
  H     -2.462930    3.360820    9.455650
  H     -0.564800    1.954690    2.163860
  H      0.679120    2.260230   -0.262500
  H     -1.011770    7.160690    2.000670
  H     -0.637950    8.900070    1.980130
  H      1.456610    6.659670    2.082730
  H      0.959920    7.672470    3.442030
  H      1.792710    8.393460    2.060900
  H      0.568930    7.139150   -5.683340
  H      1.144010    8.812980   -5.762810
  H     -1.776460    7.867310   -5.724590
  H     -0.926940    8.543000   -7.115470
  H     -1.303030    9.567670   -5.724140
  H     -0.099320   11.234220   -2.504160
  H      0.788580   10.814180   -5.417370
  H     -0.253540   13.641930   -2.732700
  H      0.739340   15.911620   -7.340700
  H      6.212470   15.580370   -4.271400
  H      5.707930   18.510880   -8.275700
  H      7.956000   19.345420   -7.946380
  H     10.062750   19.374450   -6.672190
  H     10.336470   17.941160   -4.688290
  H      8.504510   16.462320   -3.962540

 Total Charge           Charge          ....    0
 Multiplicity           Mult            ....    1
 Number of Electrons    NEL             ....  488
 Basis Dimension        Dim             .... 1148

ORBITAL ENERGIES
----------------

  NO   OCC          E(Eh)            E(eV)
   0   2.0000     -19.332797      -526.0722
   1   2.0000     -19.327440      -525.9264
   2   2.0000     -19.247694      -523.7564
   3   2.0000     -19.244944      -523.6816
   4   2.0000     -19.243916      -523.6536
   5   2.0000     -19.240999      -523.5742
   6   2.0000     -19.234737      -523.4038
   7   2.0000     -19.221661      -523.0480
   8   2.0000     -19.203260      -522.5473
   9   2.0000     -19.190691      -522.2052
  10   2.0000     -14.656639      -398.8274
  11   2.0000     -14.653585      -398.7443
  12   2.0000     -14.461718      -393.5234
  13   2.0000     -14.458185      -393.4272
  14   2.0000     -14.429546      -392.6479
  15   2.0000     -14.429158      -392.6373
  16   2.0000     -14.421652      -392.4331
  17   2.0000     -14.416917      -392.3043
  18   2.0000     -10.387020      -282.6452
  19   2.0000     -10.383940      -282.5614
  20   2.0000     -10.383040      -282.5369
  21   2.0000     -10.381249      -282.4882
  22   2.0000     -10.376371      -282.3554
  23   2.0000     -10.373109      -282.2667
  24   2.0000     -10.368732      -282.1475
  25   2.0000     -10.360497      -281.9235
  26   2.0000     -10.357094      -281.8308
  27   2.0000     -10.355174      -281.7786
  28   2.0000     -10.352531      -281.7067
  29   2.0000     -10.351310      -281.6735
  30   2.0000     -10.350421      -281.6493
  31   2.0000     -10.347212      -281.5619
  32   2.0000     -10.344111      -281.4776
  33   2.0000     -10.338167      -281.3158
  34   2.0000     -10.332842      -281.1709
  35   2.0000     -10.331200      -281.1262
  36   2.0000     -10.330750      -281.1140
  37   2.0000     -10.330481      -281.1067
  38   2.0000     -10.323330      -280.9121
  39   2.0000     -10.321296      -280.8568
  40   2.0000     -10.319669      -280.8125
  41   2.0000     -10.318324      -280.7759
  42   2.0000     -10.316811      -280.7347
  43   2.0000     -10.315547      -280.7003
  44   2.0000     -10.311952      -280.6025
  45   2.0000     -10.310082      -280.5516
  46   2.0000     -10.310021      -280.5499
  47   2.0000     -10.309589      -280.5382
  48   2.0000     -10.309479      -280.5352
  49   2.0000     -10.309307      -280.5305
  50   2.0000     -10.309075      -280.5242
  51   2.0000     -10.306590      -280.4566
  52   2.0000     -10.304422      -280.3976
  53   2.0000     -10.303889      -280.3831
  54   2.0000     -10.302798      -280.3534
  55   2.0000     -10.302744      -280.3519
  56   2.0000     -10.302552      -280.3467
  57   2.0000     -10.302220      -280.3376
  58   2.0000     -10.302035      -280.3326
  59   2.0000     -10.296573      -280.1840
  60   2.0000     -10.296104      -280.1712
  61   2.0000     -10.295843      -280.1641
  62   2.0000     -10.295371      -280.1513
  63   2.0000     -10.295288      -280.1490
  64   2.0000     -10.290706      -280.0244
  65   2.0000     -10.290231      -280.0114
  66   2.0000     -10.289961      -280.0041
  67   2.0000     -10.289492      -279.9913
  68   2.0000     -10.277475      -279.6643
  69   2.0000     -10.268346      -279.4159
  70   2.0000     -10.266351      -279.3616
  71   2.0000     -10.265545      -279.3397
  72   2.0000      -1.327838       -36.1323
  73   2.0000      -1.326082       -36.0845
  74   2.0000      -1.253899       -34.1203
  75   2.0000      -1.248092       -33.9623
  76   2.0000      -1.149997       -31.2930
  77   2.0000      -1.146859       -31.2076
  78   2.0000      -1.146471       -31.1971
  79   2.0000      -1.141389       -31.0588
  80   2.0000      -1.137552       -30.9544
  81   2.0000      -1.131204       -30.7816
  82   2.0000      -1.071361       -29.1532
  83   2.0000      -1.061342       -28.8806
  84   2.0000      -1.031871       -28.0786
  85   2.0000      -1.023322       -27.8460
  86   2.0000      -1.011415       -27.5220
  87   2.0000      -1.007477       -27.4149
  88   2.0000      -1.003513       -27.3070
  89   2.0000      -0.997737       -27.1498
  90   2.0000      -0.984318       -26.7846
  91   2.0000      -0.977434       -26.5973
  92   2.0000      -0.961774       -26.1712
  93   2.0000      -0.958690       -26.0873
  94   2.0000      -0.945051       -25.7161
  95   2.0000      -0.940186       -25.5838
  96   2.0000      -0.935739       -25.4627
  97   2.0000      -0.933999       -25.4154
  98   2.0000      -0.924116       -25.1465
  99   2.0000      -0.917416       -24.9642
 100   2.0000      -0.899299       -24.4712
 101   2.0000      -0.894362       -24.3368
 102   2.0000      -0.891414       -24.2566
 103   2.0000      -0.886245       -24.1160
 104   2.0000      -0.880339       -23.9552
 105   2.0000      -0.865419       -23.5493
 106   2.0000      -0.862517       -23.4703
 107   2.0000      -0.840178       -22.8624
 108   2.0000      -0.839836       -22.8531
 109   2.0000      -0.833167       -22.6716
 110   2.0000      -0.830991       -22.6124
 111   2.0000      -0.825337       -22.4586
 112   2.0000      -0.820117       -22.3165
 113   2.0000      -0.812796       -22.1173
 114   2.0000      -0.788271       -21.4499
 115   2.0000      -0.775416       -21.1001
 116   2.0000      -0.773434       -21.0462
 117   2.0000      -0.765175       -20.8215
 118   2.0000      -0.763443       -20.7744
 119   2.0000      -0.736128       -20.0311
 120   2.0000      -0.726916       -19.7804
 121   2.0000      -0.725742       -19.7484
 122   2.0000      -0.717719       -19.5301
 123   2.0000      -0.715208       -19.4618
 124   2.0000      -0.713429       -19.4134
 125   2.0000      -0.709502       -19.3065
 126   2.0000      -0.706649       -19.2289
 127   2.0000      -0.704444       -19.1689
 128   2.0000      -0.694266       -18.8919
 129   2.0000      -0.689504       -18.7624
 130   2.0000      -0.684286       -18.6204
 131   2.0000      -0.681379       -18.5413
 132   2.0000      -0.667828       -18.1725
 133   2.0000      -0.658125       -17.9085
 134   2.0000      -0.657418       -17.8893
 135   2.0000      -0.653983       -17.7958
 136   2.0000      -0.648341       -17.6423
 137   2.0000      -0.642479       -17.4827
 138   2.0000      -0.640707       -17.4345
 139   2.0000      -0.639021       -17.3887
 140   2.0000      -0.632894       -17.2219
 141   2.0000      -0.627961       -17.0877
 142   2.0000      -0.626830       -17.0569
 143   2.0000      -0.618586       -16.8326
 144   2.0000      -0.615678       -16.7535
 145   2.0000      -0.612610       -16.6700
 146   2.0000      -0.605792       -16.4844
 147   2.0000      -0.601550       -16.3690
 148   2.0000      -0.594670       -16.1818
 149   2.0000      -0.592326       -16.1180
 150   2.0000      -0.590971       -16.0811
 151   2.0000      -0.588229       -16.0065
 152   2.0000      -0.587121       -15.9764
 153   2.0000      -0.584908       -15.9161
 154   2.0000      -0.578167       -15.7327
 155   2.0000      -0.575310       -15.6550
 156   2.0000      -0.569554       -15.4983
 157   2.0000      -0.564143       -15.3511
 158   2.0000      -0.559745       -15.2314
 159   2.0000      -0.558117       -15.1871
 160   2.0000      -0.557675       -15.1751
 161   2.0000      -0.554673       -15.0934
 162   2.0000      -0.552172       -15.0254
 163   2.0000      -0.551358       -15.0032
 164   2.0000      -0.545588       -14.8462
 165   2.0000      -0.543708       -14.7950
 166   2.0000      -0.540008       -14.6944
 167   2.0000      -0.537032       -14.6134
 168   2.0000      -0.534476       -14.5438
 169   2.0000      -0.533203       -14.5092
 170   2.0000      -0.530619       -14.4389
 171   2.0000      -0.529064       -14.3966
 172   2.0000      -0.526417       -14.3245
 173   2.0000      -0.524077       -14.2609
 174   2.0000      -0.523464       -14.2442
 175   2.0000      -0.520713       -14.1693
 176   2.0000      -0.517492       -14.0817
 177   2.0000      -0.516776       -14.0622
 178   2.0000      -0.515449       -14.0261
 179   2.0000      -0.512787       -13.9537
 180   2.0000      -0.511445       -13.9171
 181   2.0000      -0.509960       -13.8767
 182   2.0000      -0.505656       -13.7596
 183   2.0000      -0.501935       -13.6583
 184   2.0000      -0.498416       -13.5626
 185   2.0000      -0.496396       -13.5076
 186   2.0000      -0.493028       -13.4160
 187   2.0000      -0.488834       -13.3019
 188   2.0000      -0.487509       -13.2658
 189   2.0000      -0.477310       -12.9883
 190   2.0000      -0.476358       -12.9624
 191   2.0000      -0.474468       -12.9109
 192   2.0000      -0.471368       -12.8266
 193   2.0000      -0.470446       -12.8015
 194   2.0000      -0.465972       -12.6797
 195   2.0000      -0.461179       -12.5493
 196   2.0000      -0.457513       -12.4496
 197   2.0000      -0.456726       -12.4282
 198   2.0000      -0.456187       -12.4135
 199   2.0000      -0.453398       -12.3376
 200   2.0000      -0.451628       -12.2894
 201   2.0000      -0.447590       -12.1795
 202   2.0000      -0.447437       -12.1754
 203   2.0000      -0.445890       -12.1333
 204   2.0000      -0.445220       -12.1151
 205   2.0000      -0.445039       -12.1101
 206   2.0000      -0.439966       -11.9721
 207   2.0000      -0.439808       -11.9678
 208   2.0000      -0.436372       -11.8743
 209   2.0000      -0.435269       -11.8443
 210   2.0000      -0.432751       -11.7758
 211   2.0000      -0.432354       -11.7650
 212   2.0000      -0.426529       -11.6064
 213   2.0000      -0.424160       -11.5420
 214   2.0000      -0.422904       -11.5078
 215   2.0000      -0.422506       -11.4970
 216   2.0000      -0.417518       -11.3612
 217   2.0000      -0.414719       -11.2851
 218   2.0000      -0.411224       -11.1900
 219   2.0000      -0.403336       -10.9753
 220   2.0000      -0.399231       -10.8636
 221   2.0000      -0.394919       -10.7463
 222   2.0000      -0.388793       -10.5796
 223   2.0000      -0.387283       -10.5385
 224   2.0000      -0.386251       -10.5104
 225   2.0000      -0.385148       -10.4804
 226   2.0000      -0.383781       -10.4432
 227   2.0000      -0.378212       -10.2917
 228   2.0000      -0.376697       -10.2505
 229   2.0000      -0.372067       -10.1245
 230   2.0000      -0.363834        -9.9004
 231   2.0000      -0.355592        -9.6761
 232   2.0000      -0.354909        -9.6576
 233   2.0000      -0.348063        -9.4713
 234   2.0000      -0.343663        -9.3515
 235   2.0000      -0.337412        -9.1815
 236   2.0000      -0.328172        -8.9300
 237   2.0000      -0.322992        -8.7890
 238   2.0000      -0.321279        -8.7424
 239   2.0000      -0.311034        -8.4637
 240   2.0000      -0.306129        -8.3302
 241   2.0000      -0.304232        -8.2786
 242   2.0000      -0.297894        -8.1061
 243   2.0000      -0.247100        -6.7239
 244   0.0000      -0.110323        -3.0020
 245   0.0000      -0.101237        -2.7548
 246   0.0000      -0.083212        -2.2643
 247   0.0000      -0.068536        -1.8650
 248   0.0000      -0.059824        -1.6279

MULLIKEN ATOMIC CHARGES
-----------------------
   0 C :    0.264153
   1 C :   -0.316714
   2 C :   -0.197785
   3 N :    0.169026
   4 C :   -0.210440
   5 N :    0.180305
   6 C :    0.041439
   7 C :    0.011346
   8 C :   -0.079609
   9 C :    0.094736
  10 C :    0.093526
  11 C :   -0.085328
  12 C :   -0.016545
  13 C :    0.038598
  14 C :    0.034264
  15 C :   -0.014400
  16 C :    0.139624
  17 O :   -0.136434
  18 C :   -0.117140
  19 C :    0.027799
  20 C :    0.179609
  21 O :   -0.206233
  22 C :    0.100499
  23 C :    0.123282
  24 C :   -0.035628
  25 N :    0.277875
  26 O :   -0.234195
  27 O :   -0.226182
  28 C :    0.114782
  29 N :   -0.264457
  30 C :    0.107463
  31 C :   -0.003041
  32 C :    0.156811
  33 O :   -0.191015
  34 C :   -0.068598
  35 C :   -0.015363
  36 C :    0.139192
  37 O :   -0.171485
  38 N :   -0.269390
  39 C :    0.096457
  40 C :   -0.005551
  41 C :    0.130574
  42 C :   -0.038058
  43 C :    0.041905
  44 C :    0.173388
  45 O :   -0.162873
  46 C :    0.096398
  47 C :    0.153191
  48 C :   -0.080757
  49 N :    0.266935
  50 O :   -0.253707
  51 O :   -0.229496
  52 C :   -0.064737
  53 C :   -0.039056
  54 C :    0.324896
  55 C :   -0.323200
  56 C :   -0.181964
  57 N :    0.161342
  58 C :   -0.196902
  59 N :    0.172775
  60 C :    0.047578
  61 C :   -0.004290
  62 C :    0.157619
  63 O :   -0.138203
  64 C :   -0.069496
  65 C :    0.098335
  66 C :    0.100031
  67 C :   -0.082257
  68 C :   -0.019013
  69 C :    0.039371
  70 C :    0.039769
  71 C :   -0.015934
  72 H :   -0.010118
  73 H :   -0.004908
  74 H :   -0.009629
  75 H :   -0.002559
  76 H :   -0.002327
  77 H :   -0.016471
  78 H :    0.027425
  79 H :    0.015030
  80 H :    0.032447
  81 H :    0.047415
  82 H :    0.014184
  83 H :    0.023707
  84 H :    0.030164
  85 H :    0.052678
  86 H :    0.027332
  87 H :    0.032900
  88 H :    0.027779
  89 H :    0.021234
  90 H :    0.015508
  91 H :    0.000159
  92 H :    0.017257
  93 H :    0.063086
  94 H :   -0.007619
  95 H :   -0.004956
  96 H :   -0.005482
  97 H :   -0.000110
  98 H :   -0.000486
  99 H :   -0.013055
Sum of atomic charges:   -0.0000000

LOEWDIN ATOMIC CHARGES
----------------------
   0 C :    0.065067
   1 C :   -0.132321
   2 C :   -0.022182
   3 N :   -0.044062
   4 C :   -0.028379
   5 N :   -0.047621
   6 C :   -0.022720
   7 C :   -0.058641
   8 C :    0.034963
   9 C :   -0.008996
  10 C :   -0.004523
  11 C :    0.015067
  12 C :   -0.005907
  13 C :   -0.010837
  14 C :   -0.011762
  15 C :   -0.008314
  16 C :    0.084161
  17 O :   -0.138084
  18 C :   -0.076712
  19 C :    0.045274
  20 C :    0.023974
  21 O :    0.046668
  22 C :    0.066245
  23 C :   -0.050427
  24 C :    0.006235
  25 N :    0.289004
  26 O :   -0.193111
  27 O :   -0.185854
  28 C :    0.042574
  29 N :    0.000973
  30 C :    0.032687
  31 C :   -0.060677
  32 C :    0.078403
  33 O :   -0.195059
  34 C :   -0.116334
  35 C :   -0.087179
  36 C :    0.087009
  37 O :   -0.167178
  38 N :   -0.003280
  39 C :    0.035948
  40 C :   -0.062535
  41 C :    0.088829
  42 C :   -0.024114
  43 C :   -0.001928
  44 C :    0.030788
  45 O :    0.048683
  46 C :    0.068694
  47 C :   -0.075829
  48 C :   -0.016479
  49 N :    0.288964
  50 O :   -0.217567
  51 O :   -0.193377
  52 C :    0.055607
  53 C :   -0.047196
  54 C :    0.073667
  55 C :   -0.116734
  56 C :   -0.016476
  57 N :   -0.038223
  58 C :   -0.018447
  59 N :   -0.036385
  60 C :   -0.024434
  61 C :   -0.058882
  62 C :    0.088252
  63 O :   -0.127853
  64 C :    0.040392
  65 C :   -0.006463
  66 C :   -0.003196
  67 C :    0.024067
  68 C :   -0.003592
  69 C :   -0.008221
  70 C :   -0.007611
  71 C :   -0.006744
  72 H :    0.040135
  73 H :    0.038780
  74 H :    0.034835
  75 H :    0.034124
  76 H :    0.033698
  77 H :    0.032337
  78 H :    0.057366
  79 H :    0.050834
  80 H :    0.020281
  81 H :    0.039217
  82 H :    0.019506
  83 H :    0.031156
  84 H :    0.031926
  85 H :    0.041051
  86 H :    0.020908
  87 H :    0.034367
  88 H :    0.032815
  89 H :    0.021618
  90 H :    0.048544
  91 H :    0.039749
  92 H :    0.049102
  93 H :    0.055867
  94 H :    0.041729
  95 H :    0.040285
  96 H :    0.036163
  97 H :    0.035286
  98 H :    0.034861
  99 H :    0.033712

  Mayer bond orders larger than 0.100000
B(  0-C ,  1-C ) :   1.6685 B(  0-C ,  6-C ) :   1.0035 B(  0-C , 18-C ) :   1.0245
B(  1-C ,  2-C ) :   1.1333 B(  1-C ,  4-C ) :   1.1614 B(  2-C ,  3-N ) :   2.9882
B(  4-C ,  5-N ) :   3.0104 B(  6-C ,  7-C ) :   1.2109 B(  6-C , 11-C ) :   1.4575
B(  7-C ,  8-C ) :   1.4733 B(  7-C , 16-C ) :   0.9239 B(  8-C ,  9-C ) :   1.1880
B(  8-C , 72-H ) :   1.0159 B(  9-C , 10-C ) :   1.2541 B(  9-C , 15-C ) :   1.2443
B( 10-C , 11-C ) :   1.2056 B( 10-C , 12-C ) :   1.2430 B( 11-C , 73-H ) :   0.9938
B( 12-C , 13-C ) :   1.4902 B( 12-C , 74-H ) :   0.9970 B( 13-C , 14-C ) :   1.2593
B( 13-C , 75-H ) :   0.9882 B( 14-C , 15-C ) :   1.4903 B( 14-C , 76-H ) :   0.9894
B( 15-C , 77-H ) :   0.9975 B( 16-C , 17-O ) :   2.2753 B( 16-C , 18-C ) :   0.9272
B( 18-C , 19-C ) :   1.6497 B( 19-C , 20-C ) :   1.1258 B( 19-C , 78-H ) :   0.9424
B( 20-C , 21-O ) :   1.0834 B( 20-C , 22-C ) :   0.1030 B( 20-C , 24-C ) :   1.3818
B( 21-O , 22-C ) :   1.1706 B( 22-C , 23-C ) :   1.4104 B( 22-C , 28-C ) :   1.0496
B( 23-C , 24-C ) :   1.2629 B( 23-C , 25-N ) :   0.9109 B( 24-C , 79-H ) :   1.0251
B( 25-N , 26-O ) :   1.5322 B( 25-N , 27-O ) :   1.5485 B( 26-O , 27-O ) :   0.2754
B( 28-C , 29-N ) :   1.1917 B( 28-C , 35-C ) :   1.4467 B( 29-N , 30-C ) :   0.9448
B( 29-N , 32-C ) :   1.0253 B( 30-C , 31-C ) :   1.1204 B( 30-C , 80-H ) :   0.9501
B( 30-C , 81-H ) :   0.9239 B( 31-C , 82-H ) :   0.9681 B( 31-C , 83-H ) :   0.9673
B( 31-C , 84-H ) :   0.9650 B( 32-C , 33-O ) :   2.1279 B( 32-C , 34-C ) :   0.9842
B( 34-C , 35-C ) :   1.2444 B( 34-C , 41-C ) :   1.3374 B( 35-C , 36-C ) :   0.9444
B( 36-C , 37-O ) :   2.1523 B( 36-C , 38-N ) :   1.0292 B( 38-N , 39-C ) :   0.9390
B( 38-N , 41-C ) :   1.1818 B( 39-C , 40-C ) :   1.1178 B( 39-C , 85-H ) :   0.9236
B( 39-C , 86-H ) :   0.9503 B( 40-C , 87-H ) :   0.9622 B( 40-C , 88-H ) :   0.9676
B( 40-C , 89-H ) :   0.9678 B( 41-C , 42-C ) :   1.1882 B( 42-C , 43-C ) :   1.6003
B( 42-C , 90-H ) :   0.9451 B( 43-C , 44-C ) :   1.1072 B( 43-C , 91-H ) :   0.9667
B( 44-C , 45-O ) :   1.0906 B( 44-C , 48-C ) :   1.4590 B( 45-O , 46-C ) :   1.2207
B( 46-C , 47-C ) :   1.4713 B( 46-C , 52-C ) :   0.9705 B( 47-C , 48-C ) :   1.2230
B( 47-C , 49-N ) :   0.9319 B( 48-C , 92-H ) :   1.0171 B( 49-N , 50-O ) :   1.5018
B( 49-N , 51-O ) :   1.5503 B( 50-O , 51-O ) :   0.2648 B( 52-C , 53-C ) :   1.8360
B( 52-C , 93-H ) :   0.9295 B( 53-C , 54-C ) :   0.9949 B( 53-C , 62-C ) :   0.9067
B( 54-C , 55-C ) :   1.6892 B( 54-C , 60-C ) :   1.0073 B( 55-C , 56-C ) :   1.1343
B( 55-C , 58-C ) :   1.1465 B( 56-C , 57-N ) :   2.9716 B( 58-C , 59-N ) :   2.9852
B( 60-C , 61-C ) :   1.2099 B( 60-C , 67-C ) :   1.4415 B( 61-C , 62-C ) :   0.9579
B( 61-C , 64-C ) :   1.4643 B( 62-C , 63-O ) :   2.2169 B( 64-C , 65-C ) :   1.1863
B( 64-C , 94-H ) :   1.0172 B( 65-C , 66-C ) :   1.2491 B( 65-C , 71-C ) :   1.2398
B( 66-C , 67-C ) :   1.2136 B( 66-C , 68-C ) :   1.2365 B( 67-C , 95-H ) :   0.9909
B( 68-C , 69-C ) :   1.4915 B( 68-C , 96-H ) :   0.9984 B( 69-C , 70-C ) :   1.2556
B( 69-C , 97-H ) :   0.9889 B( 70-C , 71-C ) :   1.4919 B( 70-C , 98-H ) :   0.9888
B( 71-C , 99-H ) :   0.9985

-----------------------------------------------------------------------------
         ABSORPTION SPECTRUM VIA TRANSITION ELECTRIC DIPOLE MOMENTS
-----------------------------------------------------------------------------
State   Energy  Wavelength   fosc         T2         TX        TY        TZ
        (cm-1)    (nm)                  (au**2)     (au)      (au)      (au)
-----------------------------------------------------------------------------
   0   13814.7    723.9   0.685935692  16.34625  -0.99382  -2.41318   3.08790
   1   19607.6    510.0   0.086675612   1.45529   0.25155  -1.04951   0.53900
   2   19866.6    503.4   0.051188481   0.84825   0.42737  -0.73501   0.35407
   3   24729.0    404.4   0.064088242   0.85319   0.88313   0.17824  -0.20373
   4   25212.4    396.6   0.006138068   0.08015   0.15844   0.04606   0.23005
   5   26047.5    383.9   0.332619183   4.20394   0.85251   0.82019  -1.67465
   6   26181.1    382.0   0.035403916   0.44518   0.37179  -0.02417  -0.55351
   7   26323.8    379.9   0.034868356   0.43607  -0.13562   0.52141  -0.38185
   8   26877.0    372.1   0.076989795   0.94303   0.81311   0.01545   0.53070
   9   27180.5    367.9   0.026452371   0.32039  -0.27787  -0.35215   0.34521
  10   27581.9    362.6   0.102665597   1.22539   0.27214   1.04271  -0.25315
  11   27637.2    361.8   0.013059460   0.15556   0.21930   0.30595  -0.11776
  12   27958.6    357.7   0.288544553   3.39761  -0.24837  -1.67054   0.73838
  13   28479.2    351.1   0.169463348   1.95895  -0.24331   1.11822   0.80581
  14   29205.4    342.4   0.017517154   0.19746   0.08039  -0.22664  -0.37367
  15   29302.9    341.3   0.044441006   0.49928  -0.44700   0.00633  -0.54721
  16   29717.1    336.5   0.041364888   0.45825  -0.42011  -0.11855   0.51740
  17   31122.3    321.3   0.001550162   0.01640  -0.04984  -0.10896  -0.04519
  18   31258.3    319.9   0.108365149   1.14130  -0.74993   0.75413  -0.10098
  19   32064.8    311.9   0.000719803   0.00739   0.07596   0.03677  -0.01639
  20   32976.0    303.3   0.669456022   6.68344   0.05978  -0.01978  -2.58447
  21   33309.9    300.2   0.050208642   0.49623   0.12298   0.05348  -0.69155
  22   33494.5    298.6   0.457403485   4.49574  -1.59297   0.14403  -1.39192
  23   33685.5    296.9   0.095530940   0.93363  -0.52264   0.01093   0.81263
  24   33957.0    294.5   0.155398543   1.50658   0.80898   0.88749   0.25397
  25   34049.3    293.7   0.322276694   3.11599   1.33786  -0.43385   1.06672
  26   34210.7    292.3   0.056880001   0.54736   0.55747   0.06842   0.48156
  27   34378.6    290.9   0.029330547   0.28087  -0.15818  -0.21874   0.45607
  28   34882.3    286.7   0.021152955   0.19964  -0.42857  -0.10290   0.07334
  29   35343.8    282.9   0.392058924   3.65185   1.73770   0.79510   0.00779
  30   36129.9    276.8   0.042715606   0.38922   0.35268  -0.47746   0.19203
  31   36590.3    273.3   0.194941711   1.75394   0.47097  -0.38336  -1.17693
  32   36692.9    272.5   0.007548446   0.06773   0.05105  -0.01393  -0.25480
  33   37013.4    270.2   0.014679453   0.13056   0.05339   0.35086   0.06789
  34   37155.9    269.1   0.266350366   2.35994  -0.01804  -1.53468   0.06612
  35   37570.4    266.2   0.245994773   2.15554   0.01890  -0.03914   1.46753
  36   38224.5    261.6   0.000917510   0.00790   0.05637   0.03127   0.06121
  37   38457.5    260.0   0.124336430   1.06437   0.60651   0.27383  -0.78837
  38   38633.3    258.8   0.028906966   0.24633  -0.19271  -0.21801   0.40208
  39   38697.1    258.4   0.074932158   0.63748   0.35685  -0.66671   0.25619
  40   38745.5    258.1   0.023667654   0.20110  -0.00777  -0.29080   0.34128
  41   38998.0    256.4   0.007842465   0.06620   0.22134  -0.12471  -0.04072
  42   39134.3    255.5   0.064268087   0.54065   0.43808   0.38034  -0.45174
  43   39529.6    253.0   0.078581584   0.65445   0.42346   0.36213  -0.58651
  44   39943.9    250.4   0.039148334   0.32265  -0.02337   0.54638  -0.15356
  45   40085.3    249.5   0.134523306   1.10481   0.24165  -0.65206  -0.78818
  46   40147.2    249.1   0.123357229   1.01155   1.00342   0.00388  -0.06835

FINAL SINGLE POINT ENERGY     -3260.549916445613

DIPOLE MOMENT
-------------
                                X             Y             Z
Electronic contribution:     -6.77895       4.57449     -20.50228
Nuclear contribution   :      9.56097      -4.58326      23.18023
                        -----------------------------------------
Total Dipole Moment    :      2.78202      -0.00877       2.67795
                        -----------------------------------------
Magnitude (a.u.)       :      3.86149
Magnitude (Debye)      :      9.81512

Rotational constants in cm-1:     0.001905     0.000298     0.000288
Rotational constants in MHz :    57.095728     8.937457     8.636667

                             ****ORCA TERMINATED NORMALLY****
TOTAL RUN TIME: 0 days 0 hours 9 minutes 42 seconds 760 msec
