                         Program Version 4.2.0 -  RELEASE  -
|  1> # ORCA input file
|  2> # SCF done       -195.526860683679          0.000759499905
|  3> ! CAM-B3LYP def2-SVP def2/J RIJCOSX Grid4 TightSCF
|  4> %maxcore 5000
|  5> %tddft
|  6>     Mode sTDDFT
|  7>     Ethresh 5.0
|  8>     maxcore 5000
|  9> end
| 10>
| 11> %pal
| 12>   nprocs 6
| 13>   end
| 14> * xyz 0 1
| 15>    C       -4.78406         1.18788        -7.94551
| 16>    S       -4.74959        -0.52163        -7.92196
| 17>    C       -5.85230        -0.58047        -6.59174
| 18>    C       -6.22510         0.68639        -6.20579
| 19>    C       -5.60207         1.70212        -6.98470
| 20>    N       -5.66839         3.11884        -6.71386
| 21>    O       -5.60550         3.85872        -7.66397
| 22>    O       -5.70889         3.43973        -5.55168
| 23>    N       -7.25062         0.89132        -5.22494
| 24>    O       -7.40238         0.00397        -4.41013
| 25>    O       -7.90857         1.89629        -5.31093
| 26>    C       -6.36637        -1.82591        -6.05384
| 27>    C       -7.47557        -2.48125        -6.52771
| 28>    N       -8.27862        -2.04565        -7.60229
| 29>    O       -9.22269        -2.73537        -7.92271
| 30>    O       -7.95707        -1.00190        -8.15036
| 31>    C       -7.70597        -3.67905        -5.75128
| 32>    C       -6.70754        -3.78721        -4.85113
| 33>    C       -5.80524        -2.66124        -4.99592
| 34>    C       -4.65883        -2.39758        -4.28328
| 35>    C       -4.01503        -1.12954        -4.13279
| 36>    C       -3.09221        -1.22761        -3.14148
| 37>    C       -3.05366        -2.57995        -2.65345
| 38>    N       -2.10374        -2.93804        -1.67791
| 39>    O       -1.18608        -2.15968        -1.49444
| 40>    O       -2.23794        -3.98311        -1.05912
| 41>    C       -3.96635        -3.35069        -3.37570
| 42>    C       -4.13778        -4.74055        -3.52809
| 43>    C       -3.78539        -5.73207        -2.65123
| 44>    C       -3.98822        -7.09264        -2.94720
| 45>    N       -3.67517        -8.11041        -2.08109
| 46>    C       -3.13773        -7.96391        -0.74663
| 47>    C       -4.22992        -7.62060         0.26217
| 48>    C       -3.99641        -9.36964        -2.60335
| 49>    O       -3.80717       -10.41707        -2.02132
| 50>    C       -4.55041        -9.08371        -3.91580
| 51>    C       -4.52577        -7.68768        -4.10221
| 52>    C       -5.08154        -7.40362        -5.40915
| 53>    O       -5.26487        -6.36317        -6.00876
| 54>    N       -5.42138        -8.66809        -5.92559
| 55>    C       -5.97012        -8.80535        -7.25401
| 56>    C       -4.90479        -9.21992        -8.26582
| 57>    C       -5.10772        -9.67930        -5.05428
| 58>    C       -5.35523       -11.05233        -5.31416
| 59>    C       -5.04882       -12.02247        -4.41969
| 60>    C       -5.28659       -13.43333        -4.58469
| 61>    C       -5.06970       -14.27593        -3.48973
| 62>    C       -5.30501       -15.63507        -3.58634
| 63>    N       -5.00202       -16.46187        -2.44146
| 64>    O       -4.89439       -15.91488        -1.36946
| 65>    O       -4.85797       -17.65198        -2.63401
| 66>    C       -5.76615       -16.21999        -4.77550
| 67>    C       -5.94857       -15.37535        -5.87378
| 68>    C       -5.71854       -14.02110        -5.78391
| 69>    C       -6.10897       -17.62873        -4.87530
| 70>    C       -5.72994       -18.40422        -5.89975
| 71>    C       -6.11961       -19.78093        -6.05424
| 72>    S       -5.01826       -20.94514        -6.73354
| 73>    C       -6.13268       -22.21516        -6.52557
| 74>    C       -7.30443       -21.78179        -5.96819
| 75>    C       -7.30093       -20.38770        -5.69793
| 76>    N       -8.41439       -19.66707        -5.11174
| 77>    O       -8.83936       -18.73019        -5.74294
| 78>    O       -8.78671       -20.03545        -4.02834
| 79>    N       -8.44470       -22.63906        -5.79881
| 80>    O       -8.23190       -23.82765        -5.75845
| 81>    O       -9.52613       -22.10224        -5.74985
| 82>    H       -4.19110         1.74543        -8.64417
| 83>    H       -8.54890        -4.32551        -5.89716
| 84>    H       -6.62858        -4.53159        -4.08536
| 85>    H       -4.29053        -0.22876        -4.64094
| 86>    H       -2.47038        -0.44558        -2.74726
| 87>    H       -4.59801        -5.03796        -4.46131
| 88>    H       -3.35845        -5.47890        -1.69367
| 89>    H       -2.36015        -7.19702        -0.74971
| 90>    H       -2.68913        -8.92723        -0.49044
| 91>    H       -4.70751        -6.67613         0.01254
| 92>    H       -3.79511        -7.53708         1.25353
| 93>    H       -4.98537        -8.40272         0.27838
| 94>    H       -6.36630        -7.82216        -7.52189
| 95>    H       -6.79501        -9.52248        -7.23626
| 96>    H       -4.11731        -8.47141        -8.30346
| 97>    H       -5.34980        -9.30359        -9.25312
| 98>    H       -4.45943       -10.17588        -7.99861
| 99>    H       -5.82251       -11.29626        -6.25669
|100>    H       -4.60062       -11.73503        -3.47717
|101>    H       -4.71123       -13.87356        -2.55315
|102>    H       -6.31090       -15.80337        -6.79556
|103>    H       -5.87327       -13.40884        -6.65800
|104>    H       -6.69223       -18.03894        -4.06245
|105>    H       -5.03684       -18.02845        -6.63994
|106>    H       -5.90839       -23.21825        -6.83243
|107> *
|108>
|109>                          ****END OF INPUT****

CARTESIAN COORDINATES (ANGSTROEM)
---------------------------------
  C     -4.784060    1.187880   -7.945510
  S     -4.749590   -0.521630   -7.921960
  C     -5.852300   -0.580470   -6.591740
  C     -6.225100    0.686390   -6.205790
  C     -5.602070    1.702120   -6.984700
  N     -5.668390    3.118840   -6.713860
  O     -5.605500    3.858720   -7.663970
  O     -5.708890    3.439730   -5.551680
  N     -7.250620    0.891320   -5.224940
  O     -7.402380    0.003970   -4.410130
  O     -7.908570    1.896290   -5.310930
  C     -6.366370   -1.825910   -6.053840
  C     -7.475570   -2.481250   -6.527710
  N     -8.278620   -2.045650   -7.602290
  O     -9.222690   -2.735370   -7.922710
  O     -7.957070   -1.001900   -8.150360
  C     -7.705970   -3.679050   -5.751280
  C     -6.707540   -3.787210   -4.851130
  C     -5.805240   -2.661240   -4.995920
  C     -4.658830   -2.397580   -4.283280
  C     -4.015030   -1.129540   -4.132790
  C     -3.092210   -1.227610   -3.141480
  C     -3.053660   -2.579950   -2.653450
  N     -2.103740   -2.938040   -1.677910
  O     -1.186080   -2.159680   -1.494440
  O     -2.237940   -3.983110   -1.059120
  C     -3.966350   -3.350690   -3.375700
  C     -4.137780   -4.740550   -3.528090
  C     -3.785390   -5.732070   -2.651230
  C     -3.988220   -7.092640   -2.947200
  N     -3.675170   -8.110410   -2.081090
  C     -3.137730   -7.963910   -0.746630
  C     -4.229920   -7.620600    0.262170
  C     -3.996410   -9.369640   -2.603350
  O     -3.807170  -10.417070   -2.021320
  C     -4.550410   -9.083710   -3.915800
  C     -4.525770   -7.687680   -4.102210
  C     -5.081540   -7.403620   -5.409150
  O     -5.264870   -6.363170   -6.008760
  N     -5.421380   -8.668090   -5.925590
  C     -5.970120   -8.805350   -7.254010
  C     -4.904790   -9.219920   -8.265820
  C     -5.107720   -9.679300   -5.054280
  C     -5.355230  -11.052330   -5.314160
  C     -5.048820  -12.022470   -4.419690
  C     -5.286590  -13.433330   -4.584690
  C     -5.069700  -14.275930   -3.489730
  C     -5.305010  -15.635070   -3.586340
  N     -5.002020  -16.461870   -2.441460
  O     -4.894390  -15.914880   -1.369460
  O     -4.857970  -17.651980   -2.634010
  C     -5.766150  -16.219990   -4.775500
  C     -5.948570  -15.375350   -5.873780
  C     -5.718540  -14.021100   -5.783910
  C     -6.108970  -17.628730   -4.875300
  C     -5.729940  -18.404220   -5.899750
  C     -6.119610  -19.780930   -6.054240
  S     -5.018260  -20.945140   -6.733540
  C     -6.132680  -22.215160   -6.525570
  C     -7.304430  -21.781790   -5.968190
  C     -7.300930  -20.387700   -5.697930
  N     -8.414390  -19.667070   -5.111740
  O     -8.839360  -18.730190   -5.742940
  O     -8.786710  -20.035450   -4.028340
  N     -8.444700  -22.639060   -5.798810
  O     -8.231900  -23.827650   -5.758450
  O     -9.526130  -22.102240   -5.749850
  H     -4.191100    1.745430   -8.644170
  H     -8.548900   -4.325510   -5.897160
  H     -6.628580   -4.531590   -4.085360
  H     -4.290530   -0.228760   -4.640940
  H     -2.470380   -0.445580   -2.747260
  H     -4.598010   -5.037960   -4.461310
  H     -3.358450   -5.478900   -1.693670
  H     -2.360150   -7.197020   -0.749710
  H     -2.689130   -8.927230   -0.490440
  H     -4.707510   -6.676130    0.012540
  H     -3.795110   -7.537080    1.253530
  H     -4.985370   -8.402720    0.278380
  H     -6.366300   -7.822160   -7.521890
  H     -6.795010   -9.522480   -7.236260
  H     -4.117310   -8.471410   -8.303460
  H     -5.349800   -9.303590   -9.253120
  H     -4.459430  -10.175880   -7.998610
  H     -5.822510  -11.296260   -6.256690
  H     -4.600620  -11.735030   -3.477170
  H     -4.711230  -13.873560   -2.553150
  H     -6.310900  -15.803370   -6.795560
  H     -5.873270  -13.408840   -6.658000
  H     -6.692230  -18.038940   -4.062450
  H     -5.036840  -18.028450   -6.639940
  H     -5.908390  -23.218250   -6.832430

 Total Charge           Charge          ....    0
 Multiplicity           Mult            ....    1
 Number of Electrons    NEL             ....  488
 Basis Dimension        Dim             .... 1071

ORBITAL ENERGIES
----------------

  NO   OCC          E(Eh)            E(eV)
   0   2.0000     -89.008474     -2422.0437
   1   2.0000     -89.007561     -2422.0189
   2   2.0000     -19.260392      -524.1019
   3   2.0000     -19.258746      -524.0571
   4   2.0000     -19.258651      -524.0545
   5   2.0000     -19.258081      -524.0390
   6   2.0000     -19.257454      -524.0220
   7   2.0000     -19.257438      -524.0215
   8   2.0000     -19.255466      -523.9679
   9   2.0000     -19.255327      -523.9641
  10   2.0000     -19.254675      -523.9464
  11   2.0000     -19.253971      -523.9272
  12   2.0000     -19.253489      -523.9141
  13   2.0000     -19.250358      -523.8289
  14   2.0000     -19.248772      -523.7857
  15   2.0000     -19.246364      -523.7202
  16   2.0000     -19.219690      -522.9943
  17   2.0000     -19.207170      -522.6537
  18   2.0000     -14.667364      -399.1193
  19   2.0000     -14.666125      -399.0856
  20   2.0000     -14.665391      -399.0656
  21   2.0000     -14.664016      -399.0282
  22   2.0000     -14.663003      -399.0006
  23   2.0000     -14.660553      -398.9339
  24   2.0000     -14.656357      -398.8197
  25   2.0000     -14.477803      -393.9610
  26   2.0000     -14.469480      -393.7346
  27   2.0000     -10.399655      -282.9890
  28   2.0000     -10.390854      -282.7495
  29   2.0000     -10.364163      -282.0232
  30   2.0000     -10.361598      -281.9534
  31   2.0000     -10.359448      -281.8949
  32   2.0000     -10.358701      -281.8746
  33   2.0000     -10.358185      -281.8605
  34   2.0000     -10.357350      -281.8378
  35   2.0000     -10.354773      -281.7677
  36   2.0000     -10.352845      -281.7152
  37   2.0000     -10.349935      -281.6360
  38   2.0000     -10.346719      -281.5485
  39   2.0000     -10.346011      -281.5293
  40   2.0000     -10.345267      -281.5090
  41   2.0000     -10.340289      -281.3736
  42   2.0000     -10.338324      -281.3201
  43   2.0000     -10.335505      -281.2434
  44   2.0000     -10.334905      -281.2271
  45   2.0000     -10.333780      -281.1964
  46   2.0000     -10.331671      -281.1391
  47   2.0000     -10.329954      -281.0924
  48   2.0000     -10.320254      -280.8284
  49   2.0000     -10.317596      -280.7561
  50   2.0000     -10.317517      -280.7539
  51   2.0000     -10.316825      -280.7351
  52   2.0000     -10.315917      -280.7104
  53   2.0000     -10.314430      -280.6699
  54   2.0000     -10.313445      -280.6431
  55   2.0000     -10.313084      -280.6333
  56   2.0000     -10.313017      -280.6315
  57   2.0000     -10.309474      -280.5351
  58   2.0000     -10.308896      -280.5193
  59   2.0000     -10.308854      -280.5182
  60   2.0000     -10.300648      -280.2949
  61   2.0000     -10.295413      -280.1524
  62   2.0000     -10.293334      -280.0959
  63   2.0000     -10.287623      -279.9405
  64   2.0000     -10.283820      -279.8370
  65   2.0000     -10.282352      -279.7970
  66   2.0000     -10.269815      -279.4559
  67   2.0000      -8.103919      -220.5189
  68   2.0000      -8.103406      -220.5049
  69   2.0000      -6.073192      -165.2600
  70   2.0000      -6.072603      -165.2439
  71   2.0000      -6.068807      -165.1406
  72   2.0000      -6.068333      -165.1277
  73   2.0000      -6.066212      -165.0700
  74   2.0000      -6.065711      -165.0564
  75   2.0000      -1.344771       -36.5931
  76   2.0000      -1.341619       -36.5073
  77   2.0000      -1.340536       -36.4778
  78   2.0000      -1.338995       -36.4359
  79   2.0000      -1.336414       -36.3657
  80   2.0000      -1.332477       -36.2585
  81   2.0000      -1.327079       -36.1116
  82   2.0000      -1.164752       -31.6945
  83   2.0000      -1.161945       -31.6181
  84   2.0000      -1.160579       -31.5809
  85   2.0000      -1.159969       -31.5644
  86   2.0000      -1.158105       -31.5136
  87   2.0000      -1.157324       -31.4924
  88   2.0000      -1.151079       -31.3225
  89   2.0000      -1.146800       -31.2060
  90   2.0000      -1.143856       -31.1259
  91   2.0000      -1.087214       -29.5846
  92   2.0000      -1.075470       -29.2650
  93   2.0000      -1.046970       -28.4895
  94   2.0000      -1.043813       -28.4036
  95   2.0000      -1.024125       -27.8679
  96   2.0000      -1.011174       -27.5155
  97   2.0000      -1.006262       -27.3818
  98   2.0000      -0.952714       -25.9247
  99   2.0000      -0.946584       -25.7579
 100   2.0000      -0.936304       -25.4781
 101   2.0000      -0.928169       -25.2568
 102   2.0000      -0.927108       -25.2279
 103   2.0000      -0.925907       -25.1952
 104   2.0000      -0.920699       -25.0535
 105   2.0000      -0.920144       -25.0384
 106   2.0000      -0.911902       -24.8141
 107   2.0000      -0.903309       -24.5803
 108   2.0000      -0.891213       -24.2511
 109   2.0000      -0.887606       -24.1530
 110   2.0000      -0.869250       -23.6535
 111   2.0000      -0.857704       -23.3393
 112   2.0000      -0.855276       -23.2732
 113   2.0000      -0.837065       -22.7777
 114   2.0000      -0.823590       -22.4110
 115   2.0000      -0.819013       -22.2865
 116   2.0000      -0.811457       -22.0809
 117   2.0000      -0.788315       -21.4511
 118   2.0000      -0.783298       -21.3146
 119   2.0000      -0.781914       -21.2769
 120   2.0000      -0.780427       -21.2365
 121   2.0000      -0.776820       -21.1383
 122   2.0000      -0.774510       -21.0755
 123   2.0000      -0.749701       -20.4004
 124   2.0000      -0.737983       -20.0815
 125   2.0000      -0.734047       -19.9744
 126   2.0000      -0.725619       -19.7451
 127   2.0000      -0.719180       -19.5699
 128   2.0000      -0.715937       -19.4816
 129   2.0000      -0.709770       -19.3138
 130   2.0000      -0.695537       -18.9265
 131   2.0000      -0.693599       -18.8738
 132   2.0000      -0.681453       -18.5433
 133   2.0000      -0.670301       -18.2398
 134   2.0000      -0.666309       -18.1312
 135   2.0000      -0.664062       -18.0701
 136   2.0000      -0.662448       -18.0261
 137   2.0000      -0.659457       -17.9447
 138   2.0000      -0.655913       -17.8483
 139   2.0000      -0.652617       -17.7586
 140   2.0000      -0.651484       -17.7278
 141   2.0000      -0.647119       -17.6090
 142   2.0000      -0.642224       -17.4758
 143   2.0000      -0.641602       -17.4589
 144   2.0000      -0.639444       -17.4002
 145   2.0000      -0.638246       -17.3676
 146   2.0000      -0.637602       -17.3500
 147   2.0000      -0.636747       -17.3268
 148   2.0000      -0.631524       -17.1846
 149   2.0000      -0.630167       -17.1477
 150   2.0000      -0.625863       -17.0306
 151   2.0000      -0.625046       -17.0084
 152   2.0000      -0.617388       -16.8000
 153   2.0000      -0.614966       -16.7341
 154   2.0000      -0.608583       -16.5604
 155   2.0000      -0.607418       -16.5287
 156   2.0000      -0.605732       -16.4828
 157   2.0000      -0.603748       -16.4288
 158   2.0000      -0.602618       -16.3981
 159   2.0000      -0.598729       -16.2923
 160   2.0000      -0.598236       -16.2788
 161   2.0000      -0.594594       -16.1797
 162   2.0000      -0.591704       -16.1011
 163   2.0000      -0.590425       -16.0663
 164   2.0000      -0.586075       -15.9479
 165   2.0000      -0.583802       -15.8860
 166   2.0000      -0.576355       -15.6834
 167   2.0000      -0.575447       -15.6587
 168   2.0000      -0.562885       -15.3169
 169   2.0000      -0.559592       -15.2273
 170   2.0000      -0.556289       -15.1374
 171   2.0000      -0.551329       -15.0024
 172   2.0000      -0.550437       -14.9782
 173   2.0000      -0.549871       -14.9628
 174   2.0000      -0.547651       -14.9023
 175   2.0000      -0.545096       -14.8328
 176   2.0000      -0.541972       -14.7478
 177   2.0000      -0.535427       -14.5697
 178   2.0000      -0.532795       -14.4981
 179   2.0000      -0.527592       -14.3565
 180   2.0000      -0.525874       -14.3098
 181   2.0000      -0.522526       -14.2187
 182   2.0000      -0.518912       -14.1203
 183   2.0000      -0.515563       -14.0292
 184   2.0000      -0.510214       -13.8836
 185   2.0000      -0.506233       -13.7753
 186   2.0000      -0.505754       -13.7623
 187   2.0000      -0.500259       -13.6128
 188   2.0000      -0.497521       -13.5382
 189   2.0000      -0.496529       -13.5113
 190   2.0000      -0.493448       -13.4274
 191   2.0000      -0.489706       -13.3256
 192   2.0000      -0.486059       -13.2263
 193   2.0000      -0.483232       -13.1494
 194   2.0000      -0.481853       -13.1119
 195   2.0000      -0.481267       -13.0959
 196   2.0000      -0.476408       -12.9637
 197   2.0000      -0.472947       -12.8696
 198   2.0000      -0.472034       -12.8447
 199   2.0000      -0.469229       -12.7684
 200   2.0000      -0.461027       -12.5452
 201   2.0000      -0.458883       -12.4868
 202   2.0000      -0.458268       -12.4701
 203   2.0000      -0.454599       -12.3703
 204   2.0000      -0.449546       -12.2328
 205   2.0000      -0.445713       -12.1285
 206   2.0000      -0.434341       -11.8190
 207   2.0000      -0.428467       -11.6592
 208   2.0000      -0.408196       -11.1076
 209   2.0000      -0.406258       -11.0548
 210   2.0000      -0.404772       -11.0144
 211   2.0000      -0.403081       -10.9684
 212   2.0000      -0.401510       -10.9257
 213   2.0000      -0.400085       -10.8869
 214   2.0000      -0.399068       -10.8592
 215   2.0000      -0.398616       -10.8469
 216   2.0000      -0.397545       -10.8177
 217   2.0000      -0.396366       -10.7857
 218   2.0000      -0.396166       -10.7802
 219   2.0000      -0.393785       -10.7154
 220   2.0000      -0.393186       -10.6991
 221   2.0000      -0.391578       -10.6554
 222   2.0000      -0.391404       -10.6507
 223   2.0000      -0.389116       -10.5884
 224   2.0000      -0.388187       -10.5631
 225   2.0000      -0.386412       -10.5148
 226   2.0000      -0.382478       -10.4078
 227   2.0000      -0.380868       -10.3639
 228   2.0000      -0.379117       -10.3163
 229   2.0000      -0.377855       -10.2820
 230   2.0000      -0.375214       -10.2101
 231   2.0000      -0.369818       -10.0633
 232   2.0000      -0.366876        -9.9832
 233   2.0000      -0.359301        -9.7771
 234   2.0000      -0.358797        -9.7634
 235   2.0000      -0.352084        -9.5807
 236   2.0000      -0.348510        -9.4834
 237   2.0000      -0.343345        -9.3429
 238   2.0000      -0.342560        -9.3215
 239   2.0000      -0.336268        -9.1503
 240   2.0000      -0.321901        -8.7594
 241   2.0000      -0.314881        -8.5684
 242   2.0000      -0.310379        -8.4458
 243   2.0000      -0.252858        -6.8806
 244   0.0000      -0.145571        -3.9612
 245   0.0000      -0.099389        -2.7045
 246   0.0000      -0.072857        -1.9825
 247   0.0000      -0.058683        -1.5968
 248   0.0000      -0.057249        -1.5578

MULLIKEN ATOMIC CHARGES
-----------------------
   0 C :   -0.091853
   1 S :    0.245854
   2 C :   -0.281868
   3 C :    0.229876
   4 C :    0.129604
   5 N :    0.256433
   6 O :   -0.226550
   7 O :   -0.216826
   8 N :    0.260116
   9 O :   -0.235949
  10 O :   -0.206139
  11 C :   -0.012813
  12 C :    0.111417
  13 N :    0.267083
  14 O :   -0.227535
  15 O :   -0.247049
  16 C :    0.017886
  17 C :    0.033583
  18 C :    0.093424
  19 C :    0.013862
  20 C :    0.017630
  21 C :    0.033998
  22 C :    0.064455
  23 N :    0.276291
  24 O :   -0.242454
  25 O :   -0.257477
  26 C :    0.084638
  27 C :   -0.095355
  28 C :   -0.004843
  29 C :    0.135198
  30 N :   -0.252970
  31 C :    0.094340
  32 C :    0.004189
  33 C :    0.173373
  34 O :   -0.208929
  35 C :   -0.077331
  36 C :   -0.059059
  37 C :    0.166129
  38 O :   -0.200235
  39 N :   -0.256477
  40 C :    0.097950
  41 C :    0.001866
  42 C :    0.140180
  43 C :    0.002479
  44 C :    0.012033
  45 C :    0.107151
  46 C :   -0.074904
  47 C :    0.174989
  48 N :    0.243845
  49 O :   -0.218648
  50 O :   -0.228971
  51 C :   -0.000611
  52 C :   -0.011194
  53 C :    0.021220
  54 C :    0.045246
  55 C :    0.008925
  56 C :   -0.168453
  57 S :    0.200193
  58 C :   -0.109294
  59 C :    0.156840
  60 C :    0.164265
  61 N :    0.237421
  62 O :   -0.217162
  63 O :   -0.205442
  64 N :    0.260879
  65 O :   -0.231778
  66 O :   -0.225143
  67 H :    0.050037
  68 H :   -0.002164
  69 H :   -0.000021
  70 H :   -0.011686
  71 H :    0.012753
  72 H :    0.036297
  73 H :    0.010812
  74 H :    0.042730
  75 H :    0.043265
  76 H :    0.018298
  77 H :    0.030728
  78 H :    0.028984
  79 H :    0.046440
  80 H :    0.029034
  81 H :    0.033592
  82 H :    0.029246
  83 H :    0.013692
  84 H :   -0.030362
  85 H :    0.017625
  86 H :    0.024688
  87 H :   -0.001077
  88 H :   -0.011690
  89 H :    0.037183
  90 H :    0.006555
  91 H :    0.053491
Sum of atomic charges:   -0.0000000

LOEWDIN ATOMIC CHARGES
----------------------
   0 C :   -0.146146
   1 S :    0.526474
   2 C :   -0.146747
   3 C :   -0.059292
   4 C :   -0.053598
   5 N :    0.280277
   6 O :   -0.189180
   7 O :   -0.183672
   8 N :    0.284635
   9 O :   -0.198568
  10 O :   -0.170743
  11 C :   -0.028324
  12 C :   -0.015469
  13 N :    0.282955
  14 O :   -0.191566
  15 O :   -0.213970
  16 C :    0.003242
  17 C :   -0.009868
  18 C :    0.037492
  19 C :    0.055731
  20 C :   -0.042971
  21 C :    0.031687
  22 C :   -0.046594
  23 N :    0.286449
  24 O :   -0.205991
  25 O :   -0.217544
  26 C :    0.013262
  27 C :    0.000264
  28 C :   -0.002799
  29 C :    0.064432
  30 N :    0.008062
  31 C :    0.039171
  32 C :   -0.058706
  33 C :    0.078991
  34 O :   -0.197319
  35 C :   -0.120800
  36 C :   -0.104502
  37 C :    0.082925
  38 O :   -0.185565
  39 N :    0.003187
  40 C :    0.037192
  41 C :   -0.060193
  42 C :    0.086921
  43 C :   -0.049369
  44 C :    0.046606
  45 C :   -0.029010
  46 C :    0.025536
  47 C :   -0.024297
  48 N :    0.283818
  49 O :   -0.186145
  50 O :   -0.187425
  51 C :    0.000583
  52 C :   -0.003408
  53 C :    0.017946
  54 C :    0.020834
  55 C :   -0.053564
  56 C :   -0.150782
  57 S :    0.508739
  58 C :   -0.148485
  59 C :   -0.062250
  60 C :   -0.050861
  61 N :    0.277550
  62 O :   -0.185268
  63 O :   -0.173598
  64 N :    0.281929
  65 O :   -0.194331
  66 O :   -0.188480
  67 H :    0.043808
  68 H :    0.038656
  69 H :    0.032832
  70 H :    0.029202
  71 H :    0.041288
  72 H :    0.039615
  73 H :    0.030428
  74 H :    0.031210
  75 H :    0.038240
  76 H :    0.023661
  77 H :    0.034517
  78 H :    0.031247
  79 H :    0.039127
  80 H :    0.024883
  81 H :    0.033755
  82 H :    0.033144
  83 H :    0.021497
  84 H :    0.026747
  85 H :    0.040192
  86 H :    0.050301
  87 H :    0.039089
  88 H :    0.032872
  89 H :    0.036403
  90 H :    0.033548
  91 H :    0.044245

  Mayer bond orders larger than 0.100000
B(  0-C ,  1-S ) :   1.1701 B(  0-C ,  4-C ) :   1.5913 B(  0-C , 67-H ) :   0.9585
B(  1-S ,  2-C ) :   1.2010 B(  2-C ,  3-C ) :   1.5522 B(  2-C , 11-C ) :   1.0011
B(  3-C ,  4-C ) :   1.2254 B(  3-C ,  8-N ) :   0.9085 B(  4-C ,  5-N ) :   0.8787
B(  5-N ,  6-O ) :   1.5429 B(  5-N ,  7-O ) :   1.5630 B(  6-O ,  7-O ) :   0.2830
B(  8-N ,  9-O ) :   1.5015 B(  8-N , 10-O ) :   1.5710 B(  9-O , 10-O ) :   0.2755
B( 11-C , 12-C ) :   1.6430 B( 11-C , 18-C ) :   1.0910 B( 12-C , 13-N ) :   0.9229
B( 12-C , 16-C ) :   1.1117 B( 13-N , 14-O ) :   1.5451 B( 13-N , 15-O ) :   1.5026
B( 14-O , 15-O ) :   0.2734 B( 16-C , 17-C ) :   1.6297 B( 16-C , 68-H ) :   1.0148
B( 17-C , 18-C ) :   1.0894 B( 17-C , 69-H ) :   0.9965 B( 18-C , 19-C ) :   1.5251
B( 19-C , 20-C ) :   1.1256 B( 19-C , 26-C ) :   0.9975 B( 20-C , 21-C ) :   1.5667
B( 20-C , 70-H ) :   1.0095 B( 21-C , 22-C ) :   1.1341 B( 21-C , 71-H ) :   1.0075
B( 22-C , 23-N ) :   0.9586 B( 22-C , 26-C ) :   1.4780 B( 23-N , 24-O ) :   1.5425
B( 23-N , 25-O ) :   1.4629 B( 24-O , 25-O ) :   0.2514 B( 26-C , 27-C ) :   1.1840
B( 27-C , 28-C ) :   1.5387 B( 27-C , 72-H ) :   0.9364 B( 28-C , 29-C ) :   1.1748
B( 28-C , 73-H ) :   0.9454 B( 29-C , 30-N ) :   1.1624 B( 29-C , 36-C ) :   1.2902
B( 30-N , 31-C ) :   0.9345 B( 30-N , 33-C ) :   1.0752 B( 31-C , 32-C ) :   1.1227
B( 31-C , 74-H ) :   0.9485 B( 31-C , 75-H ) :   0.9289 B( 32-C , 76-H ) :   0.9683
B( 32-C , 77-H ) :   0.9681 B( 32-C , 78-H ) :   0.9641 B( 33-C , 34-O ) :   2.0205
B( 33-C , 35-C ) :   0.9808 B( 34-O , 85-H ) :   0.1204 B( 35-C , 36-C ) :   1.2872
B( 35-C , 42-C ) :   1.3166 B( 36-C , 37-C ) :   0.9819 B( 37-C , 38-O ) :   2.0192
B( 37-C , 39-N ) :   1.0579 B( 38-O , 72-H ) :   0.1061 B( 39-N , 40-C ) :   0.9413
B( 39-N , 42-C ) :   1.1709 B( 40-C , 41-C ) :   1.1196 B( 40-C , 79-H ) :   0.9280
B( 40-C , 80-H ) :   0.9498 B( 41-C , 81-H ) :   0.9638 B( 41-C , 82-H ) :   0.9683
B( 41-C , 83-H ) :   0.9688 B( 42-C , 43-C ) :   1.1599 B( 43-C , 44-C ) :   1.6049
B( 43-C , 84-H ) :   0.9558 B( 44-C , 45-C ) :   1.0748 B( 44-C , 85-H ) :   0.9615
B( 45-C , 46-C ) :   1.2799 B( 45-C , 53-C ) :   1.3158 B( 46-C , 47-C ) :   1.3596
B( 46-C , 86-H ) :   1.0055 B( 47-C , 48-N ) :   0.8774 B( 47-C , 51-C ) :   1.3536
B( 48-N , 49-O ) :   1.5694 B( 48-N , 50-O ) :   1.5252 B( 49-O , 50-O ) :   0.2690
B( 51-C , 52-C ) :   1.3665 B( 51-C , 54-C ) :   1.0531 B( 52-C , 53-C ) :   1.4000
B( 52-C , 87-H ) :   0.9894 B( 53-C , 88-H ) :   0.9915 B( 54-C , 55-C ) :   1.8042
B( 54-C , 89-H ) :   0.9346 B( 55-C , 56-C ) :   1.0734 B( 55-C , 90-H ) :   0.9527
B( 56-C , 57-S ) :   1.1595 B( 56-C , 60-C ) :   1.5482 B( 57-S , 58-C ) :   1.1901
B( 58-C , 59-C ) :   1.5492 B( 58-C , 91-H ) :   0.9586 B( 59-C , 60-C ) :   1.2654
B( 59-C , 64-N ) :   0.8967 B( 60-C , 61-N ) :   0.8623 B( 61-N , 62-O ) :   1.5448
B( 61-N , 63-O ) :   1.5524 B( 62-O , 63-O ) :   0.2873 B( 64-N , 65-O ) :   1.5457
B( 64-N , 66-O ) :   1.5525 B( 65-O , 66-O ) :   0.2796

-----------------------------------------------------------------------------
         ABSORPTION SPECTRUM VIA TRANSITION ELECTRIC DIPOLE MOMENTS
-----------------------------------------------------------------------------
State   Energy  Wavelength   fosc         T2         TX        TY        TZ
        (cm-1)    (nm)                  (au**2)     (au)      (au)      (au)
-----------------------------------------------------------------------------
   0    7522.8   1329.3   0.264073878  11.55639   0.02780  -3.39464  -0.17906
   1   17486.9    571.9   0.384594163   7.24044   0.96943   2.09075   1.38903
   2   17840.2    560.5   0.016576268   0.30589  -0.27344  -0.22676  -0.42391
   3   18331.5    545.5   0.048803546   0.87646   0.12115   0.91274   0.16936
   4   23264.1    429.8   0.001741854   0.02465  -0.00049   0.15695   0.00389
   5   23391.2    427.5   0.005439969   0.07656   0.02094   0.27586  -0.00512
   6   24551.2    407.3   0.017756637   0.23810  -0.32863  -0.15796  -0.32428
   7   25020.8    399.7   0.023425649   0.30822  -0.42971  -0.05076  -0.34784
   8   25714.8    388.9   0.399346785   5.11260   0.46200   2.20149   0.22940
   9   26263.4    380.8   0.166520236   2.08733   0.94870  -0.61915   0.89663
  10   27704.9    360.9   0.001348981   0.01603   0.01845  -0.12429  -0.01549
  11   28363.5    352.6   0.176377455   2.04719   0.88976  -0.65585   0.90851
  12   28407.2    352.0   0.051609152   0.59810  -0.47480   0.45694  -0.40481
  13   28735.5    348.0   0.074935834   0.85851  -0.49849   0.49146  -0.60704
  14   29160.7    342.9   0.007338021   0.08284  -0.15630   0.09336  -0.22293
  15   29341.4    340.8   0.005303765   0.05951   0.15549  -0.04692   0.18202
  16   30762.2    325.1   0.266380078   2.85076  -1.11482  -1.08375  -0.65835
  17   31094.3    321.6   0.099705717   1.05564  -0.46972  -0.78340  -0.47040
  18   31342.4    319.1   0.012068253   0.12676  -0.15983  -0.30606   0.08687
  19   31556.2    316.9   0.357432220   3.72893  -0.40467  -1.88525  -0.10500
  20   31621.4    316.2   0.134842518   1.40385   0.47868   0.99924   0.41982
  21   31906.9    313.4   0.034375795   0.35469   0.50575   0.14990   0.27646
  22   32336.9    309.2   0.085771724   0.87322  -0.37953   0.75114  -0.40616
  23   32522.8    307.5   0.049002159   0.49602  -0.54883  -0.28117  -0.34022
  24   32957.9    303.4   0.022294964   0.22270  -0.26271   0.32710  -0.21607
  25   33176.3    301.4   0.000140490   0.00139  -0.03047   0.02133   0.00329
  26   33244.3    300.8   0.040041582   0.39652   0.45086   0.06407   0.43491
  27   33587.7    297.7   0.009803130   0.09609  -0.07219  -0.09940  -0.28459
  28   33831.0    295.6   0.012498992   0.12163  -0.09476  -0.24406  -0.23040
  29   33963.2    294.4   0.036913829   0.35781  -0.41964   0.33289  -0.26627
  30   34021.2    293.9   0.019025408   0.18410  -0.28890   0.20463  -0.24241
  31   34109.7    293.2   0.003110035   0.03002   0.16953   0.01697   0.03144
  32   34362.7    291.0   0.032160447   0.30811   0.37502  -0.39456  -0.10864
  33   34820.8    287.2   0.121037547   1.14435  -0.11875   0.98652  -0.39625
  34   35254.6    283.7   0.004956417   0.04628   0.15028   0.14043   0.06308
  35   35955.7    278.1   0.009550186   0.08744   0.23593   0.17803  -0.00896
  36   36260.2    275.8   0.025557286   0.23204  -0.42124   0.21965  -0.07965
  37   36380.1    274.9   0.000586706   0.00531  -0.00643   0.01652   0.07068
  38   36669.5    272.7   0.011045140   0.09916   0.02045   0.04361   0.31119
  39   37155.9    269.1   0.013710882   0.12148   0.21907   0.17097   0.21038
  40   37500.3    266.7   0.031795364   0.27913   0.31605   0.19087  -0.37790
  41   38002.2    263.1   0.009429351   0.08169  -0.13897  -0.24021  -0.06837
  42   38163.8    262.0   0.003984497   0.03437  -0.16288  -0.08784  -0.01123
  43   38289.4    261.2   0.009960847   0.08564   0.27788  -0.09131   0.00937
  44   38311.1    261.0   0.061736427   0.53051  -0.18356   0.29312  -0.64101
  45   38628.8    258.9   0.044088437   0.37574   0.55357   0.11837  -0.23513
  46   39095.9    255.8   0.001494054   0.01258  -0.01218   0.01485  -0.11051
  47   39157.7    255.4   0.079373526   0.66732  -0.38062  -0.70868  -0.14219
  48   39166.3    255.3   0.004260533   0.03581   0.11254   0.14464  -0.04719
  49   39435.6    253.6   0.319686768   2.66877  -1.20213   0.02975  -1.10580
  50   39533.3    253.0   0.111291348   0.92677   0.63850  -0.71992  -0.02840
  51   39838.2    251.0   0.138048147   1.14079   0.22460   1.01831   0.23106
  52   39901.0    250.6   0.119920672   0.98943   0.12383  -0.88295   0.44101
  53   39945.2    250.3   0.038172826   0.31461   0.02479  -0.44641  -0.33869

FINAL SINGLE POINT ENERGY     -4027.133658984782

DIPOLE MOMENT
-------------
                                X             Y             Z
Electronic contribution:    -11.90640       5.55703     -10.34924
Nuclear contribution   :     14.76888      -7.70602       7.54607
                        -----------------------------------------
Total Dipole Moment    :      2.86249      -2.14899      -2.80316
                        -----------------------------------------
Magnitude (a.u.)       :      4.54640
Magnitude (Debye)      :     11.55602

Rotational constants in cm-1:     0.002464     0.000265     0.000248
Rotational constants in MHz :    73.870379     7.941938     7.439688

                             ****ORCA TERMINATED NORMALLY****
TOTAL RUN TIME: 0 days 0 hours 8 minutes 20 seconds 625 msec
