                         Program Version 4.2.0 -  RELEASE  -
|  1> # ORCA input file
|  2> # SCF done       -169.641949825990          0.000313913621
|  3> ! CAM-B3LYP def2-SVP def2/J RIJCOSX Grid4 TightSCF
|  4> %maxcore 5000
|  5> %tddft
|  6>     Mode sTDDFT
|  7>     Ethresh 5.0
|  8>     maxcore 5000
|  9> end
| 10>
| 11> %pal
| 12>   nprocs 6
| 13>   end
| 14> * xyz 0 1
| 15>    C        1.61198         1.08205        -3.50141
| 16>    S       -0.11625         1.08101        -3.61419
| 17>    C       -0.21900         0.07725        -2.21445
| 18>    C        1.04646        -0.22002        -1.71399
| 19>    C        2.09277         0.35948        -2.45701
| 20>    S        0.99298        -1.23354        -0.29992
| 21>    C       -0.74709        -1.25667        -0.38802
| 22>    C       -1.74272        -1.86577         0.38690
| 23>    C       -3.00465        -1.59601        -0.08057
| 24>    S       -2.96176        -0.56520        -1.50592
| 25>    C       -1.24206        -0.51445        -1.45806
| 26>    C       -4.27595        -2.04734         0.43498
| 27>    C       -5.46838        -1.57342        -0.13057
| 28>    C       -6.67397        -2.00952         0.35789
| 29>    C       -6.72482        -2.92525         1.42278
| 30>    C       -5.55178        -3.40849         1.98395
| 31>    C       -4.34102        -2.96796         1.48915
| 32>    C       -8.11125        -3.19173         1.73369
| 33>    C       -8.91937        -2.45308         0.85051
| 34>    C       -8.06642        -1.65094        -0.10571
| 35>    C       -8.29338        -2.09354        -1.56402
| 36>    C       -8.03638        -3.57963        -1.78099
| 37>    C       -8.33850        -0.14052         0.01486
| 38>    C       -8.14481         0.38723         1.43080
| 39>    C      -10.28662        -2.53189         0.92651
| 40>    C      -10.88971        -3.33570         1.91111
| 41>    C      -10.06543        -4.06113         2.78672
| 42>    C       -8.69108        -4.00150         2.70041
| 43>    C      -12.32448        -3.40323         1.96904
| 44>    C      -13.05483        -3.92171         2.98864
| 45>    C      -14.46056        -4.01730         3.00056
| 46>    C      -15.16604        -4.51148         4.06588
| 47>    C      -16.56463        -4.71205         4.18489
| 48>    C      -16.96272        -5.23365         5.37845
| 49>    C      -15.90220        -5.46387         6.28330
| 50>    S      -14.37521        -5.00953         5.55578
| 51>    C      -15.93048        -5.94967         7.57305
| 52>    C      -17.00575        -6.40404         8.36745
| 53>    C      -16.65261        -6.80887         9.62043
| 54>    C      -15.26915        -6.68893         9.90206
| 55>    S      -14.43352        -6.05529         8.47677
| 56>    C      -14.57188        -6.95783        11.04514
| 57>    N      -13.23489        -6.71356        11.08017
| 58>    C      -12.33101        -6.86013        12.06526
| 59>    S      -12.70646        -7.58870        13.59063
| 60>    C      -11.04441        -7.38108        14.07065
| 61>    N      -10.69844        -7.81253        15.34438
| 62>    O       -9.53910        -7.67593        15.70331
| 63>    O      -11.59473        -8.30264        16.02050
| 64>    C      -10.26439        -6.78746        13.10998
| 65>    C      -10.97987        -6.46845        11.94631
| 66>    C      -10.48352        -5.79502        10.78055
| 67>    C       -9.19785        -5.50998        10.48828
| 68>    C       -8.81111        -4.80099         9.31090
| 69>    S       -7.10169        -4.54969         8.98726
| 70>    C       -7.46961        -3.67989         7.54604
| 71>    C       -8.84954        -3.60165         7.34529
| 72>    C       -9.60370        -4.23652         8.33480
| 73>    S       -9.27754        -2.70097         5.91529
| 74>    C       -7.59067        -2.42287         5.59590
| 75>    C       -6.89803        -1.72121         4.59241
| 76>    C       -5.55494        -1.79155         4.77993
| 77>    S       -5.09301        -2.70777         6.17513
| 78>    C       -6.75264        -3.01149         6.54195
| 79>    H        2.17081         1.63032        -4.23326
| 80>    H        3.13563         0.24434        -2.22720
| 81>    H       -1.53021        -2.46868         1.24958
| 82>    H       -5.42326        -0.86833        -0.94840
| 83>    H       -5.58102        -4.12275         2.79291
| 84>    H       -3.42803        -3.34805         1.91970
| 85>    H       -7.63166        -1.51361        -2.21083
| 86>    H       -9.32312        -1.85944        -1.84257
| 87>    H       -7.00703        -3.83142        -1.53564
| 88>    H       -8.21591        -3.84139        -2.82112
| 89>    H       -8.69432        -4.17938        -1.15578
| 90>    H       -9.36320         0.05696        -0.30690
| 91>    H       -7.66724         0.39017        -0.66345
| 92>    H       -8.82722        -0.10768         2.11943
| 93>    H       -8.34259         1.45625         1.46345
| 94>    H       -7.12279         0.21790         1.76477
| 95>    H      -10.91243        -1.97210         0.24556
| 96>    H      -10.51530        -4.69741         3.53247
| 97>    H       -8.07519        -4.57817         3.37460
| 98>    H      -12.85283        -2.98433         1.12076
| 99>    H      -12.55111        -4.29061         3.87258
|100>    H      -15.01453        -3.70156         2.12652
|101>    H      -17.23177        -4.46753         3.37682
|102>    H      -17.98367        -5.45242         5.63687
|103>    H      -18.01224        -6.42133         7.98892
|104>    H      -17.34157        -7.18323        10.35614
|105>    H      -15.03935        -7.34861        11.93435
|106>    H      -12.86214        -6.33695        10.21312
|107>    H       -9.22158        -6.58482        13.26925
|108>    H      -11.22937        -5.47006        10.06773
|109>    H       -8.39868        -5.81898        11.14551
|110>    H      -10.67715        -4.26405         8.32817
|111>    H       -7.37098        -1.20036         3.78229
|112>    H       -4.78525        -1.35901         4.17266
|113> *
|114>
|115>                          ****END OF INPUT****

CARTESIAN COORDINATES (ANGSTROEM)
---------------------------------
  C      1.611980    1.082050   -3.501410
  S     -0.116250    1.081010   -3.614190
  C     -0.219000    0.077250   -2.214450
  C      1.046460   -0.220020   -1.713990
  C      2.092770    0.359480   -2.457010
  S      0.992980   -1.233540   -0.299920
  C     -0.747090   -1.256670   -0.388020
  C     -1.742720   -1.865770    0.386900
  C     -3.004650   -1.596010   -0.080570
  S     -2.961760   -0.565200   -1.505920
  C     -1.242060   -0.514450   -1.458060
  C     -4.275950   -2.047340    0.434980
  C     -5.468380   -1.573420   -0.130570
  C     -6.673970   -2.009520    0.357890
  C     -6.724820   -2.925250    1.422780
  C     -5.551780   -3.408490    1.983950
  C     -4.341020   -2.967960    1.489150
  C     -8.111250   -3.191730    1.733690
  C     -8.919370   -2.453080    0.850510
  C     -8.066420   -1.650940   -0.105710
  C     -8.293380   -2.093540   -1.564020
  C     -8.036380   -3.579630   -1.780990
  C     -8.338500   -0.140520    0.014860
  C     -8.144810    0.387230    1.430800
  C    -10.286620   -2.531890    0.926510
  C    -10.889710   -3.335700    1.911110
  C    -10.065430   -4.061130    2.786720
  C     -8.691080   -4.001500    2.700410
  C    -12.324480   -3.403230    1.969040
  C    -13.054830   -3.921710    2.988640
  C    -14.460560   -4.017300    3.000560
  C    -15.166040   -4.511480    4.065880
  C    -16.564630   -4.712050    4.184890
  C    -16.962720   -5.233650    5.378450
  C    -15.902200   -5.463870    6.283300
  S    -14.375210   -5.009530    5.555780
  C    -15.930480   -5.949670    7.573050
  C    -17.005750   -6.404040    8.367450
  C    -16.652610   -6.808870    9.620430
  C    -15.269150   -6.688930    9.902060
  S    -14.433520   -6.055290    8.476770
  C    -14.571880   -6.957830   11.045140
  N    -13.234890   -6.713560   11.080170
  C    -12.331010   -6.860130   12.065260
  S    -12.706460   -7.588700   13.590630
  C    -11.044410   -7.381080   14.070650
  N    -10.698440   -7.812530   15.344380
  O     -9.539100   -7.675930   15.703310
  O    -11.594730   -8.302640   16.020500
  C    -10.264390   -6.787460   13.109980
  C    -10.979870   -6.468450   11.946310
  C    -10.483520   -5.795020   10.780550
  C     -9.197850   -5.509980   10.488280
  C     -8.811110   -4.800990    9.310900
  S     -7.101690   -4.549690    8.987260
  C     -7.469610   -3.679890    7.546040
  C     -8.849540   -3.601650    7.345290
  C     -9.603700   -4.236520    8.334800
  S     -9.277540   -2.700970    5.915290
  C     -7.590670   -2.422870    5.595900
  C     -6.898030   -1.721210    4.592410
  C     -5.554940   -1.791550    4.779930
  S     -5.093010   -2.707770    6.175130
  C     -6.752640   -3.011490    6.541950
  H      2.170810    1.630320   -4.233260
  H      3.135630    0.244340   -2.227200
  H     -1.530210   -2.468680    1.249580
  H     -5.423260   -0.868330   -0.948400
  H     -5.581020   -4.122750    2.792910
  H     -3.428030   -3.348050    1.919700
  H     -7.631660   -1.513610   -2.210830
  H     -9.323120   -1.859440   -1.842570
  H     -7.007030   -3.831420   -1.535640
  H     -8.215910   -3.841390   -2.821120
  H     -8.694320   -4.179380   -1.155780
  H     -9.363200    0.056960   -0.306900
  H     -7.667240    0.390170   -0.663450
  H     -8.827220   -0.107680    2.119430
  H     -8.342590    1.456250    1.463450
  H     -7.122790    0.217900    1.764770
  H    -10.912430   -1.972100    0.245560
  H    -10.515300   -4.697410    3.532470
  H     -8.075190   -4.578170    3.374600
  H    -12.852830   -2.984330    1.120760
  H    -12.551110   -4.290610    3.872580
  H    -15.014530   -3.701560    2.126520
  H    -17.231770   -4.467530    3.376820
  H    -17.983670   -5.452420    5.636870
  H    -18.012240   -6.421330    7.988920
  H    -17.341570   -7.183230   10.356140
  H    -15.039350   -7.348610   11.934350
  H    -12.862140   -6.336950   10.213120
  H     -9.221580   -6.584820   13.269250
  H    -11.229370   -5.470060   10.067730
  H     -8.398680   -5.818980   11.145510
  H    -10.677150   -4.264050    8.328170
  H     -7.370980   -1.200360    3.782290
  H     -4.785250   -1.359010    4.172660

 Total Charge           Charge          ....    0
 Multiplicity           Mult            ....    1
 Number of Electrons    NEL             ....  514
 Basis Dimension        Dim             .... 1102

ORBITAL ENERGIES
----------------

  NO   OCC          E(Eh)            E(eV)
   0   2.0000     -88.978002     -2421.2145
   1   2.0000     -88.956997     -2420.6430
   2   2.0000     -88.954880     -2420.5853
   3   2.0000     -88.954464     -2420.5740
   4   2.0000     -88.954199     -2420.5668
   5   2.0000     -88.951697     -2420.4987
   6   2.0000     -88.951490     -2420.4931
   7   2.0000     -88.950720     -2420.4721
   8   2.0000     -88.942245     -2420.2415
   9   2.0000     -19.223410      -523.0956
  10   2.0000     -19.222993      -523.0842
  11   2.0000     -14.635294      -398.2466
  12   2.0000     -14.485642      -394.1743
  13   2.0000     -10.364585      -282.0347
  14   2.0000     -10.335681      -281.2482
  15   2.0000     -10.331512      -281.1347
  16   2.0000     -10.313809      -280.6530
  17   2.0000     -10.312246      -280.6105
  18   2.0000     -10.309810      -280.5442
  19   2.0000     -10.304499      -280.3997
  20   2.0000     -10.303786      -280.3803
  21   2.0000     -10.302145      -280.3356
  22   2.0000     -10.300964      -280.3035
  23   2.0000     -10.300743      -280.2975
  24   2.0000     -10.298572      -280.2384
  25   2.0000     -10.298225      -280.2289
  26   2.0000     -10.297806      -280.2175
  27   2.0000     -10.296287      -280.1762
  28   2.0000     -10.294363      -280.1239
  29   2.0000     -10.294009      -280.1142
  30   2.0000     -10.293777      -280.1079
  31   2.0000     -10.292939      -280.0851
  32   2.0000     -10.292639      -280.0769
  33   2.0000     -10.292217      -280.0655
  34   2.0000     -10.290878      -280.0290
  35   2.0000     -10.290488      -280.0184
  36   2.0000     -10.288610      -279.9673
  37   2.0000     -10.288359      -279.9605
  38   2.0000     -10.287363      -279.9334
  39   2.0000     -10.285074      -279.8711
  40   2.0000     -10.284710      -279.8612
  41   2.0000     -10.279191      -279.7110
  42   2.0000     -10.277674      -279.6697
  43   2.0000     -10.277633      -279.6686
  44   2.0000     -10.277416      -279.6627
  45   2.0000     -10.276717      -279.6437
  46   2.0000     -10.274826      -279.5922
  47   2.0000     -10.273633      -279.5598
  48   2.0000     -10.273352      -279.5521
  49   2.0000     -10.271738      -279.5082
  50   2.0000     -10.270091      -279.4634
  51   2.0000     -10.269546      -279.4486
  52   2.0000     -10.269455      -279.4461
  53   2.0000     -10.267567      -279.3947
  54   2.0000     -10.267330      -279.3882
  55   2.0000     -10.267032      -279.3801
  56   2.0000     -10.266975      -279.3786
  57   2.0000     -10.266761      -279.3728
  58   2.0000     -10.265374      -279.3350
  59   2.0000     -10.265008      -279.3251
  60   2.0000     -10.263585      -279.2864
  61   2.0000     -10.261768      -279.2369
  62   2.0000     -10.249485      -278.9027
  63   2.0000     -10.243967      -278.7525
  64   2.0000      -8.073452      -219.6898
  65   2.0000      -8.052200      -219.1115
  66   2.0000      -8.050237      -219.0581
  67   2.0000      -8.049958      -219.0505
  68   2.0000      -8.049109      -219.0274
  69   2.0000      -8.047931      -218.9953
  70   2.0000      -8.046471      -218.9556
  71   2.0000      -8.045933      -218.9410
  72   2.0000      -8.038556      -218.7402
  73   2.0000      -6.043186      -164.4435
  74   2.0000      -6.038835      -164.3251
  75   2.0000      -6.034723      -164.2132
  76   2.0000      -6.021695      -163.8587
  77   2.0000      -6.019845      -163.8083
  78   2.0000      -6.019558      -163.8005
  79   2.0000      -6.018626      -163.7751
  80   2.0000      -6.017811      -163.7530
  81   2.0000      -6.017714      -163.7503
  82   2.0000      -6.016202      -163.7092
  83   2.0000      -6.015662      -163.6945
  84   2.0000      -6.015532      -163.6910
  85   2.0000      -6.015233      -163.6828
  86   2.0000      -6.014626      -163.6663
  87   2.0000      -6.013864      -163.6456
  88   2.0000      -6.013828      -163.6446
  89   2.0000      -6.012352      -163.6044
  90   2.0000      -6.011979      -163.5943
  91   2.0000      -6.011841      -163.5905
  92   2.0000      -6.011693      -163.5865
  93   2.0000      -6.010769      -163.5613
  94   2.0000      -6.008549      -163.5009
  95   2.0000      -6.008290      -163.4939
  96   2.0000      -6.007526      -163.4731
  97   2.0000      -6.006931      -163.4569
  98   2.0000      -6.004402      -163.3881
  99   2.0000      -5.999358      -163.2508
 100   2.0000      -1.302094       -35.4318
 101   2.0000      -1.120942       -30.5024
 102   2.0000      -1.094610       -29.7858
 103   2.0000      -1.011111       -27.5137
 104   2.0000      -1.010493       -27.4969
 105   2.0000      -1.001912       -27.2634
 106   2.0000      -0.992707       -27.0129
 107   2.0000      -0.986459       -26.8429
 108   2.0000      -0.972071       -26.4514
 109   2.0000      -0.971136       -26.4259
 110   2.0000      -0.970722       -26.4147
 111   2.0000      -0.943278       -25.6679
 112   2.0000      -0.923917       -25.1411
 113   2.0000      -0.922789       -25.1104
 114   2.0000      -0.910022       -24.7629
 115   2.0000      -0.907877       -24.7046
 116   2.0000      -0.900666       -24.5084
 117   2.0000      -0.889064       -24.1927
 118   2.0000      -0.877170       -23.8690
 119   2.0000      -0.866298       -23.5732
 120   2.0000      -0.858198       -23.3527
 121   2.0000      -0.853204       -23.2168
 122   2.0000      -0.849077       -23.1046
 123   2.0000      -0.839743       -22.8506
 124   2.0000      -0.837621       -22.7928
 125   2.0000      -0.836312       -22.7572
 126   2.0000      -0.834249       -22.7011
 127   2.0000      -0.829033       -22.5591
 128   2.0000      -0.826129       -22.4801
 129   2.0000      -0.822856       -22.3910
 130   2.0000      -0.822320       -22.3765
 131   2.0000      -0.812681       -22.1142
 132   2.0000      -0.793224       -21.5847
 133   2.0000      -0.781875       -21.2759
 134   2.0000      -0.779405       -21.2087
 135   2.0000      -0.776791       -21.1376
 136   2.0000      -0.767223       -20.8772
 137   2.0000      -0.759972       -20.6799
 138   2.0000      -0.751025       -20.4364
 139   2.0000      -0.734510       -19.9870
 140   2.0000      -0.724903       -19.7256
 141   2.0000      -0.720285       -19.6000
 142   2.0000      -0.709435       -19.3047
 143   2.0000      -0.695562       -18.9272
 144   2.0000      -0.690898       -18.8003
 145   2.0000      -0.678349       -18.4588
 146   2.0000      -0.674209       -18.3462
 147   2.0000      -0.669227       -18.2106
 148   2.0000      -0.658822       -17.9275
 149   2.0000      -0.657946       -17.9036
 150   2.0000      -0.656910       -17.8754
 151   2.0000      -0.649832       -17.6828
 152   2.0000      -0.640657       -17.4332
 153   2.0000      -0.638520       -17.3750
 154   2.0000      -0.633159       -17.2291
 155   2.0000      -0.628640       -17.1062
 156   2.0000      -0.623271       -16.9601
 157   2.0000      -0.622269       -16.9328
 158   2.0000      -0.621049       -16.8996
 159   2.0000      -0.618298       -16.8247
 160   2.0000      -0.616422       -16.7737
 161   2.0000      -0.614648       -16.7254
 162   2.0000      -0.611549       -16.6411
 163   2.0000      -0.599614       -16.3163
 164   2.0000      -0.595714       -16.2102
 165   2.0000      -0.590672       -16.0730
 166   2.0000      -0.588197       -16.0056
 167   2.0000      -0.575460       -15.6590
 168   2.0000      -0.569638       -15.5006
 169   2.0000      -0.567923       -15.4540
 170   2.0000      -0.565556       -15.3896
 171   2.0000      -0.559489       -15.2245
 172   2.0000      -0.552768       -15.0416
 173   2.0000      -0.547638       -14.9020
 174   2.0000      -0.542843       -14.7715
 175   2.0000      -0.541967       -14.7477
 176   2.0000      -0.541513       -14.7353
 177   2.0000      -0.537508       -14.6263
 178   2.0000      -0.531882       -14.4733
 179   2.0000      -0.530354       -14.4317
 180   2.0000      -0.527142       -14.3443
 181   2.0000      -0.518545       -14.1103
 182   2.0000      -0.517524       -14.0825
 183   2.0000      -0.515518       -14.0280
 184   2.0000      -0.514482       -13.9998
 185   2.0000      -0.508874       -13.8472
 186   2.0000      -0.508385       -13.8339
 187   2.0000      -0.506724       -13.7887
 188   2.0000      -0.502359       -13.6699
 189   2.0000      -0.500894       -13.6300
 190   2.0000      -0.498097       -13.5539
 191   2.0000      -0.494123       -13.4458
 192   2.0000      -0.489844       -13.3293
 193   2.0000      -0.488875       -13.3030
 194   2.0000      -0.485904       -13.2221
 195   2.0000      -0.480205       -13.0670
 196   2.0000      -0.475728       -12.9452
 197   2.0000      -0.474407       -12.9093
 198   2.0000      -0.472300       -12.8519
 199   2.0000      -0.470759       -12.8100
 200   2.0000      -0.470192       -12.7946
 201   2.0000      -0.469582       -12.7780
 202   2.0000      -0.468451       -12.7472
 203   2.0000      -0.467097       -12.7103
 204   2.0000      -0.462150       -12.5757
 205   2.0000      -0.458682       -12.4814
 206   2.0000      -0.456785       -12.4298
 207   2.0000      -0.454336       -12.3631
 208   2.0000      -0.450929       -12.2704
 209   2.0000      -0.446631       -12.1534
 210   2.0000      -0.446031       -12.1371
 211   2.0000      -0.445018       -12.1096
 212   2.0000      -0.441991       -12.0272
 213   2.0000      -0.440020       -11.9735
 214   2.0000      -0.437607       -11.9079
 215   2.0000      -0.436809       -11.8862
 216   2.0000      -0.435622       -11.8539
 217   2.0000      -0.434267       -11.8170
 218   2.0000      -0.427657       -11.6371
 219   2.0000      -0.424220       -11.5436
 220   2.0000      -0.423579       -11.5262
 221   2.0000      -0.417276       -11.3547
 222   2.0000      -0.415829       -11.3153
 223   2.0000      -0.411575       -11.1995
 224   2.0000      -0.410967       -11.1830
 225   2.0000      -0.408931       -11.1276
 226   2.0000      -0.406820       -11.0701
 227   2.0000      -0.404628       -11.0105
 228   2.0000      -0.401197       -10.9171
 229   2.0000      -0.396882       -10.7997
 230   2.0000      -0.395631       -10.7657
 231   2.0000      -0.390716       -10.6319
 232   2.0000      -0.386232       -10.5099
 233   2.0000      -0.384390       -10.4598
 234   2.0000      -0.380387       -10.3508
 235   2.0000      -0.375881       -10.2282
 236   2.0000      -0.372742       -10.1428
 237   2.0000      -0.364872        -9.9287
 238   2.0000      -0.360997        -9.8232
 239   2.0000      -0.353763        -9.6264
 240   2.0000      -0.352245        -9.5851
 241   2.0000      -0.342851        -9.3294
 242   2.0000      -0.341802        -9.3009
 243   2.0000      -0.327983        -8.9249
 244   2.0000      -0.327208        -8.9038
 245   2.0000      -0.324723        -8.8362
 246   2.0000      -0.321712        -8.7542
 247   2.0000      -0.318983        -8.6800
 248   2.0000      -0.311768        -8.4836
 249   2.0000      -0.309232        -8.4146
 250   2.0000      -0.288423        -7.8484
 251   2.0000      -0.277674        -7.5559
 252   2.0000      -0.277259        -7.5446
 253   2.0000      -0.270104        -7.3499
 254   2.0000      -0.246004        -6.6941
 255   2.0000      -0.235800        -6.4164
 256   2.0000      -0.205888        -5.6025
 257   0.0000      -0.077863        -2.1188
 258   0.0000      -0.044165        -1.2018
 259   0.0000      -0.040232        -1.0948
 260   0.0000      -0.026814        -0.7297
 261   0.0000      -0.001363        -0.0371

MULLIKEN ATOMIC CHARGES
-----------------------
   0 C :   -0.080788
   1 S :    0.137051
   2 C :   -0.100487
   3 C :   -0.055569
   4 C :    0.019729
   5 S :    0.141150
   6 C :   -0.036496
   7 C :   -0.049632
   8 C :   -0.067690
   9 S :    0.110558
  10 C :   -0.060635
  11 C :    0.171433
  12 C :   -0.138802
  13 C :    0.013048
  14 C :    0.095365
  15 C :   -0.020981
  16 C :   -0.060071
  17 C :    0.101123
  18 C :    0.013916
  19 C :   -0.135420
  20 C :    0.066678
  21 C :    0.027285
  22 C :    0.069375
  23 C :    0.009382
  24 C :   -0.111988
  25 C :    0.122122
  26 C :   -0.003422
  27 C :   -0.050525
  28 C :   -0.010103
  29 C :    0.012074
  30 C :   -0.008050
  31 C :   -0.018576
  32 C :    0.039755
  33 C :    0.021502
  34 C :   -0.036455
  35 S :    0.041473
  36 C :   -0.036807
  37 C :    0.025958
  38 C :    0.045101
  39 C :   -0.046243
  40 S :   -0.007006
  41 C :    0.040850
  42 N :   -0.028935
  43 C :   -0.120484
  44 S :    0.156431
  45 C :   -0.019572
  46 N :    0.281612
  47 O :   -0.262825
  48 O :   -0.279561
  49 C :    0.006156
  50 C :    0.138528
  51 C :   -0.052499
  52 C :    0.063055
  53 C :   -0.086479
  54 S :    0.142023
  55 C :   -0.076241
  56 C :   -0.045701
  57 C :   -0.042081
  58 S :    0.155023
  59 C :   -0.061535
  60 C :    0.032735
  61 C :   -0.069618
  62 S :    0.130297
  63 C :   -0.103633
  64 H :    0.028456
  65 H :   -0.010434
  66 H :   -0.021140
  67 H :   -0.023514
  68 H :   -0.028985
  69 H :   -0.033894
  70 H :   -0.001557
  71 H :   -0.003571
  72 H :    0.022823
  73 H :    0.007803
  74 H :    0.022448
  75 H :   -0.003508
  76 H :   -0.000743
  77 H :    0.035843
  78 H :    0.010420
  79 H :    0.030320
  80 H :   -0.044015
  81 H :   -0.029509
  82 H :   -0.027193
  83 H :   -0.025141
  84 H :    0.003546
  85 H :   -0.018633
  86 H :   -0.013197
  87 H :   -0.014039
  88 H :   -0.012437
  89 H :   -0.010406
  90 H :    0.021438
  91 H :    0.155205
  92 H :    0.008799
  93 H :   -0.032042
  94 H :   -0.019447
  95 H :   -0.016601
  96 H :   -0.031233
  97 H :    0.028263
Sum of atomic charges:   -0.0000000

LOEWDIN ATOMIC CHARGES
----------------------
   0 C :   -0.177144
   1 S :    0.420906
   2 C :   -0.223234
   3 C :   -0.199112
   4 C :   -0.072732
   5 S :    0.397592
   6 C :   -0.194970
   7 C :   -0.069559
   8 C :   -0.151754
   9 S :    0.420981
  10 C :   -0.219368
  11 C :   -0.034797
  12 C :   -0.036048
  13 C :    0.005435
  14 C :   -0.023356
  15 C :   -0.006969
  16 C :   -0.023001
  17 C :   -0.021201
  18 C :   -0.000684
  19 C :   -0.035027
  20 C :   -0.011108
  21 C :   -0.057338
  22 C :   -0.011717
  23 C :   -0.059257
  24 C :   -0.023480
  25 C :   -0.027609
  26 C :   -0.014719
  27 C :   -0.017183
  28 C :   -0.012617
  29 C :   -0.035108
  30 C :   -0.051130
  31 C :   -0.146320
  32 C :   -0.033167
  33 C :   -0.034315
  34 C :   -0.180579
  35 S :    0.356171
  36 C :   -0.177190
  37 C :   -0.039174
  38 C :   -0.033611
  39 C :   -0.179183
  40 S :    0.332674
  41 C :   -0.010453
  42 N :    0.051724
  43 C :   -0.103762
  44 S :    0.446136
  45 C :   -0.215052
  46 N :    0.274274
  47 O :   -0.228724
  48 O :   -0.245905
  49 C :    0.007107
  50 C :   -0.106289
  51 C :   -0.032541
  52 C :   -0.037000
  53 C :   -0.165564
  54 S :    0.422210
  55 C :   -0.220557
  56 C :   -0.194240
  57 C :   -0.070164
  58 S :    0.415053
  59 C :   -0.196735
  60 C :   -0.069195
  61 C :   -0.170424
  62 S :    0.416800
  63 C :   -0.226401
  64 H :    0.023692
  65 H :    0.033615
  66 H :    0.030337
  67 H :    0.015516
  68 H :    0.028680
  69 H :    0.024881
  70 H :    0.020022
  71 H :    0.019272
  72 H :    0.026143
  73 H :    0.023780
  74 H :    0.025934
  75 H :    0.020025
  76 H :    0.020753
  77 H :    0.023738
  78 H :    0.026376
  79 H :    0.023843
  80 H :    0.022573
  81 H :    0.023754
  82 H :    0.028615
  83 H :    0.026121
  84 H :    0.018593
  85 H :    0.031853
  86 H :    0.033326
  87 H :    0.031756
  88 H :    0.033263
  89 H :    0.034381
  90 H :    0.032700
  91 H :    0.075224
  92 H :    0.044542
  93 H :    0.020629
  94 H :    0.028015
  95 H :    0.029251
  96 H :    0.034374
  97 H :    0.024128

  Mayer bond orders larger than 0.100000
B(  0-C ,  1-S ) :   1.1386 B(  0-C ,  4-C ) :   1.5978 B(  0-C , 64-H ) :   0.9683
B(  1-S ,  2-C ) :   1.0789 B(  2-C ,  3-C ) :   1.4848 B(  2-C , 10-C ) :   1.2918
B(  3-C ,  4-C ) :   1.2541 B(  3-C ,  5-S ) :   1.0529 B(  4-C , 65-H ) :   1.0009
B(  5-S ,  6-C ) :   1.0515 B(  6-C ,  7-C ) :   1.2389 B(  6-C , 10-C ) :   1.4891
B(  7-C ,  8-C ) :   1.5580 B(  7-C , 66-H ) :   0.9965 B(  8-C ,  9-S ) :   1.0943
B(  8-C , 11-C ) :   1.0633 B(  9-S , 10-C ) :   1.0668 B( 11-C , 12-C ) :   1.2849
B( 11-C , 16-C ) :   1.3502 B( 12-C , 13-C ) :   1.4081 B( 12-C , 67-H ) :   0.9901
B( 13-C , 14-C ) :   1.3752 B( 13-C , 19-C ) :   0.9130 B( 14-C , 15-C ) :   1.3419
B( 14-C , 17-C ) :   0.9927 B( 15-C , 16-C ) :   1.3824 B( 15-C , 68-H ) :   0.9829
B( 16-C , 69-H ) :   0.9914 B( 17-C , 18-C ) :   1.3656 B( 17-C , 27-C ) :   1.3279
B( 18-C , 19-C ) :   0.9118 B( 18-C , 24-C ) :   1.3843 B( 19-C , 20-C ) :   1.0350
B( 19-C , 22-C ) :   1.0405 B( 20-C , 21-C ) :   1.1025 B( 20-C , 70-H ) :   0.9391
B( 20-C , 71-H ) :   0.9395 B( 21-C , 72-H ) :   0.9640 B( 21-C , 73-H ) :   0.9636
B( 21-C , 74-H ) :   0.9641 B( 22-C , 23-C ) :   1.1034 B( 22-C , 75-H ) :   0.9382
B( 22-C , 76-H ) :   0.9382 B( 23-C , 77-H ) :   0.9582 B( 23-C , 78-H ) :   0.9558
B( 23-C , 79-H ) :   0.9607 B( 24-C , 25-C ) :   1.2740 B( 24-C , 80-H ) :   1.0127
B( 25-C , 26-C ) :   1.3375 B( 25-C , 28-C ) :   1.0670 B( 26-C , 27-C ) :   1.3958
B( 26-C , 81-H ) :   0.9845 B( 27-C , 82-H ) :   0.9900 B( 28-C , 29-C ) :   1.6571
B( 28-C , 83-H ) :   0.9881 B( 29-C , 30-C ) :   1.1423 B( 29-C , 84-H ) :   0.9604
B( 30-C , 31-C ) :   1.5768 B( 30-C , 85-H ) :   0.9855 B( 31-C , 32-C ) :   1.1372
B( 31-C , 35-S ) :   1.0253 B( 32-C , 33-C ) :   1.5947 B( 32-C , 86-H ) :   0.9986
B( 33-C , 34-C ) :   1.1865 B( 33-C , 87-H ) :   0.9952 B( 34-C , 35-S ) :   1.0408
B( 34-C , 36-C ) :   1.5217 B( 36-C , 37-C ) :   1.1882 B( 36-C , 40-S ) :   1.0371
B( 37-C , 38-C ) :   1.6074 B( 37-C , 88-H ) :   0.9927 B( 38-C , 39-C ) :   1.1579
B( 38-C , 89-H ) :   0.9939 B( 39-C , 40-S ) :   1.0120 B( 39-C , 41-C ) :   1.5968
B( 41-C , 42-N ) :   1.1318 B( 41-C , 90-H ) :   0.9669 B( 42-N , 43-C ) :   1.2593
B( 42-N , 91-H ) :   0.8928 B( 43-C , 44-S ) :   1.1266 B( 43-C , 50-C ) :   1.3162
B( 44-S , 45-C ) :   1.0602 B( 45-C , 46-N ) :   0.9954 B( 45-C , 49-C ) :   1.4725
B( 46-N , 47-O ) :   1.5188 B( 46-N , 48-O ) :   1.4932 B( 47-O , 48-O ) :   0.2482
B( 49-C , 50-C ) :   1.2506 B( 49-C , 92-H ) :   1.0014 B( 50-C , 51-C ) :   1.0767
B( 51-C , 52-C ) :   1.7511 B( 51-C , 93-H ) :   0.9524 B( 52-C , 53-C ) :   1.1035
B( 52-C , 94-H ) :   0.9654 B( 53-C , 54-S ) :   1.0895 B( 53-C , 57-C ) :   1.5251
B( 54-S , 55-C ) :   1.0728 B( 55-C , 56-C ) :   1.4738 B( 55-C , 63-C ) :   1.3002
B( 56-C , 57-C ) :   1.2685 B( 56-C , 58-S ) :   1.0499 B( 57-C , 95-H ) :   0.9931
B( 58-S , 59-C ) :   1.0579 B( 59-C , 60-C ) :   1.2624 B( 59-C , 63-C ) :   1.4761
B( 60-C , 61-C ) :   1.5945 B( 60-C , 96-H ) :   0.9920 B( 61-C , 62-S ) :   1.1335
B( 61-C , 97-H ) :   0.9626 B( 62-S , 63-C ) :   1.0770

-----------------------------------------------------------------------------
         ABSORPTION SPECTRUM VIA TRANSITION ELECTRIC DIPOLE MOMENTS
-----------------------------------------------------------------------------
State   Energy  Wavelength   fosc         T2         TX        TY        TZ
        (cm-1)    (nm)                  (au**2)     (au)      (au)      (au)
-----------------------------------------------------------------------------
   0   14052.4    711.6   1.041198810  24.39255   0.45962   1.50380  -4.68187
   1   21068.1    474.7   0.040662030   0.63539  -0.77407  -0.12242   0.14564
   2   21957.0    455.4   0.261519187   3.92109   0.43227   0.89317  -1.71361
   3   22556.8    443.3   1.490445884  21.75275   4.39583   1.16617  -1.03417
   4   25355.3    394.4   0.529086774   6.86965   2.59860   0.31370   0.13614
   5   27130.7    368.6   0.784325135   9.51725   2.31298   1.15199  -1.68531
   6   27719.3    360.8   0.325659743   3.86775   0.53939  -0.74704   1.73745
   7   28413.3    351.9   0.243238822   2.81829   0.88265   0.79218  -1.18814
   8   28800.7    347.2   0.000197503   0.00226  -0.03511   0.00796   0.03101
   9   29280.9    341.5   0.116538809   1.31027   0.62980  -0.34788   0.89028
  10   30427.2    328.7   0.021410997   0.23166  -0.37532  -0.12695   0.27327
  11   31168.1    320.8   0.721022823   7.61578   1.14473   1.31466  -2.13940
  12   31961.3    312.9   0.363769922   3.74695  -1.66712  -0.67713   0.71354
  13   32406.6    308.6   0.032545857   0.33063   0.53431  -0.05329   0.20567
  14   33659.7    297.1   0.043272646   0.42323  -0.64748   0.06257  -0.00930
  15   33716.8    296.6   0.007287257   0.07115  -0.02236  -0.18229   0.19345
  16   34264.3    291.8   0.006923819   0.06652  -0.18142  -0.08316   0.16338
  17   34377.5    290.9   0.009880373   0.09462   0.30540   0.02109   0.03009
  18   34867.0    286.8   0.179981993   1.69938  -1.25960   0.09945  -0.32078
  19   35426.6    282.3   0.008232822   0.07651  -0.14039  -0.22467   0.07949
  20   35584.6    281.0   0.049183946   0.45503   0.58888  -0.16553   0.28434
  21   36082.8    277.1   0.025042397   0.22848   0.45994  -0.04880   0.12065
  22   36346.6    275.1   0.009676046   0.08764  -0.09829   0.12831  -0.24803
  23   36848.8    271.4   0.026489080   0.23666   0.09484   0.28576  -0.38211
  24   37111.8    269.5   0.037723068   0.33463  -0.17291   0.24385  -0.49525
  25   37607.3    265.9   0.023898217   0.20920  -0.30435  -0.11258   0.32233
  26   37880.2    264.0   0.009760939   0.08483   0.02953   0.06041  -0.28339
  27   38398.4    260.4   0.022835627   0.19578  -0.28663   0.20036  -0.27108
  28   38812.4    257.6   0.095805743   0.81264  -0.03038  -0.33568   0.83608
  29   39032.7    256.2   0.096892608   0.81722  -0.23397  -0.46789   0.73726
  30   39122.5    255.6   0.002550019   0.02146  -0.08541   0.07131  -0.09528
  31   39552.8    252.8   0.085612060   0.71258  -0.83418   0.10874  -0.06998
  32   39750.5    251.6   0.110651692   0.91641   0.62672  -0.36267   0.62618

FINAL SINGLE POINT ENERGY     -5803.512129907356

DIPOLE MOMENT
-------------
                                X             Y             Z
Electronic contribution:     23.58660     -14.22054      50.04909
Nuclear contribution   :    -25.02659      15.15365     -52.90323
                        -----------------------------------------
Total Dipole Moment    :     -1.43999       0.93312      -2.85415
                        -----------------------------------------
Magnitude (a.u.)       :      3.33023
Magnitude (Debye)      :      8.46477

Rotational constants in cm-1:     0.001597     0.000334     0.000281
Rotational constants in MHz :    47.887262    10.002215     8.422983

                             ****ORCA TERMINATED NORMALLY****
TOTAL RUN TIME: 0 days 0 hours 9 minutes 25 seconds 493 msec
