                         Program Version 4.2.0 -  RELEASE  -
|  1> # ORCA input file
|  2> # SCF done       -186.242446259506          0.000741021403
|  3> ! CAM-B3LYP def2-SVP def2/J RIJCOSX Grid4 TightSCF
|  4> %maxcore 5000
|  5> %tddft
|  6>     Mode sTDDFT
|  7>     Ethresh 5.0
|  8>     maxcore 5000
|  9> end
| 10>
| 11> %pal
| 12>   nprocs 6
| 13>   end
| 14> * xyz 0 1
| 15>    C      -10.16644         0.26467         0.11093
| 16>    C       -9.80054        -1.01942        -0.17444
| 17>    C      -10.67964        -2.12405        -0.12436
| 18>    N      -11.35055        -3.05431        -0.10011
| 19>    C       -8.50737        -1.41744        -0.58152
| 20>    N       -7.48729        -1.81612        -0.92292
| 21>    C      -11.49508         0.71576         0.49816
| 22>    C      -11.49746         2.13010         0.60345
| 23>    C      -12.61977         2.84506         0.94745
| 24>    C      -13.79434         2.13356         1.20903
| 25>    C      -13.78250         0.72037         1.10650
| 26>    C      -12.65137        -0.00245         0.75353
| 27>    S      -15.33897         0.04082         1.47316
| 28>    C      -15.97551         1.63965         1.75434
| 29>    C      -15.07092         2.63350         1.58360
| 30>   Br      -17.77218         1.84656         2.24670
| 31>    C      -10.15657         2.65210         0.28248
| 32>    O       -9.83017         3.80830         0.16262
| 33>    C       -9.30146         1.44352         0.06849
| 34>    C       -7.97323         1.51331        -0.10352
| 35>    C       -7.25507         2.79479         0.00175
| 36>    N       -7.20295         3.34384         1.21254
| 37>    C       -6.58945         4.51342         1.29705
| 38>    C       -6.04069         5.14907         0.19992
| 39>    C       -6.10832         4.46986        -1.02547
| 40>    N       -6.70477         3.27250        -1.09694
| 41>    C       -5.55847         4.96425        -2.26235
| 42>    C       -5.26982         6.26522        -2.50581
| 43>    C       -4.75933         6.81115        -3.70825
| 44>    C       -4.19765         6.16967        -4.77955
| 45>    C       -3.73999         6.82226        -5.95902
| 46>    C       -3.16582         6.00185        -6.87489
| 47>    C       -3.11614         4.64413        -6.47386
| 48>    S       -3.86110         4.45156        -4.89876
| 49>    C       -2.56381         3.58969        -7.16608
| 50>    C       -1.98498         3.61332        -8.45874
| 51>    C       -1.49985         2.41668        -8.87710
| 52>    C       -1.65809         1.36567        -7.93317
| 53>    S       -2.47172         1.97464        -6.49026
| 54>    C       -1.23709         0.08025        -8.08413
| 55>    N       -1.42105        -0.89149        -7.14624
| 56>    C       -0.92594        -2.15189        -7.15641
| 57>    S       -1.73462        -3.36233        -6.20506
| 58>    C       -0.64189        -4.56349        -6.82825
| 59>    N       -0.80839        -5.87451        -6.36385
| 60>    O       -0.08331        -6.73717        -6.81795
| 61>    O       -1.68858        -6.04498        -5.53621
| 62>    C        0.27810        -4.06339        -7.70410
| 63>    C        0.14907        -2.67090        -7.90198
| 64>    C        1.07441        -1.88791        -8.66371
| 65>    C        1.87428        -2.37730        -9.64270
| 66>    C        2.79138        -1.55346       -10.33478
| 67>    C        3.70809        -1.91633       -11.27587
| 68>    C        4.19871        -3.20471       -11.71491
| 69>    C        4.28981        -4.35118       -10.96834
| 70>    C        4.85816        -5.55151       -11.44405
| 71>    N        5.30080        -6.55399       -11.78507
| 72>    C        3.92608        -4.44807        -9.60941
| 73>    N        3.67997        -4.56558        -8.49422
| 74>    C        4.80110        -3.01031       -13.03120
| 75>    C        4.88611        -1.61930       -13.29367
| 76>    C        4.27483        -0.87641       -12.17454
| 77>    O        4.19302         0.32347       -12.03445
| 78>    C        5.44018        -1.11874       -14.44675
| 79>    C        5.92091        -2.03257       -15.39053
| 80>    C        5.81739        -3.41922       -15.12564
| 81>    C        5.26594        -3.92624       -13.95514
| 82>    S        6.45737        -4.36918       -16.43147
| 83>    C        6.85286        -2.91154       -17.30305
| 84>    C        6.52346        -1.77097       -16.65151
| 85>   Br        7.66125        -3.03332       -18.99086
| 86>    H      -12.58958         3.92121         1.01520
| 87>    H      -12.69288        -1.07697         0.68977
| 88>    H      -15.29344         3.67650         1.71613
| 89>    H       -7.36814         0.64175        -0.30873
| 90>    H       -6.54527         4.94616         2.28846
| 91>    H       -5.55669         6.10654         0.29366
| 92>    H       -5.46800         4.21703        -3.03661
| 93>    H       -5.48963         6.99460        -1.73653
| 94>    H       -4.80004         7.89036        -3.79171
| 95>    H       -3.85575         7.88452        -6.08361
| 96>    H       -2.76329         6.33224        -7.81531
| 97>    H       -1.94843         4.51544        -9.04166
| 98>    H       -1.02608         2.24642        -9.82708
| 99>    H       -0.75418        -0.21724        -9.00153
|100>    H       -2.06243        -0.66302        -6.39355
|101>    H        1.05953        -4.66792        -8.12877
|102>    H        1.17562        -0.84562        -8.39015
|103>    H        1.77674        -3.40848        -9.94409
|104>    H        2.71432        -0.48351       -10.16640
|105>    H        5.49942        -0.05528       -14.61746
|106>    H        5.20220        -4.99055       -13.80041
|107>    H        6.69635        -0.78513       -17.04286
|108> *
|109>
|110>                          ****END OF INPUT****

CARTESIAN COORDINATES (ANGSTROEM)
---------------------------------
  C    -10.166440    0.264670    0.110930
  C     -9.800540   -1.019420   -0.174440
  C    -10.679640   -2.124050   -0.124360
  N    -11.350550   -3.054310   -0.100110
  C     -8.507370   -1.417440   -0.581520
  N     -7.487290   -1.816120   -0.922920
  C    -11.495080    0.715760    0.498160
  C    -11.497460    2.130100    0.603450
  C    -12.619770    2.845060    0.947450
  C    -13.794340    2.133560    1.209030
  C    -13.782500    0.720370    1.106500
  C    -12.651370   -0.002450    0.753530
  S    -15.338970    0.040820    1.473160
  C    -15.975510    1.639650    1.754340
  C    -15.070920    2.633500    1.583600
  Br   -17.772180    1.846560    2.246700
  C    -10.156570    2.652100    0.282480
  O     -9.830170    3.808300    0.162620
  C     -9.301460    1.443520    0.068490
  C     -7.973230    1.513310   -0.103520
  C     -7.255070    2.794790    0.001750
  N     -7.202950    3.343840    1.212540
  C     -6.589450    4.513420    1.297050
  C     -6.040690    5.149070    0.199920
  C     -6.108320    4.469860   -1.025470
  N     -6.704770    3.272500   -1.096940
  C     -5.558470    4.964250   -2.262350
  C     -5.269820    6.265220   -2.505810
  C     -4.759330    6.811150   -3.708250
  C     -4.197650    6.169670   -4.779550
  C     -3.739990    6.822260   -5.959020
  C     -3.165820    6.001850   -6.874890
  C     -3.116140    4.644130   -6.473860
  S     -3.861100    4.451560   -4.898760
  C     -2.563810    3.589690   -7.166080
  C     -1.984980    3.613320   -8.458740
  C     -1.499850    2.416680   -8.877100
  C     -1.658090    1.365670   -7.933170
  S     -2.471720    1.974640   -6.490260
  C     -1.237090    0.080250   -8.084130
  N     -1.421050   -0.891490   -7.146240
  C     -0.925940   -2.151890   -7.156410
  S     -1.734620   -3.362330   -6.205060
  C     -0.641890   -4.563490   -6.828250
  N     -0.808390   -5.874510   -6.363850
  O     -0.083310   -6.737170   -6.817950
  O     -1.688580   -6.044980   -5.536210
  C      0.278100   -4.063390   -7.704100
  C      0.149070   -2.670900   -7.901980
  C      1.074410   -1.887910   -8.663710
  C      1.874280   -2.377300   -9.642700
  C      2.791380   -1.553460  -10.334780
  C      3.708090   -1.916330  -11.275870
  C      4.198710   -3.204710  -11.714910
  C      4.289810   -4.351180  -10.968340
  C      4.858160   -5.551510  -11.444050
  N      5.300800   -6.553990  -11.785070
  C      3.926080   -4.448070   -9.609410
  N      3.679970   -4.565580   -8.494220
  C      4.801100   -3.010310  -13.031200
  C      4.886110   -1.619300  -13.293670
  C      4.274830   -0.876410  -12.174540
  O      4.193020    0.323470  -12.034450
  C      5.440180   -1.118740  -14.446750
  C      5.920910   -2.032570  -15.390530
  C      5.817390   -3.419220  -15.125640
  C      5.265940   -3.926240  -13.955140
  S      6.457370   -4.369180  -16.431470
  C      6.852860   -2.911540  -17.303050
  C      6.523460   -1.770970  -16.651510
  Br     7.661250   -3.033320  -18.990860
  H    -12.589580    3.921210    1.015200
  H    -12.692880   -1.076970    0.689770
  H    -15.293440    3.676500    1.716130
  H     -7.368140    0.641750   -0.308730
  H     -6.545270    4.946160    2.288460
  H     -5.556690    6.106540    0.293660
  H     -5.468000    4.217030   -3.036610
  H     -5.489630    6.994600   -1.736530
  H     -4.800040    7.890360   -3.791710
  H     -3.855750    7.884520   -6.083610
  H     -2.763290    6.332240   -7.815310
  H     -1.948430    4.515440   -9.041660
  H     -1.026080    2.246420   -9.827080
  H     -0.754180   -0.217240   -9.001530
  H     -2.062430   -0.663020   -6.393550
  H      1.059530   -4.667920   -8.128770
  H      1.175620   -0.845620   -8.390150
  H      1.776740   -3.408480   -9.944090
  H      2.714320   -0.483510  -10.166400
  H      5.499420   -0.055280  -14.617460
  H      5.202200   -4.990550  -13.800410
  H      6.696350   -0.785130  -17.042860

 Total Charge           Charge          ....    0
 Multiplicity           Mult            ....    1
 Number of Electrons    NEL             ....  572
 Basis Dimension        Dim             .... 1160

ORBITAL ENERGIES
----------------

  NO   OCC          E(Eh)            E(eV)
   0   2.0000    -482.887988    -13140.0502
   1   2.0000    -482.887599    -13140.0396
   2   2.0000     -88.988436     -2421.4985
   3   2.0000     -88.978075     -2421.2165
   4   2.0000     -88.977915     -2421.2121
   5   2.0000     -88.961907     -2420.7766
   6   2.0000     -88.953795     -2420.5558
   7   2.0000     -62.565678     -1702.4987
   8   2.0000     -62.565323     -1702.4890
   9   2.0000     -56.399635     -1534.7121
  10   2.0000     -56.399278     -1534.7024
  11   2.0000     -56.396909     -1534.6379
  12   2.0000     -56.396882     -1534.6372
  13   2.0000     -56.396554     -1534.6282
  14   2.0000     -56.396522     -1534.6274
  15   2.0000     -19.234999      -523.4109
  16   2.0000     -19.234828      -523.4063
  17   2.0000     -19.218064      -522.9501
  18   2.0000     -19.217430      -522.9329
  19   2.0000     -14.646732      -398.5578
  20   2.0000     -14.501296      -394.6003
  21   2.0000     -14.419420      -392.3724
  22   2.0000     -14.418939      -392.3593
  23   2.0000     -14.418096      -392.3363
  24   2.0000     -14.418045      -392.3349
  25   2.0000     -14.403802      -391.9474
  26   2.0000     -14.401240      -391.8777
  27   2.0000     -10.381986      -282.5082
  28   2.0000     -10.368370      -282.1377
  29   2.0000     -10.367842      -282.1233
  30   2.0000     -10.361841      -281.9600
  31   2.0000     -10.361208      -281.9428
  32   2.0000     -10.347542      -281.5709
  33   2.0000     -10.347326      -281.5651
  34   2.0000     -10.346782      -281.5502
  35   2.0000     -10.345883      -281.5258
  36   2.0000     -10.344603      -281.4910
  37   2.0000     -10.344273      -281.4820
  38   2.0000     -10.342169      -281.4247
  39   2.0000     -10.328747      -281.0595
  40   2.0000     -10.328530      -281.0536
  41   2.0000     -10.326794      -281.0063
  42   2.0000     -10.323638      -280.9205
  43   2.0000     -10.323105      -280.9060
  44   2.0000     -10.322535      -280.8905
  45   2.0000     -10.321091      -280.8512
  46   2.0000     -10.320422      -280.8330
  47   2.0000     -10.319988      -280.8211
  48   2.0000     -10.319047      -280.7955
  49   2.0000     -10.317712      -280.7592
  50   2.0000     -10.316723      -280.7323
  51   2.0000     -10.316045      -280.7138
  52   2.0000     -10.314124      -280.6616
  53   2.0000     -10.311867      -280.6002
  54   2.0000     -10.311722      -280.5962
  55   2.0000     -10.311208      -280.5822
  56   2.0000     -10.311015      -280.5770
  57   2.0000     -10.310907      -280.5740
  58   2.0000     -10.310366      -280.5593
  59   2.0000     -10.308725      -280.5147
  60   2.0000     -10.308616      -280.5117
  61   2.0000     -10.308411      -280.5061
  62   2.0000     -10.304377      -280.3964
  63   2.0000     -10.303536      -280.3735
  64   2.0000     -10.302923      -280.3568
  65   2.0000     -10.301350      -280.3140
  66   2.0000     -10.299145      -280.2540
  67   2.0000     -10.299102      -280.2528
  68   2.0000     -10.298994      -280.2499
  69   2.0000     -10.298366      -280.2328
  70   2.0000     -10.297144      -280.1995
  71   2.0000     -10.295838      -280.1640
  72   2.0000     -10.295412      -280.1524
  73   2.0000     -10.295152      -280.1453
  74   2.0000     -10.290488      -280.0184
  75   2.0000     -10.285548      -279.8840
  76   2.0000     -10.281658      -279.7781
  77   2.0000     -10.279818      -279.7281
  78   2.0000     -10.272102      -279.5181
  79   2.0000      -8.795093      -239.3266
  80   2.0000      -8.794758      -239.3175
  81   2.0000      -8.084313      -219.9853
  82   2.0000      -8.074043      -219.7059
  83   2.0000      -8.073982      -219.7042
  84   2.0000      -8.058352      -219.2789
  85   2.0000      -8.049636      -219.0417
  86   2.0000      -6.631414      -180.4499
  87   2.0000      -6.631093      -180.4412
  88   2.0000      -6.616836      -180.0533
  89   2.0000      -6.616591      -180.0466
  90   2.0000      -6.616481      -180.0436
  91   2.0000      -6.616271      -180.0379
  92   2.0000      -6.054077      -164.7398
  93   2.0000      -6.049619      -164.6185
  94   2.0000      -6.045526      -164.5071
  95   2.0000      -6.043760      -164.4591
  96   2.0000      -6.043666      -164.4565
  97   2.0000      -6.039446      -164.3417
  98   2.0000      -6.039397      -164.3403
  99   2.0000      -6.035257      -164.2277
 100   2.0000      -6.035181      -164.2256
 101   2.0000      -6.028224      -164.0363
 102   2.0000      -6.024237      -163.9278
 103   2.0000      -6.019371      -163.7954
 104   2.0000      -6.018941      -163.7837
 105   2.0000      -6.015307      -163.6848
 106   2.0000      -6.010607      -163.5569
 107   2.0000      -2.747278       -74.7572
 108   2.0000      -2.746921       -74.7475
 109   2.0000      -2.743179       -74.6457
 110   2.0000      -2.743049       -74.6422
 111   2.0000      -2.742871       -74.6373
 112   2.0000      -2.742720       -74.6332
 113   2.0000      -2.731434       -74.3261
 114   2.0000      -2.731417       -74.3256
 115   2.0000      -2.731105       -74.3172
 116   2.0000      -2.731083       -74.3165
 117   2.0000      -1.316359       -35.8199
 118   2.0000      -1.135831       -30.9075
 119   2.0000      -1.134065       -30.8595
 120   2.0000      -1.132191       -30.8085
 121   2.0000      -1.104791       -30.0629
 122   2.0000      -1.077887       -29.3308
 123   2.0000      -1.025999       -27.9188
 124   2.0000      -1.025400       -27.9026
 125   2.0000      -1.016453       -27.6591
 126   2.0000      -1.016040       -27.6478
 127   2.0000      -1.012440       -27.5499
 128   2.0000      -1.002840       -27.2887
 129   2.0000      -0.997660       -27.1477
 130   2.0000      -0.997027       -27.1305
 131   2.0000      -0.992562       -27.0090
 132   2.0000      -0.991515       -26.9805
 133   2.0000      -0.981822       -26.7167
 134   2.0000      -0.974836       -26.5266
 135   2.0000      -0.948728       -25.8162
 136   2.0000      -0.945369       -25.7248
 137   2.0000      -0.934619       -25.4323
 138   2.0000      -0.919303       -25.0155
 139   2.0000      -0.911533       -24.8041
 140   2.0000      -0.911388       -24.8001
 141   2.0000      -0.910289       -24.7702
 142   2.0000      -0.902421       -24.5561
 143   2.0000      -0.895984       -24.3810
 144   2.0000      -0.888859       -24.1871
 145   2.0000      -0.888777       -24.1848
 146   2.0000      -0.882842       -24.0234
 147   2.0000      -0.874265       -23.7900
 148   2.0000      -0.867165       -23.5968
 149   2.0000      -0.855810       -23.2878
 150   2.0000      -0.848562       -23.0906
 151   2.0000      -0.834789       -22.7158
 152   2.0000      -0.834161       -22.6987
 153   2.0000      -0.832632       -22.6571
 154   2.0000      -0.831207       -22.6183
 155   2.0000      -0.828577       -22.5467
 156   2.0000      -0.802997       -21.8507
 157   2.0000      -0.790367       -21.5070
 158   2.0000      -0.781689       -21.2708
 159   2.0000      -0.772101       -21.0099
 160   2.0000      -0.764425       -20.8011
 161   2.0000      -0.760697       -20.6996
 162   2.0000      -0.757504       -20.6127
 163   2.0000      -0.734201       -19.9786
 164   2.0000      -0.728636       -19.8272
 165   2.0000      -0.719664       -19.5830
 166   2.0000      -0.706144       -19.2152
 167   2.0000      -0.704211       -19.1625
 168   2.0000      -0.695279       -18.9195
 169   2.0000      -0.692787       -18.8517
 170   2.0000      -0.692594       -18.8465
 171   2.0000      -0.685254       -18.6467
 172   2.0000      -0.675991       -18.3946
 173   2.0000      -0.672798       -18.3078
 174   2.0000      -0.667988       -18.1769
 175   2.0000      -0.662172       -18.0186
 176   2.0000      -0.656254       -17.8576
 177   2.0000      -0.653593       -17.7852
 178   2.0000      -0.640901       -17.4398
 179   2.0000      -0.637154       -17.3378
 180   2.0000      -0.630742       -17.1634
 181   2.0000      -0.629653       -17.1337
 182   2.0000      -0.628051       -17.0901
 183   2.0000      -0.626821       -17.0567
 184   2.0000      -0.626301       -17.0425
 185   2.0000      -0.617517       -16.8035
 186   2.0000      -0.609793       -16.5933
 187   2.0000      -0.602859       -16.4046
 188   2.0000      -0.602581       -16.3971
 189   2.0000      -0.601325       -16.3629
 190   2.0000      -0.596730       -16.2378
 191   2.0000      -0.592245       -16.1158
 192   2.0000      -0.589479       -16.0405
 193   2.0000      -0.584503       -15.9051
 194   2.0000      -0.578583       -15.7441
 195   2.0000      -0.570959       -15.5366
 196   2.0000      -0.568731       -15.4760
 197   2.0000      -0.559441       -15.2232
 198   2.0000      -0.553760       -15.0686
 199   2.0000      -0.551524       -15.0077
 200   2.0000      -0.548752       -14.9323
 201   2.0000      -0.544307       -14.8113
 202   2.0000      -0.542476       -14.7615
 203   2.0000      -0.541572       -14.7369
 204   2.0000      -0.540944       -14.7198
 205   2.0000      -0.538059       -14.6413
 206   2.0000      -0.537428       -14.6241
 207   2.0000      -0.530611       -14.4387
 208   2.0000      -0.530498       -14.4356
 209   2.0000      -0.526563       -14.3285
 210   2.0000      -0.522081       -14.2066
 211   2.0000      -0.516513       -14.0550
 212   2.0000      -0.512612       -13.9489
 213   2.0000      -0.510798       -13.8995
 214   2.0000      -0.510605       -13.8943
 215   2.0000      -0.508182       -13.8283
 216   2.0000      -0.507247       -13.8029
 217   2.0000      -0.506341       -13.7782
 218   2.0000      -0.503193       -13.6926
 219   2.0000      -0.502272       -13.6675
 220   2.0000      -0.498417       -13.5626
 221   2.0000      -0.496744       -13.5171
 222   2.0000      -0.495467       -13.4823
 223   2.0000      -0.495370       -13.4797
 224   2.0000      -0.492824       -13.4104
 225   2.0000      -0.489689       -13.3251
 226   2.0000      -0.487055       -13.2535
 227   2.0000      -0.482304       -13.1242
 228   2.0000      -0.479844       -13.0572
 229   2.0000      -0.474930       -12.9235
 230   2.0000      -0.468513       -12.7489
 231   2.0000      -0.466363       -12.6904
 232   2.0000      -0.462812       -12.5938
 233   2.0000      -0.459984       -12.5168
 234   2.0000      -0.459343       -12.4994
 235   2.0000      -0.454442       -12.3660
 236   2.0000      -0.453286       -12.3345
 237   2.0000      -0.451179       -12.2772
 238   2.0000      -0.449963       -12.2441
 239   2.0000      -0.449531       -12.2324
 240   2.0000      -0.449102       -12.2207
 241   2.0000      -0.446245       -12.1429
 242   2.0000      -0.445584       -12.1250
 243   2.0000      -0.443691       -12.0734
 244   2.0000      -0.441755       -12.0208
 245   2.0000      -0.439150       -11.9499
 246   2.0000      -0.438506       -11.9323
 247   2.0000      -0.435949       -11.8628
 248   2.0000      -0.429902       -11.6982
 249   2.0000      -0.429255       -11.6806
 250   2.0000      -0.426275       -11.5995
 251   2.0000      -0.424723       -11.5573
 252   2.0000      -0.419574       -11.4172
 253   2.0000      -0.415365       -11.3027
 254   2.0000      -0.412694       -11.2300
 255   2.0000      -0.412446       -11.2232
 256   2.0000      -0.407189       -11.0802
 257   2.0000      -0.403890       -10.9904
 258   2.0000      -0.393357       -10.7038
 259   2.0000      -0.390280       -10.6200
 260   2.0000      -0.389979       -10.6119
 261   2.0000      -0.382361       -10.4046
 262   2.0000      -0.377552       -10.2737
 263   2.0000      -0.377108       -10.2616
 264   2.0000      -0.377067       -10.2605
 265   2.0000      -0.376883       -10.2555
 266   2.0000      -0.373234       -10.1562
 267   2.0000      -0.371179       -10.1003
 268   2.0000      -0.366288        -9.9672
 269   2.0000      -0.363272        -9.8851
 270   2.0000      -0.355906        -9.6847
 271   2.0000      -0.352792        -9.6000
 272   2.0000      -0.351349        -9.5607
 273   2.0000      -0.339198        -9.2301
 274   2.0000      -0.335296        -9.1239
 275   2.0000      -0.334188        -9.0937
 276   2.0000      -0.330815        -9.0019
 277   2.0000      -0.321889        -8.7590
 278   2.0000      -0.318127        -8.6567
 279   2.0000      -0.317932        -8.6514
 280   2.0000      -0.316710        -8.6181
 281   2.0000      -0.300284        -8.1711
 282   2.0000      -0.296643        -8.0721
 283   2.0000      -0.295813        -8.0495
 284   2.0000      -0.276836        -7.5331
 285   2.0000      -0.223248        -6.0749
 286   0.0000      -0.097724        -2.6592
 287   0.0000      -0.085896        -2.3373
 288   0.0000      -0.082746        -2.2516
 289   0.0000      -0.061522        -1.6741
 290   0.0000      -0.053089        -1.4446

MULLIKEN ATOMIC CHARGES
-----------------------
   0 C :    0.314811
   1 C :   -0.342857
   2 C :   -0.187295
   3 N :    0.157818
   4 C :   -0.191223
   5 N :    0.167393
   6 C :    0.014917
   7 C :   -0.009121
   8 C :   -0.069075
   9 C :    0.120923
  10 C :   -0.088622
  11 C :   -0.023576
  12 S :    0.188585
  13 C :   -0.121382
  14 C :    0.036790
  15 Br:    0.026597
  16 C :    0.152755
  17 O :   -0.131939
  18 C :   -0.058333
  19 C :    0.020902
  20 C :   -0.042369
  21 N :   -0.086806
  22 C :    0.083138
  23 C :   -0.047326
  24 C :    0.038864
  25 N :   -0.065294
  26 C :    0.017878
  27 C :    0.027300
  28 C :   -0.021435
  29 C :   -0.015241
  30 C :    0.036541
  31 C :    0.030285
  32 C :   -0.051792
  33 S :    0.081519
  34 C :   -0.046323
  35 C :    0.023792
  36 C :    0.042804
  37 C :   -0.047355
  38 S :    0.063740
  39 C :    0.014805
  40 N :   -0.017811
  41 C :   -0.098200
  42 S :    0.184820
  43 C :   -0.010072
  44 N :    0.277941
  45 O :   -0.237972
  46 O :   -0.264220
  47 C :    0.024488
  48 C :    0.080022
  49 C :   -0.032016
  50 C :    0.012620
  51 C :    0.017965
  52 C :   -0.104875
  53 C :    0.279005
  54 C :   -0.342076
  55 C :   -0.177512
  56 N :    0.156908
  57 C :   -0.190200
  58 N :    0.156310
  59 C :    0.006729
  60 C :   -0.002267
  61 C :    0.139630
  62 O :   -0.148016
  63 C :   -0.075887
  64 C :    0.118333
  65 C :   -0.086374
  66 C :   -0.025080
  67 S :    0.188933
  68 C :   -0.122902
  69 C :    0.035572
  70 Br:    0.025214
  71 H :   -0.008001
  72 H :   -0.004618
  73 H :   -0.001237
  74 H :    0.049740
  75 H :    0.002944
  76 H :   -0.007062
  77 H :    0.004246
  78 H :   -0.009195
  79 H :   -0.012800
  80 H :   -0.009678
  81 H :   -0.012645
  82 H :   -0.007587
  83 H :   -0.005954
  84 H :    0.029847
  85 H :    0.149811
  86 H :    0.018556
  87 H :    0.021980
  88 H :    0.018922
  89 H :    0.011780
  90 H :   -0.008841
  91 H :   -0.001159
  92 H :   -0.002854
Sum of atomic charges:   -0.0000000

LOEWDIN ATOMIC CHARGES
----------------------
   0 C :    0.076470
   1 C :   -0.128351
   2 C :   -0.017239
   3 N :   -0.046539
   4 C :   -0.019260
   5 N :   -0.041627
   6 C :   -0.021375
   7 C :   -0.049707
   8 C :    0.023244
   9 C :   -0.030030
  10 C :   -0.142572
  11 C :   -0.008134
  12 S :    0.434282
  13 C :   -0.269846
  14 C :   -0.070572
  15 Br:    0.139810
  16 C :    0.088208
  17 O :   -0.124622
  18 C :   -0.067808
  19 C :    0.085776
  20 C :    0.019955
  21 N :   -0.091227
  22 C :    0.052303
  23 C :   -0.058008
  24 C :    0.041086
  25 N :   -0.086261
  26 C :   -0.043754
  27 C :   -0.012986
  28 C :   -0.072512
  29 C :   -0.129542
  30 C :   -0.032680
  31 C :   -0.029765
  32 C :   -0.187408
  33 S :    0.390276
  34 C :   -0.164740
  35 C :   -0.037983
  36 C :   -0.023671
  37 C :   -0.185766
  38 S :    0.348178
  39 C :   -0.005800
  40 N :    0.048558
  41 C :   -0.091807
  42 S :    0.458713
  43 C :   -0.204066
  44 N :    0.273264
  45 O :   -0.205331
  46 O :   -0.230056
  47 C :    0.018163
  48 C :   -0.114908
  49 C :    0.026111
  50 C :   -0.036700
  51 C :    0.066055
  52 C :   -0.097300
  53 C :    0.071972
  54 C :   -0.140873
  55 C :   -0.020169
  56 N :   -0.047881
  57 C :   -0.017038
  58 N :   -0.050603
  59 C :   -0.018493
  60 C :   -0.052694
  61 C :    0.082757
  62 O :   -0.148098
  63 C :    0.022166
  64 C :   -0.032931
  65 C :   -0.143086
  66 C :   -0.011273
  67 S :    0.434314
  68 C :   -0.271293
  69 C :   -0.070318
  70 Br:    0.137979
  71 H :    0.041885
  72 H :    0.041468
  73 H :    0.039480
  74 H :    0.051064
  75 H :    0.025716
  76 H :    0.031205
  77 H :    0.020053
  78 H :    0.030071
  79 H :    0.034202
  80 H :    0.034394
  81 H :    0.032180
  82 H :    0.034604
  83 H :    0.035850
  84 H :    0.039261
  85 H :    0.090713
  86 H :    0.048521
  87 H :    0.036636
  88 H :    0.033199
  89 H :    0.042663
  90 H :    0.041403
  91 H :    0.041521
  92 H :    0.038977

  Mayer bond orders larger than 0.100000
B(  0-C ,  1-C ) :   1.6705 B(  0-C ,  6-C ) :   1.0197 B(  0-C , 18-C ) :   1.0126
B(  1-C ,  2-C ) :   1.1353 B(  1-C ,  4-C ) :   1.1462 B(  2-C ,  3-N ) :   2.9766
B(  4-C ,  5-N ) :   2.9821 B(  6-C ,  7-C ) :   1.2725 B(  6-C , 11-C ) :   1.3974
B(  7-C ,  8-C ) :   1.4202 B(  7-C , 16-C ) :   0.9408 B(  8-C ,  9-C ) :   1.2519
B(  8-C , 71-H ) :   1.0166 B(  9-C , 10-C ) :   1.2961 B(  9-C , 14-C ) :   1.1633
B( 10-C , 11-C ) :   1.3428 B( 10-C , 12-S ) :   1.0857 B( 11-C , 72-H ) :   0.9806
B( 12-S , 13-C ) :   1.0863 B( 13-C , 14-C ) :   1.6157 B( 13-C , 15-Br) :   1.0207
B( 14-C , 73-H ) :   1.0009 B( 16-C , 17-O ) :   2.2399 B( 16-C , 18-C ) :   0.9141
B( 18-C , 19-C ) :   1.8606 B( 19-C , 20-C ) :   0.9251 B( 19-C , 74-H ) :   0.9321
B( 20-C , 21-N ) :   1.4951 B( 20-C , 25-N ) :   1.5342 B( 21-N , 22-C ) :   1.5240
B( 22-C , 23-C ) :   1.3988 B( 22-C , 75-H ) :   0.9788 B( 23-C , 24-C ) :   1.3464
B( 23-C , 76-H ) :   0.9673 B( 24-C , 25-N ) :   1.4856 B( 24-C , 26-C ) :   1.0900
B( 26-C , 27-C ) :   1.6420 B( 26-C , 77-H ) :   0.9492 B( 27-C , 28-C ) :   1.1832
B( 27-C , 78-H ) :   0.9626 B( 28-C , 29-C ) :   1.5970 B( 28-C , 79-H ) :   0.9603
B( 29-C , 30-C ) :   1.1338 B( 29-C , 33-S ) :   1.0471 B( 30-C , 31-C ) :   1.6079
B( 30-C , 80-H ) :   0.9983 B( 31-C , 32-C ) :   1.1742 B( 31-C , 81-H ) :   0.9923
B( 32-C , 33-S ) :   1.0301 B( 32-C , 34-C ) :   1.5395 B( 34-C , 35-C ) :   1.1739
B( 34-C , 38-S ) :   1.0452 B( 35-C , 36-C ) :   1.6254 B( 35-C , 82-H ) :   0.9927
B( 36-C , 37-C ) :   1.1402 B( 36-C , 83-H ) :   0.9950 B( 37-C , 38-S ) :   1.0071
B( 37-C , 39-C ) :   1.6219 B( 39-C , 40-N ) :   1.1429 B( 39-C , 84-H ) :   0.9534
B( 40-N , 41-C ) :   1.2218 B( 40-N , 85-H ) :   0.9019 B( 41-C , 42-S ) :   1.1475
B( 41-C , 48-C ) :   1.3372 B( 42-S , 43-C ) :   1.0665 B( 43-C , 44-N ) :   0.9644
B( 43-C , 47-C ) :   1.5155 B( 44-N , 45-O ) :   1.5421 B( 44-N , 46-O ) :   1.5066
B( 45-O , 46-O ) :   0.2617 B( 47-C , 48-C ) :   1.2273 B( 47-C , 86-H ) :   0.9907
B( 48-C , 49-C ) :   1.0711 B( 49-C , 50-C ) :   1.6596 B( 49-C , 87-H ) :   0.9769
B( 50-C , 51-C ) :   1.1408 B( 50-C , 88-H ) :   0.9621 B( 51-C , 52-C ) :   1.6075
B( 51-C , 89-H ) :   0.9516 B( 52-C , 53-C ) :   1.0403 B( 52-C , 61-C ) :   0.9444
B( 53-C , 54-C ) :   1.6417 B( 53-C , 59-C ) :   1.0130 B( 54-C , 55-C ) :   1.1287
B( 54-C , 57-C ) :   1.1685 B( 55-C , 56-N ) :   2.9867 B( 57-C , 58-N ) :   2.9603
B( 59-C , 60-C ) :   1.2737 B( 59-C , 66-C ) :   1.4107 B( 60-C , 61-C ) :   0.9254
B( 60-C , 63-C ) :   1.4234 B( 61-C , 62-O ) :   2.2588 B( 63-C , 64-C ) :   1.2487
B( 63-C , 90-H ) :   1.0178 B( 64-C , 65-C ) :   1.3067 B( 64-C , 69-C ) :   1.1616
B( 65-C , 66-C ) :   1.3255 B( 65-C , 67-S ) :   1.0865 B( 66-C , 91-H ) :   0.9839
B( 67-S , 68-C ) :   1.0870 B( 68-C , 69-C ) :   1.6189 B( 68-C , 70-Br) :   1.0196
B( 69-C , 92-H ) :   1.0012

-----------------------------------------------------------------------------
         ABSORPTION SPECTRUM VIA TRANSITION ELECTRIC DIPOLE MOMENTS
-----------------------------------------------------------------------------
State   Energy  Wavelength   fosc         T2         TX        TY        TZ
        (cm-1)    (nm)                  (au**2)     (au)      (au)      (au)
-----------------------------------------------------------------------------
   0   14338.3    697.4   1.156729047  26.55892  -3.04900   2.90300   2.97239
   1   17445.0    573.2   0.500868252   9.45210   1.24220  -2.19874  -1.75345
   2   19015.2    525.9   0.000702704   0.01217   0.09004   0.02675   0.05782
   3   23282.8    429.5   0.311425730   4.40347  -1.38233  -0.36779   1.53537
   4   24189.2    413.4   0.163689811   2.22780   0.45350  -1.39912   0.25418
   5   24415.9    409.6   0.112620037   1.51851   1.05057  -0.36338  -0.53176
   6   25681.5    389.4   0.000363294   0.00466   0.05513   0.00392  -0.04003
   7   27349.7    365.6   0.512151766   6.16483  -0.92524  -1.18089   1.97845
   8   27475.1    364.0   0.088014307   1.05460   0.16930   0.06969  -1.01049
   9   28816.6    347.0   0.428717533   4.89783   1.95713  -0.76943  -0.68952
  10   29347.8    340.7   0.157297393   1.76450  -0.02874   1.32489  -0.09130
  11   29527.8    338.7   0.069073709   0.77012  -0.31745  -0.61052   0.54462
  12   29757.6    336.0   0.025203802   0.27883   0.31511  -0.36685  -0.21203
  13   30113.6    332.1   0.072220311   0.78954  -0.82749  -0.32370  -0.00464
  14   30282.5    330.2   0.004518596   0.04912   0.08021  -0.17610  -0.10806
  15   30655.1    326.2   0.018872934   0.20268   0.05466  -0.39820   0.20280
  16   30931.5    323.3   0.073544259   0.78275  -0.50274   0.68097   0.25746
  17   31528.3    317.2   0.021653071   0.22610   0.21037   0.18842  -0.38254
  18   31954.7    312.9   0.007594066   0.07824   0.20952   0.11428  -0.14588
  19   32086.1    311.7   0.607799696   6.23619  -1.30723  -0.95880   1.89948
  20   32681.9    306.0   0.008531868   0.08594   0.04155   0.11456  -0.26663
  21   32822.1    304.7   0.407613862   4.08845  -0.76109  -1.06120   1.54371
  22   32889.7    304.0   0.010913318   0.10924   0.01416   0.27876  -0.17700
  23   33288.7    300.4   0.028824023   0.28506  -0.05741  -0.53052   0.01753
  24   33584.4    297.8   0.760748629   7.45726  -0.96294  -1.23496   2.23716
  25   34352.2    291.1   0.058476768   0.56041  -0.48620   0.56771   0.04152
  26   34674.3    288.4   0.043481572   0.41283   0.32165   0.55374   0.05242
  27   34708.3    288.1   0.568562615   5.39287  -1.53155   1.60953   0.67577
  28   34785.8    287.5   0.119328192   1.12932   0.02832  -0.97573   0.42008
  29   35164.0    284.4   0.033787289   0.31632   0.44964   0.30805   0.13875
  30   35826.8    279.1   0.030295552   0.27839  -0.08427   0.46345  -0.23770
  31   36153.3    276.6   0.007038674   0.06409  -0.02544   0.25151   0.01380
  32   36247.2    275.9   0.009245378   0.08397   0.04145   0.27948  -0.06437
  33   36815.7    271.6   0.053703093   0.48022   0.62300   0.29924   0.05050
  34   37083.0    269.7   0.008409563   0.07466  -0.00334  -0.20163  -0.18437
  35   37627.8    265.8   0.008292003   0.07255   0.20825   0.16366  -0.04898
  36   37761.1    264.8   0.049423160   0.43089  -0.37271  -0.52947  -0.10786
  37   38308.5    261.0   0.011404522   0.09801  -0.14313  -0.02170   0.27758
  38   38520.7    259.6   0.006756699   0.05775  -0.05079  -0.20255  -0.11890
  39   38708.4    258.3   0.072448604   0.61617  -0.31652   0.55099   0.46086
  40   38758.0    258.0   0.021596720   0.18344   0.11603  -0.31068  -0.27103
  41   38925.7    256.9   0.000434473   0.00367   0.03621   0.04395  -0.02077
  42   39067.6    256.0   0.026703866   0.22503   0.04991   0.41178  -0.23015
  43   39191.9    255.2   0.000862525   0.00725   0.07688   0.01492   0.03335
  44   39626.1    252.4   0.014237188   0.11828  -0.09699  -0.30965   0.11398
  45   39908.5    250.6   0.040096291   0.33076   0.22644   0.52851   0.01293

FINAL SINGLE POINT ENERGY     -9868.283040795890

DIPOLE MOMENT
-------------
                                X             Y             Z
Electronic contribution:    -41.75962     -45.01587     -45.53615
Nuclear contribution   :     40.83131      50.70230      43.57751
                        -----------------------------------------
Total Dipole Moment    :     -0.92830       5.68643      -1.95864
                        -----------------------------------------
Magnitude (a.u.)       :      6.08552
Magnitude (Debye)      :     15.46815

Rotational constants in cm-1:     0.001365     0.000139     0.000132
Rotational constants in MHz :    40.921346     4.173762     3.962105

                             ****ORCA TERMINATED NORMALLY****
TOTAL RUN TIME: 0 days 0 hours 8 minutes 56 seconds 344 msec
