                         Program Version 4.2.0 -  RELEASE  -
|  1> # ORCA input file
|  2> # SCF done       -175.124021610211          0.000613689958
|  3> ! CAM-B3LYP def2-SVP def2/J RIJCOSX Grid4 TightSCF
|  4> %maxcore 5000
|  5> %tddft
|  6>     Mode sTDDFT
|  7>     Ethresh 5.0
|  8>     maxcore 5000
|  9> end
| 10>
| 11> %pal
| 12>   nprocs 6
| 13>   end
| 14> * xyz 0 1
| 15>    C       12.93224        -3.99429         1.28019
| 16>    C       12.31762        -4.28276         0.12441
| 17>    C       12.82096        -4.10774        -1.20707
| 18>    C       11.96860        -4.49620        -2.18266
| 19>    C       10.73034        -5.00901        -1.71060
| 20>    S       10.68753        -4.97184         0.04123
| 21>    C        9.67806        -5.48380        -2.45982
| 22>    C        9.55669        -5.53644        -3.86744
| 23>    C        8.37294        -6.05388        -4.29802
| 24>    C        7.48257        -6.42402        -3.26356
| 25>    S        8.23080        -6.13142        -1.70721
| 26>    C        6.25356        -7.01620        -3.43690
| 27>    C        5.30577        -7.34710        -2.46416
| 28>    S        4.30548        -8.73767        -2.78912
| 29>    C        3.62643        -8.76660        -1.18800
| 30>    C        4.15342        -7.69220        -0.42553
| 31>    C        5.02584        -6.84319        -1.17199
| 32>    C        5.43224        -5.60274        -0.60855
| 33>    C        5.93956        -4.49080        -1.45548
| 34>    O        5.62986        -4.39266        -2.62387
| 35>    C        6.76035        -3.42271        -0.76765
| 36>    C        5.15988        -5.37290         0.72565
| 37>    C        4.47478        -6.30773         1.50580
| 38>    C        3.94265        -7.43646         0.93734
| 39>    C        2.70988        -9.78189        -0.90011
| 40>    C        1.84217        -9.87614         0.16240
| 41>    C        0.99716       -10.96782         0.39136
| 42>    C        0.04714       -11.05722         1.41222
| 43>    C       -0.57681       -12.31337         1.36019
| 44>    C        0.04826       -13.00660         0.23458
| 45>    C        0.96805       -12.22362        -0.35260
| 46>    F       -0.27785       -14.25272        -0.14749
| 47>    C       -1.57606       -12.82970         2.18401
| 48>    C       -2.13163       -14.11732         2.17437
| 49>    C       -3.10063       -14.21267         3.17717
| 50>    C       -3.17691       -12.91832         3.84683
| 51>    C       -2.26749       -12.12093         3.26176
| 52>    F       -2.01624       -10.84301         3.58688
| 53>    C       -3.81203       -15.37197         3.48955
| 54>    C       -4.83172       -15.47360         4.40619
| 55>    C       -5.47784       -16.66785         4.73076
| 56>    S       -7.12802       -16.60948         5.27870
| 57>    C       -7.37158       -18.32446         5.05984
| 58>    C       -6.13866       -18.94697         4.71992
| 59>    C       -5.06646       -18.01666         4.57837
| 60>    C       -3.74668       -18.49041         4.39287
| 61>    C       -2.54438       -17.63661         4.62144
| 62>    O       -2.47024       -16.90084         5.57653
| 63>    C       -1.39463       -17.83321         3.66174
| 64>    C       -3.54973       -19.84625         4.21256
| 65>    C       -4.60906       -20.75014         4.30476
| 66>    C       -5.87904       -20.31909         4.59771
| 67>    C       -8.66795       -18.81217         5.20482
| 68>    C       -9.15108       -20.04668         4.82306
| 69>    C      -10.46152       -20.46111         5.02036
| 70>    C      -10.92982       -21.70630         4.64092
| 71>    C      -12.22979       -22.22499         4.80425
| 72>    C      -12.38696       -23.50473         4.35337
| 73>    C      -11.21303       -24.06613         3.80789
| 74>    S       -9.90246       -22.90814         3.87937
| 75>    C      -11.03063       -25.32981         3.28348
| 76>    C      -11.98997       -26.36958         3.17378
| 77>    C      -11.51594       -27.51041         2.61936
| 78>    C      -10.13413       -27.45566         2.24432
| 79>    S       -9.48673       -25.85821         2.64870
| 80>    C       -9.39345       -28.41954         1.67692
| 81>    H       13.92449        -3.57894         1.28495
| 82>    H       12.46103        -4.16748         2.23018
| 83>    H       13.80172        -3.69843        -1.37279
| 84>    H       12.18396        -4.43771        -3.23490
| 85>    H       10.33651        -5.18656        -4.51954
| 86>    H        8.09698        -6.16180        -5.33208
| 87>    H        6.03409        -7.35351        -4.44315
| 88>    H        7.34399        -2.89323        -1.51723
| 89>    H        7.41842        -3.84109        -0.01198
| 90>    H        6.08623        -2.70457        -0.30226
| 91>    H        5.45411        -4.44125         1.18141
| 92>    H        4.32514        -6.11095         2.55655
| 93>    H        3.37951        -8.12922         1.53893
| 94>    H        2.65358       -10.55847        -1.65207
| 95>    H        1.75416        -9.05756         0.86135
| 96>    H       -0.16546       -10.28698         2.12780
| 97>    H        1.57752       -12.47399        -1.19808
| 98>    H       -1.85470       -14.91161         1.50891
| 99>    H       -3.82444       -12.67015         4.66403
|100>    H       -3.54942       -16.25526         2.92087
|101>    H       -5.23380       -14.57039         4.84369
|102>    H       -0.85822       -16.89349         3.55314
|103>    H       -1.72917       -18.19195         2.69264
|104>    H       -0.70266       -18.55808         4.08899
|105>    H       -2.55005       -20.22663         4.06968
|106>    H       -4.41286       -21.80615         4.19736
|107>    H       -6.65644       -21.04280         4.77089
|108>    H       -9.38226       -18.11217         5.62298
|109>    H       -8.50417       -20.73914         4.30645
|110>    H      -11.16055       -19.79409         5.50760
|111>    H      -13.01426       -21.63993         5.25172
|112>    H      -13.31071       -24.05279         4.40189
|113>    H      -13.00202       -26.23605         3.51273
|114>    H      -12.09418       -28.40257         2.45737
|115>    H       -9.82335       -29.37807         1.44639
|116>    H       -8.35773       -28.26717         1.43518
|117> *
|118>
|119>                          ****END OF INPUT****

CARTESIAN COORDINATES (ANGSTROEM)
---------------------------------
  C     12.932240   -3.994290    1.280190
  C     12.317620   -4.282760    0.124410
  C     12.820960   -4.107740   -1.207070
  C     11.968600   -4.496200   -2.182660
  C     10.730340   -5.009010   -1.710600
  S     10.687530   -4.971840    0.041230
  C      9.678060   -5.483800   -2.459820
  C      9.556690   -5.536440   -3.867440
  C      8.372940   -6.053880   -4.298020
  C      7.482570   -6.424020   -3.263560
  S      8.230800   -6.131420   -1.707210
  C      6.253560   -7.016200   -3.436900
  C      5.305770   -7.347100   -2.464160
  S      4.305480   -8.737670   -2.789120
  C      3.626430   -8.766600   -1.188000
  C      4.153420   -7.692200   -0.425530
  C      5.025840   -6.843190   -1.171990
  C      5.432240   -5.602740   -0.608550
  C      5.939560   -4.490800   -1.455480
  O      5.629860   -4.392660   -2.623870
  C      6.760350   -3.422710   -0.767650
  C      5.159880   -5.372900    0.725650
  C      4.474780   -6.307730    1.505800
  C      3.942650   -7.436460    0.937340
  C      2.709880   -9.781890   -0.900110
  C      1.842170   -9.876140    0.162400
  C      0.997160  -10.967820    0.391360
  C      0.047140  -11.057220    1.412220
  C     -0.576810  -12.313370    1.360190
  C      0.048260  -13.006600    0.234580
  C      0.968050  -12.223620   -0.352600
  F     -0.277850  -14.252720   -0.147490
  C     -1.576060  -12.829700    2.184010
  C     -2.131630  -14.117320    2.174370
  C     -3.100630  -14.212670    3.177170
  C     -3.176910  -12.918320    3.846830
  C     -2.267490  -12.120930    3.261760
  F     -2.016240  -10.843010    3.586880
  C     -3.812030  -15.371970    3.489550
  C     -4.831720  -15.473600    4.406190
  C     -5.477840  -16.667850    4.730760
  S     -7.128020  -16.609480    5.278700
  C     -7.371580  -18.324460    5.059840
  C     -6.138660  -18.946970    4.719920
  C     -5.066460  -18.016660    4.578370
  C     -3.746680  -18.490410    4.392870
  C     -2.544380  -17.636610    4.621440
  O     -2.470240  -16.900840    5.576530
  C     -1.394630  -17.833210    3.661740
  C     -3.549730  -19.846250    4.212560
  C     -4.609060  -20.750140    4.304760
  C     -5.879040  -20.319090    4.597710
  C     -8.667950  -18.812170    5.204820
  C     -9.151080  -20.046680    4.823060
  C    -10.461520  -20.461110    5.020360
  C    -10.929820  -21.706300    4.640920
  C    -12.229790  -22.224990    4.804250
  C    -12.386960  -23.504730    4.353370
  C    -11.213030  -24.066130    3.807890
  S     -9.902460  -22.908140    3.879370
  C    -11.030630  -25.329810    3.283480
  C    -11.989970  -26.369580    3.173780
  C    -11.515940  -27.510410    2.619360
  C    -10.134130  -27.455660    2.244320
  S     -9.486730  -25.858210    2.648700
  C     -9.393450  -28.419540    1.676920
  H     13.924490   -3.578940    1.284950
  H     12.461030   -4.167480    2.230180
  H     13.801720   -3.698430   -1.372790
  H     12.183960   -4.437710   -3.234900
  H     10.336510   -5.186560   -4.519540
  H      8.096980   -6.161800   -5.332080
  H      6.034090   -7.353510   -4.443150
  H      7.343990   -2.893230   -1.517230
  H      7.418420   -3.841090   -0.011980
  H      6.086230   -2.704570   -0.302260
  H      5.454110   -4.441250    1.181410
  H      4.325140   -6.110950    2.556550
  H      3.379510   -8.129220    1.538930
  H      2.653580  -10.558470   -1.652070
  H      1.754160   -9.057560    0.861350
  H     -0.165460  -10.286980    2.127800
  H      1.577520  -12.473990   -1.198080
  H     -1.854700  -14.911610    1.508910
  H     -3.824440  -12.670150    4.664030
  H     -3.549420  -16.255260    2.920870
  H     -5.233800  -14.570390    4.843690
  H     -0.858220  -16.893490    3.553140
  H     -1.729170  -18.191950    2.692640
  H     -0.702660  -18.558080    4.088990
  H     -2.550050  -20.226630    4.069680
  H     -4.412860  -21.806150    4.197360
  H     -6.656440  -21.042800    4.770890
  H     -9.382260  -18.112170    5.622980
  H     -8.504170  -20.739140    4.306450
  H    -11.160550  -19.794090    5.507600
  H    -13.014260  -21.639930    5.251720
  H    -13.310710  -24.052790    4.401890
  H    -13.002020  -26.236050    3.512730
  H    -12.094180  -28.402570    2.457370
  H     -9.823350  -29.378070    1.446390
  H     -8.357730  -28.267170    1.435180

 Total Charge           Charge          ....    0
 Multiplicity           Mult            ....    1
 Number of Electrons    NEL             ....  502
 Basis Dimension        Dim             .... 1128

ORBITAL ENERGIES
----------------

  NO   OCC          E(Eh)            E(eV)
   0   2.0000     -88.961226     -2420.7580
   1   2.0000     -88.957586     -2420.6590
   2   2.0000     -88.942378     -2420.2451
   3   2.0000     -88.939857     -2420.1766
   4   2.0000     -88.938498     -2420.1396
   5   2.0000     -88.935877     -2420.0683
   6   2.0000     -24.773311      -674.1161
   7   2.0000     -24.772833      -674.1031
   8   2.0000     -19.194364      -522.3052
   9   2.0000     -19.183909      -522.0207
  10   2.0000     -10.351061      -281.6667
  11   2.0000     -10.341419      -281.4043
  12   2.0000     -10.338739      -281.3314
  13   2.0000     -10.338115      -281.3144
  14   2.0000     -10.309440      -280.5341
  15   2.0000     -10.307835      -280.4905
  16   2.0000     -10.307777      -280.4889
  17   2.0000     -10.306007      -280.4407
  18   2.0000     -10.305653      -280.4311
  19   2.0000     -10.304483      -280.3993
  20   2.0000     -10.303729      -280.3787
  21   2.0000     -10.303498      -280.3724
  22   2.0000     -10.303382      -280.3693
  23   2.0000     -10.302670      -280.3499
  24   2.0000     -10.302365      -280.3416
  25   2.0000     -10.299144      -280.2540
  26   2.0000     -10.288761      -279.9714
  27   2.0000     -10.286715      -279.9157
  28   2.0000     -10.286362      -279.9061
  29   2.0000     -10.286096      -279.8989
  30   2.0000     -10.285589      -279.8851
  31   2.0000     -10.283846      -279.8377
  32   2.0000     -10.283162      -279.8191
  33   2.0000     -10.282832      -279.8101
  34   2.0000     -10.282625      -279.8044
  35   2.0000     -10.282238      -279.7939
  36   2.0000     -10.281673      -279.7786
  37   2.0000     -10.281668      -279.7784
  38   2.0000     -10.281223      -279.7663
  39   2.0000     -10.281041      -279.7613
  40   2.0000     -10.280841      -279.7559
  41   2.0000     -10.280729      -279.7529
  42   2.0000     -10.280154      -279.7372
  43   2.0000     -10.279609      -279.7224
  44   2.0000     -10.279225      -279.7119
  45   2.0000     -10.277788      -279.6728
  46   2.0000     -10.277588      -279.6674
  47   2.0000     -10.277456      -279.6638
  48   2.0000     -10.277399      -279.6623
  49   2.0000     -10.276971      -279.6506
  50   2.0000     -10.276590      -279.6402
  51   2.0000     -10.275633      -279.6142
  52   2.0000     -10.275597      -279.6132
  53   2.0000     -10.272602      -279.5317
  54   2.0000     -10.272598      -279.5316
  55   2.0000     -10.272119      -279.5186
  56   2.0000     -10.271635      -279.5054
  57   2.0000     -10.271225      -279.4942
  58   2.0000     -10.269962      -279.4599
  59   2.0000     -10.266571      -279.3676
  60   2.0000     -10.260983      -279.2155
  61   2.0000     -10.255286      -279.0605
  62   2.0000     -10.254942      -279.0512
  63   2.0000     -10.250472      -278.9295
  64   2.0000     -10.244430      -278.7651
  65   2.0000     -10.243784      -278.7475
  66   2.0000      -8.056776      -219.2360
  67   2.0000      -8.053214      -219.1391
  68   2.0000      -8.038567      -218.7405
  69   2.0000      -8.035212      -218.6492
  70   2.0000      -8.035116      -218.6466
  71   2.0000      -8.032460      -218.5744
  72   2.0000      -6.025710      -163.9679
  73   2.0000      -6.022108      -163.8699
  74   2.0000      -6.021828      -163.8623
  75   2.0000      -6.019366      -163.7953
  76   2.0000      -6.018207      -163.7637
  77   2.0000      -6.015888      -163.7006
  78   2.0000      -6.008268      -163.4933
  79   2.0000      -6.004993      -163.4042
  80   2.0000      -6.004928      -163.4024
  81   2.0000      -6.004348      -163.3866
  82   2.0000      -6.002287      -163.3305
  83   2.0000      -6.000998      -163.2955
  84   2.0000      -6.000918      -163.2933
  85   2.0000      -5.999499      -163.2547
  86   2.0000      -5.998356      -163.2236
  87   2.0000      -5.996185      -163.1645
  88   2.0000      -5.995727      -163.1520
  89   2.0000      -5.993033      -163.0787
  90   2.0000      -1.284067       -34.9412
  91   2.0000      -1.283850       -34.9353
  92   2.0000      -1.113582       -30.3021
  93   2.0000      -1.103252       -30.0210
  94   2.0000      -0.994378       -27.0584
  95   2.0000      -0.992237       -27.0001
  96   2.0000      -0.991827       -26.9890
  97   2.0000      -0.986027       -26.8312
  98   2.0000      -0.970101       -26.3978
  99   2.0000      -0.969048       -26.3691
 100   2.0000      -0.964165       -26.2363
 101   2.0000      -0.952925       -25.9304
 102   2.0000      -0.935541       -25.4574
 103   2.0000      -0.931525       -25.3481
 104   2.0000      -0.913597       -24.8602
 105   2.0000      -0.901479       -24.5305
 106   2.0000      -0.893099       -24.3025
 107   2.0000      -0.877544       -23.8792
 108   2.0000      -0.871562       -23.7164
 109   2.0000      -0.864203       -23.5162
 110   2.0000      -0.859857       -23.3979
 111   2.0000      -0.848680       -23.0938
 112   2.0000      -0.846807       -23.0428
 113   2.0000      -0.843458       -22.9516
 114   2.0000      -0.839402       -22.8413
 115   2.0000      -0.832996       -22.6670
 116   2.0000      -0.830351       -22.5950
 117   2.0000      -0.826771       -22.4976
 118   2.0000      -0.820926       -22.3385
 119   2.0000      -0.816781       -22.2257
 120   2.0000      -0.813801       -22.1446
 121   2.0000      -0.808408       -21.9979
 122   2.0000      -0.800294       -21.7771
 123   2.0000      -0.796714       -21.6797
 124   2.0000      -0.785440       -21.3729
 125   2.0000      -0.782201       -21.2848
 126   2.0000      -0.769121       -20.9289
 127   2.0000      -0.752814       -20.4851
 128   2.0000      -0.741108       -20.1666
 129   2.0000      -0.723719       -19.6934
 130   2.0000      -0.719678       -19.5834
 131   2.0000      -0.716939       -19.5089
 132   2.0000      -0.713417       -19.4131
 133   2.0000      -0.701508       -19.0890
 134   2.0000      -0.697843       -18.9893
 135   2.0000      -0.692213       -18.8361
 136   2.0000      -0.679929       -18.5018
 137   2.0000      -0.672918       -18.3110
 138   2.0000      -0.666056       -18.1243
 139   2.0000      -0.660788       -17.9810
 140   2.0000      -0.656448       -17.8629
 141   2.0000      -0.653001       -17.7691
 142   2.0000      -0.643409       -17.5081
 143   2.0000      -0.638222       -17.3669
 144   2.0000      -0.633555       -17.2399
 145   2.0000      -0.628504       -17.1025
 146   2.0000      -0.621489       -16.9116
 147   2.0000      -0.617288       -16.7973
 148   2.0000      -0.614269       -16.7151
 149   2.0000      -0.609658       -16.5896
 150   2.0000      -0.609149       -16.5758
 151   2.0000      -0.604276       -16.4432
 152   2.0000      -0.601219       -16.3600
 153   2.0000      -0.600197       -16.3322
 154   2.0000      -0.597245       -16.2519
 155   2.0000      -0.593255       -16.1433
 156   2.0000      -0.590799       -16.0765
 157   2.0000      -0.580470       -15.7954
 158   2.0000      -0.568930       -15.4814
 159   2.0000      -0.559550       -15.2261
 160   2.0000      -0.558094       -15.1865
 161   2.0000      -0.556860       -15.1529
 162   2.0000      -0.554869       -15.0988
 163   2.0000      -0.553190       -15.0531
 164   2.0000      -0.544303       -14.8112
 165   2.0000      -0.543039       -14.7768
 166   2.0000      -0.539817       -14.6892
 167   2.0000      -0.537579       -14.6283
 168   2.0000      -0.536372       -14.5954
 169   2.0000      -0.533634       -14.5209
 170   2.0000      -0.532032       -14.4773
 171   2.0000      -0.528522       -14.3818
 172   2.0000      -0.524759       -14.2794
 173   2.0000      -0.522739       -14.2245
 174   2.0000      -0.521181       -14.1821
 175   2.0000      -0.519285       -14.1305
 176   2.0000      -0.516572       -14.0566
 177   2.0000      -0.514497       -14.0002
 178   2.0000      -0.511326       -13.9139
 179   2.0000      -0.507958       -13.8222
 180   2.0000      -0.503443       -13.6994
 181   2.0000      -0.501493       -13.6463
 182   2.0000      -0.499562       -13.5938
 183   2.0000      -0.494390       -13.4530
 184   2.0000      -0.493421       -13.4267
 185   2.0000      -0.492854       -13.4112
 186   2.0000      -0.491555       -13.3759
 187   2.0000      -0.490319       -13.3423
 188   2.0000      -0.487014       -13.2523
 189   2.0000      -0.483753       -13.1636
 190   2.0000      -0.483691       -13.1619
 191   2.0000      -0.482315       -13.1245
 192   2.0000      -0.477259       -12.9869
 193   2.0000      -0.476952       -12.9785
 194   2.0000      -0.472950       -12.8696
 195   2.0000      -0.470390       -12.8000
 196   2.0000      -0.468184       -12.7399
 197   2.0000      -0.465846       -12.6763
 198   2.0000      -0.463703       -12.6180
 199   2.0000      -0.460992       -12.5442
 200   2.0000      -0.458297       -12.4709
 201   2.0000      -0.456173       -12.4131
 202   2.0000      -0.454316       -12.3626
 203   2.0000      -0.453531       -12.3412
 204   2.0000      -0.451223       -12.2784
 205   2.0000      -0.450538       -12.2598
 206   2.0000      -0.446410       -12.1474
 207   2.0000      -0.441890       -12.0244
 208   2.0000      -0.438358       -11.9283
 209   2.0000      -0.438106       -11.9215
 210   2.0000      -0.435795       -11.8586
 211   2.0000      -0.432187       -11.7604
 212   2.0000      -0.428021       -11.6470
 213   2.0000      -0.427035       -11.6202
 214   2.0000      -0.422641       -11.5007
 215   2.0000      -0.421550       -11.4710
 216   2.0000      -0.421111       -11.4590
 217   2.0000      -0.419544       -11.4164
 218   2.0000      -0.418770       -11.3953
 219   2.0000      -0.417456       -11.3596
 220   2.0000      -0.416217       -11.3258
 221   2.0000      -0.415086       -11.2951
 222   2.0000      -0.414727       -11.2853
 223   2.0000      -0.405356       -11.0303
 224   2.0000      -0.404669       -11.0116
 225   2.0000      -0.399728       -10.8771
 226   2.0000      -0.398069       -10.8320
 227   2.0000      -0.395111       -10.7515
 228   2.0000      -0.391570       -10.6552
 229   2.0000      -0.386799       -10.5253
 230   2.0000      -0.369118       -10.0442
 231   2.0000      -0.357286        -9.7223
 232   2.0000      -0.345776        -9.4090
 233   2.0000      -0.336135        -9.1467
 234   2.0000      -0.332704        -9.0533
 235   2.0000      -0.328168        -8.9299
 236   2.0000      -0.323883        -8.8133
 237   2.0000      -0.322128        -8.7655
 238   2.0000      -0.319381        -8.6908
 239   2.0000      -0.314391        -8.5550
 240   2.0000      -0.313601        -8.5335
 241   2.0000      -0.309098        -8.4110
 242   2.0000      -0.307113        -8.3570
 243   2.0000      -0.303494        -8.2585
 244   2.0000      -0.294819        -8.0224
 245   2.0000      -0.276798        -7.5320
 246   2.0000      -0.273193        -7.4340
 247   2.0000      -0.249442        -6.7877
 248   2.0000      -0.233206        -6.3459
 249   2.0000      -0.206571        -5.6211
 250   2.0000      -0.188441        -5.1277
 251   0.0000      -0.106955        -2.9104
 252   0.0000      -0.076168        -2.0726
 253   0.0000      -0.059319        -1.6142
 254   0.0000      -0.038798        -1.0558
 255   0.0000      -0.033741        -0.9181

MULLIKEN ATOMIC CHARGES
-----------------------
   0 C :   -0.028510
   1 C :   -0.067730
   2 C :    0.056066
   3 C :    0.027326
   4 C :   -0.065647
   5 S :    0.074592
   6 C :   -0.046373
   7 C :    0.025694
   8 C :    0.043403
   9 C :   -0.028285
  10 S :    0.064206
  11 C :    0.042281
  12 C :   -0.155849
  13 S :    0.154840
  14 C :   -0.104695
  15 C :    0.089784
  16 C :    0.115223
  17 C :    0.017914
  18 C :   -0.049409
  19 O :   -0.181083
  20 C :    0.069878
  21 C :   -0.022140
  22 C :    0.033452
  23 C :   -0.032644
  24 C :    0.041331
  25 C :   -0.025125
  26 C :    0.105823
  27 C :   -0.099381
  28 C :    0.021154
  29 C :    0.245034
  30 C :   -0.087318
  31 F :   -0.184818
  32 C :    0.028126
  33 C :   -0.105261
  34 C :    0.100377
  35 C :   -0.078706
  36 C :    0.248275
  37 F :   -0.182873
  38 C :    0.020508
  39 C :    0.051681
  40 C :   -0.134894
  41 S :    0.159649
  42 C :   -0.116146
  43 C :    0.110495
  44 C :    0.113322
  45 C :   -0.004378
  46 C :   -0.053096
  47 O :   -0.170421
  48 C :    0.052507
  49 C :   -0.017557
  50 C :    0.027605
  51 C :   -0.039622
  52 C :    0.041743
  53 C :   -0.019787
  54 C :   -0.005061
  55 C :   -0.025290
  56 C :    0.036977
  57 C :    0.021500
  58 C :   -0.040363
  59 S :    0.057767
  60 C :   -0.063579
  61 C :    0.028151
  62 C :    0.050333
  63 C :   -0.065572
  64 S :    0.079750
  65 C :   -0.027113
  66 H :    0.018385
  67 H :    0.020589
  68 H :   -0.013288
  69 H :   -0.011550
  70 H :   -0.017802
  71 H :   -0.012667
  72 H :   -0.012966
  73 H :    0.028707
  74 H :    0.024802
  75 H :    0.032581
  76 H :   -0.017057
  77 H :   -0.012391
  78 H :   -0.017025
  79 H :   -0.016393
  80 H :   -0.016483
  81 H :   -0.024548
  82 H :   -0.024454
  83 H :   -0.027066
  84 H :   -0.023486
  85 H :   -0.024952
  86 H :   -0.017245
  87 H :    0.046699
  88 H :    0.028014
  89 H :    0.047121
  90 H :   -0.018260
  91 H :   -0.009377
  92 H :   -0.016795
  93 H :   -0.019181
  94 H :    0.007436
  95 H :   -0.018015
  96 H :   -0.014316
  97 H :   -0.015068
  98 H :   -0.012173
  99 H :   -0.011482
 100 H :    0.019863
 101 H :    0.021796
Sum of atomic charges:   -0.0000000

LOEWDIN ATOMIC CHARGES
----------------------
   0 C :   -0.078816
   1 C :   -0.139181
   2 C :   -0.033117
   3 C :   -0.026085
   4 C :   -0.179594
   5 S :    0.347677
   6 C :   -0.177746
   7 C :   -0.039325
   8 C :   -0.023711
   9 C :   -0.142361
  10 S :    0.417927
  11 C :   -0.070241
  12 C :   -0.161937
  13 S :    0.476236
  14 C :   -0.168303
  15 C :   -0.037145
  16 C :   -0.040706
  17 C :   -0.063900
  18 C :    0.056420
  19 O :   -0.150419
  20 C :   -0.083304
  21 C :   -0.001213
  22 C :   -0.027249
  23 C :    0.001422
  24 C :   -0.040476
  25 C :   -0.019935
  26 C :   -0.005487
  27 C :   -0.066679
  28 C :   -0.014358
  29 C :    0.084438
  30 C :   -0.070575
  31 F :   -0.060268
  32 C :   -0.009576
  33 C :   -0.072342
  34 C :    0.000921
  35 C :   -0.064352
  36 C :    0.085562
  37 F :   -0.058493
  38 C :   -0.014694
  39 C :   -0.026897
  40 C :   -0.163550
  41 S :    0.472658
  42 C :   -0.161809
  43 C :   -0.040534
  44 C :   -0.027382
  45 C :   -0.052518
  46 C :    0.079332
  47 O :   -0.132812
  48 C :   -0.079642
  49 C :   -0.009695
  50 C :   -0.023750
  51 C :   -0.003232
  52 C :   -0.048600
  53 C :   -0.035061
  54 C :   -0.056955
  55 C :   -0.144998
  56 C :   -0.037175
  57 C :   -0.033185
  58 C :   -0.180944
  59 S :    0.367386
  60 C :   -0.177200
  61 C :   -0.027200
  62 C :   -0.032666
  63 C :   -0.139721
  64 S :    0.353288
  65 C :   -0.075529
  66 H :    0.028250
  67 H :    0.025691
  68 H :    0.032929
  69 H :    0.032641
  70 H :    0.030371
  71 H :    0.034283
  72 H :    0.033459
  73 H :    0.039610
  74 H :    0.023385
  75 H :    0.040094
  76 H :    0.030700
  77 H :    0.030968
  78 H :    0.031376
  79 H :    0.027819
  80 H :    0.030299
  81 H :    0.020211
  82 H :    0.025474
  83 H :    0.018336
  84 H :    0.026951
  85 H :    0.032072
  86 H :    0.029644
  87 H :    0.046819
  88 H :    0.030806
  89 H :    0.049922
  90 H :    0.029774
  91 H :    0.032004
  92 H :    0.030608
  93 H :    0.028769
  94 H :    0.019485
  95 H :    0.031995
  96 H :    0.033151
  97 H :    0.030923
  98 H :    0.032407
  99 H :    0.033253
 100 H :    0.028678
 101 H :    0.026224

  Mayer bond orders larger than 0.100000
B(  0-C ,  1-C ) :   1.8615 B(  0-C , 66-H ) :   0.9499 B(  0-C , 67-H ) :   0.9421
B(  1-C ,  2-C ) :   1.0820 B(  1-C ,  5-S ) :   1.0078 B(  2-C ,  3-C ) :   1.6552
B(  2-C , 68-H ) :   0.9923 B(  3-C ,  4-C ) :   1.1572 B(  3-C , 69-H ) :   0.9928
B(  4-C ,  5-S ) :   1.0418 B(  4-C ,  6-C ) :   1.5452 B(  6-C ,  7-C ) :   1.1756
B(  6-C , 10-S ) :   1.0335 B(  7-C ,  8-C ) :   1.5901 B(  7-C , 70-H ) :   0.9920
B(  8-C ,  9-C ) :   1.1559 B(  8-C , 71-H ) :   0.9981 B(  9-C , 10-S ) :   1.0334
B(  9-C , 11-C ) :   1.5847 B( 11-C , 12-C ) :   1.1903 B( 11-C , 72-H ) :   0.9417
B( 12-C , 13-S ) :   1.1414 B( 12-C , 16-C ) :   1.3098 B( 13-S , 14-C ) :   1.1503
B( 14-C , 15-C ) :   1.2734 B( 14-C , 24-C ) :   1.2157 B( 15-C , 16-C ) :   1.2432
B( 15-C , 23-C ) :   1.2305 B( 16-C , 17-C ) :   1.1941 B( 17-C , 18-C ) :   0.9068
B( 17-C , 21-C ) :   1.5165 B( 18-C , 19-O ) :   2.1668 B( 18-C , 20-C ) :   1.0383
B( 20-C , 73-H ) :   0.9485 B( 20-C , 74-H ) :   0.9555 B( 20-C , 75-H ) :   0.9300
B( 21-C , 22-C ) :   1.2391 B( 21-C , 76-H ) :   0.9816 B( 22-C , 23-C ) :   1.5046
B( 22-C , 77-H ) :   0.9854 B( 23-C , 78-H ) :   0.9944 B( 24-C , 25-C ) :   1.5310
B( 24-C , 79-H ) :   0.9472 B( 25-C , 26-C ) :   1.2129 B( 25-C , 80-H ) :   0.9748
B( 26-C , 27-C ) :   1.4162 B( 26-C , 30-C ) :   1.0260 B( 27-C , 28-C ) :   1.1964
B( 27-C , 81-H ) :   1.0223 B( 28-C , 29-C ) :   1.0335 B( 28-C , 32-C ) :   1.3525
B( 29-C , 30-C ) :   1.6574 B( 29-C , 31-F ) :   1.1157 B( 30-C , 82-H ) :   1.0114
B( 32-C , 33-C ) :   1.2017 B( 32-C , 36-C ) :   1.0301 B( 33-C , 34-C ) :   1.4052
B( 33-C , 83-H ) :   1.0204 B( 34-C , 35-C ) :   1.0307 B( 34-C , 38-C ) :   1.2482
B( 35-C , 36-C ) :   1.6554 B( 35-C , 84-H ) :   1.0136 B( 36-C , 37-F ) :   1.1192
B( 38-C , 39-C ) :   1.5341 B( 38-C , 85-H ) :   0.9392 B( 39-C , 40-C ) :   1.2145
B( 39-C , 86-H ) :   0.9499 B( 40-C , 41-S ) :   1.1295 B( 40-C , 44-C ) :   1.2772
B( 41-S , 42-C ) :   1.1477 B( 42-C , 43-C ) :   1.2441 B( 42-C , 52-C ) :   1.2313
B( 43-C , 44-C ) :   1.2476 B( 43-C , 51-C ) :   1.2354 B( 44-C , 45-C ) :   1.2546
B( 45-C , 46-C ) :   0.8907 B( 45-C , 49-C ) :   1.5022 B( 46-C , 47-O ) :   2.1942
B( 46-C , 48-C ) :   1.0330 B( 48-C , 87-H ) :   0.9440 B( 48-C , 88-H ) :   0.9578
B( 48-C , 89-H ) :   0.9356 B( 49-C , 50-C ) :   1.2527 B( 49-C , 90-H ) :   0.9871
B( 50-C , 51-C ) :   1.5002 B( 50-C , 91-H ) :   0.9864 B( 51-C , 92-H ) :   0.9913
B( 52-C , 53-C ) :   1.5428 B( 52-C , 93-H ) :   0.9525 B( 53-C , 54-C ) :   1.2283
B( 53-C , 94-H ) :   0.9646 B( 54-C , 55-C ) :   1.4996 B( 54-C , 95-H ) :   0.9845
B( 55-C , 56-C ) :   1.1704 B( 55-C , 59-S ) :   1.0383 B( 56-C , 57-C ) :   1.5679
B( 56-C , 96-H ) :   0.9991 B( 57-C , 58-C ) :   1.1973 B( 57-C , 97-H ) :   0.9936
B( 58-C , 59-S ) :   1.0437 B( 58-C , 60-C ) :   1.5198 B( 60-C , 61-C ) :   1.1660
B( 60-C , 64-S ) :   1.0499 B( 61-C , 62-C ) :   1.6485 B( 61-C , 98-H ) :   0.9924
B( 62-C , 63-C ) :   1.0849 B( 62-C , 99-H ) :   0.9933 B( 63-C , 64-S ) :   1.0089
B( 63-C , 65-C ) :   1.8567 B( 65-C ,100-H ) :   0.9506 B( 65-C ,101-H ) :   0.9416

-----------------------------------------------------------------------------
         ABSORPTION SPECTRUM VIA TRANSITION ELECTRIC DIPOLE MOMENTS
-----------------------------------------------------------------------------
State   Energy  Wavelength   fosc         T2         TX        TY        TZ
        (cm-1)    (nm)                  (au**2)     (au)      (au)      (au)
-----------------------------------------------------------------------------
   0    6662.1   1501.0   2.068976174 102.24050   7.08463   6.89634  -2.11875
   1   11114.0    899.8   0.058795011   1.74159   0.98699  -0.71280  -0.50927
   2   13563.6    737.3   0.151888429   3.68659   0.16707  -1.68315  -0.90868
   3   15625.3    640.0   0.234282744   4.93614   0.87847   1.50049   1.38310
   4   16277.1    614.4   0.246638855   4.98837   1.89868   1.13879   0.29415
   5   16981.5    588.9   0.100373081   1.94588  -1.05470  -0.90019  -0.15216
   6   19311.1    517.8   0.273785327   4.66744   1.94261   0.94161  -0.08416
   7   19667.0    508.5   0.075813288   1.26906  -0.52151   0.99533  -0.08007
   8   20499.2    487.8   0.122626499   1.96935  -0.59736  -0.71007  -1.05276
   9   21598.6    463.0   0.220772006   3.36507   0.98309   0.10299  -1.54532
  10   22662.2    441.3   0.017054785   0.24775   0.44422  -0.06476   0.21500
  11   22705.9    440.4   0.129263411   1.87418  -0.57471   1.15478  -0.45867
  12   24048.8    415.8   0.009959176   0.13633   0.28243  -0.22988   0.06100
  13   25784.7    387.8   0.001973703   0.02520  -0.06180   0.13658  -0.05222
  14   26047.5    383.9   0.129215431   1.63314  -0.70242  -0.03778   1.06692
  15   26471.9    377.8   0.261388364   3.25070   1.32354   0.88739   0.84349
  16   27804.6    359.7   0.055270963   0.65442   0.26382  -0.57863   0.50000
  17   28087.0    356.0   0.114988828   1.34780  -0.86930   0.63903   0.42867
  18   28223.2    354.3   0.008967814   0.10461   0.23470  -0.12712  -0.18265
  19   28707.9    348.3   0.042993694   0.49304   0.11096   0.68279  -0.12053
  20   28887.1    346.2   0.007465988   0.08509  -0.01980  -0.22977   0.17860
  21   29354.5    340.7   0.014208512   0.15935  -0.31814  -0.07525  -0.22908
  22   29677.8    337.0   0.055159842   0.61188   0.46246   0.60943  -0.16311
  23   30214.4    331.0   0.058949753   0.64231   0.62500  -0.16846   0.47256
  24   30382.7    329.1   0.065239794   0.70691  -0.62700   0.52036   0.20737
  25   30557.0    327.3   0.065081671   0.70117   0.34647  -0.47747  -0.59427
  26   31237.7    320.1   0.016277269   0.17155   0.09526   0.02958   0.40199
  27   31335.6    319.1   0.095275587   1.00096  -0.88554   0.43774   0.15864
  28   31710.0    315.4   0.017444529   0.18111  -0.09672  -0.07650  -0.40731
  29   32192.3    310.6   0.003115004   0.03186  -0.16747  -0.01831  -0.05893
  30   32490.4    307.8   0.084957965   0.86084  -0.61228   0.53348   0.44873
  31   32700.9    305.8   0.063189726   0.63615  -0.60623   0.50830   0.10133
  32   32961.7    303.4   0.001030284   0.01029   0.08854   0.01023  -0.04845
  33   32990.6    303.1   0.122820095   1.22562   0.19043   0.46557   0.98620
  34   33061.3    302.5   0.003825295   0.03809  -0.11139   0.15989   0.01095
  35   33845.3    295.5   0.039582748   0.38502   0.59367   0.04273  -0.17535
  36   33912.4    294.9   0.051482648   0.49978   0.47839  -0.50334  -0.13257
  37   34503.6    289.8   0.008904084   0.08496  -0.26898   0.01669  -0.11104
  38   34626.4    288.8   0.041988803   0.39921   0.47986   0.41103  -0.00168
  39   34810.8    287.3   0.057310356   0.54199  -0.71661  -0.07904   0.14905
  40   34889.8    286.6   0.058661537   0.55352   0.19716   0.26748   0.66566
  41   35274.6    283.5   0.041706649   0.38924   0.05312  -0.62140  -0.01668
  42   35505.3    281.6   0.004960934   0.04600   0.01331   0.13692   0.16454
  43   36352.8    275.1   0.011621979   0.10525  -0.27432  -0.14888   0.08851
  44   36540.0    273.7   0.010984737   0.09897   0.17010   0.26418   0.01562
  45   36567.2    273.5   0.055584584   0.50042   0.22376   0.67104   0.00767
  46   36859.9    271.3   0.005634040   0.05032   0.18425  -0.03554  -0.12292
  47   37073.3    269.7   0.004371128   0.03882   0.12575  -0.14733  -0.03597
  48   37331.2    267.9   0.038268773   0.33748   0.18348  -0.51581  -0.19431
  49   37477.4    266.8   0.042424881   0.37267  -0.33663  -0.50586  -0.05880
  50   37522.8    266.5   0.045659596   0.40060  -0.60851  -0.17409  -0.00332
  51   37669.3    265.5   0.004376828   0.03825  -0.13336  -0.14089   0.02484
  52   37916.5    263.7   0.003558863   0.03090  -0.03367  -0.05179   0.16457
  53   38080.8    262.6   0.039217648   0.33904  -0.55728  -0.10730   0.13024
  54   38366.1    260.6   0.058843683   0.50493  -0.54856  -0.45161   0.00782
  55   38428.2    260.2   0.025178377   0.21570  -0.07816  -0.32077  -0.32665
  56   38477.5    259.9   0.005548741   0.04747  -0.20129   0.05806   0.05989
  57   38702.9    258.4   0.032036776   0.27251  -0.09119   0.01412  -0.51380
  58   38801.5    257.7   0.039403598   0.33432   0.29028  -0.46138   0.19284
  59   39145.7    255.5   0.068260333   0.57406  -0.16687   0.45924   0.57907
  60   39191.9    255.2   0.051840830   0.43546   0.45455   0.47460  -0.06001
  61   39519.2    253.0   0.102319799   0.85237   0.54497  -0.65330  -0.35858
  62   39571.3    252.7   0.132044975   1.09854   0.73181   0.72102  -0.20765
  63   39874.6    250.8   0.019382020   0.16002  -0.01079  -0.39947  -0.01808
  64   39942.7    250.4   0.054210807   0.44681   0.23281  -0.15663  -0.60669
  65   40238.5    248.5   0.083469171   0.68290  -0.23163   0.55699   0.56481

FINAL SINGLE POINT ENERGY     -4890.781431358532

DIPOLE MOMENT
-------------
                                X             Y             Z
Electronic contribution:     -8.68491       6.15958      -3.97629
Nuclear contribution   :      8.26287      -7.69148       3.91325
                        -----------------------------------------
Total Dipole Moment    :     -0.42204      -1.53190      -0.06304
                        -----------------------------------------
Magnitude (a.u.)       :      1.59022
Magnitude (Debye)      :      4.04203

Rotational constants in cm-1:     0.002941     0.000153     0.000151
Rotational constants in MHz :    88.173952     4.585961     4.512812

                             ****ORCA TERMINATED NORMALLY****
TOTAL RUN TIME: 0 days 0 hours 10 minutes 57 seconds 20 msec
