                         Program Version 4.2.0 -  RELEASE  -
|  1> # ORCA input file
|  2> # SCF done       -213.511912311838          0.000613486273
|  3> ! CAM-B3LYP def2-SVP def2/J RIJCOSX Grid4 TightSCF
|  4> %maxcore 5000
|  5> %tddft
|  6>     Mode sTDDFT
|  7>     Ethresh 5.0
|  8>     maxcore 5000
|  9> end
| 10>
| 11> %pal
| 12>   nprocs 6
| 13>   end
| 14> * xyz 0 1
| 15>    C       -6.13784         0.38699         7.01289
| 16>    C       -6.34579        -0.21078         8.24705
| 17>    C       -6.03798        -1.54754         8.45815
| 18>    C       -5.50355        -2.32437         7.44147
| 19>    C       -5.29013        -1.73737         6.20544
| 20>    C       -5.61259        -0.37903         5.98384
| 21>    C       -5.30867        -0.03956         4.59928
| 22>    C       -5.38156         1.20887         4.04383
| 23>    C       -5.75629         2.36982         4.75461
| 24>    N       -6.05134         3.35154         5.27028
| 25>    C       -5.06385         1.53008         2.70681
| 26>    N       -4.82433         1.86332         1.63458
| 27>    C       -4.93652        -1.28532         3.93490
| 28>    C       -4.71705        -2.27624         4.98338
| 29>    C       -3.87152        -3.35086         4.91067
| 30>    C       -3.09078        -3.66277         3.77796
| 31>    N       -2.41157        -3.92752         2.89114
| 32>    C       -3.61206        -4.22166         5.98933
| 33>    N       -3.37717        -4.97287         6.82440
| 34>    C       -4.90410        -1.46816         2.58129
| 35>    C       -4.98189        -2.68172         1.86070
| 36>    C       -4.57219        -2.86542         0.54786
| 37>    C       -4.81708        -4.15563         0.09341
| 38>    C       -5.47306        -4.95702         1.05116
| 39>    S       -5.75481        -4.13107         2.51137
| 40>    C       -5.68611        -6.24091         0.50056
| 41>    C       -5.14878        -6.26534        -0.79935
| 42>    C       -4.59138        -4.95342        -1.09966
| 43>    C       -3.98785        -4.56431        -2.25791
| 44>    C       -3.82792        -5.44733        -3.34749
| 45>    N       -3.70420        -6.16650        -4.23157
| 46>    C       -3.49379        -3.25566        -2.45012
| 47>    N       -3.09588        -2.19427        -2.61772
| 48>    C       -5.29355        -7.50180        -1.42224
| 49>    C       -5.94607        -8.41600        -0.61099
| 50>    S       -6.38159        -7.73705         0.94821
| 51>    C       -6.26543        -9.76201        -0.91682
| 52>    C       -7.01278       -10.64547        -0.15749
| 53>    C       -7.12873       -11.89040        -0.77231
| 54>    C       -6.45394       -11.95718        -2.00481
| 55>    S       -5.69107       -10.48599        -2.41270
| 56>    C       -6.62563       -13.25616        -2.54419
| 57>    C       -7.41857       -14.00849        -1.65903
| 58>    C       -7.75969       -13.17590        -0.51585
| 59>    C       -8.51238       -13.52555         0.56568
| 60>    C       -9.07439       -14.81308         0.70086
| 61>    N       -9.52933       -15.85964         0.80901
| 62>    C       -8.77683       -12.62125         1.61642
| 63>    N       -8.99179       -11.88284         2.46652
| 64>    C       -7.64839       -15.30777        -2.10749
| 65>    C       -7.02845       -15.55260        -3.32023
| 66>    S       -6.15265       -14.15064        -3.91886
| 67>    C       -7.04024       -16.75564        -4.06944
| 68>    C       -6.33415       -17.03125        -5.22825
| 69>    C       -6.58385       -18.31992        -5.69374
| 70>    C       -7.49557       -19.02770        -4.88853
| 71>    S       -8.03281       -18.10913        -3.55228
| 72>    C       -7.69810       -20.31136        -5.45039
| 73>    C       -6.89860       -20.41817        -6.60877
| 74>    C       -6.18008       -19.17107        -6.80190
| 75>    C       -5.33517       -18.86373        -7.82734
| 76>    C       -5.05758       -19.79498        -8.85067
| 77>    N       -4.84447       -20.56816        -9.67010
| 78>    C       -4.69517       -17.61012        -7.92220
| 79>    N       -4.17319       -16.59166        -7.98751
| 80>    C       -7.04723       -21.63406        -7.25896
| 81>    C       -7.96651       -22.45982        -6.62497
| 82>    S       -8.61351       -21.71512        -5.16522
| 83>    C       -8.38430       -23.76740        -6.95558
| 84>    C       -8.27684       -24.40643        -8.15855
| 85>    C       -8.34921       -25.85769        -8.31746
| 86>    C       -8.89707       -26.76157        -7.44861
| 87>    C       -9.54208       -26.44253        -6.23452
| 88>    N      -10.08414       -26.25381        -5.24010
| 89>    C       -8.93617       -28.15395        -7.67979
| 90>    N       -9.00320       -29.29264        -7.80400
| 91>    C       -7.73270       -26.16886        -9.59995
| 92>    C       -7.46561       -24.96076       -10.28320
| 93>    C       -6.84843       -24.96892       -11.52291
| 94>    C       -6.50627       -26.19146       -12.08111
| 95>    C       -6.78040       -27.38026       -11.41915
| 96>    C       -7.39361       -27.38361       -10.17508
| 97>    C       -7.95417       -23.85640        -9.47256
| 98>    C       -8.30183       -22.62307        -9.95253
| 99>    C       -8.08115       -22.20676       -11.28360
|100>    N       -7.93296       -21.81284       -12.35047
|101>    C       -9.00824       -21.65127        -9.21514
|102>    N       -9.61165       -20.83933        -8.67226
|103>    H       -6.38769         1.42498         6.86806
|104>    H       -6.75739         0.37590         9.05392
|105>    H       -6.21660        -1.99116         9.42554
|106>    H       -5.27433        -3.36377         7.61245
|107>    H       -4.88215        -0.58688         1.95284
|108>    H       -4.08621        -2.08963        -0.01602
|109>    H       -4.95247        -7.74279        -2.41308
|110>    H       -7.44656       -10.37698         0.78908
|111>    H       -8.22878       -16.05031        -1.58979
|112>    H       -5.67438       -16.32046        -5.69286
|113>    H       -6.48949       -21.93189        -8.12812
|114>    H       -8.78404       -24.33460        -6.12544
|115>    H       -6.62054       -24.05059       -12.03926
|116>    H       -6.01769       -26.21572       -13.04296
|117>    H       -6.50747       -28.31990       -11.87443
|118>    H       -7.58969       -28.31620        -9.67220
|119> *
|120>
|121>                          ****END OF INPUT****

CARTESIAN COORDINATES (ANGSTROEM)
---------------------------------
  C     -6.137840    0.386990    7.012890
  C     -6.345790   -0.210780    8.247050
  C     -6.037980   -1.547540    8.458150
  C     -5.503550   -2.324370    7.441470
  C     -5.290130   -1.737370    6.205440
  C     -5.612590   -0.379030    5.983840
  C     -5.308670   -0.039560    4.599280
  C     -5.381560    1.208870    4.043830
  C     -5.756290    2.369820    4.754610
  N     -6.051340    3.351540    5.270280
  C     -5.063850    1.530080    2.706810
  N     -4.824330    1.863320    1.634580
  C     -4.936520   -1.285320    3.934900
  C     -4.717050   -2.276240    4.983380
  C     -3.871520   -3.350860    4.910670
  C     -3.090780   -3.662770    3.777960
  N     -2.411570   -3.927520    2.891140
  C     -3.612060   -4.221660    5.989330
  N     -3.377170   -4.972870    6.824400
  C     -4.904100   -1.468160    2.581290
  C     -4.981890   -2.681720    1.860700
  C     -4.572190   -2.865420    0.547860
  C     -4.817080   -4.155630    0.093410
  C     -5.473060   -4.957020    1.051160
  S     -5.754810   -4.131070    2.511370
  C     -5.686110   -6.240910    0.500560
  C     -5.148780   -6.265340   -0.799350
  C     -4.591380   -4.953420   -1.099660
  C     -3.987850   -4.564310   -2.257910
  C     -3.827920   -5.447330   -3.347490
  N     -3.704200   -6.166500   -4.231570
  C     -3.493790   -3.255660   -2.450120
  N     -3.095880   -2.194270   -2.617720
  C     -5.293550   -7.501800   -1.422240
  C     -5.946070   -8.416000   -0.610990
  S     -6.381590   -7.737050    0.948210
  C     -6.265430   -9.762010   -0.916820
  C     -7.012780  -10.645470   -0.157490
  C     -7.128730  -11.890400   -0.772310
  C     -6.453940  -11.957180   -2.004810
  S     -5.691070  -10.485990   -2.412700
  C     -6.625630  -13.256160   -2.544190
  C     -7.418570  -14.008490   -1.659030
  C     -7.759690  -13.175900   -0.515850
  C     -8.512380  -13.525550    0.565680
  C     -9.074390  -14.813080    0.700860
  N     -9.529330  -15.859640    0.809010
  C     -8.776830  -12.621250    1.616420
  N     -8.991790  -11.882840    2.466520
  C     -7.648390  -15.307770   -2.107490
  C     -7.028450  -15.552600   -3.320230
  S     -6.152650  -14.150640   -3.918860
  C     -7.040240  -16.755640   -4.069440
  C     -6.334150  -17.031250   -5.228250
  C     -6.583850  -18.319920   -5.693740
  C     -7.495570  -19.027700   -4.888530
  S     -8.032810  -18.109130   -3.552280
  C     -7.698100  -20.311360   -5.450390
  C     -6.898600  -20.418170   -6.608770
  C     -6.180080  -19.171070   -6.801900
  C     -5.335170  -18.863730   -7.827340
  C     -5.057580  -19.794980   -8.850670
  N     -4.844470  -20.568160   -9.670100
  C     -4.695170  -17.610120   -7.922200
  N     -4.173190  -16.591660   -7.987510
  C     -7.047230  -21.634060   -7.258960
  C     -7.966510  -22.459820   -6.624970
  S     -8.613510  -21.715120   -5.165220
  C     -8.384300  -23.767400   -6.955580
  C     -8.276840  -24.406430   -8.158550
  C     -8.349210  -25.857690   -8.317460
  C     -8.897070  -26.761570   -7.448610
  C     -9.542080  -26.442530   -6.234520
  N    -10.084140  -26.253810   -5.240100
  C     -8.936170  -28.153950   -7.679790
  N     -9.003200  -29.292640   -7.804000
  C     -7.732700  -26.168860   -9.599950
  C     -7.465610  -24.960760  -10.283200
  C     -6.848430  -24.968920  -11.522910
  C     -6.506270  -26.191460  -12.081110
  C     -6.780400  -27.380260  -11.419150
  C     -7.393610  -27.383610  -10.175080
  C     -7.954170  -23.856400   -9.472560
  C     -8.301830  -22.623070   -9.952530
  C     -8.081150  -22.206760  -11.283600
  N     -7.932960  -21.812840  -12.350470
  C     -9.008240  -21.651270   -9.215140
  N     -9.611650  -20.839330   -8.672260
  H     -6.387690    1.424980    6.868060
  H     -6.757390    0.375900    9.053920
  H     -6.216600   -1.991160    9.425540
  H     -5.274330   -3.363770    7.612450
  H     -4.882150   -0.586880    1.952840
  H     -4.086210   -2.089630   -0.016020
  H     -4.952470   -7.742790   -2.413080
  H     -7.446560  -10.376980    0.789080
  H     -8.228780  -16.050310   -1.589790
  H     -5.674380  -16.320460   -5.692860
  H     -6.489490  -21.931890   -8.128120
  H     -8.784040  -24.334600   -6.125440
  H     -6.620540  -24.050590  -12.039260
  H     -6.017690  -26.215720  -13.042960
  H     -6.507470  -28.319900  -11.874430
  H     -7.589690  -28.316200   -9.672200

 Total Charge           Charge          ....    0
 Multiplicity           Mult            ....    1
 Number of Electrons    NEL             ....  618
 Basis Dimension        Dim             .... 1336

ORBITAL ENERGIES
----------------

  NO   OCC          E(Eh)            E(eV)
   0   2.0000     -89.009410     -2422.0692
   1   2.0000     -89.009221     -2422.0640
   2   2.0000     -89.008934     -2422.0562
   3   2.0000     -89.008875     -2422.0546
   4   2.0000     -89.008321     -2422.0395
   5   2.0000     -89.008005     -2422.0309
   6   2.0000     -14.445983      -393.0952
   7   2.0000     -14.445779      -393.0896
   8   2.0000     -14.445470      -393.0812
   9   2.0000     -14.444466      -393.0539
  10   2.0000     -14.443739      -393.0341
  11   2.0000     -14.441329      -392.9685
  12   2.0000     -14.430464      -392.6729
  13   2.0000     -14.430092      -392.6628
  14   2.0000     -14.429849      -392.6562
  15   2.0000     -14.429721      -392.6527
  16   2.0000     -14.429420      -392.6445
  17   2.0000     -14.425812      -392.5463
  18   2.0000     -14.425320      -392.5329
  19   2.0000     -14.425270      -392.5315
  20   2.0000     -10.381959      -282.5075
  21   2.0000     -10.380889      -282.4784
  22   2.0000     -10.380246      -282.4609
  23   2.0000     -10.368475      -282.1406
  24   2.0000     -10.367714      -282.1198
  25   2.0000     -10.366415      -282.0845
  26   2.0000     -10.361103      -281.9399
  27   2.0000     -10.359219      -281.8887
  28   2.0000     -10.358462      -281.8681
  29   2.0000     -10.357753      -281.8488
  30   2.0000     -10.357224      -281.8344
  31   2.0000     -10.356891      -281.8253
  32   2.0000     -10.356671      -281.8193
  33   2.0000     -10.356264      -281.8083
  34   2.0000     -10.355946      -281.7996
  35   2.0000     -10.355591      -281.7899
  36   2.0000     -10.352130      -281.6958
  37   2.0000     -10.351123      -281.6684
  38   2.0000     -10.350938      -281.6634
  39   2.0000     -10.350566      -281.6532
  40   2.0000     -10.349116      -281.6138
  41   2.0000     -10.348133      -281.5870
  42   2.0000     -10.347735      -281.5762
  43   2.0000     -10.347686      -281.5748
  44   2.0000     -10.345901      -281.5263
  45   2.0000     -10.345701      -281.5208
  46   2.0000     -10.345444      -281.5138
  47   2.0000     -10.344400      -281.4854
  48   2.0000     -10.343511      -281.4613
  49   2.0000     -10.340944      -281.3914
  50   2.0000     -10.340941      -281.3913
  51   2.0000     -10.340563      -281.3810
  52   2.0000     -10.340524      -281.3800
  53   2.0000     -10.340457      -281.3781
  54   2.0000     -10.332086      -281.1503
  55   2.0000     -10.331720      -281.1404
  56   2.0000     -10.331589      -281.1368
  57   2.0000     -10.331328      -281.1297
  58   2.0000     -10.331078      -281.1229
  59   2.0000     -10.329373      -281.0765
  60   2.0000     -10.328455      -281.0515
  61   2.0000     -10.328212      -281.0449
  62   2.0000     -10.327815      -281.0341
  63   2.0000     -10.327057      -281.0135
  64   2.0000     -10.326221      -280.9907
  65   2.0000     -10.326085      -280.9870
  66   2.0000     -10.325280      -280.9651
  67   2.0000     -10.325054      -280.9590
  68   2.0000     -10.321961      -280.8748
  69   2.0000     -10.321817      -280.8709
  70   2.0000     -10.321453      -280.8610
  71   2.0000     -10.321000      -280.8487
  72   2.0000     -10.320748      -280.8418
  73   2.0000     -10.320431      -280.8332
  74   2.0000     -10.320401      -280.8324
  75   2.0000     -10.320321      -280.8302
  76   2.0000     -10.320267      -280.8287
  77   2.0000     -10.319756      -280.8148
  78   2.0000     -10.319064      -280.7960
  79   2.0000     -10.318683      -280.7856
  80   2.0000     -10.308597      -280.5112
  81   2.0000     -10.307823      -280.4901
  82   2.0000     -10.307050      -280.4691
  83   2.0000     -10.306388      -280.4511
  84   2.0000     -10.306066      -280.4423
  85   2.0000     -10.306045      -280.4417
  86   2.0000     -10.304858      -280.4094
  87   2.0000     -10.304350      -280.3956
  88   2.0000      -8.103755      -220.5144
  89   2.0000      -8.103618      -220.5106
  90   2.0000      -8.103375      -220.5040
  91   2.0000      -8.103357      -220.5036
  92   2.0000      -8.102976      -220.4932
  93   2.0000      -8.102151      -220.4707
  94   2.0000      -6.073064      -165.2565
  95   2.0000      -6.072899      -165.2520
  96   2.0000      -6.072668      -165.2457
  97   2.0000      -6.072648      -165.2452
  98   2.0000      -6.072128      -165.2310
  99   2.0000      -6.071445      -165.2124
 100   2.0000      -6.068897      -165.1431
 101   2.0000      -6.068723      -165.1383
 102   2.0000      -6.068493      -165.1321
 103   2.0000      -6.068474      -165.1316
 104   2.0000      -6.067942      -165.1171
 105   2.0000      -6.067217      -165.0974
 106   2.0000      -6.066000      -165.0643
 107   2.0000      -6.065900      -165.0615
 108   2.0000      -6.065634      -165.0543
 109   2.0000      -6.065585      -165.0530
 110   2.0000      -6.065469      -165.0498
 111   2.0000      -6.064480      -165.0229
 112   2.0000      -1.065335       -28.9892
 113   2.0000      -1.063681       -28.9442
 114   2.0000      -1.061080       -28.8734
 115   2.0000      -1.045458       -28.4484
 116   2.0000      -1.044062       -28.4104
 117   2.0000      -1.038296       -28.2535
 118   2.0000      -1.036943       -28.2166
 119   2.0000      -1.035104       -28.1666
 120   2.0000      -1.027602       -27.9625
 121   2.0000      -1.026026       -27.9196
 122   2.0000      -1.024931       -27.8898
 123   2.0000      -1.023133       -27.8409
 124   2.0000      -1.022450       -27.8223
 125   2.0000      -1.019916       -27.7533
 126   2.0000      -1.017481       -27.6871
 127   2.0000      -1.015454       -27.6319
 128   2.0000      -1.014886       -27.6164
 129   2.0000      -1.009253       -27.4632
 130   2.0000      -1.006289       -27.3825
 131   2.0000      -1.005795       -27.3691
 132   2.0000      -1.005685       -27.3661
 133   2.0000      -1.004268       -27.3275
 134   2.0000      -0.982936       -26.7470
 135   2.0000      -0.975897       -26.5555
 136   2.0000      -0.970706       -26.4143
 137   2.0000      -0.965339       -26.2682
 138   2.0000      -0.964647       -26.2494
 139   2.0000      -0.948820       -25.8187
 140   2.0000      -0.947682       -25.7877
 141   2.0000      -0.939996       -25.5786
 142   2.0000      -0.934304       -25.4237
 143   2.0000      -0.923551       -25.1311
 144   2.0000      -0.905658       -24.6442
 145   2.0000      -0.904364       -24.6090
 146   2.0000      -0.897951       -24.4345
 147   2.0000      -0.897858       -24.4320
 148   2.0000      -0.889184       -24.1959
 149   2.0000      -0.888837       -24.1865
 150   2.0000      -0.882519       -24.0146
 151   2.0000      -0.879646       -23.9364
 152   2.0000      -0.874199       -23.7882
 153   2.0000      -0.873372       -23.7657
 154   2.0000      -0.871951       -23.7270
 155   2.0000      -0.868216       -23.6254
 156   2.0000      -0.855312       -23.2742
 157   2.0000      -0.835722       -22.7412
 158   2.0000      -0.821040       -22.3416
 159   2.0000      -0.807195       -21.9649
 160   2.0000      -0.799871       -21.7656
 161   2.0000      -0.798572       -21.7302
 162   2.0000      -0.797504       -21.7012
 163   2.0000      -0.792664       -21.5695
 164   2.0000      -0.787399       -21.4262
 165   2.0000      -0.775830       -21.1114
 166   2.0000      -0.756522       -20.5860
 167   2.0000      -0.737069       -20.0567
 168   2.0000      -0.727339       -19.7919
 169   2.0000      -0.725103       -19.7311
 170   2.0000      -0.723836       -19.6966
 171   2.0000      -0.721550       -19.6344
 172   2.0000      -0.720801       -19.6140
 173   2.0000      -0.718122       -19.5411
 174   2.0000      -0.714367       -19.4389
 175   2.0000      -0.707615       -19.2552
 176   2.0000      -0.705377       -19.1943
 177   2.0000      -0.699689       -19.0395
 178   2.0000      -0.695780       -18.9331
 179   2.0000      -0.692680       -18.8488
 180   2.0000      -0.678925       -18.4745
 181   2.0000      -0.675515       -18.3817
 182   2.0000      -0.673954       -18.3392
 183   2.0000      -0.673128       -18.3168
 184   2.0000      -0.665619       -18.1124
 185   2.0000      -0.663107       -18.0441
 186   2.0000      -0.652808       -17.7638
 187   2.0000      -0.650762       -17.7081
 188   2.0000      -0.646441       -17.5906
 189   2.0000      -0.644308       -17.5325
 190   2.0000      -0.638591       -17.3770
 191   2.0000      -0.636731       -17.3263
 192   2.0000      -0.635632       -17.2964
 193   2.0000      -0.632890       -17.2218
 194   2.0000      -0.627662       -17.0796
 195   2.0000      -0.621914       -16.9232
 196   2.0000      -0.602960       -16.4074
 197   2.0000      -0.597309       -16.2536
 198   2.0000      -0.594639       -16.1810
 199   2.0000      -0.593255       -16.1433
 200   2.0000      -0.592685       -16.1278
 201   2.0000      -0.585808       -15.9407
 202   2.0000      -0.578666       -15.7463
 203   2.0000      -0.568076       -15.4581
 204   2.0000      -0.565698       -15.3934
 205   2.0000      -0.564567       -15.3626
 206   2.0000      -0.562661       -15.3108
 207   2.0000      -0.560531       -15.2528
 208   2.0000      -0.555038       -15.1034
 209   2.0000      -0.553690       -15.0667
 210   2.0000      -0.549763       -14.9598
 211   2.0000      -0.548078       -14.9140
 212   2.0000      -0.545220       -14.8362
 213   2.0000      -0.543263       -14.7829
 214   2.0000      -0.541599       -14.7377
 215   2.0000      -0.536737       -14.6054
 216   2.0000      -0.534426       -14.5425
 217   2.0000      -0.527064       -14.3421
 218   2.0000      -0.525528       -14.3003
 219   2.0000      -0.524760       -14.2794
 220   2.0000      -0.524344       -14.2681
 221   2.0000      -0.522387       -14.2149
 222   2.0000      -0.521707       -14.1964
 223   2.0000      -0.519950       -14.1486
 224   2.0000      -0.518360       -14.1053
 225   2.0000      -0.516423       -14.0526
 226   2.0000      -0.514654       -14.0045
 227   2.0000      -0.512839       -13.9551
 228   2.0000      -0.510054       -13.8793
 229   2.0000      -0.509237       -13.8570
 230   2.0000      -0.506494       -13.7824
 231   2.0000      -0.504305       -13.7228
 232   2.0000      -0.502423       -13.6716
 233   2.0000      -0.498850       -13.5744
 234   2.0000      -0.497135       -13.5277
 235   2.0000      -0.493874       -13.4390
 236   2.0000      -0.490465       -13.3462
 237   2.0000      -0.487403       -13.2629
 238   2.0000      -0.485559       -13.2127
 239   2.0000      -0.476682       -12.9712
 240   2.0000      -0.476246       -12.9593
 241   2.0000      -0.475197       -12.9308
 242   2.0000      -0.473251       -12.8778
 243   2.0000      -0.473112       -12.8740
 244   2.0000      -0.472981       -12.8705
 245   2.0000      -0.472801       -12.8656
 246   2.0000      -0.470665       -12.8075
 247   2.0000      -0.469182       -12.7671
 248   2.0000      -0.468425       -12.7465
 249   2.0000      -0.465392       -12.6640
 250   2.0000      -0.464717       -12.6456
 251   2.0000      -0.462746       -12.5919
 252   2.0000      -0.461973       -12.5709
 253   2.0000      -0.461187       -12.5495
 254   2.0000      -0.460363       -12.5271
 255   2.0000      -0.459537       -12.5046
 256   2.0000      -0.459184       -12.4950
 257   2.0000      -0.457811       -12.4577
 258   2.0000      -0.457370       -12.4457
 259   2.0000      -0.456134       -12.4120
 260   2.0000      -0.455815       -12.4034
 261   2.0000      -0.455657       -12.3990
 262   2.0000      -0.454780       -12.3752
 263   2.0000      -0.453969       -12.3531
 264   2.0000      -0.453677       -12.3452
 265   2.0000      -0.453018       -12.3272
 266   2.0000      -0.452600       -12.3159
 267   2.0000      -0.452345       -12.3089
 268   2.0000      -0.452138       -12.3033
 269   2.0000      -0.450952       -12.2710
 270   2.0000      -0.450096       -12.2477
 271   2.0000      -0.444702       -12.1010
 272   2.0000      -0.442086       -12.0298
 273   2.0000      -0.441103       -12.0030
 274   2.0000      -0.440511       -11.9869
 275   2.0000      -0.440426       -11.9846
 276   2.0000      -0.439340       -11.9550
 277   2.0000      -0.438466       -11.9313
 278   2.0000      -0.437672       -11.9097
 279   2.0000      -0.437530       -11.9058
 280   2.0000      -0.435500       -11.8505
 281   2.0000      -0.434080       -11.8119
 282   2.0000      -0.429439       -11.6856
 283   2.0000      -0.423632       -11.5276
 284   2.0000      -0.423125       -11.5138
 285   2.0000      -0.421862       -11.4794
 286   2.0000      -0.419249       -11.4084
 287   2.0000      -0.418316       -11.3830
 288   2.0000      -0.418003       -11.3744
 289   2.0000      -0.408190       -11.1074
 290   2.0000      -0.399927       -10.8826
 291   2.0000      -0.393412       -10.7053
 292   2.0000      -0.391638       -10.6570
 293   2.0000      -0.386909       -10.5283
 294   2.0000      -0.370047       -10.0695
 295   2.0000      -0.368638       -10.0312
 296   2.0000      -0.366502        -9.9730
 297   2.0000      -0.363229        -9.8840
 298   2.0000      -0.349565        -9.5121
 299   2.0000      -0.342383        -9.3167
 300   2.0000      -0.340447        -9.2640
 301   2.0000      -0.338700        -9.2165
 302   2.0000      -0.338237        -9.2039
 303   2.0000      -0.336748        -9.1634
 304   2.0000      -0.327653        -8.9159
 305   2.0000      -0.317280        -8.6336
 306   2.0000      -0.302614        -8.2345
 307   2.0000      -0.279548        -7.6069
 308   2.0000      -0.255653        -6.9567
 309   0.0000      -0.131642        -3.5822
 310   0.0000      -0.124246        -3.3809
 311   0.0000      -0.118751        -3.2314
 312   0.0000      -0.101921        -2.7734
 313   0.0000      -0.100769        -2.7421

MULLIKEN ATOMIC CHARGES
-----------------------
   0 C :   -0.033627
   1 C :    0.047831
   2 C :    0.049841
   3 C :   -0.031356
   4 C :    0.003989
   5 C :    0.013176
   6 C :    0.300294
   7 C :   -0.344405
   8 C :   -0.188700
   9 N :    0.163684
  10 C :   -0.181515
  11 N :    0.162658
  12 C :   -0.073944
  13 C :    0.214293
  14 C :   -0.327410
  15 C :   -0.192787
  16 N :    0.178419
  17 C :   -0.180998
  18 N :    0.167142
  19 C :    0.047538
  20 C :   -0.130529
  21 C :    0.014831
  22 C :    0.035449
  23 C :   -0.078507
  24 S :    0.207898
  25 C :   -0.104001
  26 C :    0.026508
  27 C :    0.297406
  28 C :   -0.287780
  29 C :   -0.184565
  30 N :    0.176265
  31 C :   -0.193108
  32 N :    0.194695
  33 C :   -0.066864
  34 C :   -0.043728
  35 S :    0.209491
  36 C :   -0.054441
  37 C :   -0.059292
  38 C :    0.015106
  39 C :   -0.095605
  40 S :    0.208783
  41 C :   -0.096057
  42 C :    0.019882
  43 C :    0.297953
  44 C :   -0.290615
  45 C :   -0.188279
  46 N :    0.180606
  47 C :   -0.184035
  48 N :    0.175257
  49 C :   -0.064095
  50 C :   -0.053691
  51 S :    0.207582
  52 C :   -0.044254
  53 C :   -0.068839
  54 C :    0.028357
  55 C :   -0.105329
  56 S :    0.210788
  57 C :   -0.063098
  58 C :   -0.008106
  59 C :    0.303340
  60 C :   -0.283480
  61 C :   -0.180023
  62 N :    0.170064
  63 C :   -0.187883
  64 N :    0.179967
  65 C :   -0.003325
  66 C :   -0.140455
  67 S :    0.234931
  68 C :    0.089047
  69 C :   -0.070671
  70 C :    0.288143
  71 C :   -0.340679
  72 C :   -0.177260
  73 N :    0.154101
  74 C :   -0.187913
  75 N :    0.161507
  76 C :    0.014014
  77 C :    0.001160
  78 C :   -0.029431
  79 C :    0.049866
  80 C :    0.047951
  81 C :   -0.033045
  82 C :    0.228954
  83 C :   -0.338741
  84 C :   -0.177731
  85 N :    0.176817
  86 C :   -0.195099
  87 N :    0.180083
  88 H :    0.007977
  89 H :    0.006822
  90 H :    0.006441
  91 H :    0.007952
  92 H :    0.031051
  93 H :    0.027645
  94 H :    0.015644
  95 H :    0.014338
  96 H :    0.014999
  97 H :    0.015881
  98 H :    0.031869
  99 H :    0.013094
 100 H :    0.014546
 101 H :    0.007955
 102 H :    0.006011
 103 H :    0.007405
Sum of atomic charges:   -0.0000000

LOEWDIN ATOMIC CHARGES
----------------------
   0 C :    0.006189
   1 C :    0.003829
   2 C :    0.006082
   3 C :    0.001940
   4 C :   -0.011510
   5 C :   -0.012780
   6 C :    0.077407
   7 C :   -0.130562
   8 C :   -0.019170
   9 N :   -0.042789
  10 C :   -0.022444
  11 N :   -0.039162
  12 C :   -0.065496
  13 C :    0.058466
  14 C :   -0.136801
  15 C :   -0.034306
  16 N :   -0.041793
  17 C :   -0.021122
  18 N :   -0.041040
  19 C :    0.043465
  20 C :   -0.181460
  21 C :    0.025046
  22 C :   -0.071855
  23 C :   -0.145600
  24 S :    0.504610
  25 C :   -0.190841
  26 C :   -0.047009
  27 C :    0.077664
  28 C :   -0.089768
  29 C :   -0.015166
  30 N :   -0.026865
  31 C :   -0.019372
  32 N :   -0.016504
  33 C :   -0.039762
  34 C :   -0.166341
  35 S :    0.492778
  36 C :   -0.182183
  37 C :   -0.031420
  38 C :   -0.066052
  39 C :   -0.176337
  40 S :    0.494448
  41 C :   -0.177897
  42 C :   -0.065312
  43 C :    0.080408
  44 C :   -0.095629
  45 C :   -0.016782
  46 N :   -0.026381
  47 C :   -0.016137
  48 N :   -0.027477
  49 C :   -0.032959
  50 C :   -0.180599
  51 S :    0.493684
  52 C :   -0.169146
  53 C :   -0.038885
  54 C :   -0.052178
  55 C :   -0.185595
  56 S :    0.495268
  57 C :   -0.154596
  58 C :   -0.066667
  59 C :    0.081128
  60 C :   -0.094307
  61 C :   -0.012585
  62 N :   -0.028819
  63 C :   -0.016838
  64 N :   -0.025829
  65 C :    0.007578
  66 C :   -0.182441
  67 S :    0.515653
  68 C :    0.033739
  69 C :   -0.054563
  70 C :    0.078930
  71 C :   -0.133072
  72 C :   -0.021720
  73 N :   -0.044438
  74 C :   -0.019579
  75 N :   -0.043340
  76 C :   -0.013682
  77 C :   -0.010009
  78 C :    0.005698
  79 C :    0.007205
  80 C :    0.003998
  81 C :    0.005748
  82 C :    0.066436
  83 C :   -0.127755
  84 C :   -0.020684
  85 N :   -0.035969
  86 C :   -0.017444
  87 N :   -0.040650
  88 H :    0.042287
  89 H :    0.038821
  90 H :    0.038574
  91 H :    0.041311
  92 H :    0.054982
  93 H :    0.050987
  94 H :    0.037169
  95 H :    0.037199
  96 H :    0.037246
  97 H :    0.037365
  98 H :    0.042905
  99 H :    0.045846
 100 H :    0.043754
 101 H :    0.039135
 102 H :    0.038525
 103 H :    0.041970

  Mayer bond orders larger than 0.100000
B(  0-C ,  1-C ) :   1.3723 B(  0-C ,  5-C ) :   1.3829 B(  0-C , 88-H ) :   0.9833
B(  1-C ,  2-C ) :   1.3771 B(  1-C , 89-H ) :   0.9853 B(  2-C ,  3-C ) :   1.3674
B(  2-C , 90-H ) :   0.9861 B(  3-C ,  4-C ) :   1.3807 B(  3-C , 91-H ) :   0.9869
B(  4-C ,  5-C ) :   1.3140 B(  4-C , 13-C ) :   1.0126 B(  5-C ,  6-C ) :   0.9998
B(  6-C ,  7-C ) :   1.6452 B(  6-C , 12-C ) :   1.0569 B(  7-C ,  8-C ) :   1.1482
B(  7-C , 10-C ) :   1.1354 B(  8-C ,  9-N ) :   2.9770 B( 10-C , 11-N ) :   2.9665
B( 12-C , 13-C ) :   1.0193 B( 12-C , 19-C ) :   1.5863 B( 13-C , 14-C ) :   1.6508
B( 14-C , 15-C ) :   1.1483 B( 14-C , 17-C ) :   1.1427 B( 15-C , 16-N ) :   3.0133
B( 17-C , 18-N ) :   2.9966 B( 19-C , 20-C ) :   1.1768 B( 19-C , 92-H ) :   0.9337
B( 20-C , 21-C ) :   1.3868 B( 20-C , 24-S ) :   1.0799 B( 21-C , 22-C ) :   1.3103
B( 21-C , 93-H ) :   0.9999 B( 22-C , 23-C ) :   1.3896 B( 22-C , 27-C ) :   0.9918
B( 23-C , 24-S ) :   1.1537 B( 23-C , 25-C ) :   1.2174 B( 25-C , 26-C ) :   1.4346
B( 25-C , 35-S ) :   1.1048 B( 26-C , 27-C ) :   0.9914 B( 26-C , 33-C ) :   1.3170
B( 27-C , 28-C ) :   1.7261 B( 28-C , 29-C ) :   1.1327 B( 28-C , 31-C ) :   1.1346
B( 29-C , 30-N ) :   2.9883 B( 31-C , 32-N ) :   2.9973 B( 33-C , 34-C ) :   1.4403
B( 33-C , 94-H ) :   0.9854 B( 34-C , 35-S ) :   1.1251 B( 34-C , 36-C ) :   1.1731
B( 36-C , 37-C ) :   1.4496 B( 36-C , 40-S ) :   1.1089 B( 37-C , 38-C ) :   1.3091
B( 37-C , 95-H ) :   0.9864 B( 38-C , 39-C ) :   1.4406 B( 38-C , 43-C ) :   0.9930
B( 39-C , 40-S ) :   1.1266 B( 39-C , 41-C ) :   1.1891 B( 41-C , 42-C ) :   1.4389
B( 41-C , 51-S ) :   1.1252 B( 42-C , 43-C ) :   0.9924 B( 42-C , 49-C ) :   1.3083
B( 43-C , 44-C ) :   1.7217 B( 44-C , 45-C ) :   1.1336 B( 44-C , 47-C ) :   1.1296
B( 45-C , 46-N ) :   2.9915 B( 47-C , 48-N ) :   2.9907 B( 49-C , 50-C ) :   1.4519
B( 49-C , 96-H ) :   0.9866 B( 50-C , 51-S ) :   1.1096 B( 50-C , 52-C ) :   1.1714
B( 52-C , 53-C ) :   1.4450 B( 52-C , 56-S ) :   1.1212 B( 53-C , 54-C ) :   1.3112
B( 53-C , 97-H ) :   0.9870 B( 54-C , 55-C ) :   1.4370 B( 54-C , 59-C ) :   0.9920
B( 55-C , 56-S ) :   1.1131 B( 55-C , 57-C ) :   1.2000 B( 57-C , 58-C ) :   1.4000
B( 57-C , 67-S ) :   1.1607 B( 58-C , 59-C ) :   0.9982 B( 58-C , 65-C ) :   1.3664
B( 59-C , 60-C ) :   1.7215 B( 60-C , 61-C ) :   1.1328 B( 60-C , 63-C ) :   1.1324
B( 61-C , 62-N ) :   2.9764 B( 63-C , 64-N ) :   2.9910 B( 65-C , 66-C ) :   1.3805
B( 65-C , 98-H ) :   0.9814 B( 66-C , 67-S ) :   1.0963 B( 66-C , 68-C ) :   1.1805
B( 68-C , 69-C ) :   1.6345 B( 68-C , 99-H ) :   0.9107 B( 69-C , 70-C ) :   1.0581
B( 69-C , 82-C ) :   1.0102 B( 70-C , 71-C ) :   1.6439 B( 70-C , 76-C ) :   0.9984
B( 71-C , 72-C ) :   1.1325 B( 71-C , 74-C ) :   1.1449 B( 72-C , 73-N ) :   2.9716
B( 74-C , 75-N ) :   2.9804 B( 76-C , 77-C ) :   1.3122 B( 76-C , 81-C ) :   1.3803
B( 77-C , 78-C ) :   1.3817 B( 77-C , 82-C ) :   1.0084 B( 78-C , 79-C ) :   1.3657
B( 78-C ,100-H ) :   0.9880 B( 79-C , 80-C ) :   1.3766 B( 79-C ,101-H ) :   0.9863
B( 80-C , 81-C ) :   1.3712 B( 80-C ,102-H ) :   0.9864 B( 81-C ,103-H ) :   0.9847
B( 82-C , 83-C ) :   1.6630 B( 83-C , 84-C ) :   1.1370 B( 83-C , 86-C ) :   1.1620
B( 84-C , 85-N ) :   3.0016 B( 86-C , 87-N ) :   3.0040

-----------------------------------------------------------------------------
         ABSORPTION SPECTRUM VIA TRANSITION ELECTRIC DIPOLE MOMENTS
-----------------------------------------------------------------------------
State   Energy  Wavelength   fosc         T2         TX        TY        TZ
        (cm-1)    (nm)                  (au**2)     (au)      (au)      (au)
-----------------------------------------------------------------------------
   0   11151.9    896.7   0.860007585  25.38811  -0.68416  -4.43542  -2.29066
   1   12594.0    794.0   0.129816873   3.39345  -0.32481  -1.55220  -0.93734
   2   12729.3    785.6   0.003284335   0.08494  -0.06812   0.23956   0.15137
   3   18493.2    540.7   1.393593485  24.80846   0.80636   4.04751   2.78854
   4   19202.9    520.8   0.113962139   1.95376  -0.17337  -0.82801  -1.11270
   5   19892.2    502.7   0.013577877   0.22471  -0.01983   0.42768   0.20348
   6   21175.1    472.3   0.060154983   0.93524   0.31586  -0.77656   0.48210
   7   22181.3    450.8   0.072140954   1.07071   0.13868  -0.98714  -0.27753
   8   22340.1    447.6   0.230489677   3.39658   0.08389  -1.83382  -0.16326
   9   22644.6    441.6   0.173264691   2.51895   0.37486   1.54073  -0.06762
  10   25134.6    397.9   0.015207998   0.19919   0.29273  -0.05676  -0.33209
  11   25695.5    389.2   0.047676196   0.61083   0.05712   0.68377   0.37421
  12   26245.4    381.0   0.336377433   4.21938   0.30425  -1.88893  -0.74750
  13   26893.2    371.8   0.000645099   0.00790  -0.08105   0.03381  -0.01360
  14   27140.7    368.5   0.022886586   0.27761  -0.05259  -0.24796  -0.46191
  15   28357.4    352.6   0.317212496   3.68264  -0.34420  -1.85455  -0.35327
  16   28948.1    345.4   0.066862371   0.76039   0.10242  -0.26723   0.82370
  17   29076.8    343.9   0.117363106   1.32880  -0.53881  -0.97688  -0.29015
  18   29530.3    338.6   0.358468076   3.99630   0.50508  -1.68491  -0.94989
  19   29805.1    335.5   0.399507943   4.41277   0.75111  -0.51533  -1.89289
  20   29908.5    334.4   0.057537964   0.63334  -0.07113   0.76316  -0.21418
  21   30269.4    330.4   0.110927998   1.20646  -0.35480  -0.93083   0.46275
  22   30570.0    327.1   0.008542758   0.09200   0.24296  -0.11872   0.13739
  23   30619.5    326.6   0.138461800   1.48870  -0.68677  -0.83540   0.56494
  24   31174.5    320.8   0.022509850   0.23771   0.30424  -0.16726  -0.34231
  25   31312.7    319.4   0.979209214  10.29511  -1.75931  -0.75398   2.57516
  26   31480.2    317.7   0.033381871   0.34910  -0.13877  -0.53407   0.21121
  27   31689.2    315.6   0.026133026   0.27149  -0.29489   0.35244   0.24560
  28   32587.6    306.9   0.194758897   1.96753  -0.67120  -0.85850   0.88317
  29   32624.9    306.5   0.082369135   0.83117   0.08449  -0.76027  -0.49601
  30   32779.7    305.1   0.077583716   0.77919  -0.34679   0.79788   0.14937
  31   33050.0    302.6   0.798556536   7.95444  -0.14931   2.80875  -0.20752
  32   33191.6    301.3   0.180194191   1.78726   0.65608   0.08428  -1.16177
  33   33336.7    300.0   0.380228386   3.75489   0.41366  -1.10787   1.53505
  34   33527.5    298.3   0.044392161   0.43589   0.09091  -0.57596   0.30968
  35   33658.6    297.1   0.010180356   0.09957   0.03331   0.09024   0.30053
  36   34021.2    293.9   0.200412872   1.93933  -0.84384  -0.79840   0.76800
  37   34129.4    293.0   0.081469775   0.78586   0.71120   0.18523  -0.49572
  38   34499.6    289.9   0.200485716   1.91313   0.54755   1.13310  -0.57393
  39   34602.0    289.0   0.154060424   1.46577   0.06745  -0.89462  -0.81295
  40   34769.4    287.6   0.109440908   1.03623   0.49181  -0.50219  -0.73632
  41   34973.3    285.9   0.036395405   0.34260   0.02963   0.47919  -0.33480
  42   35176.0    284.3   0.116265989   1.08813   0.40089  -0.84466  -0.46257
  43   35290.4    283.4   0.527355204   4.91951   0.76311  -0.38118  -2.04740
  44   35499.7    281.7   0.193056498   1.79034   0.70336   0.16146  -1.12674
  45   35862.1    278.8   0.027683626   0.25413   0.18199   0.40820  -0.23322
  46   35974.0    278.0   0.004615655   0.04224  -0.07019  -0.16108   0.10661
  47   36129.2    276.8   0.244703591   2.22976   0.85776  -0.07630  -1.21991
  48   36301.2    275.5   0.038865778   0.35247   0.01281   0.41454  -0.42481
  49   36550.6    273.6   0.012239316   0.11024  -0.04572   0.11248  -0.30903
  50   36927.5    270.8   0.025339878   0.22591  -0.21779  -0.11769   0.40574
  51   37049.2    269.9   0.003783990   0.03362  -0.04310  -0.11773   0.13382
  52   37189.0    268.9   0.021962499   0.19442   0.24899  -0.36352   0.01674
  53   37813.0    264.5   0.012275123   0.10687   0.13511   0.27175  -0.12153
  54   38406.5    260.4   0.007390799   0.06335   0.00794   0.09079   0.23462
  55   38501.1    259.7   0.014350127   0.12270  -0.07123   0.33959  -0.04803
  56   38562.2    259.3   0.006901139   0.05892  -0.23567  -0.02802  -0.05088
  57   38743.0    258.1   0.003330529   0.02830   0.11048  -0.01793  -0.12559
  58   38858.1    257.3   0.006534366   0.05536   0.00149  -0.23263  -0.03522
  59   39194.5    255.1   0.004722109   0.03966  -0.09551  -0.01686   0.17395
  60   39296.0    254.5   0.003167757   0.02654  -0.02069  -0.15685   0.03883
  61   39499.1    253.2   0.007621073   0.06352  -0.07083  -0.13283  -0.20213
  62   39707.4    251.8   0.140852398   1.16780  -0.27450   0.37849   0.97427
  63   39830.7    251.1   0.124048536   1.02530   0.15482   0.88212   0.47242
  64   39955.7    250.3   0.007231328   0.05958   0.05145   0.14390  -0.19033
  65   39990.2    250.1   0.005703877   0.04696   0.02184  -0.12087  -0.17852
  66   40163.2    249.0   0.010318882   0.08458   0.05839  -0.21094  -0.19151
  67   40243.5    248.5   0.009651176   0.07895  -0.00416  -0.27580   0.05356

FINAL SINGLE POINT ENERGY     -5751.126268568704

DIPOLE MOMENT
-------------
                                X             Y             Z
Electronic contribution:     -1.54780       4.52678      -1.19719
Nuclear contribution   :      1.16000      -5.78589       2.50226
                        -----------------------------------------
Total Dipole Moment    :     -0.38781      -1.25911       1.30508
                        -----------------------------------------
Magnitude (a.u.)       :      1.85445
Magnitude (Debye)      :      4.71364

Rotational constants in cm-1:     0.002030     0.000126     0.000120
Rotational constants in MHz :    60.844498     3.771371     3.608677

                             ****ORCA TERMINATED NORMALLY****
TOTAL RUN TIME: 0 days 0 hours 13 minutes 4 seconds 570 msec
