                         Program Version 4.2.0 -  RELEASE  -
|  1> # ORCA input file
|  2> # SCF done       -182.757494096413          0.000523119248
|  3> ! CAM-B3LYP def2-SVP def2/J RIJCOSX Grid4 TightSCF
|  4> %maxcore 5000
|  5> %tddft
|  6>     Mode sTDDFT
|  7>     Ethresh 5.0
|  8>     maxcore 5000
|  9> end
| 10>
| 11> %pal
| 12>   nprocs 6
| 13>   end
| 14> * xyz 0 1
| 15>    C        3.79324        -1.20925        -0.56872
| 16>    F        4.49263        -0.88364        -1.65822
| 17>    C        3.83663        -0.39270         0.55657
| 18>    F        4.57513         0.71775         0.56222
| 19>    C        3.09948        -0.75968         1.67846
| 20>    F        3.13619        -0.00018         2.77506
| 21>    C        2.33466        -1.91722         1.66752
| 22>    F        1.67864        -2.22844         2.79066
| 23>    C        2.25841        -2.76120         0.54561
| 24>    C        3.02219        -2.36189        -0.56395
| 25>    F        3.01186        -3.10251        -1.68117
| 26>    C        1.46157        -3.96275         0.53981
| 27>    C        0.41682        -4.29392         1.38128
| 28>    C       -0.10513        -5.55730         1.10368
| 29>    C        0.55978        -6.19988         0.03978
| 30>    S        1.79626        -5.24291        -0.62789
| 31>    C       -0.01780        -7.47629        -0.14664
| 32>    C       -1.04442        -7.64772         0.79641
| 33>    C       -1.14091        -6.43759         1.60510
| 34>    C       -2.03155        -6.19501         2.61101
| 35>    C       -2.99656        -7.14651         3.00060
| 36>    N       -3.78171        -7.91760         3.32389
| 37>    C       -2.06021        -4.97591         3.31988
| 38>    N       -2.09984        -3.98595         3.89698
| 39>    C       -1.66380        -8.89101         0.70874
| 40>    C       -1.12013        -9.67720        -0.29548
| 41>    S        0.17811        -8.84942        -1.14955
| 42>    C       -1.48835       -11.00299        -0.65553
| 43>    C       -0.87975       -11.68641        -1.68270
| 44>    C       -1.17128       -12.99361        -2.06032
| 45>    C       -2.11406       -13.80349        -1.27298
| 46>    C       -2.84957       -13.32774        -0.24594
| 47>    S       -2.77721       -11.70867         0.31768
| 48>    C       -2.04816       -15.10995        -1.82958
| 49>    C       -1.14353       -15.12062        -2.89199
| 50>    C       -1.03640       -16.39694        -3.48788
| 51>    C       -1.84210       -17.30161        -2.87374
| 52>    S       -2.76265       -16.64832        -1.55891
| 53>    C       -0.61020       -13.79660        -3.07476
| 54>    C        0.27803       -13.46748        -4.12674
| 55>    C        0.52694       -12.22568        -4.62184
| 56>    C        1.42079       -11.95078        -5.68467
| 57>    C        2.27454       -12.80409        -6.36821
| 58>    C        2.98854       -12.14482        -7.36432
| 59>    C        2.68597       -10.77468        -7.45253
| 60>    S        1.52326       -10.30144        -6.29878
| 61>    C        3.45166       -10.19872        -8.50206
| 62>    C        4.24697       -11.21208        -9.06066
| 63>    C        3.98532       -12.46244        -8.37811
| 64>    C        4.54139       -13.68367        -8.63600
| 65>    C        5.49570       -13.86064        -9.65711
| 66>    N        6.27022       -13.99464       -10.49335
| 67>    C        4.19120       -14.83731        -7.90715
| 68>    N        3.90378       -15.77774        -7.31602
| 69>    C        5.05090       -10.75011       -10.10537
| 70>    C        4.87251        -9.40332       -10.34620
| 71>    S        3.71194        -8.67860        -9.23853
| 72>    C        5.50230        -8.54439       -11.31740
| 73>    C        6.24219        -8.96338       -12.39300
| 74>    O        6.84194        -8.11114       -13.24091
| 75>    C        6.75510        -6.77491       -13.06279
| 76>    C        7.44377        -5.94741       -13.95168
| 77>    C        7.36159        -4.58129       -13.80326
| 78>    C        6.59750        -4.02097       -12.77969
| 79>    C        5.91590        -4.83292       -11.90480
| 80>    C        5.98782        -6.22439       -12.03302
| 81>    C        5.27337        -7.10971       -11.12165
| 82>    O        4.51860        -6.69057       -10.24950
| 83>    C        6.47424       -10.37450       -12.82164
| 84>    H        0.03894        -3.64695         2.15036
| 85>    H       -2.46874        -9.22494         1.33824
| 86>    H       -0.08782       -11.16317        -2.20048
| 87>    H       -3.55137       -13.93999         0.29801
| 88>    H       -0.40027       -16.63919        -4.31961
| 89>    H       -1.96309       -18.34062        -3.11036
| 90>    H        0.75033       -14.31456        -4.60611
| 91>    H       -0.01183       -11.37232        -4.23731
| 92>    H        2.36835       -13.84994        -6.14219
| 93>    H        5.74587       -11.37529       -10.62765
| 94>    H        8.02806        -6.39846       -14.73786
| 95>    H        7.89454        -3.93848       -14.48707
| 96>    H        6.54344        -2.94825       -12.67823
| 97>    H        5.31516        -4.43073       -11.10356
| 98>    H        7.20709       -10.86263       -12.18050
| 99>    H        6.86460       -10.36749       -13.83679
|100>    H        5.55011       -10.94650       -12.79239
|101> *
|102>
|103>                          ****END OF INPUT****

CARTESIAN COORDINATES (ANGSTROEM)
---------------------------------
  C      3.793240   -1.209250   -0.568720
  F      4.492630   -0.883640   -1.658220
  C      3.836630   -0.392700    0.556570
  F      4.575130    0.717750    0.562220
  C      3.099480   -0.759680    1.678460
  F      3.136190   -0.000180    2.775060
  C      2.334660   -1.917220    1.667520
  F      1.678640   -2.228440    2.790660
  C      2.258410   -2.761200    0.545610
  C      3.022190   -2.361890   -0.563950
  F      3.011860   -3.102510   -1.681170
  C      1.461570   -3.962750    0.539810
  C      0.416820   -4.293920    1.381280
  C     -0.105130   -5.557300    1.103680
  C      0.559780   -6.199880    0.039780
  S      1.796260   -5.242910   -0.627890
  C     -0.017800   -7.476290   -0.146640
  C     -1.044420   -7.647720    0.796410
  C     -1.140910   -6.437590    1.605100
  C     -2.031550   -6.195010    2.611010
  C     -2.996560   -7.146510    3.000600
  N     -3.781710   -7.917600    3.323890
  C     -2.060210   -4.975910    3.319880
  N     -2.099840   -3.985950    3.896980
  C     -1.663800   -8.891010    0.708740
  C     -1.120130   -9.677200   -0.295480
  S      0.178110   -8.849420   -1.149550
  C     -1.488350  -11.002990   -0.655530
  C     -0.879750  -11.686410   -1.682700
  C     -1.171280  -12.993610   -2.060320
  C     -2.114060  -13.803490   -1.272980
  C     -2.849570  -13.327740   -0.245940
  S     -2.777210  -11.708670    0.317680
  C     -2.048160  -15.109950   -1.829580
  C     -1.143530  -15.120620   -2.891990
  C     -1.036400  -16.396940   -3.487880
  C     -1.842100  -17.301610   -2.873740
  S     -2.762650  -16.648320   -1.558910
  C     -0.610200  -13.796600   -3.074760
  C      0.278030  -13.467480   -4.126740
  C      0.526940  -12.225680   -4.621840
  C      1.420790  -11.950780   -5.684670
  C      2.274540  -12.804090   -6.368210
  C      2.988540  -12.144820   -7.364320
  C      2.685970  -10.774680   -7.452530
  S      1.523260  -10.301440   -6.298780
  C      3.451660  -10.198720   -8.502060
  C      4.246970  -11.212080   -9.060660
  C      3.985320  -12.462440   -8.378110
  C      4.541390  -13.683670   -8.636000
  C      5.495700  -13.860640   -9.657110
  N      6.270220  -13.994640  -10.493350
  C      4.191200  -14.837310   -7.907150
  N      3.903780  -15.777740   -7.316020
  C      5.050900  -10.750110  -10.105370
  C      4.872510   -9.403320  -10.346200
  S      3.711940   -8.678600   -9.238530
  C      5.502300   -8.544390  -11.317400
  C      6.242190   -8.963380  -12.393000
  O      6.841940   -8.111140  -13.240910
  C      6.755100   -6.774910  -13.062790
  C      7.443770   -5.947410  -13.951680
  C      7.361590   -4.581290  -13.803260
  C      6.597500   -4.020970  -12.779690
  C      5.915900   -4.832920  -11.904800
  C      5.987820   -6.224390  -12.033020
  C      5.273370   -7.109710  -11.121650
  O      4.518600   -6.690570  -10.249500
  C      6.474240  -10.374500  -12.821640
  H      0.038940   -3.646950    2.150360
  H     -2.468740   -9.224940    1.338240
  H     -0.087820  -11.163170   -2.200480
  H     -3.551370  -13.939990    0.298010
  H     -0.400270  -16.639190   -4.319610
  H     -1.963090  -18.340620   -3.110360
  H      0.750330  -14.314560   -4.606110
  H     -0.011830  -11.372320   -4.237310
  H      2.368350  -13.849940   -6.142190
  H      5.745870  -11.375290  -10.627650
  H      8.028060   -6.398460  -14.737860
  H      7.894540   -3.938480  -14.487070
  H      6.543440   -2.948250  -12.678230
  H      5.315160   -4.430730  -11.103560
  H      7.207090  -10.862630  -12.180500
  H      6.864600  -10.367490  -13.836790
  H      5.550110  -10.946500  -12.792390

 Total Charge           Charge          ....    0
 Multiplicity           Mult            ....    1
 Number of Electrons    NEL             ....  514
 Basis Dimension        Dim             .... 1075

ORBITAL ENERGIES
----------------

  NO   OCC          E(Eh)            E(eV)
   0   2.0000     -88.991072     -2421.5702
   1   2.0000     -88.990600     -2421.5573
   2   2.0000     -88.975137     -2421.1366
   3   2.0000     -88.973874     -2421.1022
   4   2.0000     -88.966888     -2420.9121
   5   2.0000     -88.954673     -2420.5797
   6   2.0000     -24.819586      -675.3753
   7   2.0000     -24.814166      -675.2278
   8   2.0000     -24.813790      -675.2176
   9   2.0000     -24.811033      -675.1425
  10   2.0000     -24.809409      -675.0983
  11   2.0000     -19.310702      -525.4709
  12   2.0000     -19.205670      -522.6128
  13   2.0000     -14.430084      -392.6626
  14   2.0000     -14.429432      -392.6448
  15   2.0000     -14.420917      -392.4131
  16   2.0000     -14.418969      -392.3601
  17   2.0000     -10.396266      -282.8968
  18   2.0000     -10.395475      -282.8753
  19   2.0000     -10.394857      -282.8584
  20   2.0000     -10.392928      -282.8059
  21   2.0000     -10.392127      -282.7842
  22   2.0000     -10.377319      -282.3812
  23   2.0000     -10.365098      -282.0487
  24   2.0000     -10.364519      -282.0329
  25   2.0000     -10.362171      -281.9690
  26   2.0000     -10.351710      -281.6843
  27   2.0000     -10.348862      -281.6068
  28   2.0000     -10.338773      -281.3323
  29   2.0000     -10.335101      -281.2324
  30   2.0000     -10.333241      -281.1818
  31   2.0000     -10.331317      -281.1294
  32   2.0000     -10.330404      -281.1046
  33   2.0000     -10.329956      -281.0924
  34   2.0000     -10.329527      -281.0807
  35   2.0000     -10.329475      -281.0793
  36   2.0000     -10.327753      -281.0325
  37   2.0000     -10.326861      -281.0082
  38   2.0000     -10.322652      -280.8936
  39   2.0000     -10.320536      -280.8361
  40   2.0000     -10.314185      -280.6633
  41   2.0000     -10.309113      -280.5252
  42   2.0000     -10.308023      -280.4956
  43   2.0000     -10.304540      -280.4008
  44   2.0000     -10.303262      -280.3660
  45   2.0000     -10.303130      -280.3624
  46   2.0000     -10.300529      -280.2916
  47   2.0000     -10.300446      -280.2894
  48   2.0000     -10.299147      -280.2540
  49   2.0000     -10.297402      -280.2065
  50   2.0000     -10.297360      -280.2054
  51   2.0000     -10.295705      -280.1604
  52   2.0000     -10.294532      -280.1284
  53   2.0000     -10.292752      -280.0800
  54   2.0000     -10.292141      -280.0634
  55   2.0000     -10.290317      -280.0138
  56   2.0000     -10.287896      -279.9479
  57   2.0000     -10.287769      -279.9444
  58   2.0000     -10.285392      -279.8798
  59   2.0000     -10.285265      -279.8763
  60   2.0000     -10.284798      -279.8636
  61   2.0000     -10.284556      -279.8570
  62   2.0000     -10.283761      -279.8354
  63   2.0000     -10.282306      -279.7958
  64   2.0000     -10.280302      -279.7412
  65   2.0000     -10.279131      -279.7094
  66   2.0000     -10.276373      -279.6343
  67   2.0000     -10.272679      -279.5338
  68   2.0000     -10.271279      -279.4957
  69   2.0000      -8.085377      -220.0143
  70   2.0000      -8.084838      -219.9996
  71   2.0000      -8.070374      -219.6060
  72   2.0000      -8.068707      -219.5607
  73   2.0000      -8.059017      -219.2970
  74   2.0000      -8.050123      -219.0550
  75   2.0000      -6.054667      -164.7559
  76   2.0000      -6.054158      -164.7420
  77   2.0000      -6.050302      -164.6371
  78   2.0000      -6.050064      -164.6306
  79   2.0000      -6.047769      -164.5681
  80   2.0000      -6.047047      -164.5485
  81   2.0000      -6.040066      -164.3586
  82   2.0000      -6.037827      -164.2976
  83   2.0000      -6.035463      -164.2333
  84   2.0000      -6.033760      -164.1869
  85   2.0000      -6.032050      -164.1404
  86   2.0000      -6.031233      -164.1182
  87   2.0000      -6.028652      -164.0480
  88   2.0000      -6.023605      -163.9106
  89   2.0000      -6.021593      -163.8559
  90   2.0000      -6.019586      -163.8013
  91   2.0000      -6.015328      -163.6854
  92   2.0000      -6.012112      -163.5979
  93   2.0000      -1.343009       -36.5451
  94   2.0000      -1.338107       -36.4118
  95   2.0000      -1.331507       -36.2321
  96   2.0000      -1.320893       -35.9433
  97   2.0000      -1.315218       -35.7889
  98   2.0000      -1.224923       -33.3318
  99   2.0000      -1.127498       -30.6808
 100   2.0000      -1.044883       -28.4327
 101   2.0000      -1.027152       -27.9502
 102   2.0000      -1.021828       -27.8053
 103   2.0000      -1.010248       -27.4903
 104   2.0000      -1.009816       -27.4785
 105   2.0000      -1.006917       -27.3996
 106   2.0000      -1.004338       -27.3294
 107   2.0000      -0.997994       -27.1568
 108   2.0000      -0.994213       -27.0539
 109   2.0000      -0.980118       -26.6704
 110   2.0000      -0.972820       -26.4718
 111   2.0000      -0.971435       -26.4341
 112   2.0000      -0.955530       -26.0013
 113   2.0000      -0.947166       -25.7737
 114   2.0000      -0.928165       -25.2567
 115   2.0000      -0.925426       -25.1821
 116   2.0000      -0.918311       -24.9885
 117   2.0000      -0.902059       -24.5463
 118   2.0000      -0.895337       -24.3634
 119   2.0000      -0.884225       -24.0610
 120   2.0000      -0.881989       -24.0001
 121   2.0000      -0.872965       -23.7546
 122   2.0000      -0.870015       -23.6743
 123   2.0000      -0.865610       -23.5544
 124   2.0000      -0.858427       -23.3590
 125   2.0000      -0.856131       -23.2965
 126   2.0000      -0.847141       -23.0519
 127   2.0000      -0.839088       -22.8327
 128   2.0000      -0.835664       -22.7396
 129   2.0000      -0.822752       -22.3882
 130   2.0000      -0.820166       -22.3178
 131   2.0000      -0.799429       -21.7536
 132   2.0000      -0.793650       -21.5963
 133   2.0000      -0.782027       -21.2800
 134   2.0000      -0.773488       -21.0477
 135   2.0000      -0.765247       -20.8234
 136   2.0000      -0.757501       -20.6127
 137   2.0000      -0.753274       -20.4976
 138   2.0000      -0.747477       -20.3399
 139   2.0000      -0.732619       -19.9356
 140   2.0000      -0.723737       -19.6939
 141   2.0000      -0.722758       -19.6672
 142   2.0000      -0.704392       -19.1675
 143   2.0000      -0.698318       -19.0022
 144   2.0000      -0.696554       -18.9542
 145   2.0000      -0.693988       -18.8844
 146   2.0000      -0.689832       -18.7713
 147   2.0000      -0.685734       -18.6598
 148   2.0000      -0.676169       -18.3995
 149   2.0000      -0.675438       -18.3796
 150   2.0000      -0.667920       -18.1750
 151   2.0000      -0.663844       -18.0641
 152   2.0000      -0.655375       -17.8337
 153   2.0000      -0.654614       -17.8130
 154   2.0000      -0.644548       -17.5390
 155   2.0000      -0.639740       -17.4082
 156   2.0000      -0.633999       -17.2520
 157   2.0000      -0.629774       -17.1370
 158   2.0000      -0.625548       -17.0220
 159   2.0000      -0.623928       -16.9779
 160   2.0000      -0.620835       -16.8938
 161   2.0000      -0.619508       -16.8577
 162   2.0000      -0.616230       -16.7685
 163   2.0000      -0.614548       -16.7227
 164   2.0000      -0.604449       -16.4479
 165   2.0000      -0.601601       -16.3704
 166   2.0000      -0.596005       -16.2181
 167   2.0000      -0.592783       -16.1304
 168   2.0000      -0.589864       -16.0510
 169   2.0000      -0.589414       -16.0388
 170   2.0000      -0.584815       -15.9136
 171   2.0000      -0.581324       -15.8186
 172   2.0000      -0.578259       -15.7352
 173   2.0000      -0.574137       -15.6231
 174   2.0000      -0.561136       -15.2693
 175   2.0000      -0.557824       -15.1792
 176   2.0000      -0.554848       -15.0982
 177   2.0000      -0.552088       -15.0231
 178   2.0000      -0.550266       -14.9735
 179   2.0000      -0.546671       -14.8757
 180   2.0000      -0.545874       -14.8540
 181   2.0000      -0.535816       -14.5803
 182   2.0000      -0.532974       -14.5030
 183   2.0000      -0.531592       -14.4653
 184   2.0000      -0.530664       -14.4401
 185   2.0000      -0.528565       -14.3830
 186   2.0000      -0.525028       -14.2867
 187   2.0000      -0.522344       -14.2137
 188   2.0000      -0.520038       -14.1510
 189   2.0000      -0.515427       -14.0255
 190   2.0000      -0.514541       -14.0014
 191   2.0000      -0.511944       -13.9307
 192   2.0000      -0.511767       -13.9259
 193   2.0000      -0.509307       -13.8590
 194   2.0000      -0.506314       -13.7775
 195   2.0000      -0.503560       -13.7026
 196   2.0000      -0.500706       -13.6249
 197   2.0000      -0.499029       -13.5793
 198   2.0000      -0.494661       -13.4604
 199   2.0000      -0.490833       -13.3562
 200   2.0000      -0.490166       -13.3381
 201   2.0000      -0.489817       -13.3286
 202   2.0000      -0.488431       -13.2909
 203   2.0000      -0.485148       -13.2015
 204   2.0000      -0.480566       -13.0769
 205   2.0000      -0.476372       -12.9627
 206   2.0000      -0.471746       -12.8369
 207   2.0000      -0.470972       -12.8158
 208   2.0000      -0.466651       -12.6982
 209   2.0000      -0.465793       -12.6749
 210   2.0000      -0.463370       -12.6089
 211   2.0000      -0.460823       -12.5396
 212   2.0000      -0.458605       -12.4793
 213   2.0000      -0.457709       -12.4549
 214   2.0000      -0.456378       -12.4187
 215   2.0000      -0.453452       -12.3391
 216   2.0000      -0.452429       -12.3112
 217   2.0000      -0.451344       -12.2817
 218   2.0000      -0.449027       -12.2187
 219   2.0000      -0.447502       -12.1771
 220   2.0000      -0.446664       -12.1544
 221   2.0000      -0.441838       -12.0230
 222   2.0000      -0.439563       -11.9611
 223   2.0000      -0.438593       -11.9347
 224   2.0000      -0.437590       -11.9074
 225   2.0000      -0.433478       -11.7955
 226   2.0000      -0.431717       -11.7476
 227   2.0000      -0.431463       -11.7407
 228   2.0000      -0.430165       -11.7054
 229   2.0000      -0.426931       -11.6174
 230   2.0000      -0.425692       -11.5837
 231   2.0000      -0.422973       -11.5097
 232   2.0000      -0.421866       -11.4796
 233   2.0000      -0.417673       -11.3655
 234   2.0000      -0.415673       -11.3110
 235   2.0000      -0.414153       -11.2697
 236   2.0000      -0.407486       -11.0883
 237   2.0000      -0.401647       -10.9294
 238   2.0000      -0.395897       -10.7729
 239   2.0000      -0.380131       -10.3439
 240   2.0000      -0.375439       -10.2162
 241   2.0000      -0.366361        -9.9692
 242   2.0000      -0.349375        -9.5070
 243   2.0000      -0.344497        -9.3742
 244   2.0000      -0.339944        -9.2504
 245   2.0000      -0.335480        -9.1289
 246   2.0000      -0.333896        -9.0858
 247   2.0000      -0.333128        -9.0649
 248   2.0000      -0.327420        -8.9095
 249   2.0000      -0.325993        -8.8707
 250   2.0000      -0.321091        -8.7373
 251   2.0000      -0.309205        -8.4139
 252   2.0000      -0.304274        -8.2797
 253   2.0000      -0.287450        -7.8219
 254   2.0000      -0.272077        -7.4036
 255   2.0000      -0.252614        -6.8740
 256   2.0000      -0.217366        -5.9148
 257   0.0000      -0.106103        -2.8872
 258   0.0000      -0.089085        -2.4241
 259   0.0000      -0.065640        -1.7862
 260   0.0000      -0.038300        -1.0422
 261   0.0000      -0.034097        -0.9278

MULLIKEN ATOMIC CHARGES
-----------------------
   0 C :    0.177324
   1 F :   -0.157241
   2 C :    0.129664
   3 F :   -0.150873
   4 C :    0.178595
   5 F :   -0.156189
   6 C :    0.145872
   7 F :   -0.158940
   8 C :    0.032580
   9 C :    0.131134
  10 F :   -0.169743
  11 C :   -0.108365
  12 C :   -0.031352
  13 C :   -0.002993
  14 C :   -0.091957
  15 S :    0.208635
  16 C :   -0.101544
  17 C :    0.022193
  18 C :    0.304775
  19 C :   -0.295862
  20 C :   -0.186814
  21 N :    0.169490
  22 C :   -0.191467
  23 N :    0.179291
  24 C :   -0.064910
  25 C :   -0.053326
  26 S :    0.168064
  27 C :   -0.027889
  28 C :   -0.099783
  29 C :    0.048575
  30 C :    0.059523
  31 C :   -0.123103
  32 S :    0.127188
  33 C :   -0.106178
  34 C :    0.046793
  35 C :    0.008968
  36 C :   -0.068339
  37 S :    0.127964
  38 C :    0.086428
  39 C :   -0.027357
  40 C :    0.028274
  41 C :   -0.082387
  42 C :   -0.040306
  43 C :    0.005852
  44 C :   -0.113116
  45 S :    0.173172
  46 C :   -0.079663
  47 C :   -0.000931
  48 C :    0.311426
  49 C :   -0.310805
  50 C :   -0.181842
  51 N :    0.149076
  52 C :   -0.186399
  53 N :    0.160093
  54 C :   -0.075190
  55 C :   -0.097118
  56 S :    0.215424
  57 C :    0.037186
  58 C :   -0.084854
  59 O :   -0.191693
  60 C :    0.173506
  61 C :   -0.028853
  62 C :    0.040652
  63 C :    0.035751
  64 C :   -0.001491
  65 C :   -0.040811
  66 C :    0.164317
  67 O :   -0.234386
  68 C :    0.105315
  69 H :    0.016900
  70 H :    0.020791
  71 H :   -0.007582
  72 H :    0.038054
  73 H :   -0.010956
  74 H :    0.027716
  75 H :   -0.017472
  76 H :   -0.025612
  77 H :    0.002575
  78 H :   -0.022150
  79 H :   -0.011173
  80 H :    0.001671
  81 H :   -0.003256
  82 H :    0.002801
  83 H :    0.070740
  84 H :    0.032856
  85 H :    0.055069
Sum of atomic charges:    0.0000000

LOEWDIN ATOMIC CHARGES
----------------------
   0 C :    0.030023
   1 F :   -0.036510
   2 C :    0.037988
   3 F :   -0.031019
   4 C :    0.031357
   5 F :   -0.034901
   6 C :    0.065362
   7 F :   -0.031651
   8 C :   -0.084268
   9 C :    0.053173
  10 F :   -0.045451
  11 C :   -0.176538
  12 C :   -0.016689
  13 C :   -0.079436
  14 C :   -0.175063
  15 S :    0.492857
  16 C :   -0.187346
  17 C :   -0.061448
  18 C :    0.082325
  19 C :   -0.100677
  20 C :   -0.015985
  21 N :   -0.032780
  22 C :   -0.018454
  23 N :   -0.028519
  24 C :   -0.044613
  25 C :   -0.172033
  26 S :    0.473870
  27 C :   -0.187344
  28 C :   -0.029806
  29 C :   -0.026360
  30 C :   -0.046919
  31 C :   -0.139579
  32 S :    0.455192
  33 C :   -0.202589
  34 C :   -0.039748
  35 C :   -0.062281
  36 C :   -0.163308
  37 S :    0.421548
  38 C :   -0.044920
  39 C :   -0.011728
  40 C :   -0.057318
  41 C :   -0.163234
  42 C :   -0.034222
  43 C :   -0.070440
  44 C :   -0.185783
  45 S :    0.466317
  46 C :   -0.193210
  47 C :   -0.085951
  48 C :    0.090397
  49 C :   -0.119425
  50 C :   -0.012035
  51 N :   -0.052177
  52 C :   -0.015966
  53 N :   -0.046371
  54 C :   -0.043459
  55 C :   -0.163953
  56 S :    0.524154
  57 C :   -0.128749
  58 C :    0.094496
  59 O :    0.009462
  60 C :    0.064049
  61 C :   -0.036778
  62 C :    0.004087
  63 C :   -0.027238
  64 C :    0.023864
  65 C :   -0.085018
  66 C :    0.075148
  67 O :   -0.203467
  68 C :   -0.050935
  69 H :    0.039408
  70 H :    0.034801
  71 H :    0.025104
  72 H :    0.037511
  73 H :    0.032464
  74 H :    0.023948
  75 H :    0.031360
  76 H :    0.022540
  77 H :    0.036684
  78 H :    0.031183
  79 H :    0.037630
  80 H :    0.035428
  81 H :    0.033203
  82 H :    0.040263
  83 H :    0.053032
  84 H :    0.043677
  85 H :    0.049788

  Mayer bond orders larger than 0.100000
B(  0-C ,  1-F ) :   1.1717 B(  0-C ,  2-C ) :   1.2740 B(  0-C ,  9-C ) :   1.3026
B(  2-C ,  3-F ) :   1.1856 B(  2-C ,  4-C ) :   1.2740 B(  2-C ,  8-C ) :   0.1050
B(  4-C ,  5-F ) :   1.1692 B(  4-C ,  6-C ) :   1.3002 B(  6-C ,  7-F ) :   1.1490
B(  6-C ,  8-C ) :   1.2924 B(  8-C ,  9-C ) :   1.2855 B(  8-C , 11-C ) :   1.0862
B(  9-C , 10-F ) :   1.1392 B( 11-C , 12-C ) :   1.4861 B( 11-C , 15-S ) :   1.0961
B( 12-C , 13-C ) :   1.2841 B( 12-C , 69-H ) :   0.9931 B( 13-C , 14-C ) :   1.4253
B( 13-C , 18-C ) :   1.0056 B( 14-C , 15-S ) :   1.1313 B( 14-C , 16-C ) :   1.1903
B( 16-C , 17-C ) :   1.4545 B( 16-C , 26-S ) :   1.1116 B( 17-C , 18-C ) :   0.9916
B( 17-C , 24-C ) :   1.3028 B( 18-C , 19-C ) :   1.7081 B( 19-C , 20-C ) :   1.1348
B( 19-C , 22-C ) :   1.1342 B( 20-C , 21-N ) :   2.9864 B( 22-C , 23-N ) :   2.9942
B( 24-C , 25-C ) :   1.4480 B( 24-C , 70-H ) :   0.9814 B( 25-C , 26-S ) :   1.1094
B( 25-C , 27-C ) :   1.1744 B( 27-C , 28-C ) :   1.5172 B( 27-C , 32-S ) :   1.0512
B( 28-C , 29-C ) :   1.2478 B( 28-C , 71-H ) :   0.9588 B( 29-C , 30-C ) :   1.0507
B( 29-C , 38-C ) :   1.3828 B( 30-C , 31-C ) :   1.6159 B( 30-C , 33-C ) :   1.1764
B( 31-C , 32-S ) :   1.1312 B( 31-C , 72-H ) :   0.9411 B( 33-C , 34-C ) :   1.4390
B( 33-C , 37-S ) :   1.0762 B( 34-C , 35-C ) :   1.2201 B( 34-C , 38-C ) :   1.1017
B( 35-C , 36-C ) :   1.5861 B( 35-C , 73-H ) :   0.9988 B( 36-C , 37-S ) :   1.1531
B( 36-C , 74-H ) :   0.9663 B( 38-C , 39-C ) :   1.1617 B( 39-C , 40-C ) :   1.6471
B( 39-C , 75-H ) :   0.9609 B( 40-C , 41-C ) :   1.1272 B( 40-C , 76-H ) :   0.9560
B( 41-C , 42-C ) :   1.4513 B( 41-C , 45-S ) :   1.1012 B( 42-C , 43-C ) :   1.3018
B( 42-C , 77-H ) :   0.9888 B( 43-C , 44-C ) :   1.4409 B( 43-C , 48-C ) :   0.9920
B( 44-C , 45-S ) :   1.1220 B( 44-C , 46-C ) :   1.1810 B( 46-C , 47-C ) :   1.4304
B( 46-C , 56-S ) :   1.0767 B( 47-C , 48-C ) :   1.0107 B( 47-C , 54-C ) :   1.2790
B( 48-C , 49-C ) :   1.6907 B( 49-C , 50-C ) :   1.1380 B( 49-C , 52-C ) :   1.1343
B( 50-C , 51-N ) :   2.9803 B( 52-C , 53-N ) :   2.9870 B( 54-C , 55-C ) :   1.4593
B( 54-C , 78-H ) :   0.9864 B( 55-C , 56-S ) :   1.1161 B( 55-C , 57-C ) :   1.0949
B( 56-S , 67-O ) :   0.1094 B( 57-C , 58-C ) :   1.5078 B( 57-C , 66-C ) :   1.0087
B( 58-C , 59-O ) :   1.1570 B( 58-C , 68-C ) :   1.1237 B( 59-O , 60-C ) :   1.0891
B( 60-C , 61-C ) :   1.3449 B( 60-C , 65-C ) :   1.3309 B( 61-C , 62-C ) :   1.4231
B( 61-C , 79-H ) :   0.9945 B( 62-C , 63-C ) :   1.3187 B( 62-C , 80-H ) :   0.9901
B( 63-C , 64-C ) :   1.4099 B( 63-C , 81-H ) :   0.9937 B( 64-C , 65-C ) :   1.3246
B( 64-C , 82-H ) :   0.9997 B( 65-C , 66-C ) :   1.0263 B( 66-C , 67-O ) :   2.0379
B( 68-C , 83-H ) :   0.9278 B( 68-C , 84-H ) :   0.9310 B( 68-C , 85-H ) :   0.9396

-----------------------------------------------------------------------------
         ABSORPTION SPECTRUM VIA TRANSITION ELECTRIC DIPOLE MOMENTS
-----------------------------------------------------------------------------
State   Energy  Wavelength   fosc         T2         TX        TY        TZ
        (cm-1)    (nm)                  (au**2)     (au)      (au)      (au)
-----------------------------------------------------------------------------
   0    9687.1   1032.3   0.144924458   4.92517  -0.15573   1.63238   1.49541
   1   11009.7    908.3   0.092148796   2.75544   0.95636   0.61730  -1.20820
   2   16277.9    614.3   0.086892806   1.75736  -0.81438  -0.26030   1.01311
   3   17776.8    562.5   0.646769247  11.97762   1.05963  -1.68828  -2.82923
   4   20166.0    495.9   0.023747797   0.38768   0.34419  -0.13325  -0.50146
   5   22339.6    447.6   0.158557110   2.33661  -0.23919   0.96968   1.15721
   6   23083.7    433.2   0.123637498   1.76328  -0.72826  -0.89890   0.65184
   7   25257.2    395.9   0.319997485   4.17097   1.05945   1.67584  -0.49000
   8   25817.9    387.3   0.431437099   5.50139  -1.35090  -1.65001   0.97669
   9   27236.5    367.2   0.812327446   9.81872  -1.83229  -2.05087   1.50179
  10   27337.9    365.8   0.119440675   1.43834   0.71067   0.38452  -0.88625
  11   28111.3    355.7   0.210249670   2.46224  -0.90839  -1.15486   0.55078
  12   29737.1    336.3   0.125579392   1.39026  -0.39794  -0.99106  -0.49969
  13   30076.1    332.5   0.122167351   1.33724   0.02782   1.12899  -0.24868
  14   30334.9    329.7   0.180678350   1.96083   0.30812  -1.18052   0.68721
  15   31097.1    321.6   0.768740795   8.13832  -1.80593   1.09134   1.91988
  16   31222.6    320.3   0.522685582   5.51122   1.00823   1.86203  -1.01368
  17   31643.0    316.0   0.292548737   3.04366  -0.21202   1.72982  -0.08024
  18   32397.4    308.7   0.216378578   2.19877   0.24182   1.28312   0.70278
  19   32715.7    305.7   0.416867679   4.19486   1.03210  -1.32563  -1.17147
  20   33225.2    301.0   0.051935366   0.51460  -0.25792  -0.64879  -0.16476
  21   33271.5    300.6   0.168081870   1.66312   0.50567   1.17055   0.19297
  22   33638.7    297.3   0.090485720   0.88556   0.35395   0.49694  -0.71647
  23   33817.1    295.7   0.319649710   3.11181   1.01268   1.43722  -0.14392
  24   33977.1    294.3   0.064673721   0.62664   0.18529   0.74354   0.19863
  25   34095.2    293.3   0.009550989   0.09222   0.09614  -0.03581  -0.28583
  26   34239.3    292.1   0.174271417   1.67562  -0.51381  -1.18502   0.08572
  27   34956.6    286.1   0.005226342   0.04922  -0.09504   0.15749   0.12404
  28   35734.5    279.8   0.025385447   0.23387   0.18991  -0.07134  -0.43899
  29   36254.4    275.8   0.063472894   0.57637  -0.59768   0.34052   0.32125
  30   37460.2    266.9   0.158407123   1.39213  -0.40377  -1.10854  -0.01550
  31   37611.9    265.9   0.140603788   1.23068  -0.36299  -1.02260   0.23070
  32   37722.3    265.1   0.008447767   0.07373  -0.14864  -0.14442   0.17543
  33   37963.6    263.4   0.083695606   0.72579  -0.39284   0.31980   0.68498
  34   38476.2    259.9   0.073235367   0.62662  -0.54318  -0.10647   0.56589
  35   38584.4    259.2   0.000563355   0.00481  -0.04856   0.01410   0.04744
  36   38654.2    258.7   0.006105636   0.05200   0.08275   0.05213  -0.20600
  37   38906.9    257.0   0.028365844   0.24002  -0.31153   0.18478   0.32989
  38   39071.8    255.9   0.025640271   0.21604   0.02280  -0.45773  -0.07749
  39   39389.6    253.9   0.000841309   0.00703   0.04215  -0.06712   0.02739
  40   39970.9    250.2   0.000437559   0.00360   0.03964   0.01955   0.04062
  41   40095.8    249.4   0.000072356   0.00059   0.01712   0.01240   0.01214

FINAL SINGLE POINT ENERGY     -5245.190890002758

DIPOLE MOMENT
-------------
                                X             Y             Z
Electronic contribution:     -7.41122      62.05417      71.39108
Nuclear contribution   :      8.42838     -61.26558     -73.87207
                        -----------------------------------------
Total Dipole Moment    :      1.01716       0.78859      -2.48099
                        -----------------------------------------
Magnitude (a.u.)       :      2.79496
Magnitude (Debye)      :      7.10422

Rotational constants in cm-1:     0.000694     0.000463     0.000286
Rotational constants in MHz :    20.792521    13.874925     8.560409

                             ****ORCA TERMINATED NORMALLY****
TOTAL RUN TIME: 0 days 0 hours 8 minutes 7 seconds 177 msec
