                         Program Version 4.2.0 -  RELEASE  -
|  1> # ORCA input file
|  2> # SCF done       -188.418264371572          0.000462746157
|  3> ! CAM-B3LYP def2-SVP def2/J RIJCOSX Grid4 TightSCF
|  4> %maxcore 5000
|  5> %tddft
|  6>     Mode sTDDFT
|  7>     Ethresh 5.0
|  8>     maxcore 5000
|  9> end
| 10>
| 11> %pal
| 12>   nprocs 6
| 13>   end
| 14> * xyz 0 1
| 15>    C       -9.09501       -12.17704         7.28969
| 16>    C       -9.53050       -13.43959         7.00277
| 17>    F      -10.12144       -14.18298         7.94986
| 18>    C       -9.38402       -13.97431         5.70722
| 19>    F       -9.84770       -15.20702         5.45408
| 20>    C       -8.79174       -13.24317         4.71642
| 21>    C       -8.31833       -11.94319         4.98423
| 22>    C       -8.48264       -11.39402         6.28920
| 23>    C       -8.04164       -10.08266         6.57321
| 24>    C       -7.44170        -9.34291         5.58627
| 25>    C       -7.26498        -9.90572         4.29318
| 26>    C       -7.68895       -11.16790         3.98606
| 27>    C       -6.57826        -8.93765         3.41866
| 28>    O       -6.13083        -9.16453         2.31893
| 29>    C       -6.42981        -7.69133         4.23719
| 30>    C       -6.90640        -7.98504         5.58543
| 31>    C       -6.90968        -7.13490         6.65610
| 32>    C       -6.41773        -5.81065         6.66095
| 33>    N       -6.04441        -4.72886         6.74471
| 34>    C       -7.41206        -7.47392         7.93298
| 35>    N       -7.79464        -7.68887         8.99279
| 36>    C       -5.87827        -6.52497         3.81643
| 37>    C       -5.61874        -6.17906         2.44071
| 38>    C       -4.66831        -5.28244         2.05412
| 39>    C       -4.45016        -5.02372         0.66312
| 40>    C       -3.49828        -4.11862         0.22936
| 41>    C       -3.28711        -3.85890        -1.13595
| 42>    N       -3.11738        -3.64876        -2.25172
| 43>    C       -2.68846        -3.40388         1.12882
| 44>    N       -2.02622        -2.82587         1.86740
| 45>    C       -5.26444        -5.77206        -0.25358
| 46>    C       -6.20575        -6.62012         0.22787
| 47>    O       -6.42100        -6.78396         1.54835
| 48>    C       -7.08706        -7.49534        -0.54222
| 49>    C       -7.02997        -7.73940        -1.87384
| 50>    C       -7.90449        -8.72109        -2.45088
| 51>    C       -7.90228        -9.00842        -3.80318
| 52>    C       -8.74184        -9.99901        -4.34028
| 53>    N       -9.42643       -10.81630        -4.76776
| 54>    C       -7.06367        -8.33672        -4.70823
| 55>    N       -6.37643        -7.78398        -5.44353
| 56>    C       -8.76022        -9.41498        -1.53734
| 57>    C       -8.75826        -9.08988        -0.21829
| 58>    O       -7.96572        -8.11398         0.27310
| 59>    C       -9.55725        -9.75706         0.78999
| 60>    C       -9.70561        -9.28247         2.08671
| 61>    F       -9.17458        -8.10664         2.45945
| 62>    C      -10.40077        -9.97571         3.08630
| 63>    F      -10.43655        -9.39505         4.30606
| 64>    C      -11.00416       -11.21221         2.89904
| 65>    C      -10.89424       -11.70280         1.57337
| 66>    C      -10.20284       -10.99239         0.54703
| 67>    N      -10.28444       -11.73370        -0.56685
| 68>    N      -10.97066       -12.78425        -0.21517
| 69>    N      -11.35758       -12.83454         1.02498
| 70>    C      -11.30233       -13.81654        -1.14651
| 71>    C      -11.63664       -11.96823         3.92996
| 72>    C      -12.06604       -13.27927         3.82006
| 73>    C      -12.56020       -13.76683         5.02476
| 74>    C      -12.52868       -12.81277         6.05566
| 75>    S      -11.88759       -11.31978         5.54616
| 76>    C      -13.01834       -13.42413         7.24423
| 77>    C      -13.34441       -14.75740         6.96171
| 78>    C      -13.06541       -15.02297         5.56242
| 79>    C      -13.20162       -16.19842         4.88489
| 80>    C      -13.69012       -17.37047         5.49994
| 81>    N      -14.09715       -18.32019         5.99645
| 82>    C      -12.85886       -16.31257         3.52092
| 83>    N      -12.58224       -16.40148         2.41144
| 84>    C      -13.81182       -15.44558         8.09574
| 85>    C      -13.82977       -14.63642         9.19253
| 86>    S      -13.28065       -13.02686         8.88297
| 87>    H       -9.22578       -11.77898         8.28360
| 88>    H       -8.68771       -13.66786         3.73026
| 89>    H       -8.19264        -9.69590         7.56730
| 90>    H       -7.54593       -11.56967         2.99367
| 91>    H       -5.62265        -5.75762         4.53312
| 92>    H       -4.05346        -4.78828         2.78978
| 93>    H       -5.11287        -5.64891        -1.31288
| 94>    H       -6.32039        -7.22923        -2.50385
| 95>    H       -9.40086       -10.20424        -1.89327
| 96>    H      -10.49415       -13.91543        -1.86833
| 97>    H      -12.21924       -13.55754        -1.67903
| 98>    H      -11.45711       -14.74314        -0.59734
| 99>    H      -11.99531       -13.82758         2.89954
|100>    H      -14.11456       -16.47649         8.10841
|101>    H      -14.13462       -14.89060        10.18807
|102> *
|103>
|104>                          ****END OF INPUT****

CARTESIAN COORDINATES (ANGSTROEM)
---------------------------------
  C     -9.095010  -12.177040    7.289690
  C     -9.530500  -13.439590    7.002770
  F    -10.121440  -14.182980    7.949860
  C     -9.384020  -13.974310    5.707220
  F     -9.847700  -15.207020    5.454080
  C     -8.791740  -13.243170    4.716420
  C     -8.318330  -11.943190    4.984230
  C     -8.482640  -11.394020    6.289200
  C     -8.041640  -10.082660    6.573210
  C     -7.441700   -9.342910    5.586270
  C     -7.264980   -9.905720    4.293180
  C     -7.688950  -11.167900    3.986060
  C     -6.578260   -8.937650    3.418660
  O     -6.130830   -9.164530    2.318930
  C     -6.429810   -7.691330    4.237190
  C     -6.906400   -7.985040    5.585430
  C     -6.909680   -7.134900    6.656100
  C     -6.417730   -5.810650    6.660950
  N     -6.044410   -4.728860    6.744710
  C     -7.412060   -7.473920    7.932980
  N     -7.794640   -7.688870    8.992790
  C     -5.878270   -6.524970    3.816430
  C     -5.618740   -6.179060    2.440710
  C     -4.668310   -5.282440    2.054120
  C     -4.450160   -5.023720    0.663120
  C     -3.498280   -4.118620    0.229360
  C     -3.287110   -3.858900   -1.135950
  N     -3.117380   -3.648760   -2.251720
  C     -2.688460   -3.403880    1.128820
  N     -2.026220   -2.825870    1.867400
  C     -5.264440   -5.772060   -0.253580
  C     -6.205750   -6.620120    0.227870
  O     -6.421000   -6.783960    1.548350
  C     -7.087060   -7.495340   -0.542220
  C     -7.029970   -7.739400   -1.873840
  C     -7.904490   -8.721090   -2.450880
  C     -7.902280   -9.008420   -3.803180
  C     -8.741840   -9.999010   -4.340280
  N     -9.426430  -10.816300   -4.767760
  C     -7.063670   -8.336720   -4.708230
  N     -6.376430   -7.783980   -5.443530
  C     -8.760220   -9.414980   -1.537340
  C     -8.758260   -9.089880   -0.218290
  O     -7.965720   -8.113980    0.273100
  C     -9.557250   -9.757060    0.789990
  C     -9.705610   -9.282470    2.086710
  F     -9.174580   -8.106640    2.459450
  C    -10.400770   -9.975710    3.086300
  F    -10.436550   -9.395050    4.306060
  C    -11.004160  -11.212210    2.899040
  C    -10.894240  -11.702800    1.573370
  C    -10.202840  -10.992390    0.547030
  N    -10.284440  -11.733700   -0.566850
  N    -10.970660  -12.784250   -0.215170
  N    -11.357580  -12.834540    1.024980
  C    -11.302330  -13.816540   -1.146510
  C    -11.636640  -11.968230    3.929960
  C    -12.066040  -13.279270    3.820060
  C    -12.560200  -13.766830    5.024760
  C    -12.528680  -12.812770    6.055660
  S    -11.887590  -11.319780    5.546160
  C    -13.018340  -13.424130    7.244230
  C    -13.344410  -14.757400    6.961710
  C    -13.065410  -15.022970    5.562420
  C    -13.201620  -16.198420    4.884890
  C    -13.690120  -17.370470    5.499940
  N    -14.097150  -18.320190    5.996450
  C    -12.858860  -16.312570    3.520920
  N    -12.582240  -16.401480    2.411440
  C    -13.811820  -15.445580    8.095740
  C    -13.829770  -14.636420    9.192530
  S    -13.280650  -13.026860    8.882970
  H     -9.225780  -11.778980    8.283600
  H     -8.687710  -13.667860    3.730260
  H     -8.192640   -9.695900    7.567300
  H     -7.545930  -11.569670    2.993670
  H     -5.622650   -5.757620    4.533120
  H     -4.053460   -4.788280    2.789780
  H     -5.112870   -5.648910   -1.312880
  H     -6.320390   -7.229230   -2.503850
  H     -9.400860  -10.204240   -1.893270
  H    -10.494150  -13.915430   -1.868330
  H    -12.219240  -13.557540   -1.679030
  H    -11.457110  -14.743140   -0.597340
  H    -11.995310  -13.827580    2.899540
  H    -14.114560  -16.476490    8.108410
  H    -14.134620  -14.890600   10.188070

 Total Charge           Charge          ....    0
 Multiplicity           Mult            ....    1
 Number of Electrons    NEL             ....  496
 Basis Dimension        Dim             .... 1091

ORBITAL ENERGIES
----------------

  NO   OCC          E(Eh)            E(eV)
   0   2.0000     -89.006215     -2421.9822
   1   2.0000     -88.998994     -2421.7857
   2   2.0000     -24.834900      -675.7920
   3   2.0000     -24.830892      -675.6829
   4   2.0000     -24.823368      -675.4782
   5   2.0000     -24.821307      -675.4221
   6   2.0000     -19.335719      -526.1517
   7   2.0000     -19.333583      -526.0936
   8   2.0000     -19.245420      -523.6945
   9   2.0000     -14.577509      -396.6742
  10   2.0000     -14.480433      -394.0326
  11   2.0000     -14.478519      -393.9805
  12   2.0000     -14.444291      -393.0492
  13   2.0000     -14.442490      -393.0001
  14   2.0000     -14.440766      -392.9532
  15   2.0000     -14.437670      -392.8690
  16   2.0000     -14.413533      -392.2122
  17   2.0000     -14.413252      -392.2045
  18   2.0000     -14.408047      -392.0629
  19   2.0000     -14.407068      -392.0363
  20   2.0000     -10.415378      -283.4168
  21   2.0000     -10.409911      -283.2681
  22   2.0000     -10.406604      -283.1781
  23   2.0000     -10.406308      -283.1700
  24   2.0000     -10.405884      -283.1585
  25   2.0000     -10.403831      -283.1026
  26   2.0000     -10.402944      -283.0785
  27   2.0000     -10.401608      -283.0421
  28   2.0000     -10.397737      -282.9368
  29   2.0000     -10.375231      -282.3244
  30   2.0000     -10.373087      -282.2661
  31   2.0000     -10.370348      -282.1915
  32   2.0000     -10.360656      -281.9278
  33   2.0000     -10.358144      -281.8594
  34   2.0000     -10.351102      -281.6678
  35   2.0000     -10.350644      -281.6553
  36   2.0000     -10.350353      -281.6474
  37   2.0000     -10.349952      -281.6365
  38   2.0000     -10.347550      -281.5712
  39   2.0000     -10.346863      -281.5524
  40   2.0000     -10.345143      -281.5056
  41   2.0000     -10.343896      -281.4717
  42   2.0000     -10.342943      -281.4458
  43   2.0000     -10.342776      -281.4413
  44   2.0000     -10.341985      -281.4197
  45   2.0000     -10.341226      -281.3991
  46   2.0000     -10.341167      -281.3975
  47   2.0000     -10.340704      -281.3849
  48   2.0000     -10.340022      -281.3663
  49   2.0000     -10.337765      -281.3049
  50   2.0000     -10.334664      -281.2205
  51   2.0000     -10.333670      -281.1934
  52   2.0000     -10.333139      -281.1790
  53   2.0000     -10.333097      -281.1779
  54   2.0000     -10.331983      -281.1475
  55   2.0000     -10.331974      -281.1473
  56   2.0000     -10.330517      -281.1077
  57   2.0000     -10.327081      -281.0142
  58   2.0000     -10.324951      -280.9562
  59   2.0000     -10.324087      -280.9327
  60   2.0000     -10.323688      -280.9218
  61   2.0000     -10.321225      -280.8548
  62   2.0000     -10.317369      -280.7499
  63   2.0000     -10.315715      -280.7049
  64   2.0000     -10.315093      -280.6879
  65   2.0000     -10.313760      -280.6517
  66   2.0000     -10.313558      -280.6462
  67   2.0000     -10.312722      -280.6234
  68   2.0000     -10.312018      -280.6043
  69   2.0000     -10.311285      -280.5843
  70   2.0000     -10.309769      -280.5431
  71   2.0000     -10.307883      -280.4917
  72   2.0000      -8.099709      -220.4043
  73   2.0000      -8.093916      -220.2466
  74   2.0000      -6.069030      -165.1467
  75   2.0000      -6.064666      -165.0280
  76   2.0000      -6.063165      -164.9871
  77   2.0000      -6.062239      -164.9619
  78   2.0000      -6.058694      -164.8654
  79   2.0000      -6.056587      -164.8081
  80   2.0000      -1.355170       -36.8761
  81   2.0000      -1.343718       -36.5644
  82   2.0000      -1.336549       -36.3693
  83   2.0000      -1.328611       -36.1533
  84   2.0000      -1.265939       -34.4479
  85   2.0000      -1.257646       -34.2223
  86   2.0000      -1.243051       -33.8251
  87   2.0000      -1.160753       -31.5857
  88   2.0000      -1.055975       -28.7345
  89   2.0000      -1.047048       -28.4916
  90   2.0000      -1.033205       -28.1149
  91   2.0000      -1.031475       -28.0679
  92   2.0000      -1.029366       -28.0105
  93   2.0000      -1.028248       -27.9801
  94   2.0000      -1.021305       -27.7911
  95   2.0000      -1.016496       -27.6603
  96   2.0000      -1.015216       -27.6254
  97   2.0000      -1.008923       -27.4542
  98   2.0000      -1.008841       -27.4519
  99   2.0000      -1.004725       -27.3400
 100   2.0000      -0.991963       -26.9927
 101   2.0000      -0.987619       -26.8745
 102   2.0000      -0.986006       -26.8306
 103   2.0000      -0.979562       -26.6552
 104   2.0000      -0.971030       -26.4231
 105   2.0000      -0.968745       -26.3609
 106   2.0000      -0.963062       -26.2063
 107   2.0000      -0.955183       -25.9919
 108   2.0000      -0.946236       -25.7484
 109   2.0000      -0.927790       -25.2464
 110   2.0000      -0.919046       -25.0085
 111   2.0000      -0.915334       -24.9075
 112   2.0000      -0.906533       -24.6680
 113   2.0000      -0.890967       -24.2445
 114   2.0000      -0.886403       -24.1202
 115   2.0000      -0.882778       -24.0216
 116   2.0000      -0.875385       -23.8204
 117   2.0000      -0.864474       -23.5235
 118   2.0000      -0.863735       -23.5034
 119   2.0000      -0.851116       -23.1601
 120   2.0000      -0.833106       -22.6700
 121   2.0000      -0.828570       -22.5465
 122   2.0000      -0.821003       -22.3406
 123   2.0000      -0.794527       -21.6202
 124   2.0000      -0.792698       -21.5704
 125   2.0000      -0.789414       -21.4811
 126   2.0000      -0.787413       -21.4266
 127   2.0000      -0.775191       -21.0940
 128   2.0000      -0.764245       -20.7962
 129   2.0000      -0.760507       -20.6945
 130   2.0000      -0.754084       -20.5197
 131   2.0000      -0.741628       -20.1807
 132   2.0000      -0.736130       -20.0311
 133   2.0000      -0.727616       -19.7994
 134   2.0000      -0.714695       -19.4478
 135   2.0000      -0.712726       -19.3943
 136   2.0000      -0.705774       -19.2051
 137   2.0000      -0.704746       -19.1771
 138   2.0000      -0.694964       -18.9109
 139   2.0000      -0.689809       -18.7707
 140   2.0000      -0.686222       -18.6731
 141   2.0000      -0.682309       -18.5666
 142   2.0000      -0.681967       -18.5573
 143   2.0000      -0.671212       -18.2646
 144   2.0000      -0.666728       -18.1426
 145   2.0000      -0.664139       -18.0721
 146   2.0000      -0.661173       -17.9914
 147   2.0000      -0.651968       -17.7410
 148   2.0000      -0.643961       -17.5231
 149   2.0000      -0.640499       -17.4289
 150   2.0000      -0.636946       -17.3322
 151   2.0000      -0.633123       -17.2282
 152   2.0000      -0.630910       -17.1679
 153   2.0000      -0.627553       -17.0766
 154   2.0000      -0.624691       -16.9987
 155   2.0000      -0.623336       -16.9618
 156   2.0000      -0.620700       -16.8901
 157   2.0000      -0.618044       -16.8178
 158   2.0000      -0.614465       -16.7204
 159   2.0000      -0.611404       -16.6372
 160   2.0000      -0.604958       -16.4617
 161   2.0000      -0.604052       -16.4371
 162   2.0000      -0.595742       -16.2110
 163   2.0000      -0.594044       -16.1648
 164   2.0000      -0.589072       -16.0295
 165   2.0000      -0.587477       -15.9861
 166   2.0000      -0.584139       -15.8952
 167   2.0000      -0.578651       -15.7459
 168   2.0000      -0.576552       -15.6888
 169   2.0000      -0.576234       -15.6801
 170   2.0000      -0.571718       -15.5572
 171   2.0000      -0.568276       -15.4636
 172   2.0000      -0.563026       -15.3207
 173   2.0000      -0.559859       -15.2345
 174   2.0000      -0.557518       -15.1708
 175   2.0000      -0.554878       -15.0990
 176   2.0000      -0.552316       -15.0293
 177   2.0000      -0.548401       -14.9228
 178   2.0000      -0.545795       -14.8518
 179   2.0000      -0.539908       -14.6916
 180   2.0000      -0.538345       -14.6491
 181   2.0000      -0.533295       -14.5117
 182   2.0000      -0.531338       -14.4584
 183   2.0000      -0.526434       -14.3250
 184   2.0000      -0.524166       -14.2633
 185   2.0000      -0.520972       -14.1764
 186   2.0000      -0.517095       -14.0709
 187   2.0000      -0.516306       -14.0494
 188   2.0000      -0.511357       -13.9147
 189   2.0000      -0.509502       -13.8642
 190   2.0000      -0.508287       -13.8312
 191   2.0000      -0.505248       -13.7485
 192   2.0000      -0.505005       -13.7419
 193   2.0000      -0.503458       -13.6998
 194   2.0000      -0.499884       -13.6025
 195   2.0000      -0.494386       -13.4529
 196   2.0000      -0.492526       -13.4023
 197   2.0000      -0.487876       -13.2758
 198   2.0000      -0.487473       -13.2648
 199   2.0000      -0.484563       -13.1856
 200   2.0000      -0.475605       -12.9419
 201   2.0000      -0.474303       -12.9064
 202   2.0000      -0.472210       -12.8495
 203   2.0000      -0.471660       -12.8345
 204   2.0000      -0.469824       -12.7846
 205   2.0000      -0.469167       -12.7667
 206   2.0000      -0.465995       -12.6804
 207   2.0000      -0.461108       -12.5474
 208   2.0000      -0.459444       -12.5021
 209   2.0000      -0.454643       -12.3715
 210   2.0000      -0.453378       -12.3370
 211   2.0000      -0.450501       -12.2587
 212   2.0000      -0.450294       -12.2531
 213   2.0000      -0.449119       -12.2212
 214   2.0000      -0.447574       -12.1791
 215   2.0000      -0.445889       -12.1333
 216   2.0000      -0.443153       -12.0588
 217   2.0000      -0.441905       -12.0248
 218   2.0000      -0.441724       -12.0199
 219   2.0000      -0.437326       -11.9002
 220   2.0000      -0.435595       -11.8531
 221   2.0000      -0.435407       -11.8480
 222   2.0000      -0.434438       -11.8216
 223   2.0000      -0.430051       -11.7023
 224   2.0000      -0.429483       -11.6868
 225   2.0000      -0.426346       -11.6015
 226   2.0000      -0.425963       -11.5911
 227   2.0000      -0.424356       -11.5473
 228   2.0000      -0.422546       -11.4981
 229   2.0000      -0.421006       -11.4562
 230   2.0000      -0.413609       -11.2549
 231   2.0000      -0.412089       -11.2135
 232   2.0000      -0.409132       -11.1330
 233   2.0000      -0.407791       -11.0965
 234   2.0000      -0.405953       -11.0466
 235   2.0000      -0.390096       -10.6151
 236   2.0000      -0.382812       -10.4168
 237   2.0000      -0.367894       -10.0109
 238   2.0000      -0.360886        -9.8202
 239   2.0000      -0.356886        -9.7114
 240   2.0000      -0.354946        -9.6586
 241   2.0000      -0.341204        -9.2846
 242   2.0000      -0.336291        -9.1509
 243   2.0000      -0.331892        -9.0313
 244   2.0000      -0.320223        -8.7137
 245   2.0000      -0.303704        -8.2642
 246   2.0000      -0.290575        -7.9069
 247   2.0000      -0.276463        -7.5229
 248   0.0000      -0.131318        -3.5733
 249   0.0000      -0.115951        -3.1552
 250   0.0000      -0.098259        -2.6738
 251   0.0000      -0.089975        -2.4483
 252   0.0000      -0.081770        -2.2251

MULLIKEN ATOMIC CHARGES
-----------------------
   0 C :   -0.124778
   1 C :    0.277865
   2 F :   -0.169124
   3 C :    0.224521
   4 F :   -0.171804
   5 C :   -0.065626
   6 C :    0.087897
   7 C :    0.145516
   8 C :   -0.099065
   9 C :    0.082281
  10 C :   -0.029903
  11 C :   -0.081243
  12 C :    0.156230
  13 O :   -0.134164
  14 C :   -0.039617
  15 C :    0.314144
  16 C :   -0.338285
  17 C :   -0.187757
  18 N :    0.170617
  19 C :   -0.174529
  20 N :    0.161431
  21 C :   -0.047703
  22 C :    0.207723
  23 C :   -0.101328
  24 C :    0.267266
  25 C :   -0.330982
  26 C :   -0.169321
  27 N :    0.149148
  28 C :   -0.176770
  29 N :    0.146887
  30 C :   -0.117104
  31 C :    0.214583
  32 O :   -0.185533
  33 C :    0.226637
  34 C :   -0.126691
  35 C :    0.293411
  36 C :   -0.350542
  37 C :   -0.164014
  38 N :    0.127185
  39 C :   -0.170293
  40 N :    0.143235
  41 C :   -0.159506
  42 C :    0.159951
  43 O :   -0.198378
  44 C :    0.026221
  45 C :    0.152345
  46 F :   -0.163112
  47 C :    0.126591
  48 F :   -0.183554
  49 C :    0.129429
  50 C :   -0.064216
  51 C :   -0.001781
  52 N :   -0.056790
  53 N :   -0.055362
  54 N :   -0.051919
  55 C :    0.133671
  56 C :   -0.155124
  57 C :   -0.070596
  58 C :    0.040051
  59 C :   -0.113455
  60 S :    0.206993
  61 C :   -0.123144
  62 C :   -0.022268
  63 C :    0.301454
  64 C :   -0.297867
  65 C :   -0.193460
  66 N :    0.181219
  67 C :   -0.184662
  68 N :    0.170059
  69 C :    0.039700
  70 C :   -0.073596
  71 S :    0.187802
  72 H :    0.005702
  73 H :    0.001056
  74 H :   -0.007349
  75 H :   -0.011819
  76 H :    0.043825
  77 H :    0.043951
  78 H :    0.040922
  79 H :    0.038214
  80 H :    0.037779
  81 H :    0.068988
  82 H :    0.067445
  83 H :    0.072295
  84 H :    0.017254
  85 H :    0.014728
  86 H :    0.039910
Sum of atomic charges:   -0.0000000

LOEWDIN ATOMIC CHARGES
----------------------
   0 C :   -0.035655
   1 C :    0.066036
   2 F :   -0.044074
   3 C :    0.069016
   4 F :   -0.044000
   5 C :   -0.024528
   6 C :   -0.011472
   7 C :   -0.006229
   8 C :    0.020780
   9 C :   -0.021342
  10 C :   -0.058938
  11 C :    0.028485
  12 C :    0.076193
  13 O :   -0.130907
  14 C :   -0.045823
  15 C :    0.071227
  16 C :   -0.116148
  17 C :   -0.022690
  18 N :   -0.028949
  19 C :   -0.015420
  20 N :   -0.036156
  21 C :    0.046112
  22 C :    0.074205
  23 C :   -0.010125
  24 C :    0.048292
  25 C :   -0.155162
  26 C :   -0.032123
  27 N :   -0.047366
  28 C :   -0.031049
  29 N :   -0.050732
  30 C :   -0.024302
  31 C :    0.079299
  32 O :    0.031753
  33 C :    0.073709
  34 C :   -0.020150
  35 C :    0.052754
  36 C :   -0.166478
  37 C :   -0.025906
  38 N :   -0.065829
  39 C :   -0.033573
  40 N :   -0.056350
  41 C :   -0.037046
  42 C :    0.090101
  43 O :    0.019737
  44 C :   -0.077272
  45 C :    0.080562
  46 F :   -0.035469
  47 C :    0.047110
  48 F :   -0.054393
  49 C :   -0.045240
  50 C :   -0.049221
  51 C :   -0.037417
  52 N :   -0.078868
  53 N :    0.169352
  54 N :   -0.071324
  55 C :    0.037333
  56 C :   -0.178693
  57 C :   -0.010926
  58 C :   -0.075741
  59 C :   -0.176906
  60 S :    0.501522
  61 C :   -0.191785
  62 C :   -0.066701
  63 C :    0.081503
  64 C :   -0.099663
  65 C :   -0.017886
  66 N :   -0.028806
  67 C :   -0.010895
  68 N :   -0.039434
  69 C :   -0.031706
  70 C :   -0.169151
  71 S :    0.484554
  72 H :    0.047129
  73 H :    0.045642
  74 H :    0.040323
  75 H :    0.039371
  76 H :    0.055003
  77 H :    0.056564
  78 H :    0.054459
  79 H :    0.053282
  80 H :    0.046331
  81 H :    0.049155
  82 H :    0.048089
  83 H :    0.049969
  84 H :    0.037267
  85 H :    0.044026
  86 H :    0.029778

  Mayer bond orders larger than 0.100000
B(  0-C ,  1-C ) :   1.4423 B(  0-C ,  5-C ) :   0.1085 B(  0-C ,  7-C ) :   1.1723
B(  0-C , 72-H ) :   1.0113 B(  1-C ,  2-F ) :   1.1165 B(  1-C ,  3-C ) :   1.1892
B(  3-C ,  4-F ) :   1.1099 B(  3-C ,  5-C ) :   1.4481 B(  5-C ,  6-C ) :   1.1930
B(  5-C , 73-H ) :   1.0083 B(  6-C ,  7-C ) :   1.2642 B(  6-C , 11-C ) :   1.1882
B(  7-C ,  8-C ) :   1.2190 B(  8-C ,  9-C ) :   1.4246 B(  8-C , 74-H ) :   0.9892
B(  9-C , 10-C ) :   1.2268 B(  9-C , 15-C ) :   0.9945 B( 10-C , 11-C ) :   1.4483
B( 10-C , 12-C ) :   0.9376 B( 11-C , 75-H ) :   1.0267 B( 12-C , 13-O ) :   2.2507
B( 12-C , 14-C ) :   0.9045 B( 14-C , 15-C ) :   1.0493 B( 14-C , 21-C ) :   1.6808
B( 15-C , 16-C ) :   1.6583 B( 16-C , 17-C ) :   1.1378 B( 16-C , 19-C ) :   1.1439
B( 17-C , 18-N ) :   2.9630 B( 19-C , 20-N ) :   2.9604 B( 21-C , 22-C ) :   1.0723
B( 21-C , 76-H ) :   0.9394 B( 22-C , 23-C ) :   1.5387 B( 22-C , 32-O ) :   1.1317
B( 23-C , 24-C ) :   1.1065 B( 23-C , 77-H ) :   0.9747 B( 24-C , 25-C ) :   1.5671
B( 24-C , 30-C ) :   1.1185 B( 25-C , 26-C ) :   1.1293 B( 25-C , 28-C ) :   1.1344
B( 26-C , 27-N ) :   3.0062 B( 28-C , 29-N ) :   3.0088 B( 30-C , 31-C ) :   1.6256
B( 30-C , 78-H ) :   0.9570 B( 31-C , 32-O ) :   1.1455 B( 31-C , 33-C ) :   0.9602
B( 33-C , 34-C ) :   1.6336 B( 33-C , 43-O ) :   1.1383 B( 34-C , 35-C ) :   1.1157
B( 34-C , 79-H ) :   0.9568 B( 35-C , 36-C ) :   1.5568 B( 35-C , 41-C ) :   1.0910
B( 36-C , 37-C ) :   1.1365 B( 36-C , 39-C ) :   1.1239 B( 37-C , 38-N ) :   2.9984
B( 39-C , 40-N ) :   3.0084 B( 41-C , 42-C ) :   1.5958 B( 41-C , 80-H ) :   0.9491
B( 42-C , 43-O ) :   1.1592 B( 42-C , 44-C ) :   1.0002 B( 44-C , 45-C ) :   1.3586
B( 44-C , 49-C ) :   0.1311 B( 44-C , 51-C ) :   1.2145 B( 45-C , 46-F ) :   1.1580
B( 45-C , 47-C ) :   1.1755 B( 47-C , 48-F ) :   1.1063 B( 47-C , 49-C ) :   1.3715
B( 49-C , 50-C ) :   1.1742 B( 49-C , 56-C ) :   1.1507 B( 50-C , 51-C ) :   1.2243
B( 50-C , 54-N ) :   1.4680 B( 51-C , 52-N ) :   1.4743 B( 52-N , 53-N ) :   1.2337
B( 52-N , 54-N ) :   0.1545 B( 53-N , 54-N ) :   1.2473 B( 53-N , 55-C ) :   0.9427
B( 55-C , 81-H ) :   0.9657 B( 55-C , 82-H ) :   0.9682 B( 55-C , 83-H ) :   0.9641
B( 56-C , 57-C ) :   1.4462 B( 56-C , 60-S ) :   1.0890 B( 57-C , 58-C ) :   1.2551
B( 57-C , 84-H ) :   0.9855 B( 58-C , 59-C ) :   1.4401 B( 58-C , 63-C ) :   0.9926
B( 59-C , 60-S ) :   1.1269 B( 59-C , 61-C ) :   1.1832 B( 61-C , 62-C ) :   1.4543
B( 61-C , 71-S ) :   1.1289 B( 62-C , 63-C ) :   1.0166 B( 62-C , 69-C ) :   1.2837
B( 63-C , 64-C ) :   1.7142 B( 64-C , 65-C ) :   1.1285 B( 64-C , 67-C ) :   1.1402
B( 65-C , 66-N ) :   3.0056 B( 67-C , 68-N ) :   2.9857 B( 69-C , 70-C ) :   1.5417
B( 69-C , 85-H ) :   0.9949 B( 70-C , 71-S ) :   1.1597 B( 70-C , 86-H ) :   0.9640

-----------------------------------------------------------------------------
         ABSORPTION SPECTRUM VIA TRANSITION ELECTRIC DIPOLE MOMENTS
-----------------------------------------------------------------------------
State   Energy  Wavelength   fosc         T2         TX        TY        TZ
        (cm-1)    (nm)                  (au**2)     (au)      (au)      (au)
-----------------------------------------------------------------------------
   0   15999.6    625.0   0.115372774   2.37394   0.61784   0.75803  -1.19064
   1   17986.4    556.0   0.046222034   0.84602   0.53876   0.39594  -0.63166
   2   19860.4    503.5   0.244387294   4.05105   1.28369   1.42575  -0.60862
   3   22510.6    444.2   0.015676867   0.22927  -0.41906  -0.23052   0.02283
   4   22867.7    437.3   1.106977373  15.93649  -1.46773  -1.53912   3.37837
   5   24839.6    402.6   0.072230597   0.95731  -0.28824  -0.74508  -0.56488
   6   25391.9    393.8   0.002415033   0.03131   0.15565   0.01720  -0.08240
   7   25690.7    389.2   0.080381237   1.03004   0.05388   0.32613   0.95957
   8   25746.7    388.4   0.103954740   1.32923  -0.72440  -0.88570  -0.14147
   9   26044.7    384.0   0.255965353   3.23547  -1.23273  -1.28856  -0.23554
  10   27345.7    365.7   0.126875462   1.52744   0.77164   0.96432   0.04581
  11   27574.3    362.7   0.014766886   0.17630   0.13820  -0.25863  -0.30052
  12   27864.8    358.9   0.110890476   1.31013  -0.53204  -0.93393   0.39351
  13   28992.2    344.9   0.318080306   3.61187   0.55725   0.66943  -1.68914
  14   29471.8    339.3   0.008159052   0.09114  -0.14858  -0.26065  -0.03354
  15   29928.9    334.1   0.198519557   2.18368  -0.66639  -1.31110  -0.14361
  16   30206.6    331.1   0.093151123   1.01522  -0.49696  -0.80058   0.35683
  17   30761.0    325.1   0.003925942   0.04202  -0.06350  -0.13144   0.14391
  18   31195.1    320.6   0.277027634   2.92356   0.44272   1.57913   0.48365
  19   31603.7    316.4   0.074745636   0.77862   0.17628  -0.85096  -0.15300
  20   31816.2    314.3   0.128683526   1.33153   0.71156   0.23643  -0.87710
  21   31949.7    313.0   0.254479919   2.62218  -0.36450  -0.03958   1.57726
  22   32203.1    310.5   0.083136113   0.84990   0.17428   0.85292   0.30342
  23   32457.9    308.1   0.045694301   0.46347  -0.21985  -0.48818   0.42049
  24   32754.0    305.3   0.204991498   2.06038  -0.44786  -1.05465  -0.86459
  25   32991.8    303.1   0.098439148   0.98229  -0.08726  -0.45885  -0.87415
  26   33396.2    299.4   0.106624585   1.05108  -0.23185  -0.99821  -0.03004
  27   33733.0    296.4   0.016609397   0.16210  -0.10868  -0.34221   0.18215
  28   33818.6    295.7   0.122981764   1.19718  -0.40388  -0.89273   0.48693
  29   34129.7    293.0   0.123573767   1.19198  -0.17615  -0.65509   0.85545
  30   34551.7    289.4   0.147315382   1.40363  -0.27099  -1.08838   0.38161
  31   35397.5    282.5   0.222119303   2.06580   0.49484   1.33781   0.17668
  32   35837.5    279.0   0.336182405   3.08825  -1.05496  -1.33486   0.43984
  33   36277.6    275.7   0.033236319   0.30161   0.45968   0.15407   0.25801
  34   36342.2    275.2   0.172712144   1.56454  -0.36819  -0.89706  -0.79010
  35   36413.2    274.6   0.004247536   0.03840   0.01035  -0.08199  -0.17769
  36   36784.7    271.9   0.024932787   0.22314   0.09518   0.08560  -0.45470
  37   37077.4    269.7   0.261846389   2.32495   0.13170  -0.51525  -1.42903
  38   37294.9    268.1   0.038009085   0.33552   0.21474   0.25349  -0.47449
  39   37481.7    266.8   0.228944887   2.01088  -0.14936  -0.80057  -1.16089
  40   37701.6    265.2   0.064959746   0.56723   0.27275   0.50156   0.49120
  41   38436.9    260.2   0.027070395   0.23186  -0.11347  -0.46120   0.07923
  42   38611.8    259.0   0.175376475   1.49530  -0.78893  -0.21836   0.90840
  43   38941.3    256.8   0.032849729   0.27771   0.03080   0.13661  -0.50804
  44   39256.8    254.7   0.009881248   0.08287  -0.05195  -0.21945  -0.17891
  45   39574.4    252.7   0.036428475   0.30304   0.23563   0.43569  -0.24020
  46   39764.3    251.5   0.005496199   0.04550  -0.10074   0.12657  -0.13905
  47   39921.2    250.5   0.071766483   0.59183   0.15015  -0.13357  -0.74259
  48   40134.5    249.2   0.160948190   1.32021  -0.63901  -0.94200   0.15655

FINAL SINGLE POINT ENERGY     -4009.833701512038

DIPOLE MOMENT
-------------
                                X             Y             Z
Electronic contribution:     -3.36677       4.11305      16.45722
Nuclear contribution   :      0.40644      -6.79085     -12.85411
                        -----------------------------------------
Total Dipole Moment    :     -2.96033      -2.67780       3.60311
                        -----------------------------------------
Magnitude (a.u.)       :      5.37741
Magnitude (Debye)      :     13.66830

Rotational constants in cm-1:     0.001673     0.000655     0.000498
Rotational constants in MHz :    50.147927    19.638292    14.931513

                             ****ORCA TERMINATED NORMALLY****
TOTAL RUN TIME: 0 days 0 hours 9 minutes 45 seconds 965 msec
