                         Program Version 4.2.0 -  RELEASE  -
|  1> # ORCA input file
|  2> # SCF done       -187.320535794536          0.000967775209
|  3> ! CAM-B3LYP def2-SVP def2/J RIJCOSX Grid4 TightSCF
|  4> %maxcore 5000
|  5> %tddft
|  6>     Mode sTDDFT
|  7>     Ethresh 5.0
|  8>     maxcore 5000
|  9> end
| 10>
| 11> %pal
| 12>   nprocs 6
| 13>   end
| 14> * xyz 0 1
| 15>    C       -6.22920         2.83250         8.26912
| 16>    C       -5.45187         3.95007         8.27621
| 17>    C       -5.08743         4.32793         6.96899
| 18>    C       -5.60971         3.46891         5.99934
| 19>    S       -6.53717         2.21126         6.68077
| 20>    C       -5.18746         3.92706         4.71101
| 21>    C       -4.40475         5.06945         4.88571
| 22>    C       -4.31037         5.36298         6.30676
| 23>    C       -3.62741         6.38960         6.89300
| 24>    C       -2.89478         7.33352         6.14739
| 25>    N       -2.29024         8.11120         5.55874
| 26>    C       -3.60194         6.57465         8.29137
| 27>    N       -3.58536         6.73629         9.42660
| 28>    C       -3.93689         5.59661         3.66949
| 29>    C       -4.36425         4.85883         2.60249
| 30>    S       -5.34922         3.50099         3.06780
| 31>    C       -4.04458         5.09872         1.15687
| 32>    C       -2.56829         4.97668         0.93531
| 33>    N       -1.90642         3.87480         1.21953
| 34>    S       -0.33497         4.09592         0.88715
| 35>    N       -0.46768         5.62225         0.36515
| 36>    C       -1.72612         6.00083         0.43405
| 37>    C       -2.17039         7.37376         0.03721
| 38>    C       -3.64953         7.48332         0.22303
| 39>    C       -4.49281         6.46287         0.73306
| 40>    N       -5.75169         6.83992         0.80423
| 41>    S       -5.88373         8.36589         0.27358
| 42>    N       -4.31492         8.58064        -0.06932
| 43>    C       -1.43541         8.41262         0.85047
| 44>    C       -0.54494         9.26627         0.29727
| 45>    C        0.19375        10.21463         1.03019
| 46>    C        0.04782        10.33279         2.48339
| 47>    C       -0.79204         9.57849         3.22565
| 48>    S       -1.80364         8.36837         2.55968
| 49>    C        0.96434        11.35223         2.86675
| 50>    C        1.64367        11.82773         1.74418
| 51>    C        2.55288        12.85586         2.07743
| 52>    C        2.54637        13.11920         3.41113
| 53>    S        1.44208        12.14292         4.31627
| 54>    C        1.16499        11.11480         0.58449
| 55>    C        1.56585        11.23729        -0.77194
| 56>    C        2.67571        11.84276        -1.24487
| 57>    C        2.98984        11.83944        -2.64985
| 58>    C        4.25373        11.78867        -3.16296
| 59>    F        5.38870        11.83542        -2.46380
| 60>    S        4.33566        11.58172        -4.88459
| 61>    C        2.61032        11.56929        -4.92070
| 62>    F        1.99177        11.49560        -6.10011
| 63>    C        2.00682        11.75367        -3.70506
| 64>    C        0.60594        12.00787        -3.51105
| 65>    C       -0.39997        11.51768        -4.27094
| 66>    C       -1.73674        11.97417        -4.14860
| 67>    C       -2.82909        11.44339        -4.76638
| 68>    C       -4.03918        12.26616        -5.03415
| 69>    O       -4.33081        13.32262        -4.52385
| 70>    C       -4.75900        11.54287        -6.10438
| 71>    C       -5.85332        11.93297        -6.82007
| 72>    C       -6.35279        11.08462        -7.83460
| 73>    C       -5.70581         9.83975        -8.08790
| 74>    C       -6.20550         9.00394        -9.10517
| 75>    C       -7.29696         9.40246        -9.82576
| 76>    C       -7.94659        10.62212        -9.59270
| 77>    C       -7.47499        11.44524        -8.60800
| 78>    F       -7.77550         8.60515       -10.79780
| 79>    C       -4.57777         9.45630        -7.32527
| 80>    C       -4.11367        10.29538        -6.34948
| 81>    C       -3.00120        10.16630        -5.41575
| 82>    C       -2.39130         8.99588        -5.03974
| 83>    C       -1.55475         8.90139        -3.91213
| 84>    N       -0.92875         8.76265        -2.95874
| 85>    C       -2.64716         7.74803        -5.64181
| 86>    N       -2.81474         6.71100        -6.10448
| 87>    H       -6.65145         2.31985         9.10990
| 88>    H       -5.16034         4.46933         9.17074
| 89>    H       -3.31925         6.47059         3.57693
| 90>    H       -4.56817         4.34179         0.55970
| 91>    H       -1.91669         7.55021        -1.01625
| 92>    H       -0.39327         9.20054        -0.77022
| 93>    H       -0.89123         9.66687         4.29545
| 94>    H        3.17643        13.38646         1.38151
| 95>    H        3.13445        13.84487         3.93837
| 96>    H        0.92481        10.73249        -1.48402
| 97>    H        3.42349        12.24469        -0.57920
| 98>    H        0.37084        12.66894        -2.68633
| 99>    H       -0.18394        10.78277        -5.03457
|100>    H       -1.89702        12.90525        -3.61629
|101>    H       -6.33227        12.87948        -6.61881
|102>    H       -5.73140         8.05694        -9.31086
|103>    H       -8.80224        10.88455       -10.19437
|104>    H       -7.95869        12.39001        -8.41045
|105>    H       -4.09816         8.51430        -7.54162
|106> *
|107>
|108>                          ****END OF INPUT****

CARTESIAN COORDINATES (ANGSTROEM)
---------------------------------
  C     -6.229200    2.832500    8.269120
  C     -5.451870    3.950070    8.276210
  C     -5.087430    4.327930    6.968990
  C     -5.609710    3.468910    5.999340
  S     -6.537170    2.211260    6.680770
  C     -5.187460    3.927060    4.711010
  C     -4.404750    5.069450    4.885710
  C     -4.310370    5.362980    6.306760
  C     -3.627410    6.389600    6.893000
  C     -2.894780    7.333520    6.147390
  N     -2.290240    8.111200    5.558740
  C     -3.601940    6.574650    8.291370
  N     -3.585360    6.736290    9.426600
  C     -3.936890    5.596610    3.669490
  C     -4.364250    4.858830    2.602490
  S     -5.349220    3.500990    3.067800
  C     -4.044580    5.098720    1.156870
  C     -2.568290    4.976680    0.935310
  N     -1.906420    3.874800    1.219530
  S     -0.334970    4.095920    0.887150
  N     -0.467680    5.622250    0.365150
  C     -1.726120    6.000830    0.434050
  C     -2.170390    7.373760    0.037210
  C     -3.649530    7.483320    0.223030
  C     -4.492810    6.462870    0.733060
  N     -5.751690    6.839920    0.804230
  S     -5.883730    8.365890    0.273580
  N     -4.314920    8.580640   -0.069320
  C     -1.435410    8.412620    0.850470
  C     -0.544940    9.266270    0.297270
  C      0.193750   10.214630    1.030190
  C      0.047820   10.332790    2.483390
  C     -0.792040    9.578490    3.225650
  S     -1.803640    8.368370    2.559680
  C      0.964340   11.352230    2.866750
  C      1.643670   11.827730    1.744180
  C      2.552880   12.855860    2.077430
  C      2.546370   13.119200    3.411130
  S      1.442080   12.142920    4.316270
  C      1.164990   11.114800    0.584490
  C      1.565850   11.237290   -0.771940
  C      2.675710   11.842760   -1.244870
  C      2.989840   11.839440   -2.649850
  C      4.253730   11.788670   -3.162960
  F      5.388700   11.835420   -2.463800
  S      4.335660   11.581720   -4.884590
  C      2.610320   11.569290   -4.920700
  F      1.991770   11.495600   -6.100110
  C      2.006820   11.753670   -3.705060
  C      0.605940   12.007870   -3.511050
  C     -0.399970   11.517680   -4.270940
  C     -1.736740   11.974170   -4.148600
  C     -2.829090   11.443390   -4.766380
  C     -4.039180   12.266160   -5.034150
  O     -4.330810   13.322620   -4.523850
  C     -4.759000   11.542870   -6.104380
  C     -5.853320   11.932970   -6.820070
  C     -6.352790   11.084620   -7.834600
  C     -5.705810    9.839750   -8.087900
  C     -6.205500    9.003940   -9.105170
  C     -7.296960    9.402460   -9.825760
  C     -7.946590   10.622120   -9.592700
  C     -7.474990   11.445240   -8.608000
  F     -7.775500    8.605150  -10.797800
  C     -4.577770    9.456300   -7.325270
  C     -4.113670   10.295380   -6.349480
  C     -3.001200   10.166300   -5.415750
  C     -2.391300    8.995880   -5.039740
  C     -1.554750    8.901390   -3.912130
  N     -0.928750    8.762650   -2.958740
  C     -2.647160    7.748030   -5.641810
  N     -2.814740    6.711000   -6.104480
  H     -6.651450    2.319850    9.109900
  H     -5.160340    4.469330    9.170740
  H     -3.319250    6.470590    3.576930
  H     -4.568170    4.341790    0.559700
  H     -1.916690    7.550210   -1.016250
  H     -0.393270    9.200540   -0.770220
  H     -0.891230    9.666870    4.295450
  H      3.176430   13.386460    1.381510
  H      3.134450   13.844870    3.938370
  H      0.924810   10.732490   -1.484020
  H      3.423490   12.244690   -0.579200
  H      0.370840   12.668940   -2.686330
  H     -0.183940   10.782770   -5.034570
  H     -1.897020   12.905250   -3.616290
  H     -6.332270   12.879480   -6.618810
  H     -5.731400    8.056940   -9.310860
  H     -8.802240   10.884550  -10.194370
  H     -7.958690   12.390010   -8.410450
  H     -4.098160    8.514300   -7.541620

 Total Charge           Charge          ....    0
 Multiplicity           Mult            ....    1
 Number of Electrons    NEL             ....  540
 Basis Dimension        Dim             .... 1131

ORBITAL ENERGIES
----------------

  NO   OCC          E(Eh)            E(eV)
   0   2.0000     -89.011525     -2422.1267
   1   2.0000     -89.009492     -2422.0714
   2   2.0000     -88.983377     -2421.3608
   3   2.0000     -88.983156     -2421.3548
   4   2.0000     -88.979574     -2421.2573
   5   2.0000     -88.960118     -2420.7279
   6   2.0000     -88.940501     -2420.1941
   7   2.0000     -24.812579      -675.1846
   8   2.0000     -24.799051      -674.8165
   9   2.0000     -24.787550      -674.5035
  10   2.0000     -19.213377      -522.8226
  11   2.0000     -14.437781      -392.8720
  12   2.0000     -14.436378      -392.8338
  13   2.0000     -14.435741      -392.8165
  14   2.0000     -14.433923      -392.7670
  15   2.0000     -14.433329      -392.7509
  16   2.0000     -14.425105      -392.5271
  17   2.0000     -14.425087      -392.5266
  18   2.0000     -14.419589      -392.3770
  19   2.0000     -10.390495      -282.7397
  20   2.0000     -10.375214      -282.3239
  21   2.0000     -10.371214      -282.2151
  22   2.0000     -10.365671      -282.0643
  23   2.0000     -10.358394      -281.8662
  24   2.0000     -10.348105      -281.5862
  25   2.0000     -10.346813      -281.5511
  26   2.0000     -10.344419      -281.4859
  27   2.0000     -10.335665      -281.2477
  28   2.0000     -10.329882      -281.0904
  29   2.0000     -10.329670      -281.0846
  30   2.0000     -10.327887      -281.0361
  31   2.0000     -10.327507      -281.0257
  32   2.0000     -10.326005      -280.9849
  33   2.0000     -10.325659      -280.9755
  34   2.0000     -10.324591      -280.9464
  35   2.0000     -10.322283      -280.8836
  36   2.0000     -10.322168      -280.8805
  37   2.0000     -10.319768      -280.8152
  38   2.0000     -10.316183      -280.7176
  39   2.0000     -10.316139      -280.7164
  40   2.0000     -10.308623      -280.5119
  41   2.0000     -10.307991      -280.4947
  42   2.0000     -10.307793      -280.4893
  43   2.0000     -10.307202      -280.4732
  44   2.0000     -10.306427      -280.4521
  45   2.0000     -10.306155      -280.4447
  46   2.0000     -10.304516      -280.4001
  47   2.0000     -10.303006      -280.3590
  48   2.0000     -10.301238      -280.3109
  49   2.0000     -10.301080      -280.3066
  50   2.0000     -10.299308      -280.2584
  51   2.0000     -10.296545      -280.1832
  52   2.0000     -10.296240      -280.1749
  53   2.0000     -10.294589      -280.1300
  54   2.0000     -10.293680      -280.1053
  55   2.0000     -10.293165      -280.0913
  56   2.0000     -10.292709      -280.0788
  57   2.0000     -10.291396      -280.0431
  58   2.0000     -10.291009      -280.0326
  59   2.0000     -10.289872      -280.0016
  60   2.0000     -10.289362      -279.9878
  61   2.0000     -10.288672      -279.9690
  62   2.0000     -10.280282      -279.7407
  63   2.0000     -10.278111      -279.6816
  64   2.0000     -10.268959      -279.4326
  65   2.0000     -10.268823      -279.4289
  66   2.0000     -10.268705      -279.4257
  67   2.0000     -10.266928      -279.3773
  68   2.0000     -10.265437      -279.3367
  69   2.0000     -10.259721      -279.1812
  70   2.0000     -10.256842      -279.1029
  71   2.0000     -10.254983      -279.0523
  72   2.0000      -8.104205      -220.5266
  73   2.0000      -8.102158      -220.4709
  74   2.0000      -8.078166      -219.8181
  75   2.0000      -8.078033      -219.8145
  76   2.0000      -8.076602      -219.7755
  77   2.0000      -8.054013      -219.1608
  78   2.0000      -8.035831      -218.6661
  79   2.0000      -6.075721      -165.3288
  80   2.0000      -6.073673      -165.2730
  81   2.0000      -6.068137      -165.1224
  82   2.0000      -6.066091      -165.0667
  83   2.0000      -6.065605      -165.0535
  84   2.0000      -6.063560      -164.9979
  85   2.0000      -6.047398      -164.5581
  86   2.0000      -6.047125      -164.5506
  87   2.0000      -6.045780      -164.5140
  88   2.0000      -6.043045      -164.4396
  89   2.0000      -6.042948      -164.4370
  90   2.0000      -6.042141      -164.4150
  91   2.0000      -6.040820      -164.3791
  92   2.0000      -6.040656      -164.3746
  93   2.0000      -6.038061      -164.3040
  94   2.0000      -6.023528      -163.9085
  95   2.0000      -6.019122      -163.7886
  96   2.0000      -6.016204      -163.7092
  97   2.0000      -6.005231      -163.4106
  98   2.0000      -6.001053      -163.2970
  99   2.0000      -5.997921      -163.2117
 100   2.0000      -1.327143       -36.1134
 101   2.0000      -1.313709       -35.7478
 102   2.0000      -1.302482       -35.4423
 103   2.0000      -1.128623       -30.7114
 104   2.0000      -1.123740       -30.5785
 105   2.0000      -1.118649       -30.4400
 106   2.0000      -1.037793       -28.2398
 107   2.0000      -1.024161       -27.8689
 108   2.0000      -1.020676       -27.7740
 109   2.0000      -1.006105       -27.3775
 110   2.0000      -1.004789       -27.3417
 111   2.0000      -1.000211       -27.2171
 112   2.0000      -0.999504       -27.1979
 113   2.0000      -0.995107       -27.0782
 114   2.0000      -0.989625       -26.9291
 115   2.0000      -0.981387       -26.7049
 116   2.0000      -0.978987       -26.6396
 117   2.0000      -0.971652       -26.4400
 118   2.0000      -0.964216       -26.2376
 119   2.0000      -0.951032       -25.8789
 120   2.0000      -0.940271       -25.5861
 121   2.0000      -0.935006       -25.4428
 122   2.0000      -0.922407       -25.1000
 123   2.0000      -0.912440       -24.8288
 124   2.0000      -0.902926       -24.5699
 125   2.0000      -0.898796       -24.4575
 126   2.0000      -0.890019       -24.2187
 127   2.0000      -0.886618       -24.1261
 128   2.0000      -0.877585       -23.8803
 129   2.0000      -0.864346       -23.5201
 130   2.0000      -0.862859       -23.4796
 131   2.0000      -0.858219       -23.3533
 132   2.0000      -0.845736       -23.0137
 133   2.0000      -0.843650       -22.9569
 134   2.0000      -0.837526       -22.7902
 135   2.0000      -0.834115       -22.6974
 136   2.0000      -0.822047       -22.3690
 137   2.0000      -0.810137       -22.0450
 138   2.0000      -0.802389       -21.8341
 139   2.0000      -0.785948       -21.3867
 140   2.0000      -0.779245       -21.2043
 141   2.0000      -0.774529       -21.0760
 142   2.0000      -0.768843       -20.9213
 143   2.0000      -0.763279       -20.7699
 144   2.0000      -0.757502       -20.6127
 145   2.0000      -0.732205       -19.9243
 146   2.0000      -0.724395       -19.7118
 147   2.0000      -0.717534       -19.5251
 148   2.0000      -0.711206       -19.3529
 149   2.0000      -0.710225       -19.3262
 150   2.0000      -0.699445       -19.0329
 151   2.0000      -0.692471       -18.8431
 152   2.0000      -0.692161       -18.8347
 153   2.0000      -0.687592       -18.7103
 154   2.0000      -0.686397       -18.6778
 155   2.0000      -0.679457       -18.4890
 156   2.0000      -0.673079       -18.3154
 157   2.0000      -0.672094       -18.2886
 158   2.0000      -0.665204       -18.1011
 159   2.0000      -0.657665       -17.8960
 160   2.0000      -0.647074       -17.6078
 161   2.0000      -0.639911       -17.4129
 162   2.0000      -0.636010       -17.3067
 163   2.0000      -0.632568       -17.2130
 164   2.0000      -0.631616       -17.1871
 165   2.0000      -0.626479       -17.0474
 166   2.0000      -0.623851       -16.9758
 167   2.0000      -0.617504       -16.8031
 168   2.0000      -0.613386       -16.6911
 169   2.0000      -0.609531       -16.5862
 170   2.0000      -0.606207       -16.4957
 171   2.0000      -0.605937       -16.4884
 172   2.0000      -0.600482       -16.3399
 173   2.0000      -0.593834       -16.1590
 174   2.0000      -0.587673       -15.9914
 175   2.0000      -0.586075       -15.9479
 176   2.0000      -0.581449       -15.8220
 177   2.0000      -0.574428       -15.6310
 178   2.0000      -0.567167       -15.4334
 179   2.0000      -0.564119       -15.3505
 180   2.0000      -0.561887       -15.2897
 181   2.0000      -0.560045       -15.2396
 182   2.0000      -0.559072       -15.2131
 183   2.0000      -0.552893       -15.0450
 184   2.0000      -0.550449       -14.9785
 185   2.0000      -0.548910       -14.9366
 186   2.0000      -0.547678       -14.9031
 187   2.0000      -0.541886       -14.7455
 188   2.0000      -0.539990       -14.6939
 189   2.0000      -0.537976       -14.6391
 190   2.0000      -0.534820       -14.5532
 191   2.0000      -0.533808       -14.5256
 192   2.0000      -0.531416       -14.4606
 193   2.0000      -0.526144       -14.3171
 194   2.0000      -0.525277       -14.2935
 195   2.0000      -0.515514       -14.0279
 196   2.0000      -0.512360       -13.9420
 197   2.0000      -0.511480       -13.9181
 198   2.0000      -0.509912       -13.8754
 199   2.0000      -0.507421       -13.8076
 200   2.0000      -0.501602       -13.6493
 201   2.0000      -0.499325       -13.5873
 202   2.0000      -0.498459       -13.5638
 203   2.0000      -0.498104       -13.5541
 204   2.0000      -0.495850       -13.4928
 205   2.0000      -0.493231       -13.4215
 206   2.0000      -0.489393       -13.3171
 207   2.0000      -0.487656       -13.2698
 208   2.0000      -0.484065       -13.1721
 209   2.0000      -0.482576       -13.1316
 210   2.0000      -0.479432       -13.0460
 211   2.0000      -0.477451       -12.9921
 212   2.0000      -0.476146       -12.9566
 213   2.0000      -0.469987       -12.7890
 214   2.0000      -0.467403       -12.7187
 215   2.0000      -0.466745       -12.7008
 216   2.0000      -0.466640       -12.6979
 217   2.0000      -0.463575       -12.6145
 218   2.0000      -0.461280       -12.5521
 219   2.0000      -0.458107       -12.4657
 220   2.0000      -0.457211       -12.4413
 221   2.0000      -0.454721       -12.3736
 222   2.0000      -0.451688       -12.2910
 223   2.0000      -0.451487       -12.2856
 224   2.0000      -0.446034       -12.1372
 225   2.0000      -0.445198       -12.1145
 226   2.0000      -0.444208       -12.0875
 227   2.0000      -0.440926       -11.9982
 228   2.0000      -0.440512       -11.9869
 229   2.0000      -0.438914       -11.9435
 230   2.0000      -0.437889       -11.9156
 231   2.0000      -0.436912       -11.8890
 232   2.0000      -0.435708       -11.8562
 233   2.0000      -0.434678       -11.8282
 234   2.0000      -0.432839       -11.7782
 235   2.0000      -0.429048       -11.6750
 236   2.0000      -0.424839       -11.5604
 237   2.0000      -0.424374       -11.5478
 238   2.0000      -0.420384       -11.4392
 239   2.0000      -0.412783       -11.2324
 240   2.0000      -0.411445       -11.1960
 241   2.0000      -0.409319       -11.1381
 242   2.0000      -0.404595       -11.0096
 243   2.0000      -0.403763       -10.9870
 244   2.0000      -0.400671       -10.9028
 245   2.0000      -0.394802       -10.7431
 246   2.0000      -0.391645       -10.6572
 247   2.0000      -0.389830       -10.6078
 248   2.0000      -0.385053       -10.4778
 249   2.0000      -0.378711       -10.3053
 250   2.0000      -0.372388       -10.1332
 251   2.0000      -0.367858       -10.0099
 252   2.0000      -0.366888        -9.9835
 253   2.0000      -0.363170        -9.8823
 254   2.0000      -0.361272        -9.8307
 255   2.0000      -0.354133        -9.6364
 256   2.0000      -0.345001        -9.3880
 257   2.0000      -0.341381        -9.2895
 258   2.0000      -0.336261        -9.1501
 259   2.0000      -0.334485        -9.1018
 260   2.0000      -0.331285        -9.0147
 261   2.0000      -0.320335        -8.7168
 262   2.0000      -0.316501        -8.6124
 263   2.0000      -0.315972        -8.5980
 264   2.0000      -0.301608        -8.2072
 265   2.0000      -0.293631        -7.9901
 266   2.0000      -0.281001        -7.6464
 267   2.0000      -0.271871        -7.3980
 268   2.0000      -0.263115        -7.1597
 269   2.0000      -0.221424        -6.0252
 270   0.0000      -0.096424        -2.6238
 271   0.0000      -0.094384        -2.5683
 272   0.0000      -0.057734        -1.5710
 273   0.0000      -0.034775        -0.9463
 274   0.0000      -0.033216        -0.9039

MULLIKEN ATOMIC CHARGES
-----------------------
   0 C :   -0.084402
   1 C :    0.039146
   2 C :   -0.035696
   3 C :   -0.115869
   4 S :    0.179487
   5 C :   -0.113615
   6 C :   -0.010906
   7 C :    0.301785
   8 C :   -0.307910
   9 C :   -0.173011
  10 N :    0.165127
  11 C :   -0.194556
  12 N :    0.172349
  13 C :   -0.012141
  14 C :   -0.114910
  15 S :    0.209079
  16 C :    0.321558
  17 C :   -0.091336
  18 N :   -0.277733
  19 S :    0.468862
  20 N :   -0.258389
  21 C :   -0.107177
  22 C :    0.262971
  23 C :   -0.113352
  24 C :   -0.094544
  25 N :   -0.274982
  26 S :    0.467302
  27 N :   -0.264662
  28 C :   -0.058683
  29 C :   -0.019560
  30 C :    0.046836
  31 C :    0.063736
  32 C :   -0.106104
  33 S :    0.089535
  34 C :   -0.116655
  35 C :    0.056911
  36 C :   -0.010241
  37 C :   -0.073212
  38 S :    0.123792
  39 C :    0.066773
  40 C :   -0.051413
  41 C :   -0.027380
  42 C :    0.080362
  43 C :    0.052534
  44 F :   -0.161290
  45 S :    0.105890
  46 C :    0.071148
  47 F :   -0.157821
  48 C :    0.049791
  49 C :   -0.013311
  50 C :    0.000644
  51 C :    0.036185
  52 C :   -0.120375
  53 C :    0.150559
  54 O :   -0.137606
  55 C :   -0.001576
  56 C :   -0.076273
  57 C :    0.097722
  58 C :    0.100026
  59 C :   -0.094853
  60 C :    0.302592
  61 C :   -0.030743
  62 C :   -0.007669
  63 F :   -0.190294
  64 C :   -0.082557
  65 C :    0.046104
  66 C :    0.265400
  67 C :   -0.323969
  68 C :   -0.164729
  69 N :    0.153170
  70 C :   -0.184962
  71 N :    0.154616
  72 H :    0.034005
  73 H :    0.010439
  74 H :   -0.012799
  75 H :    0.018589
  76 H :    0.040183
  77 H :   -0.029141
  78 H :    0.038146
  79 H :   -0.021664
  80 H :    0.020090
  81 H :    0.011281
  82 H :   -0.017781
  83 H :    0.040473
  84 H :    0.023303
  85 H :    0.022507
  86 H :   -0.010996
  87 H :   -0.003576
  88 H :    0.004482
  89 H :   -0.008504
  90 H :   -0.004558
Sum of atomic charges:   -0.0000000

LOEWDIN ATOMIC CHARGES
----------------------
   0 C :   -0.181905
   1 C :   -0.033714
   2 C :   -0.082128
   3 C :   -0.180090
   4 S :    0.478402
   5 C :   -0.186354
   6 C :   -0.072690
   7 C :    0.091805
   8 C :   -0.113992
   9 C :    0.005266
  10 N :   -0.052550
  11 C :   -0.017478
  12 N :   -0.036377
  13 C :   -0.037509
  14 C :   -0.153111
  15 S :    0.493252
  16 C :   -0.036127
  17 C :   -0.059524
  18 N :   -0.270584
  19 S :    0.601626
  20 N :   -0.258564
  21 C :   -0.062803
  22 C :   -0.035282
  23 C :   -0.065375
  24 C :   -0.058766
  25 N :   -0.268649
  26 S :    0.599792
  27 N :   -0.261726
  28 C :   -0.152222
  29 C :   -0.023077
  30 C :   -0.011173
  31 C :   -0.054055
  32 C :   -0.125829
  33 S :    0.469765
  34 C :   -0.203424
  35 C :   -0.041626
  36 C :   -0.069231
  37 C :   -0.173665
  38 S :    0.419877
  39 C :   -0.066224
  40 C :   -0.000655
  41 C :   -0.054680
  42 C :   -0.077409
  43 C :   -0.092561
  44 F :   -0.054436
  45 S :    0.426249
  46 C :   -0.069644
  47 F :   -0.047448
  48 C :   -0.098316
  49 C :    0.045303
  50 C :   -0.042861
  51 C :    0.079485
  52 C :   -0.097538
  53 C :    0.082483
  54 O :   -0.141499
  55 C :   -0.057925
  56 C :    0.034338
  57 C :   -0.017978
  58 C :    0.002437
  59 C :   -0.041780
  60 C :    0.093073
  61 C :   -0.036114
  62 C :    0.004913
  63 F :   -0.064610
  64 C :    0.012297
  65 C :   -0.018960
  66 C :    0.077541
  67 C :   -0.145286
  68 C :    0.006589
  69 N :   -0.056750
  70 C :   -0.021425
  71 N :   -0.051960
  72 H :    0.026686
  73 H :    0.041920
  74 H :    0.020327
  75 H :    0.055641
  76 H :    0.065639
  77 H :    0.034927
  78 H :    0.032974
  79 H :    0.026624
  80 H :    0.020611
  81 H :    0.033626
  82 H :    0.028104
  83 H :    0.044882
  84 H :    0.031751
  85 H :    0.047319
  86 H :    0.040000
  87 H :    0.042801
  88 H :    0.042217
  89 H :    0.036008
  90 H :    0.039108

  Mayer bond orders larger than 0.100000
B(  0-C ,  1-C ) :   1.5526 B(  0-C ,  4-S ) :   1.1480 B(  0-C , 72-H ) :   0.9647
B(  1-C ,  2-C ) :   1.2732 B(  1-C , 73-H ) :   0.9966 B(  2-C ,  3-C ) :   1.4715
B(  2-C ,  7-C ) :   1.0152 B(  3-C ,  4-S ) :   1.1446 B(  3-C ,  5-C ) :   1.1640
B(  5-C ,  6-C ) :   1.4765 B(  5-C , 15-S ) :   1.1362 B(  6-C ,  7-C ) :   1.0071
B(  6-C , 13-C ) :   1.2748 B(  7-C ,  8-C ) :   1.6953 B(  8-C ,  9-C ) :   1.1334
B(  8-C , 11-C ) :   1.1312 B(  9-C , 10-N ) :   2.9949 B( 11-C , 12-N ) :   3.0037
B( 13-C , 14-C ) :   1.5453 B( 13-C , 74-H ) :   0.9875 B( 14-C , 15-S ) :   1.1285
B( 14-C , 16-C ) :   1.0350 B( 16-C , 17-C ) :   0.9932 B( 16-C , 24-C ) :   0.9953
B( 16-C , 75-H ) :   0.8182 B( 17-C , 18-N ) :   1.6588 B( 17-C , 21-C ) :   1.2478
B( 18-N , 19-S ) :   1.2195 B( 18-N , 20-N ) :   0.1283 B( 19-S , 20-N ) :   1.2242
B( 20-N , 21-C ) :   1.6736 B( 21-C , 22-C ) :   0.9701 B( 22-C , 23-C ) :   0.9617
B( 22-C , 28-C ) :   1.0367 B( 22-C , 76-H ) :   0.8366 B( 23-C , 24-C ) :   1.2422
B( 23-C , 27-N ) :   1.6678 B( 24-C , 25-N ) :   1.6628 B( 25-N , 26-S ) :   1.2196
B( 25-N , 27-N ) :   0.1277 B( 26-S , 27-N ) :   1.2230 B( 28-C , 29-C ) :   1.6780
B( 28-C , 33-S ) :   1.0234 B( 29-C , 30-C ) :   1.1559 B( 29-C , 77-H ) :   0.9695
B( 30-C , 31-C ) :   1.0518 B( 30-C , 39-C ) :   1.4356 B( 31-C , 32-C ) :   1.5919
B( 31-C , 34-C ) :   1.1770 B( 32-C , 33-S ) :   1.1436 B( 32-C , 78-H ) :   0.9470
B( 34-C , 35-C ) :   1.4599 B( 34-C , 38-S ) :   1.0738 B( 35-C , 36-C ) :   1.2180
B( 35-C , 39-C ) :   1.0734 B( 36-C , 37-C ) :   1.5769 B( 36-C , 79-H ) :   1.0003
B( 37-C , 38-S ) :   1.1576 B( 37-C , 80-H ) :   0.9658 B( 39-C , 40-C ) :   1.1649
B( 40-C , 41-C ) :   1.6529 B( 40-C , 81-H ) :   0.9474 B( 41-C , 42-C ) :   1.0757
B( 41-C , 82-H ) :   0.9783 B( 42-C , 43-C ) :   1.4742 B( 42-C , 48-C ) :   1.1436
B( 43-C , 44-F ) :   1.1326 B( 43-C , 45-S ) :   1.0937 B( 45-S , 46-C ) :   1.1412
B( 46-C , 47-F ) :   1.1195 B( 46-C , 48-C ) :   1.4519 B( 48-C , 49-C ) :   1.0664
B( 49-C , 50-C ) :   1.6804 B( 49-C , 83-H ) :   0.9724 B( 50-C , 51-C ) :   1.1425
B( 50-C , 84-H ) :   0.9563 B( 51-C , 52-C ) :   1.5944 B( 51-C , 85-H ) :   0.9606
B( 52-C , 53-C ) :   0.9352 B( 52-C , 66-C ) :   1.0611 B( 53-C , 54-O ) :   2.2825
B( 53-C , 55-C ) :   0.9175 B( 55-C , 56-C ) :   1.4776 B( 55-C , 65-C ) :   1.2125
B( 56-C , 57-C ) :   1.1930 B( 56-C , 86-H ) :   1.0145 B( 57-C , 58-C ) :   1.2554
B( 57-C , 62-C ) :   1.2347 B( 58-C , 59-C ) :   1.2051 B( 58-C , 64-C ) :   1.2005
B( 59-C , 60-C ) :   1.4395 B( 59-C , 87-H ) :   1.0063 B( 60-C , 61-C ) :   1.2556
B( 60-C , 63-F ) :   1.0884 B( 61-C , 62-C ) :   1.4607 B( 61-C , 88-H ) :   0.9935
B( 62-C , 89-H ) :   0.9971 B( 64-C , 65-C ) :   1.4651 B( 64-C , 90-H ) :   0.9951
B( 65-C , 66-C ) :   1.0004 B( 66-C , 67-C ) :   1.6301 B( 67-C , 68-C ) :   1.1670
B( 67-C , 70-C ) :   1.1319 B( 68-C , 69-N ) :   2.9020 B( 70-C , 71-N ) :   2.9913

-----------------------------------------------------------------------------
         ABSORPTION SPECTRUM VIA TRANSITION ELECTRIC DIPOLE MOMENTS
-----------------------------------------------------------------------------
State   Energy  Wavelength   fosc         T2         TX        TY        TZ
        (cm-1)    (nm)                  (au**2)     (au)      (au)      (au)
-----------------------------------------------------------------------------
   0   12827.3    779.6   0.040355923   1.03573   0.45873  -0.02423   0.90814
   1   15469.7    646.4   0.000286123   0.00609   0.04811   0.06076  -0.00910
   2   16093.2    621.4   0.022279609   0.45577   0.22311   0.24176  -0.58953
   3   22329.0    447.8   0.059485779   0.87704  -0.29866   0.31976  -0.82801
   4   22628.2    441.9   0.095629677   1.39129   0.93924   0.31808   0.63871
   5   23396.5    427.4   0.478722043   6.73608   2.20799   1.32555   0.32216
   6   24030.7    416.1   0.002313772   0.03170   0.14082   0.10256  -0.03672
   7   24059.6    415.6   0.019699538   0.26955   0.35949   0.21671   0.30554
   8   24392.5    410.0   0.000913999   0.01234   0.08149   0.04223  -0.06254
   9   27535.6    363.2   0.025290546   0.30237  -0.27669  -0.05190  -0.47236
  10   28085.7    356.1   0.049178904   0.57646  -0.32542  -0.42523  -0.53828
  11   28505.8    350.8   0.013094867   0.15123  -0.22019   0.21954  -0.23356
  12   29784.7    335.7   0.274825029   3.03766   0.92513   0.83127  -1.22098
  13   29881.1    334.7   0.000027262   0.00030   0.01655   0.00309  -0.00411
  14   30223.0    330.9   0.058476972   0.63698  -0.57053  -0.34693   0.43716
  15   30361.5    329.4   0.039450604   0.42777   0.35736   0.37201  -0.40208
  16   31036.8    322.2   0.061276850   0.64997  -0.14259  -0.37189   0.70096
  17   31560.5    316.9   0.437609039   4.56476  -0.81194   1.57844  -1.18914
  18   31857.9    313.9   0.988067152  10.21045   2.40622   1.60707   1.35568
  19   32106.6    311.5   0.011258613   0.11544   0.25213   0.20836   0.09198
  20   32469.7    308.0   0.711005390   7.20891   1.63628   0.72860  -2.00016
  21   32620.7    306.6   0.290129781   2.92802   1.68498  -0.18067  -0.23712
  22   33156.4    301.6   0.116258142   1.15433   0.43407   0.85677  -0.48151
  23   33346.0    299.9   0.027054639   0.26710  -0.44214   0.05959   0.26089
  24   33526.7    298.3   0.000733029   0.00720   0.03704   0.06354   0.04229
  25   33991.7    294.2   0.013877414   0.13440   0.25549  -0.25824   0.04941
  26   34203.8    292.4   0.005596522   0.05387  -0.03537  -0.21365   0.08349
  27   34770.5    287.6   0.607048390   5.74762  -1.77577   0.35307  -1.57150
  28   35673.7    280.3   0.005868116   0.05415  -0.18224  -0.06099  -0.13123
  29   36089.0    277.1   0.098214441   0.89593   0.79086   0.16331   0.49376
  30   36225.9    276.0   0.102492528   0.93143   0.44906   0.68349   0.51246
  31   36437.7    274.4   0.009639907   0.08710   0.06600   0.18114  -0.22345
  32   36696.2    272.5   0.019737454   0.17707  -0.22141  -0.30627   0.18505
  33   36956.7    270.6   0.030984678   0.27601   0.21465   0.35323   0.32429
  34   37499.9    266.7   0.007394262   0.06491   0.11423   0.15822   0.16380
  35   37669.0    265.5   0.023350655   0.20408  -0.24915  -0.09178  -0.36548
  36   38051.4    262.8   0.114002241   0.98632  -0.67677   0.00466  -0.72683
  37   38233.3    261.6   0.001215956   0.01047  -0.07312   0.00690  -0.07125
  38   38329.5    260.9   0.013737097   0.11799  -0.24591   0.04632  -0.23531
  39   38467.2    260.0   0.022936987   0.19630   0.16763  -0.00076  -0.41012
  40   38906.3    257.0   0.018996667   0.16074  -0.02766   0.09495  -0.38854
  41   38978.0    256.6   0.023415525   0.19777   0.17882   0.25400   0.31824
  42   39222.0    255.0   0.180974349   1.51902   0.41396  -1.04282  -0.51008
  43   39260.3    254.7   0.001005263   0.00843   0.07246   0.05402   0.01617
  44   39755.2    251.5   0.002488172   0.02060  -0.04604  -0.13490  -0.01694
  45   39832.5    251.1   0.001463863   0.01210   0.06748   0.06850   0.05342
  46   39963.2    250.2   0.228603804   1.88321   0.94864   0.20448  -0.97030
  47   40325.1    248.0   0.006085549   0.04968  -0.04583  -0.21190  -0.05178

FINAL SINGLE POINT ENERGY     -5626.618475053151

DIPOLE MOMENT
-------------
                                X             Y             Z
Electronic contribution:      7.70280     -14.73290      -1.36647
Nuclear contribution   :     -9.28207      14.22075       0.16817
                        -----------------------------------------
Total Dipole Moment    :     -1.57927      -0.51215      -1.19831
                        -----------------------------------------
Magnitude (a.u.)       :      2.04752
Magnitude (Debye)      :      5.20437

Rotational constants in cm-1:     0.000941     0.000491     0.000366
Rotational constants in MHz :    28.210000    14.719864    10.964291

                             ****ORCA TERMINATED NORMALLY****
TOTAL RUN TIME: 0 days 0 hours 10 minutes 10 seconds 115 msec
