                         Program Version 4.2.0 -  RELEASE  -
|  1> # ORCA input file
|  2> # SCF done       -168.185906678633          0.000533778869
|  3> ! CAM-B3LYP def2-SVP def2/J RIJCOSX Grid4 TightSCF
|  4> %maxcore 5000
|  5> %tddft
|  6>     Mode sTDDFT
|  7>     Ethresh 5.0
|  8>     maxcore 5000
|  9> end
| 10>
| 11> %pal
| 12>   nprocs 6
| 13>   end
| 14> * xyz 0 1
| 15>    C        0.43461         1.87213         0.85447
| 16>    C       -0.90432         1.59857         0.82070
| 17>    C       -1.57490         0.84088         1.80555
| 18>    N       -2.17640         0.23047         2.56789
| 19>    C       -1.76406         1.98743        -0.22570
| 20>    N       -2.50259         2.26782        -1.05920
| 21>    C        1.38540         1.34516         1.81948
| 22>    C        2.69615         1.42297         1.26064
| 23>    C        3.79029         0.96906         1.94100
| 24>    C        3.61999         0.42598         3.23403
| 25>    C        2.31538         0.37521         3.80811
| 26>    C        1.19875         0.84092         3.07871
| 27>    C        2.16505        -0.14895         5.10830
| 28>    C        3.24815        -0.60824         5.80690
| 29>    C        4.53055        -0.56411         5.23895
| 30>    C        4.71265        -0.05807         3.98050
| 31>    C        2.63064         2.06944        -0.05870
| 32>    O        3.51457         2.25307        -0.85861
| 33>    C        1.20994         2.54044        -0.18098
| 34>    C        0.90223         3.53005        -1.04196
| 35>    C       -0.29604         4.33059        -1.03521
| 36>    C       -0.90816         4.80807        -2.18036
| 37>    C       -0.48091         4.59804        -3.49252
| 38>    N       -0.11314         4.43901        -4.56779
| 39>    S       -2.36339         5.68360        -1.83926
| 40>    C       -2.14413         5.47076        -0.13336
| 41>    C       -0.99105         4.74320         0.13893
| 42>    C       -0.46797         4.53350         1.42400
| 43>    N        0.01292         4.38074         2.45543
| 44>    C       -3.10082         5.96174         0.79531
| 45>    C       -3.22167         5.64450         2.13666
| 46>    C       -4.31517         6.28013         2.72256
| 47>    C       -5.02687         7.08952         1.82174
| 48>    S       -4.36065         7.06360         0.25515
| 49>    C       -6.11577         7.68507         2.51252
| 50>    C       -6.09350         7.24566         3.84481
| 51>    C       -4.97156         6.33671         4.02107
| 52>    C       -4.62869         5.65291         5.14833
| 53>    C       -3.52082         4.77777         5.19609
| 54>    N       -2.62815         4.06082         5.24623
| 55>    C       -5.37800         5.74434         6.34226
| 56>    N       -5.99183         5.79398         7.30876
| 57>    C       -7.13145         7.78659         4.60794
| 58>    C       -7.94110         8.61523         3.85954
| 59>    S       -7.41512         8.73908         2.19134
| 60>    C       -9.08240         9.35459         4.33142
| 61>    C       -9.20379         9.79987         5.63832
| 62>    C       -8.26452         9.70298         6.66384
| 63>    N       -7.49160         9.65652         7.51230
| 64>    S      -10.69556        10.64726         5.91265
| 65>    C      -11.18274        10.42533         4.26064
| 66>    C      -10.21665         9.71531         3.54652
| 67>    C      -10.35171         9.30300         2.21337
| 68>    N      -10.44005         8.92964         1.12975
| 69>    C      -12.43373        10.95204         3.82309
| 70>    C      -12.82935        11.00064         2.50941
| 71>    C      -14.04502        11.51642         2.06264
| 72>    C      -15.02447        12.08719         3.00030
| 73>    C      -14.84326        12.15584         4.33563
| 74>    S      -13.44357        11.57440         5.13635
| 75>    C      -16.10609        12.51361         2.18797
| 76>    C      -15.83163        12.23625         0.84193
| 77>    C      -16.90548        12.62555         0.00643
| 78>    C      -17.92366        13.17670         0.71514
| 79>    S      -17.63911        13.24846         2.42172
| 80>    C      -14.53853        11.61690         0.75352
| 81>    C      -13.84564        11.16231        -0.41820
| 82>    C      -14.18806        11.41687        -1.68173
| 83>    H        4.77460         1.02895         1.50084
| 84>    H        0.22366         0.81130         3.53903
| 85>    H        1.17573        -0.18157         5.53972
| 86>    H        3.12326        -1.00825         6.80189
| 87>    H        5.37394        -0.93102         5.80452
| 88>    H        5.69803        -0.01949         3.53968
| 89>    H        1.64846         3.77534        -1.79052
| 90>    H       -2.55449         4.97695         2.64975
| 91>    H       -7.30168         7.57600         5.64786
| 92>    H      -12.14037        10.61965         1.77164
| 93>    H      -15.57416        12.58275         5.00429
| 94>    H      -16.94465        12.50213        -1.05970
| 95>    H      -18.85322        13.55699         0.33867
| 96>    H      -12.96136        10.56695        -0.23016
| 97>    H      -15.03906        12.02022        -1.94048
| 98>    H      -13.60780        11.03170        -2.50188
| 99> *
|100>
|101>                          ****END OF INPUT****

CARTESIAN COORDINATES (ANGSTROEM)
---------------------------------
  C      0.434610    1.872130    0.854470
  C     -0.904320    1.598570    0.820700
  C     -1.574900    0.840880    1.805550
  N     -2.176400    0.230470    2.567890
  C     -1.764060    1.987430   -0.225700
  N     -2.502590    2.267820   -1.059200
  C      1.385400    1.345160    1.819480
  C      2.696150    1.422970    1.260640
  C      3.790290    0.969060    1.941000
  C      3.619990    0.425980    3.234030
  C      2.315380    0.375210    3.808110
  C      1.198750    0.840920    3.078710
  C      2.165050   -0.148950    5.108300
  C      3.248150   -0.608240    5.806900
  C      4.530550   -0.564110    5.238950
  C      4.712650   -0.058070    3.980500
  C      2.630640    2.069440   -0.058700
  O      3.514570    2.253070   -0.858610
  C      1.209940    2.540440   -0.180980
  C      0.902230    3.530050   -1.041960
  C     -0.296040    4.330590   -1.035210
  C     -0.908160    4.808070   -2.180360
  C     -0.480910    4.598040   -3.492520
  N     -0.113140    4.439010   -4.567790
  S     -2.363390    5.683600   -1.839260
  C     -2.144130    5.470760   -0.133360
  C     -0.991050    4.743200    0.138930
  C     -0.467970    4.533500    1.424000
  N      0.012920    4.380740    2.455430
  C     -3.100820    5.961740    0.795310
  C     -3.221670    5.644500    2.136660
  C     -4.315170    6.280130    2.722560
  C     -5.026870    7.089520    1.821740
  S     -4.360650    7.063600    0.255150
  C     -6.115770    7.685070    2.512520
  C     -6.093500    7.245660    3.844810
  C     -4.971560    6.336710    4.021070
  C     -4.628690    5.652910    5.148330
  C     -3.520820    4.777770    5.196090
  N     -2.628150    4.060820    5.246230
  C     -5.378000    5.744340    6.342260
  N     -5.991830    5.793980    7.308760
  C     -7.131450    7.786590    4.607940
  C     -7.941100    8.615230    3.859540
  S     -7.415120    8.739080    2.191340
  C     -9.082400    9.354590    4.331420
  C     -9.203790    9.799870    5.638320
  C     -8.264520    9.702980    6.663840
  N     -7.491600    9.656520    7.512300
  S    -10.695560   10.647260    5.912650
  C    -11.182740   10.425330    4.260640
  C    -10.216650    9.715310    3.546520
  C    -10.351710    9.303000    2.213370
  N    -10.440050    8.929640    1.129750
  C    -12.433730   10.952040    3.823090
  C    -12.829350   11.000640    2.509410
  C    -14.045020   11.516420    2.062640
  C    -15.024470   12.087190    3.000300
  C    -14.843260   12.155840    4.335630
  S    -13.443570   11.574400    5.136350
  C    -16.106090   12.513610    2.187970
  C    -15.831630   12.236250    0.841930
  C    -16.905480   12.625550    0.006430
  C    -17.923660   13.176700    0.715140
  S    -17.639110   13.248460    2.421720
  C    -14.538530   11.616900    0.753520
  C    -13.845640   11.162310   -0.418200
  C    -14.188060   11.416870   -1.681730
  H      4.774600    1.028950    1.500840
  H      0.223660    0.811300    3.539030
  H      1.175730   -0.181570    5.539720
  H      3.123260   -1.008250    6.801890
  H      5.373940   -0.931020    5.804520
  H      5.698030   -0.019490    3.539680
  H      1.648460    3.775340   -1.790520
  H     -2.554490    4.976950    2.649750
  H     -7.301680    7.576000    5.647860
  H    -12.140370   10.619650    1.771640
  H    -15.574160   12.582750    5.004290
  H    -16.944650   12.502130   -1.059700
  H    -18.853220   13.556990    0.338670
  H    -12.961360   10.566950   -0.230160
  H    -15.039060   12.020220   -1.940480
  H    -13.607800   11.031700   -2.501880

 Total Charge           Charge          ....    0
 Multiplicity           Mult            ....    1
 Number of Electrons    NEL             ....  494
 Basis Dimension        Dim             .... 1056

ORBITAL ENERGIES
----------------

  NO   OCC          E(Eh)            E(eV)
   0   2.0000     -89.004581     -2421.9378
   1   2.0000     -89.004425     -2421.9335
   2   2.0000     -89.001530     -2421.8548
   3   2.0000     -88.999801     -2421.8077
   4   2.0000     -88.985418     -2421.4163
   5   2.0000     -88.966530     -2420.9024
   6   2.0000     -19.221841      -523.0529
   7   2.0000     -14.431892      -392.7117
   8   2.0000     -14.431718      -392.7070
   9   2.0000     -14.431265      -392.6947
  10   2.0000     -14.425715      -392.5437
  11   2.0000     -14.423103      -392.4726
  12   2.0000     -14.421755      -392.4359
  13   2.0000     -14.421420      -392.4268
  14   2.0000     -14.417820      -392.3288
  15   2.0000     -10.372842      -282.2594
  16   2.0000     -10.370980      -282.2087
  17   2.0000     -10.363094      -281.9941
  18   2.0000     -10.362427      -281.9760
  19   2.0000     -10.356687      -281.8198
  20   2.0000     -10.355201      -281.7793
  21   2.0000     -10.350482      -281.6509
  22   2.0000     -10.349519      -281.6247
  23   2.0000     -10.347401      -281.5671
  24   2.0000     -10.347136      -281.5599
  25   2.0000     -10.343273      -281.4548
  26   2.0000     -10.343000      -281.4473
  27   2.0000     -10.341510      -281.4068
  28   2.0000     -10.340120      -281.3690
  29   2.0000     -10.339368      -281.3485
  30   2.0000     -10.338670      -281.3295
  31   2.0000     -10.337734      -281.3041
  32   2.0000     -10.337628      -281.3012
  33   2.0000     -10.336874      -281.2806
  34   2.0000     -10.332598      -281.1643
  35   2.0000     -10.330838      -281.1164
  36   2.0000     -10.330798      -281.1153
  37   2.0000     -10.327000      -281.0120
  38   2.0000     -10.326679      -281.0032
  39   2.0000     -10.323965      -280.9294
  40   2.0000     -10.323948      -280.9289
  41   2.0000     -10.323515      -280.9171
  42   2.0000     -10.319438      -280.8062
  43   2.0000     -10.316663      -280.7307
  44   2.0000     -10.314502      -280.6719
  45   2.0000     -10.314215      -280.6641
  46   2.0000     -10.314019      -280.6587
  47   2.0000     -10.312241      -280.6103
  48   2.0000     -10.311085      -280.5789
  49   2.0000     -10.307426      -280.4793
  50   2.0000     -10.305302      -280.4215
  51   2.0000     -10.304339      -280.3953
  52   2.0000     -10.299872      -280.2738
  53   2.0000     -10.298488      -280.2361
  54   2.0000     -10.298035      -280.2238
  55   2.0000     -10.297618      -280.2124
  56   2.0000     -10.297010      -280.1959
  57   2.0000     -10.292805      -280.0815
  58   2.0000     -10.291949      -280.0582
  59   2.0000     -10.291053      -280.0338
  60   2.0000     -10.286026      -279.8970
  61   2.0000     -10.285484      -279.8822
  62   2.0000     -10.284981      -279.8686
  63   2.0000     -10.284893      -279.8662
  64   2.0000     -10.284119      -279.8451
  65   2.0000     -10.283972      -279.8411
  66   2.0000     -10.280173      -279.7377
  67   2.0000     -10.270877      -279.4848
  68   2.0000      -8.099881      -220.4090
  69   2.0000      -8.099306      -220.3933
  70   2.0000      -8.096838      -220.3262
  71   2.0000      -8.094094      -220.2515
  72   2.0000      -8.081149      -219.8992
  73   2.0000      -8.062108      -219.3811
  74   2.0000      -6.069306      -165.1542
  75   2.0000      -6.068589      -165.1347
  76   2.0000      -6.066333      -165.0733
  77   2.0000      -6.064922      -165.0349
  78   2.0000      -6.064360      -165.0196
  79   2.0000      -6.063343      -164.9919
  80   2.0000      -6.061887      -164.9523
  81   2.0000      -6.061836      -164.9509
  82   2.0000      -6.061570      -164.9437
  83   2.0000      -6.058988      -164.8734
  84   2.0000      -6.058692      -164.8654
  85   2.0000      -6.056569      -164.8076
  86   2.0000      -6.050905      -164.6535
  87   2.0000      -6.046302      -164.5282
  88   2.0000      -6.042623      -164.4281
  89   2.0000      -6.031503      -164.1255
  90   2.0000      -6.027285      -164.0107
  91   2.0000      -6.024147      -163.9254
  92   2.0000      -1.137521       -30.9535
  93   2.0000      -1.057242       -28.7690
  94   2.0000      -1.047001       -28.4903
  95   2.0000      -1.043038       -28.3825
  96   2.0000      -1.024620       -27.8813
  97   2.0000      -1.022159       -27.8144
  98   2.0000      -1.016526       -27.6611
  99   2.0000      -1.014052       -27.5938
 100   2.0000      -1.010624       -27.5005
 101   2.0000      -1.009412       -27.4675
 102   2.0000      -1.007774       -27.4229
 103   2.0000      -1.002205       -27.2714
 104   2.0000      -1.000926       -27.2366
 105   2.0000      -0.998269       -27.1643
 106   2.0000      -0.996316       -27.1111
 107   2.0000      -0.980799       -26.6889
 108   2.0000      -0.974087       -26.5063
 109   2.0000      -0.966250       -26.2930
 110   2.0000      -0.939764       -25.5723
 111   2.0000      -0.934507       -25.4292
 112   2.0000      -0.926410       -25.2089
 113   2.0000      -0.918956       -25.0061
 114   2.0000      -0.914406       -24.8822
 115   2.0000      -0.903941       -24.5975
 116   2.0000      -0.896531       -24.3958
 117   2.0000      -0.890433       -24.2299
 118   2.0000      -0.882995       -24.0275
 119   2.0000      -0.881729       -23.9931
 120   2.0000      -0.874379       -23.7931
 121   2.0000      -0.869350       -23.6562
 122   2.0000      -0.865473       -23.5507
 123   2.0000      -0.852724       -23.2038
 124   2.0000      -0.842095       -22.9146
 125   2.0000      -0.829078       -22.5604
 126   2.0000      -0.823405       -22.4060
 127   2.0000      -0.809203       -22.0195
 128   2.0000      -0.797593       -21.7036
 129   2.0000      -0.793434       -21.5904
 130   2.0000      -0.785498       -21.3745
 131   2.0000      -0.772141       -21.0110
 132   2.0000      -0.765543       -20.8315
 133   2.0000      -0.752061       -20.4646
 134   2.0000      -0.747810       -20.3489
 135   2.0000      -0.740971       -20.1628
 136   2.0000      -0.731772       -19.9125
 137   2.0000      -0.715665       -19.4742
 138   2.0000      -0.713864       -19.4252
 139   2.0000      -0.709332       -19.3019
 140   2.0000      -0.701387       -19.0857
 141   2.0000      -0.694962       -18.9109
 142   2.0000      -0.689524       -18.7629
 143   2.0000      -0.680559       -18.5189
 144   2.0000      -0.676352       -18.4045
 145   2.0000      -0.669089       -18.2068
 146   2.0000      -0.662940       -18.0395
 147   2.0000      -0.660448       -17.9717
 148   2.0000      -0.643685       -17.5156
 149   2.0000      -0.638259       -17.3679
 150   2.0000      -0.636031       -17.3073
 151   2.0000      -0.629635       -17.1332
 152   2.0000      -0.625292       -17.0151
 153   2.0000      -0.621938       -16.9238
 154   2.0000      -0.614295       -16.7158
 155   2.0000      -0.608466       -16.5572
 156   2.0000      -0.599927       -16.3249
 157   2.0000      -0.593776       -16.1575
 158   2.0000      -0.586821       -15.9682
 159   2.0000      -0.585685       -15.9373
 160   2.0000      -0.580247       -15.7893
 161   2.0000      -0.568964       -15.4823
 162   2.0000      -0.565339       -15.3837
 163   2.0000      -0.560544       -15.2532
 164   2.0000      -0.559093       -15.2137
 165   2.0000      -0.555291       -15.1102
 166   2.0000      -0.549680       -14.9575
 167   2.0000      -0.547715       -14.9041
 168   2.0000      -0.546648       -14.8750
 169   2.0000      -0.544194       -14.8083
 170   2.0000      -0.541199       -14.7268
 171   2.0000      -0.538929       -14.6650
 172   2.0000      -0.533328       -14.5126
 173   2.0000      -0.530952       -14.4479
 174   2.0000      -0.527483       -14.3535
 175   2.0000      -0.525093       -14.2885
 176   2.0000      -0.521817       -14.1994
 177   2.0000      -0.519298       -14.1308
 178   2.0000      -0.513047       -13.9607
 179   2.0000      -0.512040       -13.9333
 180   2.0000      -0.509954       -13.8766
 181   2.0000      -0.508113       -13.8264
 182   2.0000      -0.506922       -13.7941
 183   2.0000      -0.504255       -13.7215
 184   2.0000      -0.503007       -13.6875
 185   2.0000      -0.495974       -13.4961
 186   2.0000      -0.493199       -13.4206
 187   2.0000      -0.488461       -13.2917
 188   2.0000      -0.485147       -13.2015
 189   2.0000      -0.483153       -13.1473
 190   2.0000      -0.480511       -13.0754
 191   2.0000      -0.479735       -13.0542
 192   2.0000      -0.478779       -13.0282
 193   2.0000      -0.472304       -12.8520
 194   2.0000      -0.468594       -12.7511
 195   2.0000      -0.466440       -12.6925
 196   2.0000      -0.466428       -12.6922
 197   2.0000      -0.463968       -12.6252
 198   2.0000      -0.461309       -12.5529
 199   2.0000      -0.460993       -12.5443
 200   2.0000      -0.458233       -12.4692
 201   2.0000      -0.455347       -12.3906
 202   2.0000      -0.454594       -12.3701
 203   2.0000      -0.453450       -12.3390
 204   2.0000      -0.449377       -12.2282
 205   2.0000      -0.448806       -12.2126
 206   2.0000      -0.448522       -12.2049
 207   2.0000      -0.447722       -12.1831
 208   2.0000      -0.444228       -12.0881
 209   2.0000      -0.441305       -12.0085
 210   2.0000      -0.440719       -11.9926
 211   2.0000      -0.440397       -11.9838
 212   2.0000      -0.439560       -11.9610
 213   2.0000      -0.438129       -11.9221
 214   2.0000      -0.436685       -11.8828
 215   2.0000      -0.434834       -11.8324
 216   2.0000      -0.434701       -11.8288
 217   2.0000      -0.431037       -11.7291
 218   2.0000      -0.428113       -11.6495
 219   2.0000      -0.427258       -11.6263
 220   2.0000      -0.425576       -11.5805
 221   2.0000      -0.425240       -11.5714
 222   2.0000      -0.422351       -11.4928
 223   2.0000      -0.420121       -11.4321
 224   2.0000      -0.419719       -11.4211
 225   2.0000      -0.417849       -11.3703
 226   2.0000      -0.414140       -11.2693
 227   2.0000      -0.411141       -11.1877
 228   2.0000      -0.404773       -11.0144
 229   2.0000      -0.403809       -10.9882
 230   2.0000      -0.391533       -10.6541
 231   2.0000      -0.379388       -10.3237
 232   2.0000      -0.369561       -10.0563
 233   2.0000      -0.367646       -10.0042
 234   2.0000      -0.361832        -9.8459
 235   2.0000      -0.356621        -9.7042
 236   2.0000      -0.341869        -9.3027
 237   2.0000      -0.340037        -9.2529
 238   2.0000      -0.334896        -9.1130
 239   2.0000      -0.332024        -9.0348
 240   2.0000      -0.328617        -8.9421
 241   2.0000      -0.319800        -8.7022
 242   2.0000      -0.315086        -8.5739
 243   2.0000      -0.294245        -8.0068
 244   2.0000      -0.288827        -7.8594
 245   2.0000      -0.272724        -7.4212
 246   2.0000      -0.249121        -6.7789
 247   0.0000      -0.112877        -3.0715
 248   0.0000      -0.097556        -2.6546
 249   0.0000      -0.085437        -2.3249
 250   0.0000      -0.072352        -1.9688
 251   0.0000      -0.056160        -1.5282

MULLIKEN ATOMIC CHARGES
-----------------------
   0 C :    0.235885
   1 C :   -0.313033
   2 C :   -0.188595
   3 N :    0.175847
   4 C :   -0.179578
   5 N :    0.160715
   6 C :    0.046805
   7 C :    0.019293
   8 C :   -0.084697
   9 C :    0.098329
  10 C :    0.092166
  11 C :   -0.064023
  12 C :   -0.015024
  13 C :    0.040137
  14 C :    0.039225
  15 C :   -0.017284
  16 C :    0.137016
  17 O :   -0.127767
  18 C :   -0.091652
  19 C :    0.001306
  20 C :    0.216589
  21 C :   -0.280336
  22 C :   -0.193546
  23 N :    0.166684
  24 S :    0.248907
  25 C :    0.011896
  26 C :   -0.131502
  27 C :   -0.267134
  28 N :    0.191503
  29 C :   -0.093514
  30 C :   -0.041547
  31 C :    0.011951
  32 C :   -0.085113
  33 S :    0.202320
  34 C :   -0.093255
  35 C :    0.017944
  36 C :    0.304178
  37 C :   -0.287942
  38 C :   -0.190361
  39 N :    0.191978
  40 C :   -0.191135
  41 N :    0.188312
  42 C :   -0.020855
  43 C :   -0.171174
  44 S :    0.224615
  45 C :    0.321130
  46 C :   -0.341085
  47 C :   -0.203884
  48 N :    0.159898
  49 S :    0.226785
  50 C :   -0.019133
  51 C :   -0.104148
  52 C :   -0.276999
  53 N :    0.153329
  54 C :   -0.052062
  55 C :   -0.047812
  56 C :    0.034742
  57 C :    0.069612
  58 C :   -0.112590
  59 S :    0.111954
  60 C :   -0.109202
  61 C :    0.050348
  62 C :    0.000337
  63 C :   -0.066551
  64 S :    0.135724
  65 C :    0.071615
  66 C :   -0.032072
  67 C :   -0.014311
  68 H :   -0.010106
  69 H :    0.006446
  70 H :   -0.006094
  71 H :   -0.003188
  72 H :   -0.004311
  73 H :   -0.016718
  74 H :    0.043346
  75 H :    0.027379
  76 H :    0.031317
  77 H :   -0.008451
  78 H :    0.040585
  79 H :   -0.010067
  80 H :    0.029043
  81 H :   -0.003895
  82 H :    0.006710
  83 H :    0.027843
Sum of atomic charges:   -0.0000000

LOEWDIN ATOMIC CHARGES
----------------------
   0 C :    0.073555
   1 C :   -0.126938
   2 C :   -0.018770
   3 N :   -0.038317
   4 C :   -0.018218
   5 N :   -0.051206
   6 C :   -0.019128
   7 C :   -0.057253
   8 C :    0.035555
   9 C :   -0.006397
  10 C :   -0.002404
  11 C :    0.031338
  12 C :   -0.001850
  13 C :   -0.010424
  14 C :   -0.010279
  15 C :   -0.008976
  16 C :    0.088010
  17 O :   -0.127423
  18 C :   -0.051542
  19 C :    0.055637
  20 C :   -0.010221
  21 C :   -0.203427
  22 C :   -0.055693
  23 N :   -0.027939
  24 S :    0.514549
  25 C :   -0.129241
  26 C :   -0.109958
  27 C :   -0.033217
  28 N :   -0.042480
  29 C :   -0.194305
  30 C :   -0.002688
  31 C :   -0.064267
  32 C :   -0.167021
  33 S :    0.481768
  34 C :   -0.181519
  35 C :   -0.062588
  36 C :    0.074546
  37 C :   -0.087108
  38 C :   -0.020553
  39 N :   -0.015291
  40 C :   -0.018997
  41 N :   -0.016825
  42 C :   -0.008443
  43 C :   -0.172694
  44 S :    0.517557
  45 C :   -0.012640
  46 C :   -0.229575
  47 C :   -0.062333
  48 N :   -0.035958
  49 S :    0.494588
  50 C :   -0.127266
  51 C :   -0.125024
  52 C :   -0.047410
  53 N :   -0.054354
  54 C :   -0.208113
  55 C :    0.012572
  56 C :   -0.036626
  57 C :   -0.051745
  58 C :   -0.132795
  59 S :    0.426116
  60 C :   -0.191086
  61 C :   -0.038675
  62 C :   -0.060694
  63 C :   -0.161819
  64 S :    0.429284
  65 C :   -0.018596
  66 C :   -0.024670
  67 C :   -0.034228
  68 H :    0.040183
  69 H :    0.043400
  70 H :    0.036647
  71 H :    0.034005
  72 H :    0.033258
  73 H :    0.032184
  74 H :    0.056277
  75 H :    0.047538
  76 H :    0.047539
  77 H :    0.044013
  78 H :    0.038996
  79 H :    0.031375
  80 H :    0.025192
  81 H :    0.033777
  82 H :    0.019326
  83 H :    0.028417

  Mayer bond orders larger than 0.100000
B(  0-C ,  1-C ) :   1.6714 B(  0-C ,  6-C ) :   1.0154 B(  0-C , 18-C ) :   0.9934
B(  1-C ,  2-C ) :   1.1353 B(  1-C ,  4-C ) :   1.1713 B(  2-C ,  3-N ) :   3.0033
B(  4-C ,  5-N ) :   2.9768 B(  6-C ,  7-C ) :   1.2128 B(  6-C , 11-C ) :   1.4508
B(  7-C ,  8-C ) :   1.4618 B(  7-C , 16-C ) :   0.9235 B(  8-C ,  9-C ) :   1.1905
B(  8-C , 68-H ) :   1.0171 B(  9-C , 10-C ) :   1.2526 B(  9-C , 15-C ) :   1.2429
B( 10-C , 11-C ) :   1.2109 B( 10-C , 12-C ) :   1.2385 B( 11-C , 69-H ) :   0.9938
B( 12-C , 13-C ) :   1.4912 B( 12-C , 70-H ) :   0.9981 B( 13-C , 14-C ) :   1.2589
B( 13-C , 71-H ) :   0.9881 B( 14-C , 15-C ) :   1.4898 B( 14-C , 72-H ) :   0.9887
B( 15-C , 73-H ) :   0.9982 B( 16-C , 17-O ) :   2.2876 B( 16-C , 18-C ) :   0.9141
B( 18-C , 19-C ) :   1.7736 B( 19-C , 20-C ) :   1.0171 B( 19-C , 74-H ) :   0.9400
B( 20-C , 21-C ) :   1.4881 B( 20-C , 26-C ) :   1.2517 B( 21-C , 22-C ) :   1.2202
B( 21-C , 24-S ) :   1.1289 B( 21-C , 25-C ) :   0.1089 B( 22-C , 23-N ) :   3.0012
B( 24-S , 25-C ) :   1.1532 B( 25-C , 26-C ) :   1.5101 B( 25-C , 29-C ) :   1.1427
B( 26-C , 27-C ) :   1.1542 B( 27-C , 28-N ) :   2.9625 B( 29-C , 30-C ) :   1.4704
B( 29-C , 33-S ) :   1.0846 B( 30-C , 31-C ) :   1.3002 B( 30-C , 75-H ) :   0.9812
B( 31-C , 32-C ) :   1.4371 B( 31-C , 36-C ) :   0.9894 B( 32-C , 33-S ) :   1.1394
B( 32-C , 34-C ) :   1.1785 B( 34-C , 35-C ) :   1.4329 B( 34-C , 44-S ) :   1.1394
B( 35-C , 36-C ) :   0.9875 B( 35-C , 42-C ) :   1.2950 B( 36-C , 37-C ) :   1.7253
B( 37-C , 38-C ) :   1.1349 B( 37-C , 40-C ) :   1.1369 B( 38-C , 39-N ) :   2.9877
B( 40-C , 41-N ) :   2.9889 B( 42-C , 43-C ) :   1.4809 B( 42-C , 76-H ) :   0.9840
B( 43-C , 44-S ) :   1.1139 B( 43-C , 45-C ) :   1.0418 B( 45-C , 46-C ) :   1.4969
B( 45-C , 51-C ) :   1.2734 B( 46-C , 47-C ) :   1.2235 B( 46-C , 49-S ) :   1.1076
B( 46-C , 50-C ) :   0.1016 B( 47-C , 48-N ) :   2.9809 B( 49-S , 50-C ) :   1.1480
B( 50-C , 51-C ) :   1.4893 B( 50-C , 54-C ) :   1.1536 B( 51-C , 52-C ) :   1.1203
B( 52-C , 53-N ) :   2.9630 B( 54-C , 55-C ) :   1.5450 B( 54-C , 59-S ) :   1.0105
B( 55-C , 56-C ) :   1.2486 B( 55-C , 77-H ) :   0.9523 B( 56-C , 57-C ) :   1.0295
B( 56-C , 65-C ) :   1.4143 B( 57-C , 58-C ) :   1.6215 B( 57-C , 60-C ) :   1.1857
B( 58-C , 59-S ) :   1.1356 B( 58-C , 78-H ) :   0.9399 B( 60-C , 61-C ) :   1.4315
B( 60-C , 64-S ) :   1.0874 B( 61-C , 62-C ) :   1.2044 B( 61-C , 65-C ) :   1.1051
B( 62-C , 63-C ) :   1.5972 B( 62-C , 79-H ) :   1.0008 B( 63-C , 64-S ) :   1.1484
B( 63-C , 80-H ) :   0.9650 B( 65-C , 66-C ) :   1.1338 B( 66-C , 67-C ) :   1.9092
B( 66-C , 81-H ) :   0.9519 B( 67-C , 82-H ) :   0.9583 B( 67-C , 83-H ) :   0.9434

-----------------------------------------------------------------------------
         ABSORPTION SPECTRUM VIA TRANSITION ELECTRIC DIPOLE MOMENTS
-----------------------------------------------------------------------------
State   Energy  Wavelength   fosc         T2         TX        TY        TZ
        (cm-1)    (nm)                  (au**2)     (au)      (au)      (au)
-----------------------------------------------------------------------------
   0   15435.9    647.8   0.181106623   3.86257  -1.61034   0.91132   0.66248
   1   18715.3    534.3   0.031922326   0.56153  -0.63458   0.23586  -0.32126
   2   19975.6    500.6   0.779914483  12.85354  -2.79370   1.18914  -1.90649
   3   22769.2    439.2   0.062419743   0.90250   0.34955  -0.69049   0.55095
   4   23322.2    428.8   0.003140693   0.04433   0.02061   0.01315   0.20913
   5   25353.8    394.4   0.063518624   0.82477   0.80544  -0.17019   0.38350
   6   25866.9    386.6   1.139093384  14.49744  -2.61607   1.73867   2.15190
   7   26295.0    380.3   0.233242318   2.92018   1.48000  -0.73153  -0.44117
   8   26614.4    375.7   0.049753699   0.61544   0.55975  -0.23596  -0.49643
   9   27183.2    367.9   0.007901928   0.09570   0.18018  -0.23827   0.08037
  10   27713.0    360.8   0.012558650   0.14919   0.14601   0.25632   0.24934
  11   27862.1    358.9   0.074388342   0.87895   0.90169  -0.24882  -0.06325
  12   28034.8    356.7   0.004318781   0.05072   0.14066   0.09155   0.15016
  13   28949.4    345.4   0.012657960   0.14395   0.11452   0.12824  -0.33821
  14   29217.7    342.3   0.012975345   0.14620  -0.25820   0.02990  -0.28042
  15   29636.0    337.4   0.019333968   0.21477  -0.25573   0.03186   0.38517
  16   30945.5    323.1   0.293891453   3.12654   1.09221  -0.95704   1.00881
  17   31310.7    319.4   0.433878270   4.56196  -0.03441   1.46438  -1.55447
  18   32335.0    309.3   0.212674795   2.16531   1.10704  -0.85334   0.45998
  19   32699.4    305.8   0.008770096   0.08830  -0.04362  -0.02326  -0.29301
  20   33035.3    302.7   0.132529842   1.32072   1.04738  -0.44033   0.17273
  21   33107.0    302.1   1.049763860  10.43872   2.50480  -1.19241   1.65616
  22   33451.1    298.9   0.259781913   2.55666  -0.40994   0.03770   1.54505
  23   33625.8    297.4   0.107012438   1.04770   0.63052  -0.64270   0.48692
  24   34226.7    292.2   0.020274439   0.19501  -0.26564  -0.09957  -0.33843
  25   34536.3    289.6   0.044203027   0.42136  -0.54593   0.17913   0.30205
  26   34584.4    289.1   0.253161331   2.40986   1.15361  -0.32935   0.98518
  27   34775.5    287.6   0.120168140   1.13761  -0.55826   0.39304  -0.81943
  28   34873.5    286.8   0.138438624   1.30689  -1.01949   0.31009  -0.41396
  29   35545.5    281.3   0.046443187   0.43014   0.08040   0.06613   0.64754
  30   35748.1    279.7   0.262760369   2.41982   0.67824  -0.17050   1.38951
  31   36161.1    276.5   0.016892884   0.15379   0.02559  -0.03912   0.38937
  32   36372.2    274.9   0.008802230   0.07967  -0.17448   0.03026  -0.21980
  33   36865.9    271.3   0.041426966   0.36994   0.53821  -0.22352   0.17411
  34   36912.3    270.9   0.059652640   0.53203  -0.45417   0.34368  -0.45568
  35   37093.4    269.6   0.069643161   0.61810   0.40510  -0.38589   0.55234
  36   37670.6    265.5   0.017226359   0.15054  -0.32198  -0.00701   0.21640
  37   37812.3    264.5   0.090521045   0.78812   0.59506  -0.19762   0.62846
  38   38006.7    263.1   0.023934766   0.20732   0.25799   0.25052  -0.27929
  39   38048.8    262.8   0.004766857   0.04124  -0.01927   0.05832   0.19358
  40   38617.5    258.9   0.027013229   0.23029  -0.18713  -0.26086   0.35668
  41   38699.4    258.4   0.041139003   0.34997   0.46094  -0.16972  -0.32969
  42   38920.6    256.9   0.032414426   0.27418  -0.14576   0.08283   0.49606
  43   39306.7    254.4   0.010917944   0.09144   0.26314  -0.02030   0.14760
  44   39624.9    252.4   0.083823070   0.69642   0.31033  -0.48195   0.60650
  45   39730.6    251.7   0.027472594   0.22764  -0.05198  -0.15225   0.44918
  46   39821.0    251.1   0.000465536   0.00385  -0.00280  -0.01404   0.06036
  47   39918.1    250.5   0.035947328   0.29646  -0.16942   0.31414  -0.41119

FINAL SINGLE POINT ENERGY     -4927.476588401440

DIPOLE MOMENT
-------------
                                X             Y             Z
Electronic contribution:     -1.36863       9.61311       1.93490
Nuclear contribution   :     -0.79659      -7.18703      -1.50037
                        -----------------------------------------
Total Dipole Moment    :     -2.16521       2.42608       0.43454
                        -----------------------------------------
Magnitude (a.u.)       :      3.28068
Magnitude (Debye)      :      8.33882

Rotational constants in cm-1:     0.002270     0.000296     0.000270
Rotational constants in MHz :    68.045116     8.878825     8.086854

                             ****ORCA TERMINATED NORMALLY****
TOTAL RUN TIME: 0 days 0 hours 7 minutes 54 seconds 534 msec
