                         Program Version 4.2.0 -  RELEASE  -
|  1> # ORCA input file
|  2> # SCF done       -213.630137648616          0.000988617772
|  3> ! CAM-B3LYP def2-SVP def2/J RIJCOSX Grid4 TightSCF
|  4> %maxcore 5000
|  5> %tddft
|  6>     Mode sTDDFT
|  7>     Ethresh 5.0
|  8>     maxcore 5000
|  9> end
| 10>
| 11> %pal
| 12>   nprocs 6
| 13>   end
| 14> * xyz 0 1
| 15>    C       -2.72338        -4.08837        -3.33591
| 16>    C       -4.02031        -3.57405        -3.30580
| 17>    C       -4.80575        -3.72374        -4.58393
| 18>    O       -4.50045        -4.55485        -5.39200
| 19>    O       -5.83307        -2.90111        -4.80250
| 20>    C       -4.52636        -3.01276        -2.11954
| 21>    C       -5.82830        -2.46894        -2.01714
| 22>    N       -6.86669        -1.99761        -1.88625
| 23>    C       -3.74841        -2.98713        -0.95441
| 24>    C       -2.47447        -3.50439        -1.00492
| 25>    C       -1.94386        -4.04109        -2.19420
| 26>    C       -0.57054        -4.47498        -1.94229
| 27>    C        0.39559        -4.63765        -2.89592
| 28>    C        0.16157        -4.54685        -4.28444
| 29>    N        0.03113        -4.46925        -5.42104
| 30>    C        1.75581        -4.82422        -2.57797
| 31>    N        2.87116        -4.95361        -2.33900
| 32>    C       -0.36708        -4.42476        -0.51044
| 33>    C       -1.48016        -3.64243         0.08540
| 34>    O       -1.56839        -3.24759         1.22439
| 35>    C        0.54875        -4.99993         0.31816
| 36>    C        1.44368        -6.06105         0.05728
| 37>    C        2.54139        -6.45493         0.78068
| 38>    C        3.14503        -7.61766         0.16177
| 39>    N        2.37883        -7.96705        -0.90991
| 40>    C        1.30966        -7.07628        -1.02632
| 41>    O        0.42218        -7.20557        -1.83711
| 42>    C        2.52269        -9.09167        -1.79325
| 43>    C        4.23033        -7.99874         0.90581
| 44>    C        4.32157        -6.99817         2.02174
| 45>    O        5.14728        -6.91589         2.89415
| 46>    N        3.26624        -6.09721         1.86648
| 47>    C        3.03997        -4.99352         2.76060
| 48>    C        5.20802        -9.03107         0.78702
| 49>    C        5.84938        -9.52077         1.90577
| 50>    C        6.84517       -10.48829         1.89836
| 51>    C        7.27164       -11.11829         0.64536
| 52>    C        6.78102       -10.79296        -0.57226
| 53>    S        5.59003        -9.58894        -0.83183
| 54>    C        8.22413       -12.10852         1.01615
| 55>    C        8.37493       -12.11458         2.40330
| 56>    C        9.30465       -13.08785         2.83134
| 57>    C        9.82097       -13.77880         1.78126
| 58>    S        9.20748       -13.28186         0.24062
| 59>    C        7.53304       -11.09779         2.98026
| 60>    C        7.44519       -10.88537         4.36919
| 61>    C        6.87949        -9.82826         5.02573
| 62>    C        6.67046        -9.71051         6.41406
| 63>    C        6.77003       -10.51811         7.52608
| 64>    C        6.28267        -9.78662         8.67218
| 65>    N        5.90664        -8.53968         8.29726
| 66>    C        6.09556        -8.41518         6.91844
| 67>    O        5.81731        -7.42754         6.29078
| 68>    C        5.34058        -7.50762         9.12189
| 69>    C        6.23356       -10.61062         9.77086
| 70>    C        6.79124       -11.90723         9.30439
| 71>    O        7.00849       -12.91371         9.94424
| 72>    N        7.09804       -11.77748         7.95170
| 73>    C        7.62575       -12.88799         7.20738
| 74>    C        5.79480       -10.32809        11.08201
| 75>    C        5.37760       -11.20858        12.03621
| 76>    C        5.33478       -10.78397        13.45889
| 77>    O        5.43672        -9.65794        13.88575
| 78>    C        5.18184       -12.04084        14.23249
| 79>    C        5.03264       -13.11714        13.33839
| 80>    C        4.93972       -14.41190        13.82065
| 81>    C        4.95818       -14.62457        15.19709
| 82>    C        5.08083       -13.54049        16.08279
| 83>    C        5.19999       -12.23427        15.59654
| 84>    C        5.06035       -13.72358        17.48911
| 85>    N        5.01551       -13.75657        18.63287
| 86>    C        4.90760       -16.01066        15.77316
| 87>    O        5.43745       -16.28885        16.81058
| 88>    O        4.24286       -16.92799        15.06106
| 89>    C        4.98864       -12.59765        11.97268
| 90>    C        4.41611       -13.24912        10.91183
| 91>    C        4.16356       -12.64442         9.66612
| 92>    N        3.91454       -12.17035         8.65020
| 93>    C        3.93161       -14.56904        10.99493
| 94>    N        3.51364       -15.63660        11.05778
| 95>    H       -2.37406        -4.53153        -4.25580
| 96>    H       -6.04490        -2.29327        -4.07844
| 97>    H       -4.14399        -2.57564        -0.03794
| 98>    H        0.52353        -4.63463         1.34019
| 99>    H        2.61854       -10.01744        -1.22533
|100>    H        3.39129        -8.96786        -2.44216
|101>    H        1.62219        -9.13082        -2.40641
|102>    H        3.88072        -4.96138         3.45351
|103>    H        2.11647        -5.13398         3.32513
|104>    H        2.98634        -4.05880         2.20124
|105>    H        5.51525        -9.12954         2.85207
|106>    H        7.11091       -11.27754        -1.47768
|107>    H        9.58233       -13.27337         3.85292
|108>    H       10.54349       -14.57081         1.80924
|109>    H        7.90075       -11.66259         4.96521
|110>    H        6.56385        -8.95031         4.47897
|111>    H        4.46847        -7.88561         9.65796
|112>    H        5.04222        -6.69302         8.46245
|113>    H        6.07489        -7.13740         9.83968
|114>    H        7.71255       -13.72027         7.90713
|115>    H        8.61685       -12.65531         6.81265
|116>    H        6.94940       -13.17034         6.39938
|117>    H        5.85290        -9.29421        11.40723
|118>    H        4.90463       -15.24617        13.13600
|119>    H        5.30499       -11.40023        16.27372
|120>    H        3.83677       -16.58883        14.25090
|121> *
|122>
|123>                          ****END OF INPUT****

CARTESIAN COORDINATES (ANGSTROEM)
---------------------------------
  C     -2.723380   -4.088370   -3.335910
  C     -4.020310   -3.574050   -3.305800
  C     -4.805750   -3.723740   -4.583930
  O     -4.500450   -4.554850   -5.392000
  O     -5.833070   -2.901110   -4.802500
  C     -4.526360   -3.012760   -2.119540
  C     -5.828300   -2.468940   -2.017140
  N     -6.866690   -1.997610   -1.886250
  C     -3.748410   -2.987130   -0.954410
  C     -2.474470   -3.504390   -1.004920
  C     -1.943860   -4.041090   -2.194200
  C     -0.570540   -4.474980   -1.942290
  C      0.395590   -4.637650   -2.895920
  C      0.161570   -4.546850   -4.284440
  N      0.031130   -4.469250   -5.421040
  C      1.755810   -4.824220   -2.577970
  N      2.871160   -4.953610   -2.339000
  C     -0.367080   -4.424760   -0.510440
  C     -1.480160   -3.642430    0.085400
  O     -1.568390   -3.247590    1.224390
  C      0.548750   -4.999930    0.318160
  C      1.443680   -6.061050    0.057280
  C      2.541390   -6.454930    0.780680
  C      3.145030   -7.617660    0.161770
  N      2.378830   -7.967050   -0.909910
  C      1.309660   -7.076280   -1.026320
  O      0.422180   -7.205570   -1.837110
  C      2.522690   -9.091670   -1.793250
  C      4.230330   -7.998740    0.905810
  C      4.321570   -6.998170    2.021740
  O      5.147280   -6.915890    2.894150
  N      3.266240   -6.097210    1.866480
  C      3.039970   -4.993520    2.760600
  C      5.208020   -9.031070    0.787020
  C      5.849380   -9.520770    1.905770
  C      6.845170  -10.488290    1.898360
  C      7.271640  -11.118290    0.645360
  C      6.781020  -10.792960   -0.572260
  S      5.590030   -9.588940   -0.831830
  C      8.224130  -12.108520    1.016150
  C      8.374930  -12.114580    2.403300
  C      9.304650  -13.087850    2.831340
  C      9.820970  -13.778800    1.781260
  S      9.207480  -13.281860    0.240620
  C      7.533040  -11.097790    2.980260
  C      7.445190  -10.885370    4.369190
  C      6.879490   -9.828260    5.025730
  C      6.670460   -9.710510    6.414060
  C      6.770030  -10.518110    7.526080
  C      6.282670   -9.786620    8.672180
  N      5.906640   -8.539680    8.297260
  C      6.095560   -8.415180    6.918440
  O      5.817310   -7.427540    6.290780
  C      5.340580   -7.507620    9.121890
  C      6.233560  -10.610620    9.770860
  C      6.791240  -11.907230    9.304390
  O      7.008490  -12.913710    9.944240
  N      7.098040  -11.777480    7.951700
  C      7.625750  -12.887990    7.207380
  C      5.794800  -10.328090   11.082010
  C      5.377600  -11.208580   12.036210
  C      5.334780  -10.783970   13.458890
  O      5.436720   -9.657940   13.885750
  C      5.181840  -12.040840   14.232490
  C      5.032640  -13.117140   13.338390
  C      4.939720  -14.411900   13.820650
  C      4.958180  -14.624570   15.197090
  C      5.080830  -13.540490   16.082790
  C      5.199990  -12.234270   15.596540
  C      5.060350  -13.723580   17.489110
  N      5.015510  -13.756570   18.632870
  C      4.907600  -16.010660   15.773160
  O      5.437450  -16.288850   16.810580
  O      4.242860  -16.927990   15.061060
  C      4.988640  -12.597650   11.972680
  C      4.416110  -13.249120   10.911830
  C      4.163560  -12.644420    9.666120
  N      3.914540  -12.170350    8.650200
  C      3.931610  -14.569040   10.994930
  N      3.513640  -15.636600   11.057780
  H     -2.374060   -4.531530   -4.255800
  H     -6.044900   -2.293270   -4.078440
  H     -4.143990   -2.575640   -0.037940
  H      0.523530   -4.634630    1.340190
  H      2.618540  -10.017440   -1.225330
  H      3.391290   -8.967860   -2.442160
  H      1.622190   -9.130820   -2.406410
  H      3.880720   -4.961380    3.453510
  H      2.116470   -5.133980    3.325130
  H      2.986340   -4.058800    2.201240
  H      5.515250   -9.129540    2.852070
  H      7.110910  -11.277540   -1.477680
  H      9.582330  -13.273370    3.852920
  H     10.543490  -14.570810    1.809240
  H      7.900750  -11.662590    4.965210
  H      6.563850   -8.950310    4.478970
  H      4.468470   -7.885610    9.657960
  H      5.042220   -6.693020    8.462450
  H      6.074890   -7.137400    9.839680
  H      7.712550  -13.720270    7.907130
  H      8.616850  -12.655310    6.812650
  H      6.949400  -13.170340    6.399380
  H      5.852900   -9.294210   11.407230
  H      4.904630  -15.246170   13.136000
  H      5.304990  -11.400230   16.273720
  H      3.836770  -16.588830   14.250900

 Total Charge           Charge          ....    0
 Multiplicity           Mult            ....    1
 Number of Electrons    NEL             ....  556
 Basis Dimension        Dim             .... 1258

ORBITAL ENERGIES
----------------

  NO   OCC          E(Eh)            E(eV)
   0   2.0000     -88.996597     -2421.7205
   1   2.0000     -88.970723     -2421.0164
   2   2.0000     -19.272327      -524.4267
   3   2.0000     -19.271660      -524.4085
   4   2.0000     -19.246153      -523.7145
   5   2.0000     -19.238107      -523.4955
   6   2.0000     -19.236051      -523.4395
   7   2.0000     -19.231687      -523.3208
   8   2.0000     -19.231366      -523.3121
   9   2.0000     -19.219200      -522.9810
  10   2.0000     -19.213455      -522.8247
  11   2.0000     -19.211097      -522.7605
  12   2.0000     -14.499396      -394.5486
  13   2.0000     -14.488953      -394.2645
  14   2.0000     -14.487120      -394.2146
  15   2.0000     -14.477008      -393.9394
  16   2.0000     -14.447270      -393.1302
  17   2.0000     -14.432825      -392.7371
  18   2.0000     -14.429917      -392.6580
  19   2.0000     -14.429249      -392.6398
  20   2.0000     -14.426428      -392.5631
  21   2.0000     -14.407631      -392.0516
  22   2.0000     -10.423609      -283.6408
  23   2.0000     -10.421963      -283.5960
  24   2.0000     -10.416809      -283.4558
  25   2.0000     -10.413216      -283.3580
  26   2.0000     -10.409870      -283.2670
  27   2.0000     -10.400606      -283.0149
  28   2.0000     -10.388739      -282.6920
  29   2.0000     -10.382139      -282.5124
  30   2.0000     -10.378592      -282.4159
  31   2.0000     -10.368415      -282.1389
  32   2.0000     -10.366445      -282.0853
  33   2.0000     -10.360137      -281.9137
  34   2.0000     -10.359097      -281.8854
  35   2.0000     -10.354983      -281.7734
  36   2.0000     -10.354798      -281.7684
  37   2.0000     -10.352477      -281.7052
  38   2.0000     -10.349739      -281.6307
  39   2.0000     -10.345188      -281.5069
  40   2.0000     -10.345173      -281.5065
  41   2.0000     -10.345088      -281.5042
  42   2.0000     -10.344263      -281.4817
  43   2.0000     -10.341000      -281.3929
  44   2.0000     -10.339394      -281.3492
  45   2.0000     -10.337914      -281.3089
  46   2.0000     -10.336025      -281.2575
  47   2.0000     -10.334442      -281.2145
  48   2.0000     -10.334399      -281.2133
  49   2.0000     -10.333006      -281.1754
  50   2.0000     -10.332935      -281.1735
  51   2.0000     -10.332652      -281.1658
  52   2.0000     -10.332074      -281.1500
  53   2.0000     -10.331605      -281.1373
  54   2.0000     -10.331409      -281.1319
  55   2.0000     -10.331137      -281.1245
  56   2.0000     -10.327391      -281.0226
  57   2.0000     -10.326648      -281.0024
  58   2.0000     -10.325499      -280.9711
  59   2.0000     -10.324195      -280.9356
  60   2.0000     -10.322967      -280.9022
  61   2.0000     -10.322846      -280.8989
  62   2.0000     -10.322767      -280.8968
  63   2.0000     -10.322357      -280.8856
  64   2.0000     -10.316115      -280.7158
  65   2.0000     -10.315469      -280.6982
  66   2.0000     -10.315384      -280.6959
  67   2.0000     -10.314943      -280.6839
  68   2.0000     -10.310922      -280.5745
  69   2.0000     -10.310816      -280.5716
  70   2.0000     -10.309777      -280.5433
  71   2.0000     -10.307582      -280.4836
  72   2.0000     -10.307372      -280.4779
  73   2.0000     -10.303396      -280.3697
  74   2.0000     -10.301543      -280.3192
  75   2.0000     -10.298641      -280.2403
  76   2.0000     -10.292990      -280.0865
  77   2.0000     -10.290972      -280.0316
  78   2.0000     -10.289502      -279.9916
  79   2.0000     -10.288161      -279.9551
  80   2.0000      -8.091539      -220.1820
  81   2.0000      -8.066096      -219.4896
  82   2.0000      -6.061085      -164.9305
  83   2.0000      -6.056433      -164.8039
  84   2.0000      -6.053642      -164.7280
  85   2.0000      -6.035521      -164.2349
  86   2.0000      -6.031291      -164.1198
  87   2.0000      -6.028153      -164.0344
  88   2.0000      -1.198569       -32.6147
  89   2.0000      -1.195662       -32.5356
  90   2.0000      -1.186443       -32.2847
  91   2.0000      -1.174481       -31.9593
  92   2.0000      -1.172364       -31.9016
  93   2.0000      -1.159889       -31.5622
  94   2.0000      -1.153118       -31.3779
  95   2.0000      -1.146360       -31.1940
  96   2.0000      -1.118254       -30.4292
  97   2.0000      -1.112677       -30.2775
  98   2.0000      -1.110862       -30.2281
  99   2.0000      -1.105303       -30.0768
 100   2.0000      -1.083281       -29.4776
 101   2.0000      -1.070434       -29.1280
 102   2.0000      -1.040399       -28.3107
 103   2.0000      -1.034438       -28.1485
 104   2.0000      -1.032064       -28.0839
 105   2.0000      -1.021844       -27.8058
 106   2.0000      -1.017827       -27.6965
 107   2.0000      -1.017711       -27.6933
 108   2.0000      -1.008811       -27.4512
 109   2.0000      -1.007160       -27.4062
 110   2.0000      -0.994680       -27.0666
 111   2.0000      -0.992080       -26.9959
 112   2.0000      -0.981524       -26.7086
 113   2.0000      -0.970533       -26.4095
 114   2.0000      -0.955632       -26.0041
 115   2.0000      -0.952364       -25.9151
 116   2.0000      -0.946328       -25.7509
 117   2.0000      -0.943283       -25.6680
 118   2.0000      -0.933665       -25.4063
 119   2.0000      -0.922443       -25.1009
 120   2.0000      -0.918193       -24.9853
 121   2.0000      -0.908325       -24.7168
 122   2.0000      -0.900356       -24.4999
 123   2.0000      -0.896579       -24.3972
 124   2.0000      -0.893021       -24.3003
 125   2.0000      -0.888948       -24.1895
 126   2.0000      -0.879291       -23.9267
 127   2.0000      -0.857421       -23.3316
 128   2.0000      -0.845654       -23.0114
 129   2.0000      -0.841772       -22.9058
 130   2.0000      -0.837419       -22.7873
 131   2.0000      -0.824950       -22.4480
 132   2.0000      -0.818161       -22.2633
 133   2.0000      -0.806938       -21.9579
 134   2.0000      -0.801675       -21.8147
 135   2.0000      -0.800980       -21.7958
 136   2.0000      -0.796189       -21.6654
 137   2.0000      -0.791173       -21.5289
 138   2.0000      -0.782980       -21.3060
 139   2.0000      -0.768192       -20.9036
 140   2.0000      -0.753339       -20.4994
 141   2.0000      -0.748133       -20.3577
 142   2.0000      -0.745061       -20.2741
 143   2.0000      -0.737838       -20.0776
 144   2.0000      -0.735511       -20.0143
 145   2.0000      -0.728665       -19.8280
 146   2.0000      -0.723146       -19.6778
 147   2.0000      -0.717302       -19.5188
 148   2.0000      -0.713074       -19.4037
 149   2.0000      -0.708372       -19.2758
 150   2.0000      -0.705029       -19.1848
 151   2.0000      -0.703166       -19.1341
 152   2.0000      -0.692055       -18.8318
 153   2.0000      -0.686871       -18.6907
 154   2.0000      -0.679672       -18.4948
 155   2.0000      -0.670282       -18.2393
 156   2.0000      -0.665837       -18.1183
 157   2.0000      -0.658759       -17.9257
 158   2.0000      -0.653632       -17.7862
 159   2.0000      -0.651331       -17.7236
 160   2.0000      -0.649129       -17.6637
 161   2.0000      -0.644043       -17.5253
 162   2.0000      -0.642513       -17.4837
 163   2.0000      -0.634335       -17.2611
 164   2.0000      -0.632813       -17.2197
 165   2.0000      -0.623350       -16.9622
 166   2.0000      -0.617570       -16.8049
 167   2.0000      -0.613797       -16.7023
 168   2.0000      -0.608348       -16.5540
 169   2.0000      -0.606768       -16.5110
 170   2.0000      -0.604289       -16.4435
 171   2.0000      -0.601980       -16.3807
 172   2.0000      -0.599090       -16.3021
 173   2.0000      -0.596242       -16.2246
 174   2.0000      -0.595227       -16.1969
 175   2.0000      -0.590813       -16.0768
 176   2.0000      -0.586256       -15.9528
 177   2.0000      -0.583800       -15.8860
 178   2.0000      -0.575629       -15.6637
 179   2.0000      -0.575134       -15.6502
 180   2.0000      -0.567156       -15.4331
 181   2.0000      -0.565406       -15.3855
 182   2.0000      -0.563952       -15.3459
 183   2.0000      -0.561556       -15.2807
 184   2.0000      -0.560912       -15.2632
 185   2.0000      -0.559420       -15.2226
 186   2.0000      -0.555215       -15.1082
 187   2.0000      -0.554080       -15.0773
 188   2.0000      -0.553600       -15.0642
 189   2.0000      -0.549955       -14.9650
 190   2.0000      -0.544948       -14.8288
 191   2.0000      -0.542909       -14.7733
 192   2.0000      -0.542118       -14.7518
 193   2.0000      -0.540355       -14.7038
 194   2.0000      -0.538241       -14.6463
 195   2.0000      -0.534466       -14.5436
 196   2.0000      -0.534365       -14.5408
 197   2.0000      -0.531434       -14.4610
 198   2.0000      -0.530133       -14.4257
 199   2.0000      -0.529219       -14.4008
 200   2.0000      -0.526708       -14.3324
 201   2.0000      -0.525566       -14.3014
 202   2.0000      -0.521201       -14.1826
 203   2.0000      -0.520879       -14.1738
 204   2.0000      -0.520213       -14.1557
 205   2.0000      -0.518436       -14.1074
 206   2.0000      -0.516820       -14.0634
 207   2.0000      -0.516023       -14.0417
 208   2.0000      -0.513320       -13.9681
 209   2.0000      -0.510613       -13.8945
 210   2.0000      -0.506199       -13.7744
 211   2.0000      -0.505835       -13.7645
 212   2.0000      -0.504596       -13.7308
 213   2.0000      -0.499914       -13.6034
 214   2.0000      -0.496169       -13.5014
 215   2.0000      -0.493994       -13.4423
 216   2.0000      -0.490851       -13.3567
 217   2.0000      -0.490383       -13.3440
 218   2.0000      -0.488135       -13.2828
 219   2.0000      -0.483194       -13.1484
 220   2.0000      -0.480565       -13.0768
 221   2.0000      -0.477775       -13.0009
 222   2.0000      -0.476967       -12.9789
 223   2.0000      -0.475519       -12.9395
 224   2.0000      -0.470541       -12.8041
 225   2.0000      -0.469929       -12.7874
 226   2.0000      -0.469286       -12.7699
 227   2.0000      -0.465995       -12.6804
 228   2.0000      -0.465406       -12.6644
 229   2.0000      -0.464733       -12.6460
 230   2.0000      -0.461100       -12.5472
 231   2.0000      -0.460428       -12.5289
 232   2.0000      -0.457620       -12.4525
 233   2.0000      -0.455134       -12.3848
 234   2.0000      -0.455076       -12.3832
 235   2.0000      -0.449326       -12.2268
 236   2.0000      -0.446289       -12.1441
 237   2.0000      -0.445809       -12.1311
 238   2.0000      -0.444771       -12.1028
 239   2.0000      -0.441697       -12.0192
 240   2.0000      -0.440731       -11.9929
 241   2.0000      -0.437177       -11.8962
 242   2.0000      -0.437139       -11.8952
 243   2.0000      -0.435730       -11.8568
 244   2.0000      -0.434845       -11.8327
 245   2.0000      -0.434802       -11.8316
 246   2.0000      -0.431270       -11.7355
 247   2.0000      -0.425675       -11.5832
 248   2.0000      -0.423980       -11.5371
 249   2.0000      -0.422077       -11.4853
 250   2.0000      -0.420347       -11.4382
 251   2.0000      -0.417738       -11.3672
 252   2.0000      -0.410649       -11.1743
 253   2.0000      -0.405954       -11.0466
 254   2.0000      -0.402555       -10.9541
 255   2.0000      -0.400452       -10.8969
 256   2.0000      -0.393517       -10.7081
 257   2.0000      -0.387744       -10.5510
 258   2.0000      -0.385537       -10.4910
 259   2.0000      -0.384729       -10.4690
 260   2.0000      -0.377355       -10.2684
 261   2.0000      -0.376248       -10.2382
 262   2.0000      -0.373956       -10.1759
 263   2.0000      -0.369906       -10.0657
 264   2.0000      -0.362502        -9.8642
 265   2.0000      -0.362451        -9.8628
 266   2.0000      -0.361143        -9.8272
 267   2.0000      -0.358475        -9.7546
 268   2.0000      -0.352763        -9.5992
 269   2.0000      -0.351993        -9.5782
 270   2.0000      -0.335342        -9.1251
 271   2.0000      -0.332003        -9.0343
 272   2.0000      -0.326272        -8.8783
 273   2.0000      -0.312959        -8.5160
 274   2.0000      -0.306436        -8.3386
 275   2.0000      -0.299083        -8.1385
 276   2.0000      -0.289321        -7.8728
 277   2.0000      -0.240577        -6.5464
 278   0.0000      -0.125303        -3.4097
 279   0.0000      -0.111903        -3.0450
 280   0.0000      -0.095028        -2.5859
 281   0.0000      -0.087963        -2.3936
 282   0.0000      -0.075272        -2.0482

MULLIKEN ATOMIC CHARGES
-----------------------
   0 C :   -0.071113
   1 C :    0.004542
   2 C :    0.168711
   3 O :   -0.155212
   4 O :   -0.131396
   5 C :   -0.049981
   6 C :   -0.222540
   7 N :    0.131809
   8 C :   -0.036851
   9 C :    0.012182
  10 C :    0.052613
  11 C :    0.305842
  12 C :   -0.277430
  13 C :   -0.194300
  14 N :    0.179931
  15 C :   -0.194248
  16 N :    0.146402
  17 C :   -0.133411
  18 C :    0.145924
  19 O :   -0.133943
  20 C :   -0.023837
  21 C :   -0.110977
  22 C :    0.192289
  23 C :    0.173442
  24 N :   -0.231004
  25 C :    0.145652
  26 O :   -0.166585
  27 C :    0.117935
  28 C :   -0.130447
  29 C :    0.167812
  30 O :   -0.136397
  31 N :   -0.220191
  32 C :    0.109367
  33 C :   -0.107741
  34 C :   -0.037962
  35 C :    0.054091
  36 C :    0.062886
  37 C :   -0.119954
  38 S :    0.137155
  39 C :   -0.106236
  40 C :    0.046562
  41 C :    0.011247
  42 C :   -0.066755
  43 S :    0.137399
  44 C :    0.089939
  45 C :   -0.004137
  46 C :   -0.040453
  47 C :   -0.142758
  48 C :    0.192243
  49 C :    0.185055
  50 N :   -0.225420
  51 C :    0.166236
  52 O :   -0.142818
  53 C :    0.116970
  54 C :   -0.116378
  55 C :    0.135398
  56 O :   -0.182810
  57 N :   -0.236046
  58 C :    0.126537
  59 C :   -0.019413
  60 C :   -0.133942
  61 C :    0.142668
  62 O :   -0.133592
  63 C :    0.006660
  64 C :    0.026361
  65 C :   -0.084138
  66 C :    0.008262
  67 C :   -0.074881
  68 C :   -0.031412
  69 C :   -0.159525
  70 N :    0.138444
  71 C :    0.178547
  72 O :   -0.148004
  73 O :   -0.142397
  74 C :    0.310098
  75 C :   -0.293028
  76 C :   -0.188800
  77 N :    0.148948
  78 C :   -0.188262
  79 N :    0.143976
  80 H :    0.036434
  81 H :    0.180385
  82 H :    0.016476
  83 H :    0.006242
  84 H :    0.040040
  85 H :    0.054199
  86 H :    0.064196
  87 H :    0.073536
  88 H :    0.055191
  89 H :    0.053594
  90 H :    0.000706
  91 H :    0.040170
  92 H :   -0.019605
  93 H :    0.032396
  94 H :   -0.073811
  95 H :    0.019261
  96 H :    0.048792
  97 H :    0.059234
  98 H :    0.051416
  99 H :    0.057768
 100 H :    0.048644
 101 H :    0.053243
 102 H :    0.009702
 103 H :    0.009562
 104 H :    0.017083
 105 H :    0.191742
Sum of atomic charges:   -0.0000000

LOEWDIN ATOMIC CHARGES
----------------------
   0 C :    0.037884
   1 C :   -0.030873
   2 C :    0.081686
   3 O :   -0.135954
   4 O :   -0.009470
   5 C :   -0.057575
   6 C :   -0.042044
   7 N :   -0.029196
   8 C :    0.048059
   9 C :   -0.035860
  10 C :    0.011431
  11 C :    0.068726
  12 C :   -0.109825
  13 C :   -0.023207
  14 N :   -0.030488
  15 C :   -0.009274
  16 N :   -0.056586
  17 C :   -0.087819
  18 C :    0.085090
  19 O :   -0.134129
  20 C :    0.067311
  21 C :   -0.121539
  22 C :    0.094831
  23 C :    0.044577
  24 N :   -0.008274
  25 C :    0.098844
  26 O :   -0.159572
  27 C :    0.027703
  28 C :   -0.113967
  29 C :    0.111644
  30 O :   -0.126917
  31 N :   -0.005096
  32 C :    0.037862
  33 C :   -0.173368
  34 C :    0.000961
  35 C :   -0.014235
  36 C :   -0.044130
  37 C :   -0.140042
  38 S :    0.479941
  39 C :   -0.203935
  40 C :   -0.038776
  41 C :   -0.065572
  42 C :   -0.159619
  43 S :    0.429338
  44 C :   -0.046438
  45 C :    0.001374
  46 C :   -0.037610
  47 C :   -0.079317
  48 C :    0.031691
  49 C :    0.094280
  50 N :   -0.011625
  51 C :    0.109033
  52 O :   -0.134331
  53 C :    0.036900
  54 C :   -0.130492
  55 C :    0.091732
  56 O :   -0.177439
  57 N :   -0.010617
  58 C :    0.032865
  59 C :    0.071854
  60 C :   -0.095147
  61 C :    0.084981
  62 O :   -0.134191
  63 C :   -0.034419
  64 C :    0.008474
  65 C :   -0.002574
  66 C :   -0.036142
  67 C :   -0.026836
  68 C :    0.049336
  69 C :   -0.034141
  70 N :   -0.027408
  71 C :    0.079941
  72 O :   -0.120421
  73 O :   -0.015299
  74 C :    0.076825
  75 C :   -0.125003
  76 C :   -0.011003
  77 N :   -0.058575
  78 C :   -0.013180
  79 N :   -0.060394
  80 H :    0.052587
  81 H :    0.086065
  82 H :    0.052100
  83 H :    0.045941
  84 H :    0.026616
  85 H :    0.024188
  86 H :    0.043509
  87 H :    0.048542
  88 H :    0.033152
  89 H :    0.036484
  90 H :    0.040479
  91 H :    0.038561
  92 H :    0.029120
  93 H :    0.025773
  94 H :    0.026189
  95 H :    0.038559
  96 H :    0.034167
  97 H :    0.043480
  98 H :    0.032136
  99 H :    0.043129
 100 H :    0.026078
 101 H :    0.032860
 102 H :    0.045595
 103 H :    0.037112
 104 H :    0.052948
 105 H :    0.099397

  Mayer bond orders larger than 0.100000
B(  0-C ,  1-C ) :   1.3760 B(  0-C , 10-C ) :   1.3302 B(  0-C , 80-H ) :   0.9911
B(  1-C ,  2-C ) :   0.8584 B(  1-C ,  5-C ) :   1.3464 B(  2-C ,  3-O ) :   2.1772
B(  2-C ,  4-O ) :   1.2778 B(  4-O , 81-H ) :   0.9386 B(  5-C ,  6-C ) :   1.0598
B(  5-C ,  8-C ) :   1.3584 B(  6-C ,  7-N ) :   2.9874 B(  8-C ,  9-C ) :   1.3791
B(  8-C , 82-H ) :   1.0116 B(  9-C , 10-C ) :   1.3262 B(  9-C , 18-C ) :   0.9039
B( 10-C , 11-C ) :   0.9897 B( 11-C , 12-C ) :   1.6819 B( 11-C , 17-C ) :   1.0275
B( 12-C , 13-C ) :   1.1356 B( 12-C , 15-C ) :   1.1619 B( 13-C , 14-N ) :   2.9997
B( 15-C , 16-N ) :   2.9877 B( 17-C , 18-C ) :   0.9490 B( 17-C , 20-C ) :   1.6573
B( 18-C , 19-O ) :   2.2642 B( 20-C , 21-C ) :   1.1327 B( 20-C , 83-H ) :   0.9503
B( 21-C , 22-C ) :   1.4852 B( 21-C , 25-C ) :   0.9065 B( 22-C , 23-C ) :   1.0696
B( 22-C , 31-N ) :   1.2037 B( 23-C , 24-N ) :   1.1568 B( 23-C , 28-C ) :   1.5260
B( 24-N , 25-C ) :   1.0503 B( 24-N , 27-C ) :   0.9495 B( 25-C , 26-O ) :   2.1390
B( 27-C , 84-H ) :   0.9736 B( 27-C , 85-H ) :   0.9686 B( 27-C , 86-H ) :   0.9520
B( 28-C , 29-C ) :   0.9301 B( 28-C , 33-C ) :   1.1233 B( 29-C , 30-O ) :   2.1612
B( 29-C , 31-N ) :   1.0194 B( 31-N , 32-C ) :   0.9416 B( 32-C , 87-H ) :   0.9552
B( 32-C , 88-H ) :   0.9721 B( 32-C , 89-H ) :   0.9719 B( 33-C , 34-C ) :   1.5023
B( 33-C , 38-S ) :   1.0618 B( 34-C , 35-C ) :   1.2399 B( 34-C , 90-H ) :   0.9721
B( 35-C , 36-C ) :   1.0616 B( 35-C , 44-C ) :   1.3401 B( 36-C , 37-C ) :   1.5947
B( 36-C , 39-C ) :   1.1774 B( 37-C , 38-S ) :   1.1444 B( 37-C , 91-H ) :   0.9421
B( 39-C , 40-C ) :   1.4387 B( 39-C , 43-S ) :   1.0769 B( 40-C , 41-C ) :   1.2203
B( 40-C , 44-C ) :   1.0968 B( 41-C , 42-C ) :   1.5847 B( 41-C , 92-H ) :   0.9975
B( 42-C , 43-S ) :   1.1582 B( 42-C , 93-H ) :   0.9665 B( 44-C , 45-C ) :   1.2152
B( 45-C , 46-C ) :   1.5473 B( 45-C , 94-H ) :   0.9478 B( 46-C , 47-C ) :   1.2091
B( 46-C , 95-H ) :   0.9418 B( 47-C , 48-C ) :   1.4505 B( 47-C , 51-C ) :   0.9094
B( 48-C , 49-C ) :   1.0988 B( 48-C , 57-N ) :   1.1306 B( 49-C , 50-N ) :   1.1982
B( 49-C , 54-C ) :   1.4504 B( 50-N , 51-C ) :   1.0126 B( 50-N , 53-C ) :   0.9477
B( 51-C , 52-O ) :   2.1915 B( 53-C , 96-H ) :   0.9709 B( 53-C , 97-H ) :   0.9566
B( 53-C , 98-H ) :   0.9735 B( 54-C , 55-C ) :   0.9228 B( 54-C , 59-C ) :   1.1339
B( 55-C , 56-O ) :   2.1154 B( 55-C , 57-N ) :   1.0677 B( 57-N , 58-C ) :   0.9585
B( 58-C , 99-H ) :   0.9456 B( 58-C ,100-H ) :   0.9650 B( 58-C ,101-H ) :   0.9695
B( 59-C , 60-C ) :   1.6364 B( 59-C ,102-H ) :   0.9535 B( 60-C , 61-C ) :   0.9517
B( 60-C , 74-C ) :   1.0453 B( 61-C , 62-O ) :   2.2694 B( 61-C , 63-C ) :   0.9016
B( 63-C , 64-C ) :   1.3419 B( 63-C , 68-C ) :   1.3594 B( 64-C , 65-C ) :   1.3903
B( 64-C , 74-C ) :   0.9958 B( 65-C , 66-C ) :   1.3233 B( 65-C ,103-H ) :   0.9682
B( 66-C , 67-C ) :   1.3936 B( 66-C , 71-C ) :   0.8685 B( 67-C , 68-C ) :   1.3658
B( 67-C , 69-C ) :   1.0704 B( 68-C ,104-H ) :   1.0146 B( 69-C , 70-N ) :   3.0378
B( 71-C , 72-O ) :   2.1685 B( 71-C , 73-O ) :   1.2601 B( 73-O ,105-H ) :   0.9443
B( 74-C , 75-C ) :   1.6540 B( 75-C , 76-C ) :   1.1652 B( 75-C , 78-C ) :   1.1435
B( 76-C , 77-N ) :   2.9906 B( 78-C , 79-N ) :   2.9898

-----------------------------------------------------------------------------
         ABSORPTION SPECTRUM VIA TRANSITION ELECTRIC DIPOLE MOMENTS
-----------------------------------------------------------------------------
State   Energy  Wavelength   fosc         T2         TX        TY        TZ
        (cm-1)    (nm)                  (au**2)     (au)      (au)      (au)
-----------------------------------------------------------------------------
   0   10515.1    951.0   0.595520648  18.64492   1.67458  -1.75270   3.57334
   1   13409.0    745.8   0.237836523   5.83924  -1.14188   0.47444   2.07611
   2   20088.3    497.8   0.028199663   0.46214  -0.46103   0.47998   0.13860
   3   20301.5    492.6   0.211976453   3.43743  -0.72950   0.62289  -1.58659
   4   21029.2    475.5   0.325414514   5.09435  -0.00453   1.58297  -1.60889
   5   21583.6    463.3   0.024716854   0.37700   0.42321  -0.16806   0.41188
   6   21824.3    458.2   0.016366341   0.24688   0.05373  -0.07204   0.48868
   7   22275.1    448.9   0.318208460   4.70293   2.02238  -0.64395  -0.44526
   8   24367.6    410.4   0.073684148   0.99549   0.17515  -0.77844   0.59903
   9   24961.2    400.6   0.339871368   4.48255   0.39549  -1.01043   1.81801
  10   25841.4    387.0   0.026414741   0.33652   0.11862  -0.25351  -0.50811
  11   26311.5    380.1   0.061327170   0.76733  -0.55401  -0.66353   0.14187
  12   26692.6    374.6   0.058497512   0.72148  -0.35157   0.15046  -0.75844
  13   27133.9    368.5   0.024640000   0.29895  -0.35762  -0.03765   0.41188
  14   28076.8    356.2   0.062987083   0.73855  -0.50802   0.12120   0.68248
  15   28312.7    353.2   0.062373391   0.72526  -0.14603  -0.04192   0.83796
  16   28582.3    349.9   0.442359408   5.09512   0.56605  -0.13285   2.18107
  17   29224.1    342.2   0.378583812   4.26478  -1.77332   0.80984  -0.68139
  18   29750.1    336.1   0.050828850   0.56247  -0.62777   0.40973   0.02212
  19   30029.0    333.0   0.079277474   0.86913   0.04856  -0.70265   0.61079
  20   30217.3    330.9   0.057669284   0.62830  -0.75086   0.19934   0.15738
  21   30393.3    329.0   0.081408830   0.88180  -0.92160   0.08052  -0.16116
  22   30532.2    327.5   0.100598375   1.08470  -0.66924   0.75767  -0.25050
  23   31369.3    318.8   0.053775054   0.56435   0.34104   0.26740  -0.61363
  24   31665.7    315.8   0.076250666   0.79274   0.88195   0.02924  -0.11851
  25   31788.1    314.6   0.165130944   1.71017  -0.43598   0.29413   1.19732
  26   31965.2    312.8   0.061890733   0.63742  -0.38899   0.42726  -0.55095
  27   32151.0    311.0   0.093073007   0.95303   0.02132   0.41933  -0.88133
  28   32272.7    309.9   0.111850975   1.14098  -0.91560   0.40442  -0.37296
  29   32800.1    304.9   0.071360165   0.71624  -0.34623  -0.01488  -0.77210
  30   33032.0    302.7   0.021262217   0.21191  -0.21459   0.31092  -0.26303
  31   33711.3    296.6   0.193897963   1.89354  -0.24012  -0.21975  -1.33701
  32   33936.9    294.7   0.136785400   1.32692   1.12275  -0.21766  -0.13778
  33   34079.5    293.4   0.093389910   0.90216   0.09893   0.14602   0.93330
  34   34412.9    290.6   0.023817051   0.22785   0.20405   0.35798   0.24096
  35   34991.7    285.8   0.033347018   0.31374  -0.42988  -0.34459  -0.10097
  36   35162.9    284.4   0.217000512   2.03166   0.20771   0.12794   1.40433
  37   35232.7    283.8   0.014617956   0.13659   0.09903  -0.18860  -0.30202
  38   35435.3    282.2   0.220528473   2.04882  -1.19171   0.74920   0.25951
  39   35790.4    279.4   0.281446518   2.58884   1.41702  -0.70143  -0.29814
  40   36220.1    276.1   0.142466963   1.29491  -0.37253   0.28179  -1.03765
  41   36681.4    272.6   0.049469739   0.44399  -0.11095   0.45410  -0.47484
  42   36847.7    271.4   0.037695281   0.33678   0.46533  -0.06388   0.34084
  43   37246.6    268.5   0.009626681   0.08509   0.24244  -0.09980   0.12787
  44   37371.7    267.6   0.022856642   0.20135  -0.43945   0.00413   0.09062
  45   37528.1    266.5   0.004916087   0.04313  -0.16335   0.02794  -0.12515
  46   37699.3    265.3   0.014266066   0.12458  -0.21574   0.21487  -0.17852
  47   38004.4    263.1   0.022131828   0.19172  -0.30415  -0.05910  -0.30938
  48   38206.7    261.7   0.040052656   0.34512  -0.48317   0.33321  -0.02516
  49   38430.7    260.2   0.022227753   0.19041   0.02654  -0.28677   0.32783
  50   38658.3    258.7   0.038344100   0.32654   0.50796  -0.06653   0.25315
  51   38819.8    257.6   0.032862347   0.27869  -0.12560   0.15232  -0.48960
  52   38887.8    257.2   0.039306227   0.33275  -0.40406   0.36267   0.19482
  53   39001.8    256.4   0.013574212   0.11458   0.26883   0.02378   0.20431
  54   39088.6    255.8   0.028345859   0.23873   0.27497   0.15601   0.37254
  55   39292.5    254.5   0.036181363   0.30315  -0.17864  -0.14321   0.50072
  56   39539.3    252.9   0.002204894   0.01836  -0.09168   0.04451  -0.08929
  57   39940.2    250.4   0.054206119   0.44680   0.58006  -0.24686  -0.22225
  58   40037.3    249.8   0.033797647   0.27791  -0.15734   0.05656  -0.49995
  59   40156.7    249.0   0.025459174   0.20872  -0.20327  -0.29980  -0.27842

FINAL SINGLE POINT ENERGY     -4317.300024298202

DIPOLE MOMENT
-------------
                                X             Y             Z
Electronic contribution:    -15.18755       2.56450      -4.67705
Nuclear contribution   :     17.58652      -1.41687       2.46953
                        -----------------------------------------
Total Dipole Moment    :      2.39897       1.14763      -2.20751
                        -----------------------------------------
Magnitude (a.u.)       :      3.45619
Magnitude (Debye)      :      8.78493

Rotational constants in cm-1:     0.001097     0.000246     0.000214
Rotational constants in MHz :    32.890815     7.360202     6.404431

                             ****ORCA TERMINATED NORMALLY****
TOTAL RUN TIME: 0 days 0 hours 11 minutes 42 seconds 539 msec
