                         Program Version 4.2.0 -  RELEASE  -
|  1> # ORCA input file
|  2> # SCF done       -214.156865911956          0.000434771970
|  3> ! CAM-B3LYP def2-SVP def2/J RIJCOSX Grid4 TightSCF
|  4> %maxcore 5000
|  5> %tddft
|  6>     Mode sTDDFT
|  7>     Ethresh 5.0
|  8>     maxcore 5000
|  9> end
| 10>
| 11> %pal
| 12>   nprocs 6
| 13>   end
| 14> * xyz 0 1
| 15>    C        1.25379        -0.80298        -6.29511
| 16>    C        0.22127        -0.16877        -6.92769
| 17>    F       -0.27261        -0.68369        -8.06974
| 18>    C       -0.35323         1.00964        -6.43305
| 19>    C        0.13634         1.54788        -5.27544
| 20>    C        1.20059         0.93607        -4.58229
| 21>    C        1.76875        -0.26417        -5.09993
| 22>    C        2.82858        -0.90381        -4.41520
| 23>    C        3.30515        -0.35648        -3.25514
| 24>    C        2.74603         0.85396        -2.75290
| 25>    C        1.71791         1.48746        -3.38815
| 26>    C        3.46177         1.24570        -1.52175
| 27>    O        3.23087         2.18799        -0.79839
| 28>    C        4.56935         0.26089        -1.38343
| 29>    C        4.34225        -0.80411        -2.33099
| 30>    C        4.83223        -2.08224        -2.24797
| 31>    C        4.56128        -3.09377        -3.18900
| 32>    N        4.40076        -3.94865        -3.93907
| 33>    C        5.61349        -2.54725        -1.17294
| 34>    N        6.22221        -2.98266        -0.30165
| 35>    C        5.58715         0.52067        -0.51886
| 36>    C        6.89750        -0.03841        -0.45910
| 37>    C        7.61215        -0.02454         0.75349
| 38>    O        6.95169         0.48315         1.81679
| 39>    C        7.12730        -0.08610         3.10491
| 40>    C        8.92711        -0.53239         0.83928
| 41>    O        9.61802        -0.41091         2.03108
| 42>    C       10.19458         0.87149         2.21594
| 43>    C        9.57695        -1.15440        -0.23088
| 44>    C        8.88176        -1.15482        -1.47311
| 45>    C        7.56816        -0.58143        -1.58211
| 46>    N        7.10482        -0.63280        -2.82908
| 47>    S        8.19837        -1.35089        -3.76700
| 48>    N        9.31671        -1.61711        -2.64104
| 49>    C       10.85820        -1.76093        -0.07954
| 50>    C       11.61514        -2.35528        -1.07632
| 51>    C       12.78948        -2.90391        -0.57344
| 52>    C       12.93699        -2.73497         0.82714
| 53>    S       11.61136        -1.87306         1.50777
| 54>    C       14.13712        -3.34679         1.17816
| 55>    C       14.69149        -3.86786        -0.01688
| 56>    N       13.85893        -3.59993        -1.07240
| 57>    C       14.09787        -3.92942        -2.44928
| 58>    C       15.90269        -4.52509         0.17432
| 59>    C       16.28537        -4.52293         1.50630
| 60>    S       15.14444        -3.66793         2.53931
| 61>    C       17.44105        -5.12188         2.09987
| 62>    C       18.34071        -5.95596         1.42919
| 63>    O       18.14393        -6.21316         0.09833
| 64>    C       17.95596        -7.57112        -0.26800
| 65>    C       19.49584        -6.48839         2.06756
| 66>    O       20.33313        -7.16780         1.24367
| 67>    C       21.73767        -7.00580         1.37303
| 68>    C       19.75982        -6.30494         3.43075
| 69>    C       18.85848        -5.46247         4.13121
| 70>    C       17.72790        -4.87908         3.47209
| 71>    N       16.99138        -4.15089         4.30140
| 72>    S       17.63765        -4.20013         5.77251
| 73>    N       18.89106        -5.15368         5.42527
| 74>    C       20.77950        -7.04006         4.11490
| 75>    C       21.42317        -6.74766         5.27564
| 76>    C       22.06398        -7.84344         6.05267
| 77>    O       22.29566        -8.96687         5.66545
| 78>    C       22.30544        -7.27472         7.39324
| 79>    C       22.75897        -7.89318         8.52217
| 80>    C       22.88444        -7.14562         9.71507
| 81>    C       22.53355        -5.76394         9.71406
| 82>    C       22.65588        -5.02738        10.90835
| 83>    C       23.10899        -5.64994        12.03792
| 84>    C       23.45969        -7.00653        12.05922
| 85>    C       23.34605        -7.73674        10.90886
| 86>    F       23.22738        -4.94703        13.17963
| 87>    C       22.07391        -5.14685         8.52718
| 88>    C       21.96508        -5.89060         7.38377
| 89>    C       21.55146        -5.52508         6.03458
| 90>    C       21.50493        -4.25394         5.52385
| 91>    C       21.36413        -4.00532         4.14620
| 92>    N       21.30318        -3.79481         3.01864
| 93>    C       21.65703        -3.08509         6.29280
| 94>    N       21.74924        -2.10257         6.87968
| 95>    H        1.66900        -1.71128        -6.70313
| 96>    H       -1.16685         1.46517        -6.97490
| 97>    H       -0.28945         2.45547        -4.87456
| 98>    H        3.24386        -1.80831        -4.83074
| 99>    H        1.30215         2.39901        -2.98545
|100>    H        5.38820         1.30955         0.19957
|101>    H        7.34732        -1.15207         3.04041
|102>    H        6.17485         0.06227         3.61483
|103>    H        7.91733         0.41434         3.66820
|104>    H        9.43389         1.65791         2.20543
|105>    H       10.93567         1.08420         1.43896
|106>    H       10.68685         0.84185         3.18572
|107>    H       11.29239        -2.37190        -2.09988
|108>    H       14.59669        -4.89640        -2.51202
|109>    H       14.72867        -3.17653        -2.93166
|110>    H       13.14676        -3.98290        -2.97654
|111>    H       16.49819        -4.96853        -0.59920
|112>    H       18.80910        -8.19219         0.00538
|113>    H       17.84039        -7.56770        -1.35035
|114>    H       17.04775        -7.96991         0.19659
|115>    H       21.98464        -6.14183         1.99070
|116>    H       22.12052        -6.84745         0.36274
|117>    H       22.19541        -7.90558         1.78864
|118>    H       20.97890        -8.03460         3.72795
|119>    H       23.01815        -8.94133         8.50817
|120>    H       22.39734        -3.98019        10.92809
|121>    H       23.81064        -7.44387        12.98043
|122>    H       23.61003        -8.78362        10.90072
|123>    H       21.80793        -4.10187         8.55306
|124> *
|125>
|126>                          ****END OF INPUT****

CARTESIAN COORDINATES (ANGSTROEM)
---------------------------------
  C      1.253790   -0.802980   -6.295110
  C      0.221270   -0.168770   -6.927690
  F     -0.272610   -0.683690   -8.069740
  C     -0.353230    1.009640   -6.433050
  C      0.136340    1.547880   -5.275440
  C      1.200590    0.936070   -4.582290
  C      1.768750   -0.264170   -5.099930
  C      2.828580   -0.903810   -4.415200
  C      3.305150   -0.356480   -3.255140
  C      2.746030    0.853960   -2.752900
  C      1.717910    1.487460   -3.388150
  C      3.461770    1.245700   -1.521750
  O      3.230870    2.187990   -0.798390
  C      4.569350    0.260890   -1.383430
  C      4.342250   -0.804110   -2.330990
  C      4.832230   -2.082240   -2.247970
  C      4.561280   -3.093770   -3.189000
  N      4.400760   -3.948650   -3.939070
  C      5.613490   -2.547250   -1.172940
  N      6.222210   -2.982660   -0.301650
  C      5.587150    0.520670   -0.518860
  C      6.897500   -0.038410   -0.459100
  C      7.612150   -0.024540    0.753490
  O      6.951690    0.483150    1.816790
  C      7.127300   -0.086100    3.104910
  C      8.927110   -0.532390    0.839280
  O      9.618020   -0.410910    2.031080
  C     10.194580    0.871490    2.215940
  C      9.576950   -1.154400   -0.230880
  C      8.881760   -1.154820   -1.473110
  C      7.568160   -0.581430   -1.582110
  N      7.104820   -0.632800   -2.829080
  S      8.198370   -1.350890   -3.767000
  N      9.316710   -1.617110   -2.641040
  C     10.858200   -1.760930   -0.079540
  C     11.615140   -2.355280   -1.076320
  C     12.789480   -2.903910   -0.573440
  C     12.936990   -2.734970    0.827140
  S     11.611360   -1.873060    1.507770
  C     14.137120   -3.346790    1.178160
  C     14.691490   -3.867860   -0.016880
  N     13.858930   -3.599930   -1.072400
  C     14.097870   -3.929420   -2.449280
  C     15.902690   -4.525090    0.174320
  C     16.285370   -4.522930    1.506300
  S     15.144440   -3.667930    2.539310
  C     17.441050   -5.121880    2.099870
  C     18.340710   -5.955960    1.429190
  O     18.143930   -6.213160    0.098330
  C     17.955960   -7.571120   -0.268000
  C     19.495840   -6.488390    2.067560
  O     20.333130   -7.167800    1.243670
  C     21.737670   -7.005800    1.373030
  C     19.759820   -6.304940    3.430750
  C     18.858480   -5.462470    4.131210
  C     17.727900   -4.879080    3.472090
  N     16.991380   -4.150890    4.301400
  S     17.637650   -4.200130    5.772510
  N     18.891060   -5.153680    5.425270
  C     20.779500   -7.040060    4.114900
  C     21.423170   -6.747660    5.275640
  C     22.063980   -7.843440    6.052670
  O     22.295660   -8.966870    5.665450
  C     22.305440   -7.274720    7.393240
  C     22.758970   -7.893180    8.522170
  C     22.884440   -7.145620    9.715070
  C     22.533550   -5.763940    9.714060
  C     22.655880   -5.027380   10.908350
  C     23.108990   -5.649940   12.037920
  C     23.459690   -7.006530   12.059220
  C     23.346050   -7.736740   10.908860
  F     23.227380   -4.947030   13.179630
  C     22.073910   -5.146850    8.527180
  C     21.965080   -5.890600    7.383770
  C     21.551460   -5.525080    6.034580
  C     21.504930   -4.253940    5.523850
  C     21.364130   -4.005320    4.146200
  N     21.303180   -3.794810    3.018640
  C     21.657030   -3.085090    6.292800
  N     21.749240   -2.102570    6.879680
  H      1.669000   -1.711280   -6.703130
  H     -1.166850    1.465170   -6.974900
  H     -0.289450    2.455470   -4.874560
  H      3.243860   -1.808310   -4.830740
  H      1.302150    2.399010   -2.985450
  H      5.388200    1.309550    0.199570
  H      7.347320   -1.152070    3.040410
  H      6.174850    0.062270    3.614830
  H      7.917330    0.414340    3.668200
  H      9.433890    1.657910    2.205430
  H     10.935670    1.084200    1.438960
  H     10.686850    0.841850    3.185720
  H     11.292390   -2.371900   -2.099880
  H     14.596690   -4.896400   -2.512020
  H     14.728670   -3.176530   -2.931660
  H     13.146760   -3.982900   -2.976540
  H     16.498190   -4.968530   -0.599200
  H     18.809100   -8.192190    0.005380
  H     17.840390   -7.567700   -1.350350
  H     17.047750   -7.969910    0.196590
  H     21.984640   -6.141830    1.990700
  H     22.120520   -6.847450    0.362740
  H     22.195410   -7.905580    1.788640
  H     20.978900   -8.034600    3.727950
  H     23.018150   -8.941330    8.508170
  H     22.397340   -3.980190   10.928090
  H     23.810640   -7.443870   12.980430
  H     23.610030   -8.783620   10.900720
  H     21.807930   -4.101870    8.553060

 Total Charge           Charge          ....    0
 Multiplicity           Mult            ....    1
 Number of Electrons    NEL             ....  576
 Basis Dimension        Dim             .... 1281

ORBITAL ENERGIES
----------------

  NO   OCC          E(Eh)            E(eV)
   0   2.0000     -89.023454     -2422.4513
   1   2.0000     -89.022333     -2422.4208
   2   2.0000     -88.950071     -2420.4545
   3   2.0000     -88.946694     -2420.3626
   4   2.0000     -24.783553      -674.3948
   5   2.0000     -24.779090      -674.2733
   6   2.0000     -19.265952      -524.2532
   7   2.0000     -19.262175      -524.1504
   8   2.0000     -19.255541      -523.9699
   9   2.0000     -19.247465      -523.7502
  10   2.0000     -19.211084      -522.7602
  11   2.0000     -19.202264      -522.5202
  12   2.0000     -14.461993      -393.5308
  13   2.0000     -14.442071      -392.9887
  14   2.0000     -14.442060      -392.9884
  15   2.0000     -14.437308      -392.8591
  16   2.0000     -14.434483      -392.7823
  17   2.0000     -14.412824      -392.1929
  18   2.0000     -14.410908      -392.1407
  19   2.0000     -14.405420      -391.9914
  20   2.0000     -14.404723      -391.9724
  21   2.0000     -10.366999      -282.1004
  22   2.0000     -10.366985      -282.1000
  23   2.0000     -10.363490      -282.0049
  24   2.0000     -10.362019      -281.9649
  25   2.0000     -10.361818      -281.9594
  26   2.0000     -10.353195      -281.7247
  27   2.0000     -10.348566      -281.5988
  28   2.0000     -10.346202      -281.5345
  29   2.0000     -10.333895      -281.1996
  30   2.0000     -10.332872      -281.1718
  31   2.0000     -10.329102      -281.0691
  32   2.0000     -10.328792      -281.0607
  33   2.0000     -10.328049      -281.0405
  34   2.0000     -10.327697      -281.0309
  35   2.0000     -10.327625      -281.0290
  36   2.0000     -10.327519      -281.0261
  37   2.0000     -10.325838      -280.9803
  38   2.0000     -10.325237      -280.9640
  39   2.0000     -10.324976      -280.9569
  40   2.0000     -10.320883      -280.8455
  41   2.0000     -10.318537      -280.7817
  42   2.0000     -10.315464      -280.6980
  43   2.0000     -10.314938      -280.6837
  44   2.0000     -10.313784      -280.6523
  45   2.0000     -10.313309      -280.6394
  46   2.0000     -10.312394      -280.6145
  47   2.0000     -10.308657      -280.5128
  48   2.0000     -10.307209      -280.4734
  49   2.0000     -10.305754      -280.4338
  50   2.0000     -10.305013      -280.4137
  51   2.0000     -10.304262      -280.3932
  52   2.0000     -10.303113      -280.3620
  53   2.0000     -10.303051      -280.3603
  54   2.0000     -10.302193      -280.3369
  55   2.0000     -10.301166      -280.3090
  56   2.0000     -10.298515      -280.2368
  57   2.0000     -10.298076      -280.2249
  58   2.0000     -10.297575      -280.2113
  59   2.0000     -10.296856      -280.1917
  60   2.0000     -10.295239      -280.1477
  61   2.0000     -10.295018      -280.1417
  62   2.0000     -10.293900      -280.1113
  63   2.0000     -10.292490      -280.0729
  64   2.0000     -10.291915      -280.0572
  65   2.0000     -10.291009      -280.0326
  66   2.0000     -10.290510      -280.0190
  67   2.0000     -10.290420      -280.0166
  68   2.0000     -10.290328      -280.0141
  69   2.0000     -10.287860      -279.9469
  70   2.0000     -10.287137      -279.9272
  71   2.0000     -10.287043      -279.9247
  72   2.0000     -10.286380      -279.9066
  73   2.0000     -10.286214      -279.9021
  74   2.0000     -10.285282      -279.8767
  75   2.0000     -10.281758      -279.7809
  76   2.0000     -10.281567      -279.7757
  77   2.0000     -10.279484      -279.7190
  78   2.0000     -10.277273      -279.6588
  79   2.0000     -10.276716      -279.6437
  80   2.0000      -8.115033      -220.8213
  81   2.0000      -8.113896      -220.7903
  82   2.0000      -8.043448      -218.8733
  83   2.0000      -8.040246      -218.7862
  84   2.0000      -6.086408      -165.6196
  85   2.0000      -6.085259      -165.5883
  86   2.0000      -6.078739      -165.4109
  87   2.0000      -6.077527      -165.3779
  88   2.0000      -6.077010      -165.3638
  89   2.0000      -6.076020      -165.3369
  90   2.0000      -6.013269      -163.6294
  91   2.0000      -6.010083      -163.5427
  92   2.0000      -6.008802      -163.5078
  93   2.0000      -6.005621      -163.4212
  94   2.0000      -6.004988      -163.4040
  95   2.0000      -6.001644      -163.3130
  96   2.0000      -1.298287       -35.3282
  97   2.0000      -1.293616       -35.2011
  98   2.0000      -1.175532       -31.9878
  99   2.0000      -1.175203       -31.9789
 100   2.0000      -1.149874       -31.2897
 101   2.0000      -1.143671       -31.1209
 102   2.0000      -1.127007       -30.6674
 103   2.0000      -1.125546       -30.6277
 104   2.0000      -1.124413       -30.5968
 105   2.0000      -1.117141       -30.3990
 106   2.0000      -1.089003       -29.6333
 107   2.0000      -1.015179       -27.6244
 108   2.0000      -1.008307       -27.4374
 109   2.0000      -0.997040       -27.1308
 110   2.0000      -0.991819       -26.9888
 111   2.0000      -0.990727       -26.9591
 112   2.0000      -0.988499       -26.8984
 113   2.0000      -0.986032       -26.8313
 114   2.0000      -0.983375       -26.7590
 115   2.0000      -0.975783       -26.5524
 116   2.0000      -0.973440       -26.4886
 117   2.0000      -0.968787       -26.3620
 118   2.0000      -0.964701       -26.2508
 119   2.0000      -0.956367       -26.0241
 120   2.0000      -0.953326       -25.9413
 121   2.0000      -0.922969       -25.1153
 122   2.0000      -0.916884       -24.9497
 123   2.0000      -0.904240       -24.6056
 124   2.0000      -0.898719       -24.4554
 125   2.0000      -0.888481       -24.1768
 126   2.0000      -0.884034       -24.0558
 127   2.0000      -0.880341       -23.9553
 128   2.0000      -0.875941       -23.8356
 129   2.0000      -0.871162       -23.7055
 130   2.0000      -0.866783       -23.5864
 131   2.0000      -0.865093       -23.5404
 132   2.0000      -0.850031       -23.1305
 133   2.0000      -0.842016       -22.9124
 134   2.0000      -0.832127       -22.6433
 135   2.0000      -0.831399       -22.6235
 136   2.0000      -0.829449       -22.5704
 137   2.0000      -0.825096       -22.4520
 138   2.0000      -0.814420       -22.1615
 139   2.0000      -0.805024       -21.9058
 140   2.0000      -0.799070       -21.7438
 141   2.0000      -0.795193       -21.6383
 142   2.0000      -0.786592       -21.4043
 143   2.0000      -0.785401       -21.3718
 144   2.0000      -0.766589       -20.8600
 145   2.0000      -0.764161       -20.7939
 146   2.0000      -0.755290       -20.5525
 147   2.0000      -0.749981       -20.4080
 148   2.0000      -0.738300       -20.0902
 149   2.0000      -0.728099       -19.8126
 150   2.0000      -0.717391       -19.5212
 151   2.0000      -0.713489       -19.4150
 152   2.0000      -0.706802       -19.2331
 153   2.0000      -0.706289       -19.2191
 154   2.0000      -0.703169       -19.1342
 155   2.0000      -0.700241       -19.0545
 156   2.0000      -0.695979       -18.9386
 157   2.0000      -0.694148       -18.8887
 158   2.0000      -0.682682       -18.5767
 159   2.0000      -0.676438       -18.4068
 160   2.0000      -0.673025       -18.3139
 161   2.0000      -0.668753       -18.1977
 162   2.0000      -0.653821       -17.7914
 163   2.0000      -0.650698       -17.7064
 164   2.0000      -0.646720       -17.5981
 165   2.0000      -0.635289       -17.2871
 166   2.0000      -0.632714       -17.2170
 167   2.0000      -0.629465       -17.1286
 168   2.0000      -0.627689       -17.0803
 169   2.0000      -0.626156       -17.0386
 170   2.0000      -0.623809       -16.9747
 171   2.0000      -0.621742       -16.9185
 172   2.0000      -0.618301       -16.8248
 173   2.0000      -0.617526       -16.8037
 174   2.0000      -0.613425       -16.6921
 175   2.0000      -0.609332       -16.5808
 176   2.0000      -0.600382       -16.3372
 177   2.0000      -0.599583       -16.3155
 178   2.0000      -0.591407       -16.0930
 179   2.0000      -0.586944       -15.9716
 180   2.0000      -0.583353       -15.8738
 181   2.0000      -0.578732       -15.7481
 182   2.0000      -0.576153       -15.6779
 183   2.0000      -0.569155       -15.4875
 184   2.0000      -0.566220       -15.4076
 185   2.0000      -0.562833       -15.3155
 186   2.0000      -0.562451       -15.3051
 187   2.0000      -0.561092       -15.2681
 188   2.0000      -0.557801       -15.1785
 189   2.0000      -0.555883       -15.1263
 190   2.0000      -0.555178       -15.1072
 191   2.0000      -0.554762       -15.0959
 192   2.0000      -0.553246       -15.0546
 193   2.0000      -0.551455       -15.0059
 194   2.0000      -0.549829       -14.9616
 195   2.0000      -0.549210       -14.9448
 196   2.0000      -0.544735       -14.8230
 197   2.0000      -0.541076       -14.7234
 198   2.0000      -0.540646       -14.7117
 199   2.0000      -0.538738       -14.6598
 200   2.0000      -0.535839       -14.5809
 201   2.0000      -0.533830       -14.5263
 202   2.0000      -0.529160       -14.3992
 203   2.0000      -0.527516       -14.3544
 204   2.0000      -0.523142       -14.2354
 205   2.0000      -0.521322       -14.1859
 206   2.0000      -0.520637       -14.1673
 207   2.0000      -0.518565       -14.1109
 208   2.0000      -0.516013       -14.0414
 209   2.0000      -0.515442       -14.0259
 210   2.0000      -0.515020       -14.0144
 211   2.0000      -0.512029       -13.9330
 212   2.0000      -0.507643       -13.8137
 213   2.0000      -0.504007       -13.7147
 214   2.0000      -0.497275       -13.5315
 215   2.0000      -0.496756       -13.5174
 216   2.0000      -0.496053       -13.4983
 217   2.0000      -0.494690       -13.4612
 218   2.0000      -0.491998       -13.3880
 219   2.0000      -0.489078       -13.3085
 220   2.0000      -0.485997       -13.2247
 221   2.0000      -0.484319       -13.1790
 222   2.0000      -0.482006       -13.1161
 223   2.0000      -0.479987       -13.0611
 224   2.0000      -0.478444       -13.0191
 225   2.0000      -0.474482       -12.9113
 226   2.0000      -0.473236       -12.8774
 227   2.0000      -0.469359       -12.7719
 228   2.0000      -0.467978       -12.7343
 229   2.0000      -0.465664       -12.6714
 230   2.0000      -0.464968       -12.6524
 231   2.0000      -0.461853       -12.5677
 232   2.0000      -0.460257       -12.5242
 233   2.0000      -0.455483       -12.3943
 234   2.0000      -0.454420       -12.3654
 235   2.0000      -0.452193       -12.3048
 236   2.0000      -0.448785       -12.2121
 237   2.0000      -0.448542       -12.2054
 238   2.0000      -0.446694       -12.1552
 239   2.0000      -0.444561       -12.0971
 240   2.0000      -0.441889       -12.0244
 241   2.0000      -0.440118       -11.9762
 242   2.0000      -0.437872       -11.9151
 243   2.0000      -0.435464       -11.8496
 244   2.0000      -0.433900       -11.8070
 245   2.0000      -0.433135       -11.7862
 246   2.0000      -0.430991       -11.7279
 247   2.0000      -0.427698       -11.6383
 248   2.0000      -0.427558       -11.6344
 249   2.0000      -0.424958       -11.5637
 250   2.0000      -0.423160       -11.5148
 251   2.0000      -0.420422       -11.4403
 252   2.0000      -0.417937       -11.3726
 253   2.0000      -0.417056       -11.3487
 254   2.0000      -0.413579       -11.2541
 255   2.0000      -0.409044       -11.1307
 256   2.0000      -0.405775       -11.0417
 257   2.0000      -0.405478       -11.0336
 258   2.0000      -0.402586       -10.9549
 259   2.0000      -0.400823       -10.9069
 260   2.0000      -0.398578       -10.8459
 261   2.0000      -0.393003       -10.6942
 262   2.0000      -0.391752       -10.6601
 263   2.0000      -0.390352       -10.6220
 264   2.0000      -0.383587       -10.4379
 265   2.0000      -0.380872       -10.3641
 266   2.0000      -0.377053       -10.2601
 267   2.0000      -0.372772       -10.1436
 268   2.0000      -0.369680       -10.0595
 269   2.0000      -0.363094        -9.8803
 270   2.0000      -0.362314        -9.8591
 271   2.0000      -0.353910        -9.6304
 272   2.0000      -0.351647        -9.5688
 273   2.0000      -0.343397        -9.3443
 274   2.0000      -0.337761        -9.1910
 275   2.0000      -0.330831        -9.0024
 276   2.0000      -0.323852        -8.8125
 277   2.0000      -0.321686        -8.7535
 278   2.0000      -0.320734        -8.7276
 279   2.0000      -0.310493        -8.4490
 280   2.0000      -0.306116        -8.3298
 281   2.0000      -0.301025        -8.1913
 282   2.0000      -0.298734        -8.1290
 283   2.0000      -0.292385        -7.9562
 284   2.0000      -0.287684        -7.8283
 285   2.0000      -0.276359        -7.5201
 286   2.0000      -0.266779        -7.2594
 287   2.0000      -0.230486        -6.2718
 288   0.0000      -0.101005        -2.7485
 289   0.0000      -0.087159        -2.3717
 290   0.0000      -0.059033        -1.6064
 291   0.0000      -0.052340        -1.4242
 292   0.0000      -0.046194        -1.2570

MULLIKEN ATOMIC CHARGES
-----------------------
   0 C :   -0.095505
   1 C :    0.300013
   2 F :   -0.193314
   3 C :   -0.032561
   4 C :   -0.007681
   5 C :    0.096507
   6 C :    0.099419
   7 C :   -0.088573
   8 C :    0.037751
   9 C :    0.011200
  10 C :   -0.078792
  11 C :    0.131634
  12 O :   -0.147288
  13 C :   -0.119573
  14 C :    0.342223
  15 C :   -0.345440
  16 C :   -0.190518
  17 N :    0.146286
  18 C :   -0.202027
  19 N :    0.154202
  20 C :   -0.004058
  21 C :   -0.013433
  22 C :    0.174183
  23 O :   -0.303523
  24 C :    0.192939
  25 C :   -0.039255
  26 O :   -0.368887
  27 C :    0.199342
  28 C :    0.214973
  29 C :    0.009584
  30 C :    0.001017
  31 N :   -0.289976
  32 S :    0.511165
  33 N :   -0.284415
  34 C :   -0.186494
  35 C :   -0.101211
  36 C :    0.185994
  37 C :   -0.099492
  38 S :    0.144301
  39 C :   -0.101093
  40 C :    0.183845
  41 N :   -0.170297
  42 C :    0.129678
  43 C :   -0.105922
  44 C :   -0.167486
  45 S :    0.163071
  46 C :    0.183585
  47 C :    0.053117
  48 O :   -0.335531
  49 C :    0.189249
  50 C :    0.159079
  51 O :   -0.324180
  52 C :    0.177527
  53 C :   -0.007969
  54 C :    0.031095
  55 C :   -0.013459
  56 N :   -0.310824
  57 S :    0.518837
  58 N :   -0.299933
  59 C :   -0.076239
  60 C :   -0.109323
  61 C :    0.133861
  62 O :   -0.147416
  63 C :    0.012715
  64 C :   -0.083201
  65 C :    0.098600
  66 C :    0.103203
  67 C :   -0.099030
  68 C :    0.302881
  69 C :   -0.030265
  70 C :   -0.009454
  71 F :   -0.191672
  72 C :   -0.092406
  73 C :    0.041536
  74 C :    0.339728
  75 C :   -0.330786
  76 C :   -0.173862
  77 N :    0.131777
  78 C :   -0.191109
  79 N :    0.150138
  80 H :   -0.005727
  81 H :    0.001074
  82 H :   -0.011677
  83 H :   -0.009645
  84 H :   -0.015597
  85 H :    0.026403
  86 H :    0.048260
  87 H :    0.039307
  88 H :    0.021448
  89 H :    0.032041
  90 H :    0.027573
  91 H :    0.043445
  92 H :   -0.009690
  93 H :    0.034730
  94 H :    0.041782
  95 H :    0.042871
  96 H :   -0.014290
  97 H :    0.042993
  98 H :    0.031915
  99 H :    0.016308
 100 H :    0.057045
 101 H :    0.039593
 102 H :    0.034751
 103 H :    0.024545
 104 H :   -0.013458
 105 H :   -0.003180
 106 H :    0.002208
 107 H :   -0.009792
 108 H :   -0.008016
Sum of atomic charges:   -0.0000000

LOEWDIN ATOMIC CHARGES
----------------------
   0 C :   -0.043523
   1 C :    0.091283
   2 F :   -0.067851
   3 C :   -0.040492
   4 C :    0.003854
   5 C :   -0.020258
   6 C :    0.002846
   7 C :    0.006957
   8 C :   -0.012136
   9 C :   -0.057984
  10 C :    0.031733
  11 C :    0.083340
  12 O :   -0.148033
  13 C :   -0.090636
  14 C :    0.079525
  15 C :   -0.142869
  16 C :   -0.019978
  17 N :   -0.063808
  18 C :   -0.015874
  19 N :   -0.064276
  20 C :    0.080344
  21 C :   -0.088749
  22 C :    0.083951
  23 O :   -0.088865
  24 C :    0.087976
  25 C :    0.002656
  26 O :   -0.132154
  27 C :    0.073403
  28 C :   -0.017035
  29 C :   -0.039242
  30 C :   -0.038292
  31 N :   -0.282453
  32 S :    0.633324
  33 N :   -0.273400
  34 C :   -0.166138
  35 C :   -0.050154
  36 C :   -0.015233
  37 C :   -0.219443
  38 S :    0.443499
  39 C :   -0.221535
  40 C :   -0.016076
  41 N :    0.023767
  42 C :    0.040216
  43 C :   -0.058054
  44 C :   -0.159880
  45 S :    0.453668
  46 C :   -0.029954
  47 C :    0.032202
  48 O :   -0.112738
  49 C :    0.079518
  50 C :    0.086173
  51 O :   -0.090424
  52 C :    0.086854
  53 C :   -0.099515
  54 C :   -0.037975
  55 C :   -0.048269
  56 N :   -0.288643
  57 S :    0.635287
  58 N :   -0.284376
  59 C :    0.067140
  60 C :   -0.088093
  61 C :    0.084230
  62 O :   -0.149162
  63 C :   -0.058872
  64 C :    0.033196
  65 C :   -0.019738
  66 C :    0.003486
  67 C :   -0.043070
  68 C :    0.092750
  69 C :   -0.038614
  70 C :    0.004205
  71 F :   -0.066044
  72 C :    0.008987
  73 C :   -0.012522
  74 C :    0.080792
  75 C :   -0.140794
  76 C :   -0.009896
  77 N :   -0.065896
  78 C :   -0.020454
  79 N :   -0.058537
  80 H :    0.041880
  81 H :    0.040635
  82 H :    0.034694
  83 H :    0.037653
  84 H :    0.038127
  85 H :    0.046165
  86 H :    0.028526
  87 H :    0.027186
  88 H :    0.015591
  89 H :    0.016689
  90 H :    0.016501
  91 H :    0.028049
  92 H :    0.029361
  93 H :    0.032273
  94 H :    0.028763
  95 H :    0.036225
  96 H :    0.030095
  97 H :    0.014920
  98 H :    0.024702
  99 H :    0.014006
 100 H :    0.028277
 101 H :    0.028576
 102 H :    0.021026
 103 H :    0.044180
 104 H :    0.038920
 105 H :    0.042712
 106 H :    0.041305
 107 H :    0.035327
 108 H :    0.038483

  Mayer bond orders larger than 0.100000
B(  0-C ,  1-C ) :   1.4427 B(  0-C ,  6-C ) :   1.2017 B(  0-C , 80-H ) :   1.0061
B(  1-C ,  2-F ) :   1.0859 B(  1-C ,  3-C ) :   1.2564 B(  3-C ,  4-C ) :   1.4590
B(  3-C , 81-H ) :   0.9928 B(  4-C ,  5-C ) :   1.2361 B(  4-C , 82-H ) :   0.9964
B(  5-C ,  6-C ) :   1.2609 B(  5-C , 10-C ) :   1.1889 B(  6-C ,  7-C ) :   1.2009
B(  7-C ,  8-C ) :   1.4622 B(  7-C , 83-H ) :   0.9940 B(  8-C ,  9-C ) :   1.2186
B(  8-C , 14-C ) :   1.0024 B(  9-C , 10-C ) :   1.4754 B(  9-C , 11-C ) :   0.9159
B( 10-C , 84-H ) :   1.0139 B( 11-C , 12-O ) :   2.2683 B( 11-C , 13-C ) :   0.9452
B( 13-C , 14-C ) :   1.0525 B( 13-C , 20-C ) :   1.6274 B( 14-C , 15-C ) :   1.6234
B( 15-C , 16-C ) :   1.1483 B( 15-C , 18-C ) :   1.1720 B( 16-C , 17-N ) :   2.9800
B( 18-C , 19-N ) :   2.9992 B( 20-C , 21-C ) :   1.1191 B( 20-C , 85-H ) :   0.9392
B( 21-C , 22-C ) :   1.3551 B( 21-C , 28-C ) :   0.1142 B( 21-C , 30-C ) :   1.1816
B( 22-C , 23-O ) :   1.2571 B( 22-C , 25-C ) :   1.1732 B( 23-O , 24-C ) :   0.9155
B( 24-C , 86-H ) :   0.9725 B( 24-C , 87-H ) :   0.9787 B( 24-C , 88-H ) :   0.9743
B( 25-C , 26-O ) :   1.0976 B( 25-C , 28-C ) :   1.3893 B( 26-O , 27-C ) :   0.9084
B( 27-C , 89-H ) :   0.9693 B( 27-C , 90-H ) :   0.9640 B( 27-C , 91-H ) :   0.9810
B( 28-C , 29-C ) :   1.1394 B( 28-C , 34-C ) :   1.1819 B( 29-C , 30-C ) :   1.1475
B( 29-C , 33-N ) :   1.5536 B( 30-C , 31-N ) :   1.5455 B( 31-N , 32-S ) :   1.2366
B( 31-N , 33-N ) :   0.1355 B( 32-S , 33-N ) :   1.2493 B( 34-C , 35-C ) :   1.4463
B( 34-C , 38-S ) :   1.0720 B( 35-C , 36-C ) :   1.2085 B( 35-C , 92-H ) :   0.9973
B( 36-C , 37-C ) :   1.3597 B( 36-C , 41-N ) :   1.1448 B( 37-C , 38-S ) :   1.0036
B( 37-C , 39-C ) :   1.3970 B( 39-C , 40-C ) :   1.3634 B( 39-C , 45-S ) :   1.0054
B( 40-C , 41-N ) :   1.1404 B( 40-C , 43-C ) :   1.2070 B( 41-N , 42-C ) :   0.9712
B( 42-C , 93-H ) :   0.9711 B( 42-C , 94-H ) :   0.9734 B( 42-C , 95-H ) :   0.9718
B( 43-C , 44-C ) :   1.4333 B( 43-C , 96-H ) :   1.0165 B( 44-C , 45-S ) :   1.0992
B( 44-C , 46-C ) :   1.1678 B( 46-C , 47-C ) :   1.4264 B( 46-C , 53-C ) :   0.1060
B( 46-C , 55-C ) :   1.1257 B( 47-C , 48-O ) :   1.1554 B( 47-C , 50-C ) :   1.1827
B( 48-O , 49-C ) :   0.9197 B( 49-C , 97-H ) :   0.9657 B( 49-C , 98-H ) :   0.9832
B( 49-C , 99-H ) :   0.9661 B( 50-C , 51-O ) :   1.1974 B( 50-C , 53-C ) :   1.3248
B( 51-O , 52-C ) :   0.9080 B( 52-C ,100-H ) :   0.9570 B( 52-C ,101-H ) :   0.9739
B( 52-C ,102-H ) :   0.9772 B( 53-C , 54-C ) :   1.1742 B( 53-C , 59-C ) :   1.0735
B( 54-C , 55-C ) :   1.1598 B( 54-C , 58-N ) :   1.5467 B( 55-C , 56-N ) :   1.5327
B( 56-N , 57-S ) :   1.2462 B( 56-N , 58-N ) :   0.1354 B( 57-S , 58-N ) :   1.2317
B( 59-C , 60-C ) :   1.6503 B( 59-C ,103-H ) :   0.9398 B( 60-C , 61-C ) :   0.9410
B( 60-C , 74-C ) :   1.0465 B( 61-C , 62-O ) :   2.2675 B( 61-C , 63-C ) :   0.9164
B( 63-C , 64-C ) :   1.4708 B( 63-C , 73-C ) :   1.2141 B( 64-C , 65-C ) :   1.1910
B( 64-C ,104-H ) :   1.0143 B( 65-C , 66-C ) :   1.2563 B( 65-C , 70-C ) :   1.2360
B( 66-C , 67-C ) :   1.2032 B( 66-C , 72-C ) :   1.2001 B( 67-C , 68-C ) :   1.4416
B( 67-C ,105-H ) :   1.0059 B( 68-C , 69-C ) :   1.2553 B( 68-C , 71-F ) :   1.0872
B( 69-C , 70-C ) :   1.4603 B( 69-C ,106-H ) :   0.9926 B( 70-C ,107-H ) :   0.9964
B( 72-C , 73-C ) :   1.4637 B( 72-C ,108-H ) :   0.9945 B( 73-C , 74-C ) :   1.0047
B( 74-C , 75-C ) :   1.6307 B( 75-C , 76-C ) :   1.1759 B( 75-C , 78-C ) :   1.1440
B( 76-C , 77-N ) :   2.9337 B( 78-C , 79-N ) :   2.9811

-----------------------------------------------------------------------------
         ABSORPTION SPECTRUM VIA TRANSITION ELECTRIC DIPOLE MOMENTS
-----------------------------------------------------------------------------
State   Energy  Wavelength   fosc         T2         TX        TY        TZ
        (cm-1)    (nm)                  (au**2)     (au)      (au)      (au)
-----------------------------------------------------------------------------
   0   13554.5    737.8   1.903999739  46.24452  -5.87313   1.90871  -2.84740
   1   17465.6    572.6   0.033653341   0.63434   0.56661  -0.00982  -0.55963
   2   21216.0    471.3   0.030580894   0.47453  -0.05594  -0.09054  -0.68059
   3   23738.2    421.3   0.112702306   1.56300   0.00950   1.11889   0.55766
   4   23955.2    417.4   0.005324543   0.07317  -0.15210  -0.19000   0.11806
   5   24195.4    413.3   0.016049755   0.21838   0.25711  -0.23296   0.31305
   6   24518.3    407.9   0.006728544   0.09035   0.23710  -0.13242   0.12882
   7   25735.6    388.6   0.125414178   1.60431  -0.35313   1.17043   0.33121
   8   26321.9    379.9   0.044770838   0.55996   0.07419   0.08098  -0.74020
   9   26852.5    372.4   0.254768079   3.12346   0.70321   0.21613   1.60694
  10   27752.4    360.3   0.215012782   2.55059  -1.03775   0.63686  -1.03347
  11   27992.3    357.2   0.045875345   0.53953   0.60576  -0.37617   0.17630
  12   28194.2    354.7   0.013005925   0.15187   0.32448   0.12020   0.17925
  13   28350.0    352.7   0.052631415   0.61118  -0.46700  -0.17584  -0.60180
  14   28516.2    350.7   0.143813339   1.66029  -1.18829   0.47997  -0.13372
  15   29301.7    341.3   0.018816538   0.21141  -0.32979   0.11772  -0.29798
  16   29921.0    334.2   0.009620790   0.10585  -0.11001   0.00899  -0.30606
  17   30097.9    332.2   0.081947732   0.89635  -0.06187   0.01450   0.94462
  18   31867.3    313.8   0.010700183   0.11054   0.15211  -0.27870   0.09864
  19   32110.1    311.4   0.049358549   0.50605   0.67997  -0.17403   0.11577
  20   32378.3    308.8   0.288074491   2.92905   1.56647  -0.67193   0.15410
  21   32498.8    307.7   0.286495833   2.90220   1.30312  -0.81788   0.73153
  22   32881.7    304.1   0.029731214   0.29767  -0.07083   0.31411  -0.44044
  23   33020.7    302.8   0.026078964   0.26000   0.09715  -0.02292   0.50004
  24   33421.1    299.2   0.143361698   1.41217   0.08557  -0.35583   1.13059
  25   33757.6    296.2   0.308488896   3.00845  -0.98205   1.09233  -0.92242
  26   33999.3    294.1   0.206851398   2.00292   0.53874  -0.51839   1.20164
  27   34083.5    293.4   0.148272909   1.43216   0.29047   0.58860  -1.00067
  28   34154.1    292.8   0.028348292   0.27325   0.10321  -0.20968   0.46758
  29   34360.9    291.0   0.007279043   0.06974  -0.24620  -0.01877   0.09367
  30   34643.6    288.7   0.149385421   1.41958  -0.36733   0.55579  -0.98780
  31   34974.7    285.9   0.127141211   1.19676   0.22901  -0.08334   1.06648
  32   35116.7    284.8   0.007806389   0.07318   0.17689  -0.10586   0.17518
  33   35713.3    280.0   0.019215793   0.17713   0.06926   0.01027   0.41501
  34   35976.4    278.0   0.091939803   0.84132  -0.68674   0.45638  -0.40178
  35   36191.7    276.3   0.014132035   0.12855   0.00860   0.18377   0.30774
  36   36523.0    273.8   0.024306618   0.21910  -0.31455   0.33372   0.09373
  37   36580.8    273.4   0.001065806   0.00959  -0.07874   0.02065  -0.05445
  38   36652.6    272.8   0.019994364   0.17959  -0.24415  -0.00039   0.34638
  39   37182.3    268.9   0.028346506   0.25098   0.23979  -0.35219   0.26352
  40   37288.6    268.2   0.098842958   0.87266  -0.28237   0.44992  -0.76844
  41   37412.5    267.3   0.466172008   4.10209  -1.26664   1.27625  -0.93213
  42   37539.6    266.4   0.021369739   0.18741   0.36633  -0.23006  -0.01668
  43   37704.2    265.2   0.020525924   0.17922  -0.32922  -0.06735   0.25749
  44   37803.1    264.5   0.023880372   0.20796   0.03590   0.39591   0.22345
  45   37882.8    264.0   0.082055773   0.71309  -0.41419   0.61467  -0.40462
  46   37997.3    263.2   0.099760101   0.86433   0.00728   0.68855  -0.62464
  47   38285.2    261.2   0.145178429   1.24838   0.10324   0.90509   0.64695
  48   38468.8    260.0   0.060941865   0.52153  -0.00293   0.63208   0.34929
  49   38933.1    256.9   0.021315661   0.18024  -0.23645   0.09400   0.33985
  50   39258.0    254.7   0.031639059   0.26532  -0.03148   0.47553   0.19544
  51   39313.0    254.4   0.009088075   0.07610   0.06922   0.18881  -0.18885
  52   39558.1    252.8   0.136222401   1.13368   0.04876   0.57666   0.89373
  53   39806.4    251.2   0.051157697   0.42309  -0.36050   0.45392   0.29510
  54   39874.6    250.8   0.025180818   0.20790  -0.18599   0.13576  -0.39354
  55   40173.7    248.9   0.016886244   0.13838  -0.11366   0.23137   0.26819

FINAL SINGLE POINT ENERGY     -4997.452775783262

DIPOLE MOMENT
-------------
                                X             Y             Z
Electronic contribution:    -11.45909       7.15652       7.77073
Nuclear contribution   :     12.55828      -7.61157      -7.98176
                        -----------------------------------------
Total Dipole Moment    :      1.09919      -0.45505      -0.21104
                        -----------------------------------------
Magnitude (a.u.)       :      1.20823
Magnitude (Debye)      :      3.07108

Rotational constants in cm-1:     0.002256     0.000182     0.000173
Rotational constants in MHz :    67.634012     5.457238     5.191405

                             ****ORCA TERMINATED NORMALLY****
TOTAL RUN TIME: 0 days 0 hours 12 minutes 33 seconds 566 msec
