                         Program Version 4.2.0 -  RELEASE  -
|  1> # ORCA input file
|  2> # SCF done       -151.630781572193          0.000453654368
|  3> ! CAM-B3LYP def2-SVP def2/J RIJCOSX Grid4 TightSCF
|  4> %maxcore 5000
|  5> %tddft
|  6>     Mode sTDDFT
|  7>     Ethresh 5.0
|  8>     maxcore 5000
|  9> end
| 10>
| 11> %pal
| 12>   nprocs 6
| 13>   end
| 14> * xyz 0 1
| 15>    C        4.10377         9.54452         6.32131
| 16>    C        3.40823         8.45573         6.75180
| 17>    C        2.56104         7.95877         5.74267
| 18>    C        2.64436         8.70021         4.56113
| 19>    S        3.75004         9.99378         4.68572
| 20>    C        1.75910         8.12883         3.59760
| 21>    C        1.12247         7.02606         4.18576
| 22>    C        1.60309         6.88144         5.55185
| 23>    C        1.23451         5.93554         6.46335
| 24>    C        0.28935         4.92887         6.17409
| 25>    N       -0.47681         4.10303         5.96013
| 26>    C        1.77514         5.89658         7.76554
| 27>    N        2.21033         5.85838         8.82602
| 28>    C        0.22998         6.39213         3.31358
| 29>    C        0.20120         7.01505         2.08860
| 30>    S        1.26933         8.39092         1.98647
| 31>    C       -0.57074         6.68292         0.91893
| 32>    N       -1.38805         5.63041         0.98083
| 33>    C       -2.07388         5.36108        -0.11761
| 34>    C       -1.96404         6.11404        -1.27248
| 35>    C       -1.07944         7.20419        -1.24295
| 36>    N       -0.39018         7.47142        -0.13224
| 37>    C       -0.88639         8.05846        -2.38820
| 38>    C       -0.04384         9.11155        -2.35663
| 39>    C        0.21557        10.01259        -3.42396
| 40>    C       -0.29772        10.02892        -4.70605
| 41>    C        0.21132        11.09289        -5.45317
| 42>    C        1.12463        11.90143        -4.73896
| 43>    S        1.34844        11.33020        -3.13268
| 44>    C        1.53259        12.91243        -5.61072
| 45>    C        0.85408        12.69042        -6.83104
| 46>    N        0.05488        11.58232        -6.72328
| 47>    C       -0.78020        11.01618        -7.74495
| 48>    C        1.15627        13.64133        -7.81122
| 49>    C        2.05392        14.56798        -7.33865
| 50>    S        2.55301        14.29997        -5.68632
| 51>    C        2.60286        15.70376        -8.02859
| 52>    N        2.19184        15.94657        -9.27757
| 53>    C        2.70881        17.01073        -9.86604
| 54>    C        3.62733        17.84107        -9.24641
| 55>    C        4.00903        17.49820        -7.94126
| 56>    N        3.48360        16.42708        -7.34909
| 57>    C        4.97753        18.27413        -7.20006
| 58>    C        5.39065        17.89629        -5.97475
| 59>    C        6.34815        18.57818        -5.17301
| 60>    C        7.00991        19.76878        -5.40912
| 61>    C        7.88842        20.09627        -4.37488
| 62>    C        7.89703        19.14529        -3.34430
| 63>    S        6.82309        17.85799        -3.64165
| 64>    C        8.82865        19.56799        -2.35093
| 65>    C        9.39767        20.77966        -2.75718
| 66>    C        8.82767        21.15845        -4.03769
| 67>    C        9.10490        22.27395        -4.77286
| 68>    C       10.03324        23.24610        -4.34530
| 69>    N       10.78678        24.04003        -4.00309
| 70>    C        8.47938        22.53099        -6.01053
| 71>    N        7.97341        22.74282        -7.01780
| 72>    C       10.33899        21.26899        -1.83107
| 73>    C       10.46206        20.43386        -0.76269
| 74>    S        9.44176        19.03598        -0.85012
| 75>    H        4.81753        10.12638         6.86931
| 76>    H        3.50250         8.03839         7.73755
| 77>    H       -0.37130         5.52969         3.53440
| 78>    H       -2.73411         4.50490        -0.05725
| 79>    H       -2.53097         5.87849        -2.15850
| 80>    H       -1.45378         7.81181        -3.27365
| 81>    H        0.48723         9.29581        -1.43222
| 82>    H       -1.00216         9.30409        -5.06964
| 83>    H       -0.73585        11.64624        -8.63012
| 84>    H       -1.81578        10.95693        -7.40169
| 85>    H       -0.44014        10.01069        -8.00691
| 86>    H        0.76594        13.68489        -8.81066
| 87>    H        2.36679        17.19856       -10.87649
| 88>    H        4.03583        18.70639        -9.74207
| 89>    H        5.36042        19.16096        -7.68314
| 90>    H        4.96733        16.98924        -5.56353
| 91>    H        6.85338        20.36411        -6.28938
| 92>    H       10.89491        22.18181        -1.94280
| 93>    H       11.09963        20.54869         0.09088
| 94> *
| 95>
| 96>                          ****END OF INPUT****

CARTESIAN COORDINATES (ANGSTROEM)
---------------------------------
  C      4.103770    9.544520    6.321310
  C      3.408230    8.455730    6.751800
  C      2.561040    7.958770    5.742670
  C      2.644360    8.700210    4.561130
  S      3.750040    9.993780    4.685720
  C      1.759100    8.128830    3.597600
  C      1.122470    7.026060    4.185760
  C      1.603090    6.881440    5.551850
  C      1.234510    5.935540    6.463350
  C      0.289350    4.928870    6.174090
  N     -0.476810    4.103030    5.960130
  C      1.775140    5.896580    7.765540
  N      2.210330    5.858380    8.826020
  C      0.229980    6.392130    3.313580
  C      0.201200    7.015050    2.088600
  S      1.269330    8.390920    1.986470
  C     -0.570740    6.682920    0.918930
  N     -1.388050    5.630410    0.980830
  C     -2.073880    5.361080   -0.117610
  C     -1.964040    6.114040   -1.272480
  C     -1.079440    7.204190   -1.242950
  N     -0.390180    7.471420   -0.132240
  C     -0.886390    8.058460   -2.388200
  C     -0.043840    9.111550   -2.356630
  C      0.215570   10.012590   -3.423960
  C     -0.297720   10.028920   -4.706050
  C      0.211320   11.092890   -5.453170
  C      1.124630   11.901430   -4.738960
  S      1.348440   11.330200   -3.132680
  C      1.532590   12.912430   -5.610720
  C      0.854080   12.690420   -6.831040
  N      0.054880   11.582320   -6.723280
  C     -0.780200   11.016180   -7.744950
  C      1.156270   13.641330   -7.811220
  C      2.053920   14.567980   -7.338650
  S      2.553010   14.299970   -5.686320
  C      2.602860   15.703760   -8.028590
  N      2.191840   15.946570   -9.277570
  C      2.708810   17.010730   -9.866040
  C      3.627330   17.841070   -9.246410
  C      4.009030   17.498200   -7.941260
  N      3.483600   16.427080   -7.349090
  C      4.977530   18.274130   -7.200060
  C      5.390650   17.896290   -5.974750
  C      6.348150   18.578180   -5.173010
  C      7.009910   19.768780   -5.409120
  C      7.888420   20.096270   -4.374880
  C      7.897030   19.145290   -3.344300
  S      6.823090   17.857990   -3.641650
  C      8.828650   19.567990   -2.350930
  C      9.397670   20.779660   -2.757180
  C      8.827670   21.158450   -4.037690
  C      9.104900   22.273950   -4.772860
  C     10.033240   23.246100   -4.345300
  N     10.786780   24.040030   -4.003090
  C      8.479380   22.530990   -6.010530
  N      7.973410   22.742820   -7.017800
  C     10.338990   21.268990   -1.831070
  C     10.462060   20.433860   -0.762690
  S      9.441760   19.035980   -0.850120
  H      4.817530   10.126380    6.869310
  H      3.502500    8.038390    7.737550
  H     -0.371300    5.529690    3.534400
  H     -2.734110    4.504900   -0.057250
  H     -2.530970    5.878490   -2.158500
  H     -1.453780    7.811810   -3.273650
  H      0.487230    9.295810   -1.432220
  H     -1.002160    9.304090   -5.069640
  H     -0.735850   11.646240   -8.630120
  H     -1.815780   10.956930   -7.401690
  H     -0.440140   10.010690   -8.006910
  H      0.765940   13.684890   -8.810660
  H      2.366790   17.198560  -10.876490
  H      4.035830   18.706390   -9.742070
  H      5.360420   19.160960   -7.683140
  H      4.967330   16.989240   -5.563530
  H      6.853380   20.364110   -6.289380
  H     10.894910   22.181810   -1.942800
  H     11.099630   20.548690    0.090880

 Total Charge           Charge          ....    0
 Multiplicity           Mult            ....    1
 Number of Electrons    NEL             ....  448
 Basis Dimension        Dim             ....  959

ORBITAL ENERGIES
----------------

  NO   OCC          E(Eh)            E(eV)
   0   2.0000     -88.987660     -2421.4773
   1   2.0000     -88.987575     -2421.4750
   2   2.0000     -88.979337     -2421.2509
   3   2.0000     -88.974924     -2421.1308
   4   2.0000     -88.955453     -2420.6009
   5   2.0000     -88.949955     -2420.4513
   6   2.0000     -14.465490      -393.6260
   7   2.0000     -14.429286      -392.6408
   8   2.0000     -14.428321      -392.6146
   9   2.0000     -14.419117      -392.3641
  10   2.0000     -14.417353      -392.3161
  11   2.0000     -14.406957      -392.0332
  12   2.0000     -14.406355      -392.0169
  13   2.0000     -14.405596      -391.9962
  14   2.0000     -14.403116      -391.9287
  15   2.0000     -10.362089      -281.9668
  16   2.0000     -10.351309      -281.6734
  17   2.0000     -10.350294      -281.6458
  18   2.0000     -10.346034      -281.5299
  19   2.0000     -10.345600      -281.5181
  20   2.0000     -10.339698      -281.3575
  21   2.0000     -10.330264      -281.1008
  22   2.0000     -10.330013      -281.0939
  23   2.0000     -10.329180      -281.0713
  24   2.0000     -10.328805      -281.0611
  25   2.0000     -10.328473      -281.0520
  26   2.0000     -10.326574      -281.0004
  27   2.0000     -10.322655      -280.8937
  28   2.0000     -10.319958      -280.8203
  29   2.0000     -10.319552      -280.8093
  30   2.0000     -10.319296      -280.8023
  31   2.0000     -10.318719      -280.7866
  32   2.0000     -10.318210      -280.7728
  33   2.0000     -10.317853      -280.7631
  34   2.0000     -10.317350      -280.7494
  35   2.0000     -10.311884      -280.6006
  36   2.0000     -10.307486      -280.4809
  37   2.0000     -10.306322      -280.4493
  38   2.0000     -10.304120      -280.3894
  39   2.0000     -10.302724      -280.3514
  40   2.0000     -10.301033      -280.3054
  41   2.0000     -10.299366      -280.2600
  42   2.0000     -10.299248      -280.2568
  43   2.0000     -10.299043      -280.2512
  44   2.0000     -10.297390      -280.2062
  45   2.0000     -10.295104      -280.1440
  46   2.0000     -10.294181      -280.1189
  47   2.0000     -10.292517      -280.0736
  48   2.0000     -10.290312      -280.0136
  49   2.0000     -10.289647      -279.9955
  50   2.0000     -10.289265      -279.9851
  51   2.0000     -10.288679      -279.9692
  52   2.0000     -10.287533      -279.9380
  53   2.0000     -10.286549      -279.9112
  54   2.0000     -10.284528      -279.8562
  55   2.0000     -10.281120      -279.7635
  56   2.0000     -10.280714      -279.7524
  57   2.0000     -10.279236      -279.7122
  58   2.0000     -10.278743      -279.6988
  59   2.0000     -10.272967      -279.5417
  60   2.0000      -8.082643      -219.9399
  61   2.0000      -8.082384      -219.9329
  62   2.0000      -8.074302      -219.7129
  63   2.0000      -8.068863      -219.5649
  64   2.0000      -8.050333      -219.0607
  65   2.0000      -8.044115      -218.8915
  66   2.0000      -6.051889      -164.6803
  67   2.0000      -6.051495      -164.6695
  68   2.0000      -6.047450      -164.5595
  69   2.0000      -6.047362      -164.5571
  70   2.0000      -6.045278      -164.5004
  71   2.0000      -6.044987      -164.4925
  72   2.0000      -6.043534      -164.4529
  73   2.0000      -6.039125      -164.3329
  74   2.0000      -6.038063      -164.3041
  75   2.0000      -6.036970      -164.2743
  76   2.0000      -6.033731      -164.1862
  77   2.0000      -6.031573      -164.1275
  78   2.0000      -6.019889      -163.8095
  79   2.0000      -6.015886      -163.7006
  80   2.0000      -6.013811      -163.6441
  81   2.0000      -6.011919      -163.5926
  82   2.0000      -6.009606      -163.5297
  83   2.0000      -6.005686      -163.4230
  84   2.0000      -1.092468       -29.7276
  85   2.0000      -1.082214       -29.4485
  86   2.0000      -1.081491       -29.4289
  87   2.0000      -1.041878       -28.3509
  88   2.0000      -1.030800       -28.0495
  89   2.0000      -1.020233       -27.7620
  90   2.0000      -1.009766       -27.4771
  91   2.0000      -1.006379       -27.3850
  92   2.0000      -0.995778       -27.0965
  93   2.0000      -0.994005       -27.0483
  94   2.0000      -0.982301       -26.7298
  95   2.0000      -0.980973       -26.6936
  96   2.0000      -0.980452       -26.6794
  97   2.0000      -0.973298       -26.4848
  98   2.0000      -0.969337       -26.3770
  99   2.0000      -0.955752       -26.0073
 100   2.0000      -0.945130       -25.7183
 101   2.0000      -0.917000       -24.9528
 102   2.0000      -0.910852       -24.7855
 103   2.0000      -0.903785       -24.5932
 104   2.0000      -0.892909       -24.2973
 105   2.0000      -0.881957       -23.9993
 106   2.0000      -0.872699       -23.7473
 107   2.0000      -0.859459       -23.3871
 108   2.0000      -0.855504       -23.2794
 109   2.0000      -0.850978       -23.1563
 110   2.0000      -0.850130       -23.1332
 111   2.0000      -0.839970       -22.8568
 112   2.0000      -0.837206       -22.7815
 113   2.0000      -0.831761       -22.6334
 114   2.0000      -0.799804       -21.7638
 115   2.0000      -0.796668       -21.6784
 116   2.0000      -0.793082       -21.5808
 117   2.0000      -0.779881       -21.2217
 118   2.0000      -0.776006       -21.1162
 119   2.0000      -0.765739       -20.8368
 120   2.0000      -0.755343       -20.5539
 121   2.0000      -0.749419       -20.3927
 122   2.0000      -0.742854       -20.2141
 123   2.0000      -0.728927       -19.8351
 124   2.0000      -0.709097       -19.2955
 125   2.0000      -0.701893       -19.0995
 126   2.0000      -0.700113       -19.0510
 127   2.0000      -0.690688       -18.7946
 128   2.0000      -0.677534       -18.4366
 129   2.0000      -0.673137       -18.3170
 130   2.0000      -0.668540       -18.1919
 131   2.0000      -0.664758       -18.0890
 132   2.0000      -0.657570       -17.8934
 133   2.0000      -0.645798       -17.5731
 134   2.0000      -0.640870       -17.4389
 135   2.0000      -0.632321       -17.2063
 136   2.0000      -0.628256       -17.0957
 137   2.0000      -0.623590       -16.9688
 138   2.0000      -0.618812       -16.8387
 139   2.0000      -0.613802       -16.7024
 140   2.0000      -0.609350       -16.5813
 141   2.0000      -0.603050       -16.4098
 142   2.0000      -0.598908       -16.2971
 143   2.0000      -0.596284       -16.2257
 144   2.0000      -0.587705       -15.9923
 145   2.0000      -0.585072       -15.9206
 146   2.0000      -0.581494       -15.8232
 147   2.0000      -0.568657       -15.4739
 148   2.0000      -0.565660       -15.3924
 149   2.0000      -0.556167       -15.1341
 150   2.0000      -0.551336       -15.0026
 151   2.0000      -0.544256       -14.8100
 152   2.0000      -0.543576       -14.7914
 153   2.0000      -0.540019       -14.6947
 154   2.0000      -0.536085       -14.5876
 155   2.0000      -0.533249       -14.5104
 156   2.0000      -0.530299       -14.4302
 157   2.0000      -0.527160       -14.3448
 158   2.0000      -0.523360       -14.2413
 159   2.0000      -0.520509       -14.1638
 160   2.0000      -0.515147       -14.0179
 161   2.0000      -0.511109       -13.9080
 162   2.0000      -0.505485       -13.7550
 163   2.0000      -0.502656       -13.6780
 164   2.0000      -0.497707       -13.5433
 165   2.0000      -0.497099       -13.5268
 166   2.0000      -0.495082       -13.4719
 167   2.0000      -0.491773       -13.3818
 168   2.0000      -0.490888       -13.3578
 169   2.0000      -0.487751       -13.2724
 170   2.0000      -0.485620       -13.2144
 171   2.0000      -0.481129       -13.0922
 172   2.0000      -0.480606       -13.0779
 173   2.0000      -0.478320       -13.0158
 174   2.0000      -0.476214       -12.9584
 175   2.0000      -0.467208       -12.7134
 176   2.0000      -0.465838       -12.6761
 177   2.0000      -0.465147       -12.6573
 178   2.0000      -0.460711       -12.5366
 179   2.0000      -0.459952       -12.5159
 180   2.0000      -0.457583       -12.4515
 181   2.0000      -0.456094       -12.4110
 182   2.0000      -0.455121       -12.3845
 183   2.0000      -0.450868       -12.2687
 184   2.0000      -0.450001       -12.2452
 185   2.0000      -0.447058       -12.1651
 186   2.0000      -0.445513       -12.1230
 187   2.0000      -0.444477       -12.0948
 188   2.0000      -0.440161       -11.9774
 189   2.0000      -0.439245       -11.9525
 190   2.0000      -0.439124       -11.9492
 191   2.0000      -0.436877       -11.8880
 192   2.0000      -0.432172       -11.7600
 193   2.0000      -0.431031       -11.7289
 194   2.0000      -0.428758       -11.6671
 195   2.0000      -0.427280       -11.6269
 196   2.0000      -0.424702       -11.5567
 197   2.0000      -0.423575       -11.5261
 198   2.0000      -0.421748       -11.4763
 199   2.0000      -0.414419       -11.2769
 200   2.0000      -0.412605       -11.2276
 201   2.0000      -0.408582       -11.1181
 202   2.0000      -0.405529       -11.0350
 203   2.0000      -0.401221       -10.9178
 204   2.0000      -0.382663       -10.4128
 205   2.0000      -0.378164       -10.2904
 206   2.0000      -0.377598       -10.2750
 207   2.0000      -0.377052       -10.2601
 208   2.0000      -0.375120       -10.2075
 209   2.0000      -0.359089        -9.7713
 210   2.0000      -0.345778        -9.4091
 211   2.0000      -0.340525        -9.2662
 212   2.0000      -0.334538        -9.1032
 213   2.0000      -0.330297        -8.9878
 214   2.0000      -0.326153        -8.8751
 215   2.0000      -0.324894        -8.8408
 216   2.0000      -0.323832        -8.8119
 217   2.0000      -0.319464        -8.6931
 218   2.0000      -0.308762        -8.4018
 219   2.0000      -0.306339        -8.3359
 220   2.0000      -0.271246        -7.3810
 221   2.0000      -0.263532        -7.1711
 222   2.0000      -0.262757        -7.1500
 223   2.0000      -0.238921        -6.5014
 224   0.0000      -0.100886        -2.7452
 225   0.0000      -0.090209        -2.4547
 226   0.0000      -0.056804        -1.5457
 227   0.0000      -0.051318        -1.3964
 228   0.0000      -0.024366        -0.6630

MULLIKEN ATOMIC CHARGES
-----------------------
   0 C :   -0.083038
   1 C :    0.035834
   2 C :   -0.029418
   3 C :   -0.119699
   4 S :    0.176138
   5 C :   -0.094240
   6 C :   -0.001100
   7 C :    0.297127
   8 C :   -0.302127
   9 C :   -0.192417
  10 N :    0.175047
  11 C :   -0.192104
  12 N :    0.168521
  13 C :   -0.036129
  14 C :   -0.046139
  15 S :    0.218229
  16 C :   -0.059742
  17 N :   -0.069405
  18 C :    0.090218
  19 C :   -0.057400
  20 C :    0.074640
  21 N :   -0.088796
  22 C :   -0.035540
  23 C :    0.095254
  24 C :   -0.076969
  25 C :   -0.072678
  26 C :    0.148022
  27 C :   -0.118571
  28 S :    0.141876
  29 C :   -0.121118
  30 C :    0.154993
  31 N :   -0.171753
  32 C :    0.129836
  33 C :   -0.091349
  34 C :   -0.045242
  35 S :    0.166142
  36 C :   -0.057503
  37 N :   -0.076039
  38 C :    0.086404
  39 C :   -0.056292
  40 C :    0.064686
  41 N :   -0.076452
  42 C :   -0.026029
  43 C :    0.083540
  44 C :   -0.075610
  45 C :   -0.021371
  46 C :   -0.005333
  47 C :   -0.102823
  48 S :    0.197515
  49 C :   -0.117052
  50 C :   -0.032775
  51 C :    0.303541
  52 C :   -0.299688
  53 C :   -0.189826
  54 N :    0.170295
  55 C :   -0.184482
  56 N :    0.168103
  57 C :    0.038044
  58 C :   -0.082348
  59 S :    0.182254
  60 H :    0.033417
  61 H :    0.009832
  62 H :    0.016319
  63 H :    0.006619
  64 H :   -0.011757
  65 H :   -0.029640
  66 H :   -0.000985
  67 H :   -0.028845
  68 H :    0.040757
  69 H :    0.039040
  70 H :    0.038267
  71 H :   -0.014335
  72 H :    0.003050
  73 H :   -0.006634
  74 H :   -0.014447
  75 H :    0.006746
  76 H :    0.005855
  77 H :    0.012146
  78 H :    0.036930
Sum of atomic charges:   -0.0000000

LOEWDIN ATOMIC CHARGES
----------------------
   0 C :   -0.180099
   1 C :   -0.035488
   2 C :   -0.074949
   3 C :   -0.185516
   4 S :    0.473809
   5 C :   -0.178079
   6 C :   -0.079016
   7 C :    0.083564
   8 C :   -0.107543
   9 C :   -0.018553
  10 N :   -0.033853
  11 C :   -0.016284
  12 N :   -0.039714
  13 C :   -0.003262
  14 C :   -0.188423
  15 S :    0.505459
  16 C :    0.013555
  17 N :   -0.099598
  18 C :    0.054595
  19 C :   -0.076772
  20 C :    0.043205
  21 N :   -0.112750
  22 C :   -0.059477
  23 C :    0.007339
  24 C :   -0.170282
  25 C :   -0.062760
  26 C :   -0.017984
  27 C :   -0.218865
  28 S :    0.421087
  29 C :   -0.223565
  30 C :   -0.017453
  31 N :    0.024794
  32 C :    0.039883
  33 C :   -0.049531
  34 C :   -0.182301
  35 S :    0.436635
  36 C :    0.017218
  37 N :   -0.101574
  38 C :    0.052532
  39 C :   -0.075542
  40 C :    0.039698
  41 N :   -0.105476
  42 C :   -0.041789
  43 C :   -0.001648
  44 C :   -0.170740
  45 C :   -0.019198
  46 C :   -0.071119
  47 C :   -0.181944
  48 S :    0.486640
  49 C :   -0.183981
  50 C :   -0.076224
  51 C :    0.084014
  52 C :   -0.105607
  53 C :   -0.017055
  54 N :   -0.034089
  55 C :   -0.015451
  56 N :   -0.037634
  57 C :   -0.034113
  58 C :   -0.177415
  59 S :    0.478330
  60 H :    0.026249
  61 H :    0.041724
  62 H :    0.045685
  63 H :    0.027403
  64 H :    0.031162
  65 H :    0.023380
  66 H :    0.031890
  67 H :    0.028945
  68 H :    0.037531
  69 H :    0.030319
  70 H :    0.029525
  71 H :    0.034372
  72 H :    0.025913
  73 H :    0.032999
  74 H :    0.029056
  75 H :    0.034327
  76 H :    0.039411
  77 H :    0.042650
  78 H :    0.027819

  Mayer bond orders larger than 0.100000
B(  0-C ,  1-C ) :   1.5481 B(  0-C ,  4-S ) :   1.1510 B(  0-C , 60-H ) :   0.9644
B(  1-C ,  2-C ) :   1.2784 B(  1-C , 61-H ) :   0.9954 B(  2-C ,  3-C ) :   1.4686
B(  2-C ,  7-C ) :   1.0116 B(  3-C ,  4-S ) :   1.1356 B(  3-C ,  5-C ) :   1.1749
B(  5-C ,  6-C ) :   1.4542 B(  5-C , 15-S ) :   1.1329 B(  6-C ,  7-C ) :   0.9973
B(  6-C , 13-C ) :   1.2473 B(  7-C ,  8-C ) :   1.7093 B(  8-C ,  9-C ) :   1.1322
B(  8-C , 11-C ) :   1.1305 B(  9-C , 10-N ) :   3.0019 B( 11-C , 12-N ) :   3.0012
B( 13-C , 14-C ) :   1.5035 B( 13-C , 62-H ) :   1.0086 B( 14-C , 15-S ) :   1.1139
B( 14-C , 16-C ) :   0.9988 B( 16-C , 17-N ) :   1.5967 B( 16-C , 21-N ) :   1.5982
B( 17-N , 18-C ) :   1.5265 B( 18-C , 19-C ) :   1.3822 B( 18-C , 63-H ) :   0.9795
B( 19-C , 20-C ) :   1.3165 B( 19-C , 64-H ) :   0.9752 B( 20-C , 21-N ) :   1.4985
B( 20-C , 22-C ) :   1.0941 B( 22-C , 23-C ) :   1.6993 B( 22-C , 65-H ) :   0.9733
B( 23-C , 24-C ) :   1.1058 B( 23-C , 66-H ) :   0.9556 B( 24-C , 25-C ) :   1.4700
B( 24-C , 28-S ) :   1.0922 B( 25-C , 26-C ) :   1.2384 B( 25-C , 67-H ) :   1.0096
B( 26-C , 27-C ) :   1.3874 B( 26-C , 31-N ) :   1.1503 B( 27-C , 28-S ) :   1.0436
B( 27-C , 29-C ) :   1.3898 B( 29-C , 30-C ) :   1.3990 B( 29-C , 35-S ) :   1.0256
B( 30-C , 31-N ) :   1.1396 B( 30-C , 33-C ) :   1.1913 B( 31-N , 32-C ) :   0.9719
B( 32-C , 68-H ) :   0.9737 B( 32-C , 69-H ) :   0.9716 B( 32-C , 70-H ) :   0.9724
B( 33-C , 34-C ) :   1.5162 B( 33-C , 71-H ) :   1.0179 B( 34-C , 35-S ) :   1.1055
B( 34-C , 36-C ) :   1.0175 B( 36-C , 37-N ) :   1.5775 B( 36-C , 41-N ) :   1.5899
B( 37-N , 38-C ) :   1.5416 B( 38-C , 39-C ) :   1.3720 B( 38-C , 72-H ) :   0.9787
B( 39-C , 40-C ) :   1.3253 B( 39-C , 73-H ) :   0.9761 B( 40-C , 41-N ) :   1.5102
B( 40-C , 42-C ) :   1.0792 B( 42-C , 43-C ) :   1.7267 B( 42-C , 74-H ) :   0.9763
B( 43-C , 44-C ) :   1.0799 B( 43-C , 75-H ) :   0.9560 B( 44-C , 45-C ) :   1.4670
B( 44-C , 48-S ) :   1.1084 B( 45-C , 46-C ) :   1.2988 B( 45-C , 76-H ) :   0.9926
B( 46-C , 47-C ) :   1.4479 B( 46-C , 51-C ) :   0.9982 B( 47-C , 48-S ) :   1.1383
B( 47-C , 49-C ) :   1.1779 B( 49-C , 50-C ) :   1.4617 B( 49-C , 59-S ) :   1.1383
B( 50-C , 51-C ) :   1.0175 B( 50-C , 57-C ) :   1.2761 B( 51-C , 52-C ) :   1.7064
B( 52-C , 53-C ) :   1.1289 B( 52-C , 55-C ) :   1.1345 B( 53-C , 54-N ) :   3.0017
B( 55-C , 56-N ) :   2.9891 B( 57-C , 58-C ) :   1.5501 B( 57-C , 77-H ) :   0.9962
B( 58-C , 59-S ) :   1.1501 B( 58-C , 78-H ) :   0.9641

-----------------------------------------------------------------------------
         ABSORPTION SPECTRUM VIA TRANSITION ELECTRIC DIPOLE MOMENTS
-----------------------------------------------------------------------------
State   Energy  Wavelength   fosc         T2         TX        TY        TZ
        (cm-1)    (nm)                  (au**2)     (au)      (au)      (au)
-----------------------------------------------------------------------------
   0   15078.1    663.2   0.051209210   1.11809   0.72703   0.46968   0.60738
   1   16486.9    606.5   0.035255550   0.70398   0.41227   0.11785   0.72120
   2   20679.4    483.6   0.005896793   0.09388   0.01317   0.16911  -0.25515
   3   21972.8    455.1   0.031609855   0.47360  -0.12683  -0.44029   0.51348
   4   23762.3    420.8   1.999847534  27.70669   1.85237   3.94494  -2.95175
   5   27025.7    370.0   0.076885806   0.93658   0.64382   0.43565   0.57644
   6   27156.2    368.2   0.008650265   0.10487  -0.22390  -0.17195  -0.15865
   7   28725.2    348.1   0.000121671   0.00139  -0.01292   0.00670  -0.03439
   8   29185.0    342.6   0.830211480   9.36494  -1.86654  -0.98743  -2.21494
   9   29624.7    337.6   0.313735037   3.48646  -1.20498  -0.93344  -1.07851
  10   30074.8    332.5   0.015919559   0.17426   0.25944   0.20599   0.25402
  11   30325.1    329.8   0.011191372   0.12149   0.18731   0.06595   0.28646
  12   30498.1    327.9   0.240467755   2.59573  -1.04342  -0.86652  -0.86957
  13   30907.4    323.5   0.006351462   0.06765  -0.06283   0.05362  -0.24664
  14   31558.2    316.9   0.740735490   7.72729  -0.34665  -1.69053   2.17927
  15   31961.3    312.9   0.594751455   6.12613   0.38658  -1.38084   2.01742
  16   32579.2    306.9   0.037842072   0.38239  -0.24704  -0.20063  -0.53020
  17   33015.1    302.9   0.149483954   1.49059   0.37608   1.02472  -0.54691
  18   33019.6    302.9   0.017810337   0.17757   0.11329   0.35709  -0.19294
  19   33082.3    302.3   0.008938302   0.08895   0.17395   0.04880  -0.23730
  20   33495.3    298.5   0.289404936   2.84445  -1.13612  -1.14034  -0.50331
  21   33651.6    297.2   0.068262469   0.66781  -0.47519  -0.66472   0.01234
  22   33661.5    297.1   0.088550871   0.86603  -0.14900   0.40611  -0.82396
  23   33872.1    295.2   0.133509865   1.29762  -0.71256  -0.42624  -0.77987
  24   34615.6    288.9   0.005946670   0.05656  -0.16945   0.14477   0.08299
  25   34746.2    287.8   0.086590052   0.82042  -0.16986   0.24651  -0.85487
  26   34962.6    286.0   0.895389760   8.43108  -1.77614  -1.09630  -2.01855
  27   36115.5    276.9   0.006339805   0.05779   0.00736   0.18136  -0.15762
  28   37450.9    267.0   0.061077641   0.53690  -0.49412  -0.48839  -0.23285
  29   37583.6    266.1   0.000879043   0.00770   0.04114  -0.05448  -0.05513
  30   37766.0    264.8   0.001057759   0.00922  -0.06202   0.03920   0.06195
  31   37989.4    263.2   0.032334221   0.28020  -0.05459   0.20754  -0.48389
  32   38884.6    257.2   0.000398144   0.00337   0.03256   0.04759  -0.00681
  33   39113.0    255.7   0.000006180   0.00005  -0.00234   0.00235  -0.00640
  34   39344.5    254.2   0.000497649   0.00416   0.00746  -0.02771   0.05780
  35   39571.3    252.7   0.000255886   0.00213  -0.03412   0.02782   0.01382

FINAL SINGLE POINT ENERGY     -4604.477322908262

DIPOLE MOMENT
-------------
                                X             Y             Z
Electronic contribution:     19.18706       7.61546      28.94435
Nuclear contribution   :    -19.23965      -7.01619     -31.35144
                        -----------------------------------------
Total Dipole Moment    :     -0.05258       0.59927      -2.40710
                        -----------------------------------------
Magnitude (a.u.)       :      2.48113
Magnitude (Debye)      :      6.30653

Rotational constants in cm-1:     0.001191     0.000359     0.000276
Rotational constants in MHz :    35.692116    10.775997     8.286978

                             ****ORCA TERMINATED NORMALLY****
TOTAL RUN TIME: 0 days 0 hours 5 minutes 59 seconds 895 msec
