                         Program Version 4.2.0 -  RELEASE  -
|  1> # ORCA input file
|  2> # SCF done       -188.324161714797          0.000697176768
|  3> ! CAM-B3LYP def2-SVP def2/J RIJCOSX Grid4 TightSCF
|  4> %maxcore 5000
|  5> %tddft
|  6>     Mode sTDDFT
|  7>     Ethresh 5.0
|  8>     maxcore 5000
|  9> end
| 10>
| 11> %pal
| 12>   nprocs 6
| 13>   end
| 14> * xyz 0 1
| 15>    C        5.52169         5.48020         8.14650
| 16>    C        6.14577         6.09636         7.10609
| 17>    C        5.22258         6.51231         6.12651
| 18>    C        3.90212         6.18885         6.46632
| 19>    S        3.79854         5.38583         7.96962
| 20>    C        3.04275         6.64072         5.42834
| 21>    C        3.82343         7.24924         4.43694
| 22>    C        5.22373         7.18627         4.84464
| 23>    C        6.30059         7.66075         4.15221
| 24>    C        6.16647         8.29860         2.90198
| 25>    N        6.06256         8.81642         1.88365
| 26>    C        7.61848         7.54125         4.63916
| 27>    N        8.69272         7.44436         5.02911
| 28>    C        3.07064         7.72657         3.36479
| 29>    C        1.71840         7.48231         3.52675
| 30>    S        1.37878         6.65105         5.04265
| 31>    C        0.65656         7.81963         2.63860
| 32>    C       -0.64756         7.45630         2.87504
| 33>    C       -1.72583         7.74226         2.04043
| 34>    C       -1.50816         8.39957         0.74332
| 35>    C       -0.31330         8.86191         0.31673
| 36>    S        1.14138         8.73711         1.21719
| 37>    C       -2.77733         8.40567         0.10223
| 38>    C       -3.72172         7.79972         0.93000
| 39>    C       -5.00661         7.77597         0.34438
| 40>    C       -5.00247         8.34935        -0.88732
| 41>    S       -3.45260         8.94231        -1.38388
| 42>    C       -3.08859         7.40335         2.16197
| 43>    C       -3.79715         6.79790         3.22614
| 44>    C       -3.41032         6.72191         4.52869
| 45>    C       -4.14616         6.06684         5.54367
| 46>    C       -5.29792         5.29721         5.44350
| 47>    C       -5.70857         4.80045         6.67545
| 48>    C       -4.87134         5.19059         7.73869
| 49>    S       -3.57397         6.16879         7.20657
| 50>    C       -5.36962         4.62442         8.93273
| 51>    C       -6.51735         3.86709         8.63065
| 52>    C       -6.77291         3.96049         7.20507
| 53>    C       -7.79793         3.38939         6.50724
| 54>    C       -8.77875         2.59197         7.13187
| 55>    N       -9.57773         1.94196         7.63655
| 56>    C       -7.94614         3.56456         5.11631
| 57>    N       -8.06627         3.70865         3.98471
| 58>    C       -7.07501         3.25125         9.74956
| 59>    C       -6.37427         3.53307        10.90815
| 60>    S       -4.99217         4.58834        10.59905
| 61>    C       -6.65118         3.07472        12.22699
| 62>    C       -5.93802         3.49296        13.32523
| 63>    C       -6.15735         3.07151        14.63557
| 64>    C       -7.13648         2.01069        14.91811
| 65>    C       -7.96309         1.47257        13.99644
| 66>    S       -7.98405         1.92940        12.34333
| 67>    C       -7.00464         1.72981        16.30560
| 68>    C       -6.03381         2.56223        16.85962
| 69>    C       -5.86362         2.33417        18.24300
| 70>    C       -6.68979         1.35313        18.69134
| 71>    S       -7.70668         0.67306        17.46507
| 72>    C       -5.51306         3.43270        15.83577
| 73>    C       -4.57282         4.45161        16.11705
| 74>    C       -4.24710         5.52024        15.34396
| 75>    C       -3.31490         6.51820        15.71248
| 76>    C       -2.98113         7.64097        14.96896
| 77>    C       -2.04242         8.44238        15.61423
| 78>    C       -1.65099         7.93351        16.86012
| 79>    S       -2.43651         6.46203        17.23677
| 80>    C       -0.70579         8.82636        17.43337
| 81>    C       -0.50342         9.89557        16.54913
| 82>    C       -1.32870         9.69462        15.37785
| 83>    C       -1.42578        10.49623        14.27620
| 84>    C       -0.69121        11.69293        14.14966
| 85>    N       -0.09772        12.66851        14.03993
| 86>    C       -2.26220        10.17859        13.18723
| 87>    N       -2.93633         9.92192        12.29492
| 88>    C        0.42447        10.83382        17.04374
| 89>    C        0.89764        10.46851        18.26546
| 90>    S        0.23238         8.97547        18.85207
| 91>    H        5.96703         5.06438         9.02795
| 92>    H        7.20894         6.24207         7.04925
| 93>    H        3.47455         8.22431         2.50170
| 94>    H       -0.82454         6.87022         3.76584
| 95>    H       -0.18786         9.35385        -0.63489
| 96>    H       -5.88632         7.35922         0.80008
| 97>    H       -5.83012         8.46912        -1.55878
| 98>    H       -4.76633         6.39887         2.95693
| 99>    H       -2.50722         7.21593         4.85513
|100>    H       -5.79821         5.10627         4.51249
|101>    H       -7.95076         2.62768         9.73453
|102>    H       -5.12850         4.18228        13.13081
|103>    H       -8.68805         0.71233        14.24093
|104>    H       -5.17084         2.85909        18.87552
|105>    H       -6.77480         0.97100        19.68986
|106>    H       -4.10426         4.38366        17.09272
|107>    H       -4.73463         5.68873        14.39566
|108>    H       -3.41368         7.84767        14.00683
|109>    H        0.72609        11.72807        16.52949
|110>    H        1.60855        10.98489        18.87859
|111> *
|112>
|113>                          ****END OF INPUT****

CARTESIAN COORDINATES (ANGSTROEM)
---------------------------------
  C      5.521690    5.480200    8.146500
  C      6.145770    6.096360    7.106090
  C      5.222580    6.512310    6.126510
  C      3.902120    6.188850    6.466320
  S      3.798540    5.385830    7.969620
  C      3.042750    6.640720    5.428340
  C      3.823430    7.249240    4.436940
  C      5.223730    7.186270    4.844640
  C      6.300590    7.660750    4.152210
  C      6.166470    8.298600    2.901980
  N      6.062560    8.816420    1.883650
  C      7.618480    7.541250    4.639160
  N      8.692720    7.444360    5.029110
  C      3.070640    7.726570    3.364790
  C      1.718400    7.482310    3.526750
  S      1.378780    6.651050    5.042650
  C      0.656560    7.819630    2.638600
  C     -0.647560    7.456300    2.875040
  C     -1.725830    7.742260    2.040430
  C     -1.508160    8.399570    0.743320
  C     -0.313300    8.861910    0.316730
  S      1.141380    8.737110    1.217190
  C     -2.777330    8.405670    0.102230
  C     -3.721720    7.799720    0.930000
  C     -5.006610    7.775970    0.344380
  C     -5.002470    8.349350   -0.887320
  S     -3.452600    8.942310   -1.383880
  C     -3.088590    7.403350    2.161970
  C     -3.797150    6.797900    3.226140
  C     -3.410320    6.721910    4.528690
  C     -4.146160    6.066840    5.543670
  C     -5.297920    5.297210    5.443500
  C     -5.708570    4.800450    6.675450
  C     -4.871340    5.190590    7.738690
  S     -3.573970    6.168790    7.206570
  C     -5.369620    4.624420    8.932730
  C     -6.517350    3.867090    8.630650
  C     -6.772910    3.960490    7.205070
  C     -7.797930    3.389390    6.507240
  C     -8.778750    2.591970    7.131870
  N     -9.577730    1.941960    7.636550
  C     -7.946140    3.564560    5.116310
  N     -8.066270    3.708650    3.984710
  C     -7.075010    3.251250    9.749560
  C     -6.374270    3.533070   10.908150
  S     -4.992170    4.588340   10.599050
  C     -6.651180    3.074720   12.226990
  C     -5.938020    3.492960   13.325230
  C     -6.157350    3.071510   14.635570
  C     -7.136480    2.010690   14.918110
  C     -7.963090    1.472570   13.996440
  S     -7.984050    1.929400   12.343330
  C     -7.004640    1.729810   16.305600
  C     -6.033810    2.562230   16.859620
  C     -5.863620    2.334170   18.243000
  C     -6.689790    1.353130   18.691340
  S     -7.706680    0.673060   17.465070
  C     -5.513060    3.432700   15.835770
  C     -4.572820    4.451610   16.117050
  C     -4.247100    5.520240   15.343960
  C     -3.314900    6.518200   15.712480
  C     -2.981130    7.640970   14.968960
  C     -2.042420    8.442380   15.614230
  C     -1.650990    7.933510   16.860120
  S     -2.436510    6.462030   17.236770
  C     -0.705790    8.826360   17.433370
  C     -0.503420    9.895570   16.549130
  C     -1.328700    9.694620   15.377850
  C     -1.425780   10.496230   14.276200
  C     -0.691210   11.692930   14.149660
  N     -0.097720   12.668510   14.039930
  C     -2.262200   10.178590   13.187230
  N     -2.936330    9.921920   12.294920
  C      0.424470   10.833820   17.043740
  C      0.897640   10.468510   18.265460
  S      0.232380    8.975470   18.852070
  H      5.967030    5.064380    9.027950
  H      7.208940    6.242070    7.049250
  H      3.474550    8.224310    2.501700
  H     -0.824540    6.870220    3.765840
  H     -0.187860    9.353850   -0.634890
  H     -5.886320    7.359220    0.800080
  H     -5.830120    8.469120   -1.558780
  H     -4.766330    6.398870    2.956930
  H     -2.507220    7.215930    4.855130
  H     -5.798210    5.106270    4.512490
  H     -7.950760    2.627680    9.734530
  H     -5.128500    4.182280   13.130810
  H     -8.688050    0.712330   14.240930
  H     -5.170840    2.859090   18.875520
  H     -6.774800    0.971000   19.689860
  H     -4.104260    4.383660   17.092720
  H     -4.734630    5.688730   14.395660
  H     -3.413680    7.847670   14.006830
  H      0.726090   11.728070   16.529490
  H      1.608550   10.984890   18.878590

 Total Charge           Charge          ....    0
 Multiplicity           Mult            ....    1
 Number of Electrons    NEL             ....  582
 Basis Dimension        Dim             .... 1204

ORBITAL ENERGIES
----------------

  NO   OCC          E(Eh)            E(eV)
   0   2.0000     -88.990574     -2421.5566
   1   2.0000     -88.987253     -2421.4663
   2   2.0000     -88.986874     -2421.4559
   3   2.0000     -88.981588     -2421.3121
   4   2.0000     -88.981232     -2421.3024
   5   2.0000     -88.978397     -2421.2253
   6   2.0000     -88.978087     -2421.2168
   7   2.0000     -88.976128     -2421.1635
   8   2.0000     -88.955921     -2420.6137
   9   2.0000     -88.955821     -2420.6109
  10   2.0000     -14.429162      -392.6375
  11   2.0000     -14.428561      -392.6211
  12   2.0000     -14.427359      -392.5884
  13   2.0000     -14.427298      -392.5867
  14   2.0000     -14.425237      -392.5307
  15   2.0000     -14.424242      -392.5036
  16   2.0000     -10.362865      -281.9879
  17   2.0000     -10.360417      -281.9213
  18   2.0000     -10.356683      -281.8197
  19   2.0000     -10.350295      -281.6458
  20   2.0000     -10.347868      -281.5798
  21   2.0000     -10.344924      -281.4997
  22   2.0000     -10.330939      -281.1192
  23   2.0000     -10.330605      -281.1100
  24   2.0000     -10.329886      -281.0905
  25   2.0000     -10.329601      -281.0827
  26   2.0000     -10.329346      -281.0758
  27   2.0000     -10.329199      -281.0718
  28   2.0000     -10.328850      -281.0623
  29   2.0000     -10.328737      -281.0592
  30   2.0000     -10.328022      -281.0398
  31   2.0000     -10.327913      -281.0368
  32   2.0000     -10.327828      -281.0345
  33   2.0000     -10.327245      -281.0186
  34   2.0000     -10.326301      -280.9929
  35   2.0000     -10.324923      -280.9554
  36   2.0000     -10.324079      -280.9325
  37   2.0000     -10.322991      -280.9029
  38   2.0000     -10.321499      -280.8623
  39   2.0000     -10.319757      -280.8149
  40   2.0000     -10.316757      -280.7332
  41   2.0000     -10.312971      -280.6302
  42   2.0000     -10.311364      -280.5865
  43   2.0000     -10.305166      -280.4178
  44   2.0000     -10.301936      -280.3299
  45   2.0000     -10.300794      -280.2989
  46   2.0000     -10.299634      -280.2673
  47   2.0000     -10.299396      -280.2608
  48   2.0000     -10.298558      -280.2380
  49   2.0000     -10.298103      -280.2256
  50   2.0000     -10.297945      -280.2213
  51   2.0000     -10.297894      -280.2199
  52   2.0000     -10.297184      -280.2006
  53   2.0000     -10.296983      -280.1952
  54   2.0000     -10.296902      -280.1929
  55   2.0000     -10.296374      -280.1786
  56   2.0000     -10.295646      -280.1588
  57   2.0000     -10.293144      -280.0907
  58   2.0000     -10.292027      -280.0603
  59   2.0000     -10.291405      -280.0434
  60   2.0000     -10.290915      -280.0300
  61   2.0000     -10.289007      -279.9781
  62   2.0000     -10.288404      -279.9617
  63   2.0000     -10.286565      -279.9117
  64   2.0000     -10.285809      -279.8911
  65   2.0000     -10.285108      -279.8720
  66   2.0000     -10.284966      -279.8681
  67   2.0000     -10.284356      -279.8516
  68   2.0000     -10.283056      -279.8162
  69   2.0000     -10.282093      -279.7900
  70   2.0000     -10.276972      -279.6506
  71   2.0000     -10.275428      -279.6086
  72   2.0000     -10.274994      -279.5968
  73   2.0000     -10.273738      -279.5626
  74   2.0000     -10.272529      -279.5297
  75   2.0000     -10.272167      -279.5199
  76   2.0000      -8.084881      -220.0008
  77   2.0000      -8.082309      -219.9308
  78   2.0000      -8.081082      -219.8974
  79   2.0000      -8.076633      -219.7764
  80   2.0000      -8.075944      -219.7576
  81   2.0000      -8.073315      -219.6861
  82   2.0000      -8.072923      -219.6754
  83   2.0000      -8.071316      -219.6317
  84   2.0000      -8.051314      -219.0874
  85   2.0000      -8.051105      -219.0817
  86   2.0000      -6.054156      -164.7420
  87   2.0000      -6.051559      -164.6713
  88   2.0000      -6.050402      -164.6398
  89   2.0000      -6.050107      -164.6318
  90   2.0000      -6.047126      -164.5507
  91   2.0000      -6.047124      -164.5506
  92   2.0000      -6.046308      -164.5284
  93   2.0000      -6.045898      -164.5172
  94   2.0000      -6.045146      -164.4968
  95   2.0000      -6.044900      -164.4901
  96   2.0000      -6.043293      -164.4464
  97   2.0000      -6.042970      -164.4376
  98   2.0000      -6.042107      -164.4141
  99   2.0000      -6.041455      -164.3963
 100   2.0000      -6.041042      -164.3851
 101   2.0000      -6.040942      -164.3824
 102   2.0000      -6.039228      -164.3358
 103   2.0000      -6.038358      -164.3121
 104   2.0000      -6.038343      -164.3117
 105   2.0000      -6.038105      -164.3052
 106   2.0000      -6.036390      -164.2585
 107   2.0000      -6.035297      -164.2288
 108   2.0000      -6.035071      -164.2226
 109   2.0000      -6.033084      -164.1686
 110   2.0000      -6.020748      -163.8329
 111   2.0000      -6.020558      -163.8277
 112   2.0000      -6.016553      -163.7187
 113   2.0000      -6.016320      -163.7124
 114   2.0000      -6.013312      -163.6305
 115   2.0000      -6.013162      -163.6265
 116   2.0000      -1.042663       -28.3723
 117   2.0000      -1.039092       -28.2751
 118   2.0000      -1.034909       -28.1613
 119   2.0000      -1.020539       -27.7703
 120   2.0000      -1.018641       -27.7186
 121   2.0000      -1.015479       -27.6326
 122   2.0000      -1.008172       -27.4338
 123   2.0000      -1.006526       -27.3890
 124   2.0000      -1.006112       -27.3777
 125   2.0000      -1.004851       -27.3434
 126   2.0000      -1.002244       -27.2724
 127   2.0000      -0.996206       -27.1081
 128   2.0000      -0.993387       -27.0314
 129   2.0000      -0.985676       -26.8216
 130   2.0000      -0.971528       -26.4366
 131   2.0000      -0.970565       -26.4104
 132   2.0000      -0.953823       -25.9548
 133   2.0000      -0.952647       -25.9228
 134   2.0000      -0.950137       -25.8545
 135   2.0000      -0.929937       -25.3049
 136   2.0000      -0.928051       -25.2536
 137   2.0000      -0.915594       -24.9146
 138   2.0000      -0.910826       -24.7848
 139   2.0000      -0.906116       -24.6567
 140   2.0000      -0.892842       -24.2955
 141   2.0000      -0.885763       -24.1028
 142   2.0000      -0.877545       -23.8792
 143   2.0000      -0.872714       -23.7478
 144   2.0000      -0.866225       -23.5712
 145   2.0000      -0.861514       -23.4430
 146   2.0000      -0.856806       -23.3149
 147   2.0000      -0.851542       -23.1716
 148   2.0000      -0.848191       -23.0804
 149   2.0000      -0.843460       -22.9517
 150   2.0000      -0.842842       -22.9349
 151   2.0000      -0.840014       -22.8579
 152   2.0000      -0.820952       -22.3392
 153   2.0000      -0.816128       -22.2080
 154   2.0000      -0.802309       -21.8320
 155   2.0000      -0.797658       -21.7054
 156   2.0000      -0.784470       -21.3465
 157   2.0000      -0.778958       -21.1965
 158   2.0000      -0.777234       -21.1496
 159   2.0000      -0.769847       -20.9486
 160   2.0000      -0.766591       -20.8600
 161   2.0000      -0.757705       -20.6182
 162   2.0000      -0.743650       -20.2357
 163   2.0000      -0.735360       -20.0102
 164   2.0000      -0.728376       -19.8201
 165   2.0000      -0.715454       -19.4685
 166   2.0000      -0.702006       -19.1026
 167   2.0000      -0.699506       -19.0345
 168   2.0000      -0.697607       -18.9828
 169   2.0000      -0.693880       -18.8814
 170   2.0000      -0.685124       -18.6432
 171   2.0000      -0.677441       -18.4341
 172   2.0000      -0.675645       -18.3852
 173   2.0000      -0.674314       -18.3490
 174   2.0000      -0.669641       -18.2218
 175   2.0000      -0.662066       -18.0157
 176   2.0000      -0.656900       -17.8752
 177   2.0000      -0.645920       -17.5764
 178   2.0000      -0.640727       -17.4351
 179   2.0000      -0.638637       -17.3782
 180   2.0000      -0.628362       -17.0986
 181   2.0000      -0.625648       -17.0248
 182   2.0000      -0.625400       -17.0180
 183   2.0000      -0.620425       -16.8826
 184   2.0000      -0.618438       -16.8285
 185   2.0000      -0.613931       -16.7059
 186   2.0000      -0.612784       -16.6747
 187   2.0000      -0.609713       -16.5911
 188   2.0000      -0.607060       -16.5189
 189   2.0000      -0.602817       -16.4035
 190   2.0000      -0.596490       -16.2313
 191   2.0000      -0.590601       -16.0711
 192   2.0000      -0.583632       -15.8814
 193   2.0000      -0.576173       -15.6785
 194   2.0000      -0.571416       -15.5490
 195   2.0000      -0.563868       -15.3436
 196   2.0000      -0.559299       -15.2193
 197   2.0000      -0.555951       -15.1282
 198   2.0000      -0.551698       -15.0125
 199   2.0000      -0.545101       -14.8329
 200   2.0000      -0.542587       -14.7646
 201   2.0000      -0.541556       -14.7365
 202   2.0000      -0.537829       -14.6351
 203   2.0000      -0.537713       -14.6319
 204   2.0000      -0.534219       -14.5368
 205   2.0000      -0.528444       -14.3797
 206   2.0000      -0.521286       -14.1849
 207   2.0000      -0.515283       -14.0216
 208   2.0000      -0.514609       -14.0032
 209   2.0000      -0.513376       -13.9697
 210   2.0000      -0.511636       -13.9223
 211   2.0000      -0.510071       -13.8797
 212   2.0000      -0.507127       -13.7996
 213   2.0000      -0.505445       -13.7539
 214   2.0000      -0.502280       -13.6677
 215   2.0000      -0.500571       -13.6212
 216   2.0000      -0.497392       -13.5347
 217   2.0000      -0.497181       -13.5290
 218   2.0000      -0.493678       -13.4337
 219   2.0000      -0.491129       -13.3643
 220   2.0000      -0.490339       -13.3428
 221   2.0000      -0.488729       -13.2990
 222   2.0000      -0.487078       -13.2541
 223   2.0000      -0.485315       -13.2061
 224   2.0000      -0.481283       -13.0964
 225   2.0000      -0.480597       -13.0777
 226   2.0000      -0.476291       -12.9605
 227   2.0000      -0.474106       -12.9011
 228   2.0000      -0.470734       -12.8093
 229   2.0000      -0.468744       -12.7552
 230   2.0000      -0.460885       -12.5413
 231   2.0000      -0.460469       -12.5300
 232   2.0000      -0.460121       -12.5205
 233   2.0000      -0.459045       -12.4912
 234   2.0000      -0.457925       -12.4608
 235   2.0000      -0.457720       -12.4552
 236   2.0000      -0.457061       -12.4373
 237   2.0000      -0.456545       -12.4232
 238   2.0000      -0.456162       -12.4128
 239   2.0000      -0.454446       -12.3661
 240   2.0000      -0.452026       -12.3003
 241   2.0000      -0.451684       -12.2910
 242   2.0000      -0.449741       -12.2381
 243   2.0000      -0.448495       -12.2042
 244   2.0000      -0.445175       -12.1138
 245   2.0000      -0.441866       -12.0238
 246   2.0000      -0.438951       -11.9445
 247   2.0000      -0.438882       -11.9426
 248   2.0000      -0.438527       -11.9329
 249   2.0000      -0.437785       -11.9127
 250   2.0000      -0.437045       -11.8926
 251   2.0000      -0.436036       -11.8651
 252   2.0000      -0.435381       -11.8473
 253   2.0000      -0.432960       -11.7814
 254   2.0000      -0.432107       -11.7582
 255   2.0000      -0.431564       -11.7435
 256   2.0000      -0.428663       -11.6645
 257   2.0000      -0.427293       -11.6272
 258   2.0000      -0.425760       -11.5855
 259   2.0000      -0.424209       -11.5433
 260   2.0000      -0.423508       -11.5242
 261   2.0000      -0.419557       -11.4167
 262   2.0000      -0.418924       -11.3995
 263   2.0000      -0.417882       -11.3711
 264   2.0000      -0.416634       -11.3372
 265   2.0000      -0.411146       -11.1879
 266   2.0000      -0.408165       -11.1067
 267   2.0000      -0.406782       -11.0691
 268   2.0000      -0.403872       -10.9899
 269   2.0000      -0.395147       -10.7525
 270   2.0000      -0.393409       -10.7052
 271   2.0000      -0.381798       -10.3892
 272   2.0000      -0.379171       -10.3178
 273   2.0000      -0.357453        -9.7268
 274   2.0000      -0.349910        -9.5215
 275   2.0000      -0.348070        -9.4715
 276   2.0000      -0.345398        -9.3987
 277   2.0000      -0.342522        -9.3205
 278   2.0000      -0.339283        -9.2324
 279   2.0000      -0.327975        -8.9246
 280   2.0000      -0.326000        -8.8709
 281   2.0000      -0.320251        -8.7145
 282   2.0000      -0.317464        -8.6386
 283   2.0000      -0.314120        -8.5477
 284   2.0000      -0.294004        -8.0003
 285   2.0000      -0.291142        -7.9224
 286   2.0000      -0.283260        -7.7079
 287   2.0000      -0.271095        -7.3769
 288   2.0000      -0.258540        -7.0352
 289   2.0000      -0.229507        -6.2452
 290   2.0000      -0.214571        -5.8388
 291   0.0000      -0.104285        -2.8377
 292   0.0000      -0.101035        -2.7493
 293   0.0000      -0.096872        -2.6360
 294   0.0000      -0.069353        -1.8872
 295   0.0000      -0.059923        -1.6306

MULLIKEN ATOMIC CHARGES
-----------------------
   0 C :   -0.082111
   1 C :    0.036993
   2 C :   -0.034633
   3 C :   -0.115215
   4 S :    0.180576
   5 C :   -0.094268
   6 C :    0.012550
   7 C :    0.301303
   8 C :   -0.295911
   9 C :   -0.185537
  10 N :    0.170525
  11 C :   -0.190466
  12 N :    0.173444
  13 C :   -0.055018
  14 C :   -0.061057
  15 S :    0.163183
  16 C :   -0.022385
  17 C :   -0.101160
  18 C :    0.054786
  19 C :    0.057377
  20 C :   -0.121471
  21 S :    0.134318
  22 C :   -0.109702
  23 C :    0.049467
  24 C :    0.010021
  25 C :   -0.069115
  26 S :    0.129393
  27 C :    0.083922
  28 C :   -0.026097
  29 C :    0.022153
  30 C :   -0.074710
  31 C :   -0.040925
  32 C :    0.010934
  33 C :   -0.108876
  34 S :    0.182526
  35 C :   -0.090437
  36 C :    0.008144
  37 C :    0.303766
  38 C :   -0.299905
  39 C :   -0.186645
  40 N :    0.169847
  41 C :   -0.184112
  42 N :    0.165306
  43 C :   -0.055609
  44 C :   -0.064932
  45 S :    0.164716
  46 C :   -0.019362
  47 C :   -0.104968
  48 C :    0.054978
  49 C :    0.055995
  50 C :   -0.124588
  51 S :    0.130631
  52 C :   -0.108008
  53 C :    0.050711
  54 C :    0.005039
  55 C :   -0.069386
  56 S :    0.127675
  57 C :    0.081628
  58 C :   -0.030104
  59 C :   -0.009243
  60 C :   -0.040578
  61 C :   -0.050081
  62 C :    0.017341
  63 C :   -0.102712
  64 S :    0.156893
  65 C :   -0.114317
  66 C :   -0.041341
  67 C :    0.302497
  68 C :   -0.303245
  69 C :   -0.191925
  70 N :    0.170783
  71 C :   -0.184152
  72 N :    0.160598
  73 C :    0.041406
  74 C :   -0.087732
  75 S :    0.173789
  76 H :    0.036131
  77 H :    0.013306
  78 H :    0.019615
  79 H :   -0.010192
  80 H :    0.038170
  81 H :   -0.012243
  82 H :    0.028621
  83 H :   -0.015474
  84 H :   -0.023225
  85 H :    0.004291
  86 H :    0.019713
  87 H :   -0.009429
  88 H :    0.038282
  89 H :   -0.018603
  90 H :    0.025510
  91 H :   -0.024155
  92 H :   -0.014767
  93 H :   -0.001588
  94 H :    0.009115
  95 H :    0.033749
Sum of atomic charges:   -0.0000000

LOEWDIN ATOMIC CHARGES
----------------------
   0 C :   -0.177602
   1 C :   -0.033504
   2 C :   -0.077612
   3 C :   -0.182843
   4 S :    0.476162
   5 C :   -0.179669
   6 C :   -0.068401
   7 C :    0.083770
   8 C :   -0.102788
   9 C :   -0.016297
  10 N :   -0.034115
  11 C :   -0.016760
  12 N :   -0.032769
  13 C :   -0.040398
  14 C :   -0.179030
  15 S :    0.473132
  16 C :   -0.180466
  17 C :   -0.034798
  18 C :   -0.018880
  19 C :   -0.045943
  20 C :   -0.139437
  21 S :    0.462643
  22 C :   -0.204823
  23 C :   -0.038935
  24 C :   -0.063142
  25 C :   -0.163013
  26 S :    0.422137
  27 C :   -0.052620
  28 C :   -0.001952
  29 C :   -0.065635
  30 C :   -0.152836
  31 C :   -0.036234
  32 C :   -0.062409
  33 C :   -0.197744
  34 S :    0.469057
  35 C :   -0.168167
  36 C :   -0.077388
  37 C :    0.085162
  38 C :   -0.104975
  39 C :   -0.016180
  40 N :   -0.035531
  41 C :   -0.014777
  42 N :   -0.037602
  43 C :   -0.038883
  44 C :   -0.185228
  45 S :    0.470376
  46 C :   -0.176829
  47 C :   -0.038539
  48 C :   -0.019562
  49 C :   -0.046574
  50 C :   -0.140602
  51 S :    0.460507
  52 C :   -0.205530
  53 C :   -0.039540
  54 C :   -0.065984
  55 C :   -0.165491
  56 S :    0.420767
  57 C :   -0.055016
  58 C :   -0.021082
  59 C :   -0.056838
  60 C :   -0.154589
  61 C :   -0.039071
  62 C :   -0.070668
  63 C :   -0.189456
  64 S :    0.461552
  65 C :   -0.178099
  66 C :   -0.084119
  67 C :    0.086757
  68 C :   -0.109538
  69 C :   -0.017154
  70 N :   -0.037664
  71 C :   -0.014663
  72 N :   -0.042613
  73 C :   -0.033834
  74 C :   -0.183026
  75 S :    0.470584
  76 H :    0.027599
  77 H :    0.042906
  78 H :    0.034821
  79 H :    0.024604
  80 H :    0.037907
  81 H :    0.031945
  82 H :    0.024188
  83 H :    0.031991
  84 H :    0.023056
  85 H :    0.037416
  86 H :    0.034428
  87 H :    0.024587
  88 H :    0.037491
  89 H :    0.029153
  90 H :    0.023021
  91 H :    0.020284
  92 H :    0.031916
  93 H :    0.037797
  94 H :    0.041633
  95 H :    0.026119

  Mayer bond orders larger than 0.100000
B(  0-C ,  1-C ) :   1.5508 B(  0-C ,  4-S ) :   1.1473 B(  0-C , 76-H ) :   0.9643
B(  1-C ,  2-C ) :   1.2744 B(  1-C , 77-H ) :   0.9964 B(  2-C ,  3-C ) :   1.4528
B(  2-C ,  7-C ) :   1.0193 B(  3-C ,  4-S ) :   1.1360 B(  3-C ,  5-C ) :   1.1829
B(  5-C ,  6-C ) :   1.4653 B(  5-C , 15-S ) :   1.1231 B(  6-C ,  7-C ) :   0.9946
B(  6-C , 13-C ) :   1.2980 B(  7-C ,  8-C ) :   1.7079 B(  8-C ,  9-C ) :   1.1323
B(  8-C , 11-C ) :   1.1314 B(  9-C , 10-N ) :   2.9886 B( 11-C , 12-N ) :   3.0019
B( 13-C , 14-C ) :   1.4628 B( 13-C , 78-H ) :   0.9800 B( 14-C , 15-S ) :   1.1045
B( 14-C , 16-C ) :   1.1647 B( 16-C , 17-C ) :   1.5219 B( 16-C , 21-S ) :   1.0596
B( 17-C , 18-C ) :   1.2463 B( 17-C , 79-H ) :   0.9582 B( 18-C , 19-C ) :   1.0558
B( 18-C , 27-C ) :   1.3810 B( 19-C , 20-C ) :   1.6122 B( 19-C , 22-C ) :   1.1760
B( 20-C , 21-S ) :   1.1343 B( 20-C , 80-H ) :   0.9403 B( 22-C , 23-C ) :   1.4440
B( 22-C , 26-S ) :   1.0751 B( 23-C , 24-C ) :   1.2228 B( 23-C , 27-C ) :   1.0949
B( 24-C , 25-C ) :   1.5858 B( 24-C , 81-H ) :   0.9976 B( 25-C , 26-S ) :   1.1558
B( 25-C , 82-H ) :   0.9658 B( 27-C , 28-C ) :   1.1682 B( 28-C , 29-C ) :   1.6382
B( 28-C , 83-H ) :   0.9599 B( 29-C , 30-C ) :   1.1323 B( 29-C , 84-H ) :   0.9561
B( 30-C , 31-C ) :   1.4385 B( 30-C , 34-S ) :   1.1096 B( 31-C , 32-C ) :   1.3111
B( 31-C , 85-H ) :   0.9887 B( 32-C , 33-C ) :   1.4284 B( 32-C , 37-C ) :   0.9955
B( 33-C , 34-S ) :   1.1068 B( 33-C , 35-C ) :   1.2032 B( 35-C , 36-C ) :   1.4362
B( 35-C , 45-S ) :   1.1270 B( 36-C , 37-C ) :   1.0055 B( 36-C , 43-C ) :   1.2971
B( 37-C , 38-C ) :   1.7056 B( 38-C , 39-C ) :   1.1323 B( 38-C , 41-C ) :   1.1359
B( 39-C , 40-N ) :   2.9905 B( 41-C , 42-N ) :   2.9859 B( 43-C , 44-C ) :   1.4634
B( 43-C , 86-H ) :   0.9790 B( 44-C , 45-S ) :   1.0901 B( 44-C , 46-C ) :   1.1697
B( 46-C , 47-C ) :   1.5223 B( 46-C , 51-S ) :   1.0583 B( 47-C , 48-C ) :   1.2421
B( 47-C , 87-H ) :   0.9601 B( 48-C , 49-C ) :   1.0545 B( 48-C , 57-C ) :   1.3840
B( 49-C , 50-C ) :   1.6125 B( 49-C , 52-C ) :   1.1743 B( 50-C , 51-S ) :   1.1334
B( 50-C , 88-H ) :   0.9417 B( 52-C , 53-C ) :   1.4462 B( 52-C , 56-S ) :   1.0733
B( 53-C , 54-C ) :   1.2193 B( 53-C , 57-C ) :   1.0973 B( 54-C , 55-C ) :   1.5842
B( 54-C , 89-H ) :   0.9974 B( 55-C , 56-S ) :   1.1565 B( 55-C , 90-H ) :   0.9662
B( 57-C , 58-C ) :   1.1778 B( 58-C , 59-C ) :   1.6003 B( 58-C , 91-H ) :   0.9541
B( 59-C , 60-C ) :   1.1716 B( 59-C , 92-H ) :   0.9722 B( 60-C , 61-C ) :   1.4303
B( 60-C , 64-S ) :   1.0950 B( 61-C , 62-C ) :   1.2741 B( 61-C , 93-H ) :   1.0046
B( 62-C , 63-C ) :   1.4583 B( 62-C , 67-C ) :   0.9924 B( 63-C , 64-S ) :   1.1112
B( 63-C , 65-C ) :   1.1898 B( 65-C , 66-C ) :   1.4492 B( 65-C , 75-S ) :   1.1389
B( 66-C , 67-C ) :   1.0247 B( 66-C , 73-C ) :   1.2726 B( 67-C , 68-C ) :   1.7021
B( 68-C , 69-C ) :   1.1304 B( 68-C , 71-C ) :   1.1341 B( 69-C , 70-N ) :   3.0034
B( 71-C , 72-N ) :   2.9898 B( 73-C , 74-C ) :   1.5539 B( 73-C , 94-H ) :   0.9964
B( 74-C , 75-S ) :   1.1404 B( 74-C , 95-H ) :   0.9648

-----------------------------------------------------------------------------
         ABSORPTION SPECTRUM VIA TRANSITION ELECTRIC DIPOLE MOMENTS
-----------------------------------------------------------------------------
State   Energy  Wavelength   fosc         T2         TX        TY        TZ
        (cm-1)    (nm)                  (au**2)     (au)      (au)      (au)
-----------------------------------------------------------------------------
   0    8618.9   1160.2   0.163263269   6.23607   1.02192   0.42131  -2.23925
   1   10686.0    935.8   0.108781524   3.35133   1.04511   1.27419   0.79720
   2   11077.1    902.8   0.090779115   2.69797   1.53753  -0.00185   0.57791
   3   14284.5    700.1   0.046560871   1.07308  -0.91647  -0.48026  -0.05012
   4   16524.5    605.2   0.505513474  10.07115  -1.08511  -0.27219   2.96978
   5   17035.5    587.0   0.047580204   0.91949   0.37976  -0.29981  -0.82788
   6   17967.1    556.6   0.105155189   1.92677  -1.12129   0.02677   0.81777
   7   18984.5    526.7   0.584101835  10.12896   2.61749   1.11477   1.42652
   8   19393.2    515.6   0.011034610   0.18732   0.18241   0.18851  -0.34425
   9   19984.3    500.4   0.098958019   1.63019  -1.15243  -0.52930   0.14814
  10   21520.9    464.7   0.010712386   0.16387  -0.20769  -0.29580   0.18231
  11   22499.0    444.5   0.255041865   3.73185   0.02475   0.23415  -1.91740
  12   23314.7    428.9   0.424854948   5.99910  -2.15886  -1.04667  -0.49284
  13   23777.9    420.6   0.078565897   1.08777  -0.46980   0.34763  -0.86383
  14   24556.3    407.2   0.107076397   1.43551   0.51034   0.90331  -0.59925
  15   25023.3    399.6   0.412604911   5.42833  -0.55257  -1.82832   1.33425
  16   25872.1    386.5   0.078753724   1.00211  -0.46881  -0.88300   0.05131
  17   26274.7    380.6   0.035091075   0.43968   0.19548  -0.44366   0.45236
  18   26714.5    374.3   0.082206432   1.01306   0.04357   0.38280  -0.92985
  19   26996.8    370.4   0.023016469   0.28067  -0.51451  -0.12328  -0.02743
  20   28027.8    356.8   0.063435765   0.74511  -0.15836   0.13108  -0.83836
  21   28176.1    354.9   0.116276338   1.35858   0.62942   0.44076   0.87644
  22   28190.2    354.7   0.002628046   0.03069  -0.15274  -0.05387  -0.06677
  23   29230.0    342.1   0.223676958   2.51923  -0.30304  -0.94908   1.23557
  24   29742.1    336.2   0.633027219   7.00690  -1.28564  -1.75114   1.51245
  25   29990.2    333.4   0.211275114   2.31924   0.14071  -1.20398   0.92189
  26   30408.8    328.9   0.113102344   1.22447   0.78997   0.77204   0.06605
  27   30701.2    325.7   0.027039564   0.28995   0.18565   0.09272  -0.49687
  28   31365.7    318.8   0.061407058   0.64452   0.29331   0.62047   0.41655
  29   31593.9    316.5   0.743846915   7.75096   1.10815  -0.74227   2.44377
  30   31666.5    315.8   1.073065883  11.15583  -2.70677  -1.86767   0.58396
  31   31910.1    313.4   0.248166814   2.56030   0.45714   0.06736  -1.53192
  32   32122.4    311.3   0.068268358   0.69966  -0.19895  -0.21161   0.78441
  33   32353.4    309.1   0.016659413   0.16952  -0.33974  -0.08076   0.21811
  34   32713.4    305.7   0.192510947   1.93734   0.18130  -0.06822   1.37834
  35   32921.7    303.8   0.083459756   0.83458   0.35565   0.40226   0.73911
  36   32956.8    303.4   0.189397633   1.89193   1.00445   0.84391  -0.41332
  37   33138.1    301.8   0.047069488   0.46761   0.17637  -0.63044  -0.19762
  38   33490.8    298.6   0.072559732   0.71326   0.31353  -0.00946   0.78413
  39   33626.1    297.4   0.165205335   1.61742   0.93320   0.11333   0.85657
  40   33784.8    296.0   0.235477005   2.29458   0.46708  -0.22109   1.42392
  41   34182.8    292.5   0.634997783   6.11562   1.84093  -0.40131   1.60174
  42   34537.0    289.5   0.075626643   0.72088   0.08392   0.57200  -0.62182
  43   34938.9    286.2   0.176181440   1.66007   0.95409   0.77399  -0.38822
  44   35006.6    285.7   0.003615036   0.03400  -0.13363   0.05375  -0.11511
  45   35829.2    279.1   0.425252452   3.90738   1.29535  -0.28368   1.46593
  46   35917.0    278.4   0.048914388   0.44834   0.52440  -0.17992   0.37548
  47   35953.3    278.1   0.068236354   0.62482   0.77299  -0.14675  -0.07597
  48   36426.4    274.5   0.046576581   0.42095  -0.55386  -0.30823   0.13848
  49   36678.7    272.6   0.034913620   0.31337   0.34271   0.09202   0.43295
  50   36887.1    271.1   0.031567491   0.28174  -0.45466   0.22241  -0.15985
  51   36952.7    270.6   0.027175967   0.24211  -0.12149   0.20674  -0.42966
  52   37045.5    269.9   0.100360520   0.89187   0.03202   0.37674  -0.86540
  53   37408.2    267.3   0.064205798   0.56505  -0.12452  -0.14845   0.72629
  54   37639.7    265.7   0.000052055   0.00046  -0.01771   0.00423  -0.01112
  55   37688.1    265.3   0.027827367   0.24308  -0.27695  -0.10985  -0.39282
  56   38081.7    262.6   0.084913000   0.73406  -0.13007   0.42728  -0.73115
  57   38407.2    260.4   0.017101450   0.14659   0.35831   0.13400   0.01563
  58   38636.2    258.8   0.134176522   1.14329   0.10430   0.48443  -0.94750
  59   38922.2    256.9   0.038769500   0.32792  -0.35857   0.04352  -0.44436
  60   39136.2    255.5   0.034990840   0.29434   0.49966   0.20933   0.02933
  61   39831.9    251.1   0.034471137   0.28490  -0.40314  -0.00637  -0.34978
  62   39943.6    250.4   0.075578995   0.62292  -0.34989   0.24084  -0.66520
  63   40044.7    249.7   0.006458714   0.05310   0.20684   0.05869  -0.08290
  64   40155.8    249.0   0.005480909   0.04493  -0.03048  -0.18767   0.09373
  65   40195.0    248.8   0.002236651   0.01832  -0.07135  -0.09791   0.06035

FINAL SINGLE POINT ENERGY     -6604.019145084083

DIPOLE MOMENT
-------------
                                X             Y             Z
Electronic contribution:      7.72258       0.62899      -3.94257
Nuclear contribution   :     -7.54935      -1.83753       6.41345
                        -----------------------------------------
Total Dipole Moment    :      0.17323      -1.20854       2.47088
                        -----------------------------------------
Magnitude (a.u.)       :      2.75605
Magnitude (Debye)      :      7.00532

Rotational constants in cm-1:     0.000640     0.000329     0.000247
Rotational constants in MHz :    19.175124     9.874606     7.404241

                             ****ORCA TERMINATED NORMALLY****
TOTAL RUN TIME: 0 days 0 hours 10 minutes 13 seconds 207 msec
