                         Program Version 4.2.0 -  RELEASE  -
|  1> # ORCA input file
|  2> # SCF done       -205.764704230131          0.000843162117
|  3> ! CAM-B3LYP def2-SVP def2/J RIJCOSX Grid4 TightSCF
|  4> %maxcore 5000
|  5> %tddft
|  6>     Mode sTDDFT
|  7>     Ethresh 5.0
|  8>     maxcore 5000
|  9> end
| 10>
| 11> %pal
| 12>   nprocs 6
| 13>   end
| 14> * xyz 0 1
| 15>    C       -4.46337        -0.63787         3.54615
| 16>    C       -5.43559        -0.51242         4.50567
| 17>    C       -5.82741        -1.55515         5.37216
| 18>    N       -6.19608        -2.34947         6.11517
| 19>    C       -6.21808         0.63068         4.77460
| 20>    N       -6.92043         1.49306         5.06630
| 21>    C       -3.74216        -1.87073         3.25764
| 22>    C       -2.93109        -1.65483         2.11065
| 23>    C       -2.13787        -2.63484         1.58823
| 24>    C       -2.11885        -3.90565         2.20464
| 25>    C       -2.92426        -4.13044         3.35793
| 26>    C       -3.73464        -3.09414         3.87522
| 27>    C       -2.89699        -5.40172         3.96714
| 28>    C       -2.11376        -6.40349         3.46238
| 29>    C       -1.32065        -6.18056         2.32681
| 30>    C       -1.32335        -4.95835         1.71136
| 31>    C       -3.09770        -0.26950         1.63480
| 32>    O       -2.54300         0.20180         0.66379
| 33>    C       -4.02470         0.38062         2.59609
| 34>    C       -4.37933         1.69262         2.73146
| 35>    C       -4.19711         2.87445         1.94605
| 36>    C       -4.65391         4.06999         2.53211
| 37>    C       -4.56829         5.24124         1.81227
| 38>    C       -4.03750         5.25973         0.49424
| 39>    C       -3.58513         4.07433        -0.07888
| 40>    C       -3.66516         2.90473         0.63872
| 41>    C       -4.12807         6.61158         0.04702
| 42>    C       -4.70560         7.35292         1.11126
| 43>    N       -4.95910         6.51085         2.16483
| 44>    C       -5.53920         6.85340         3.43245
| 45>    C       -4.94740         8.71199         0.98103
| 46>    C       -4.62629         9.33465        -0.21820
| 47>    C       -4.04883         8.59764        -1.26519
| 48>    C       -3.79319         7.25189        -1.14254
| 49>    C       -4.91555        10.76413        -0.40127
| 50>    C       -5.49268        11.19895        -1.58861
| 51>    C       -5.79009        12.54476        -1.72587
| 52>    C       -5.51180        13.46755        -0.68766
| 53>    C       -4.92039        13.02193         0.48802
| 54>    C       -4.63368        11.68071         0.62179
| 55>    C       -5.97158        14.74350        -1.14867
| 56>    C       -6.51044        14.53045        -2.44166
| 57>    N       -6.37200        13.20610        -2.78002
| 58>    C       -6.80540        12.60170        -4.00685
| 59>    C       -7.07786        15.56879        -3.16150
| 60>    C       -7.09638        16.83855        -2.59602
| 61>    C       -6.54528        17.04979        -1.32386
| 62>    C       -5.99129        16.01850        -0.59705
| 63>    C       -7.71226        17.95399        -3.32845
| 64>    C       -7.10177        19.20165        -3.34860
| 65>    C       -7.71444        20.22759        -4.05183
| 66>    C       -8.93652        20.01591        -4.74016
| 67>    C       -9.54076        18.76260        -4.70681
| 68>    C       -8.92574        17.75079        -4.00738
| 69>    C       -9.27287        21.25634        -5.35895
| 70>    C       -8.23506        22.16767        -5.01935
| 71>    N       -7.31534        21.52973        -4.22099
| 72>    C       -6.12331        22.11530        -3.67611
| 73>    C       -8.25245        23.46535        -5.48170
| 74>    C       -9.32479        23.89208        -6.28879
| 75>    C      -10.35398        22.98104        -6.60973
| 76>    C      -10.32991        21.68345        -6.15793
| 77>    C       -9.25664        25.25322        -6.72413
| 78>    C      -10.04147        26.07846        -7.47834
| 79>    C       -9.65667        27.46155        -7.75449
| 80>    C       -8.57245        28.14420        -7.26339
| 81>    C       -8.27597        29.48785        -7.57888
| 82>    N       -7.96098        30.57246        -7.78680
| 83>    C       -7.58688        27.66693        -6.37325
| 84>    N       -6.73767        27.39866        -5.64534
| 85>    C      -10.65135        28.03985        -8.64988
| 86>    C      -11.65812        27.06605        -8.88938
| 87>    C      -11.33326        25.82475        -8.16510
| 88>    O      -12.02305        24.82578        -8.16191
| 89>    C      -12.73677        27.31647        -9.68718
| 90>    C      -12.85842        28.58226       -10.30175
| 91>    C      -11.85065        29.56311       -10.07490
| 92>    C      -10.74731        29.27328        -9.24025
| 93>    C      -11.97781        30.82257       -10.69603
| 94>    C      -13.04861        31.10163       -11.50053
| 95>    C      -14.04134        30.13519       -11.72156
| 96>    C      -13.94805        28.90231       -11.13517
| 97>    H       -1.53310        -2.44183         0.71450
| 98>    H       -4.32650        -3.29692         4.75328
| 99>    H       -3.51023        -5.56877         4.84060
|100>    H       -2.10096        -7.37409         3.93538
|101>    H       -0.70774        -6.98220         1.94233
|102>    H       -0.71490        -4.78048         0.83659
|103>    H       -4.93613         1.90242         3.63839
|104>    H       -5.07148         4.05802         3.52808
|105>    H       -3.18140         4.07380        -1.07973
|106>    H       -3.31591         1.98874         0.19642
|107>    H       -5.81356         7.90512         3.43599
|108>    H       -4.82746         6.67243         4.24264
|109>    H       -6.43568         6.25587         3.61514
|110>    H       -5.40543         9.28387         1.77398
|111>    H       -3.78504         9.11255        -2.17684
|112>    H       -3.34475         6.69610        -1.95198
|113>    H       -5.73389        10.48737        -2.36378
|114>    H       -4.69509        13.71613         1.28364
|115>    H       -4.16295        11.32220         1.52526
|116>    H       -6.77335        13.33804        -4.80887
|117>    H       -7.82639        12.21482        -3.92318
|118>    H       -6.13947        11.77882        -4.26582
|119>    H       -7.48667        15.41188        -4.14828
|120>    H       -6.58916        18.04052        -0.89644
|121>    H       -5.58492        16.19399         0.38770
|122>    H       -6.15725        19.34946        -2.84761
|123>    H      -10.47508        18.59386        -5.22036
|124>    H       -9.39145        16.77816        -3.95468
|125>    H       -6.26223        23.18889        -3.55988
|126>    H       -5.26069        21.93973        -4.32651
|127>    H       -5.91767        21.68436        -2.69643
|128>    H       -7.45921        24.15692        -5.23763
|129>    H      -11.17232        23.31352        -7.22341
|130>    H      -11.12337        20.99994        -6.41869
|131>    H       -8.35264        25.73118        -6.36463
|132>    H      -13.48700        26.55622        -9.84720
|133>    H      -10.00407        30.03996        -9.09271
|134>    H      -11.21130        31.56360       -10.52214
|135>    H      -13.13712        32.06936       -11.97131
|136>    H      -14.88011        30.37275       -12.35886
|137>    H      -14.70903        28.15380       -11.30170
|138> *
|139>
|140>                          ****END OF INPUT****

CARTESIAN COORDINATES (ANGSTROEM)
---------------------------------
  C     -4.463370   -0.637870    3.546150
  C     -5.435590   -0.512420    4.505670
  C     -5.827410   -1.555150    5.372160
  N     -6.196080   -2.349470    6.115170
  C     -6.218080    0.630680    4.774600
  N     -6.920430    1.493060    5.066300
  C     -3.742160   -1.870730    3.257640
  C     -2.931090   -1.654830    2.110650
  C     -2.137870   -2.634840    1.588230
  C     -2.118850   -3.905650    2.204640
  C     -2.924260   -4.130440    3.357930
  C     -3.734640   -3.094140    3.875220
  C     -2.896990   -5.401720    3.967140
  C     -2.113760   -6.403490    3.462380
  C     -1.320650   -6.180560    2.326810
  C     -1.323350   -4.958350    1.711360
  C     -3.097700   -0.269500    1.634800
  O     -2.543000    0.201800    0.663790
  C     -4.024700    0.380620    2.596090
  C     -4.379330    1.692620    2.731460
  C     -4.197110    2.874450    1.946050
  C     -4.653910    4.069990    2.532110
  C     -4.568290    5.241240    1.812270
  C     -4.037500    5.259730    0.494240
  C     -3.585130    4.074330   -0.078880
  C     -3.665160    2.904730    0.638720
  C     -4.128070    6.611580    0.047020
  C     -4.705600    7.352920    1.111260
  N     -4.959100    6.510850    2.164830
  C     -5.539200    6.853400    3.432450
  C     -4.947400    8.711990    0.981030
  C     -4.626290    9.334650   -0.218200
  C     -4.048830    8.597640   -1.265190
  C     -3.793190    7.251890   -1.142540
  C     -4.915550   10.764130   -0.401270
  C     -5.492680   11.198950   -1.588610
  C     -5.790090   12.544760   -1.725870
  C     -5.511800   13.467550   -0.687660
  C     -4.920390   13.021930    0.488020
  C     -4.633680   11.680710    0.621790
  C     -5.971580   14.743500   -1.148670
  C     -6.510440   14.530450   -2.441660
  N     -6.372000   13.206100   -2.780020
  C     -6.805400   12.601700   -4.006850
  C     -7.077860   15.568790   -3.161500
  C     -7.096380   16.838550   -2.596020
  C     -6.545280   17.049790   -1.323860
  C     -5.991290   16.018500   -0.597050
  C     -7.712260   17.953990   -3.328450
  C     -7.101770   19.201650   -3.348600
  C     -7.714440   20.227590   -4.051830
  C     -8.936520   20.015910   -4.740160
  C     -9.540760   18.762600   -4.706810
  C     -8.925740   17.750790   -4.007380
  C     -9.272870   21.256340   -5.358950
  C     -8.235060   22.167670   -5.019350
  N     -7.315340   21.529730   -4.220990
  C     -6.123310   22.115300   -3.676110
  C     -8.252450   23.465350   -5.481700
  C     -9.324790   23.892080   -6.288790
  C    -10.353980   22.981040   -6.609730
  C    -10.329910   21.683450   -6.157930
  C     -9.256640   25.253220   -6.724130
  C    -10.041470   26.078460   -7.478340
  C     -9.656670   27.461550   -7.754490
  C     -8.572450   28.144200   -7.263390
  C     -8.275970   29.487850   -7.578880
  N     -7.960980   30.572460   -7.786800
  C     -7.586880   27.666930   -6.373250
  N     -6.737670   27.398660   -5.645340
  C    -10.651350   28.039850   -8.649880
  C    -11.658120   27.066050   -8.889380
  C    -11.333260   25.824750   -8.165100
  O    -12.023050   24.825780   -8.161910
  C    -12.736770   27.316470   -9.687180
  C    -12.858420   28.582260  -10.301750
  C    -11.850650   29.563110  -10.074900
  C    -10.747310   29.273280   -9.240250
  C    -11.977810   30.822570  -10.696030
  C    -13.048610   31.101630  -11.500530
  C    -14.041340   30.135190  -11.721560
  C    -13.948050   28.902310  -11.135170
  H     -1.533100   -2.441830    0.714500
  H     -4.326500   -3.296920    4.753280
  H     -3.510230   -5.568770    4.840600
  H     -2.100960   -7.374090    3.935380
  H     -0.707740   -6.982200    1.942330
  H     -0.714900   -4.780480    0.836590
  H     -4.936130    1.902420    3.638390
  H     -5.071480    4.058020    3.528080
  H     -3.181400    4.073800   -1.079730
  H     -3.315910    1.988740    0.196420
  H     -5.813560    7.905120    3.435990
  H     -4.827460    6.672430    4.242640
  H     -6.435680    6.255870    3.615140
  H     -5.405430    9.283870    1.773980
  H     -3.785040    9.112550   -2.176840
  H     -3.344750    6.696100   -1.951980
  H     -5.733890   10.487370   -2.363780
  H     -4.695090   13.716130    1.283640
  H     -4.162950   11.322200    1.525260
  H     -6.773350   13.338040   -4.808870
  H     -7.826390   12.214820   -3.923180
  H     -6.139470   11.778820   -4.265820
  H     -7.486670   15.411880   -4.148280
  H     -6.589160   18.040520   -0.896440
  H     -5.584920   16.193990    0.387700
  H     -6.157250   19.349460   -2.847610
  H    -10.475080   18.593860   -5.220360
  H     -9.391450   16.778160   -3.954680
  H     -6.262230   23.188890   -3.559880
  H     -5.260690   21.939730   -4.326510
  H     -5.917670   21.684360   -2.696430
  H     -7.459210   24.156920   -5.237630
  H    -11.172320   23.313520   -7.223410
  H    -11.123370   20.999940   -6.418690
  H     -8.352640   25.731180   -6.364630
  H    -13.487000   26.556220   -9.847200
  H    -10.004070   30.039960   -9.092710
  H    -11.211300   31.563600  -10.522140
  H    -13.137120   32.069360  -11.971310
  H    -14.880110   30.372750  -12.358860
  H    -14.709030   28.153800  -11.301700

 Total Charge           Charge          ....    0
 Multiplicity           Mult            ....    1
 Number of Electrons    NEL             ....  544
 Basis Dimension        Dim             .... 1353

ORBITAL ENERGIES
----------------

  NO   OCC          E(Eh)            E(eV)
   0   2.0000     -19.211389      -522.7685
   1   2.0000     -19.211055      -522.7594
   2   2.0000     -14.456693      -393.3866
   3   2.0000     -14.456499      -393.3813
   4   2.0000     -14.451194      -393.2370
   5   2.0000     -14.413200      -392.2031
   6   2.0000     -14.411665      -392.1613
   7   2.0000     -14.408264      -392.0688
   8   2.0000     -14.408085      -392.0639
   9   2.0000     -10.363057      -281.9931
  10   2.0000     -10.362975      -281.9909
  11   2.0000     -10.335767      -281.2505
  12   2.0000     -10.335003      -281.2297
  13   2.0000     -10.334613      -281.2191
  14   2.0000     -10.334396      -281.2132
  15   2.0000     -10.317122      -280.7432
  16   2.0000     -10.316175      -280.7174
  17   2.0000     -10.315601      -280.7018
  18   2.0000     -10.315428      -280.6971
  19   2.0000     -10.314665      -280.6763
  20   2.0000     -10.311913      -280.6014
  21   2.0000     -10.311883      -280.6006
  22   2.0000     -10.311191      -280.5818
  23   2.0000     -10.311148      -280.5806
  24   2.0000     -10.310594      -280.5655
  25   2.0000     -10.309538      -280.5368
  26   2.0000     -10.309366      -280.5321
  27   2.0000     -10.308055      -280.4964
  28   2.0000     -10.302921      -280.3567
  29   2.0000     -10.302587      -280.3476
  30   2.0000     -10.296907      -280.1931
  31   2.0000     -10.296855      -280.1917
  32   2.0000     -10.293207      -280.0924
  33   2.0000     -10.293203      -280.0923
  34   2.0000     -10.292875      -280.0834
  35   2.0000     -10.292836      -280.0823
  36   2.0000     -10.292695      -280.0785
  37   2.0000     -10.292449      -280.0718
  38   2.0000     -10.291631      -280.0495
  39   2.0000     -10.291594      -280.0485
  40   2.0000     -10.291086      -280.0347
  41   2.0000     -10.290985      -280.0320
  42   2.0000     -10.286157      -279.9006
  43   2.0000     -10.286000      -279.8963
  44   2.0000     -10.282952      -279.8134
  45   2.0000     -10.282911      -279.8122
  46   2.0000     -10.282790      -279.8089
  47   2.0000     -10.282599      -279.8037
  48   2.0000     -10.282454      -279.7998
  49   2.0000     -10.282286      -279.7952
  50   2.0000     -10.282280      -279.7951
  51   2.0000     -10.282263      -279.7946
  52   2.0000     -10.281991      -279.7872
  53   2.0000     -10.281976      -279.7868
  54   2.0000     -10.281497      -279.7738
  55   2.0000     -10.281479      -279.7733
  56   2.0000     -10.279552      -279.7208
  57   2.0000     -10.279210      -279.7115
  58   2.0000     -10.277977      -279.6780
  59   2.0000     -10.277711      -279.6707
  60   2.0000     -10.274545      -279.5846
  61   2.0000     -10.274487      -279.5830
  62   2.0000     -10.274354      -279.5794
  63   2.0000     -10.274134      -279.5734
  64   2.0000     -10.271689      -279.5069
  65   2.0000     -10.271216      -279.4940
  66   2.0000     -10.270131      -279.4645
  67   2.0000     -10.270075      -279.4629
  68   2.0000     -10.268921      -279.4316
  69   2.0000     -10.268755      -279.4270
  70   2.0000     -10.268624      -279.4235
  71   2.0000     -10.268604      -279.4229
  72   2.0000     -10.267194      -279.3845
  73   2.0000     -10.267093      -279.3818
  74   2.0000     -10.263996      -279.2975
  75   2.0000     -10.263824      -279.2929
  76   2.0000     -10.262749      -279.2636
  77   2.0000     -10.262434      -279.2550
  78   2.0000     -10.262280      -279.2508
  79   2.0000     -10.260682      -279.2074
  80   2.0000     -10.259733      -279.1815
  81   2.0000     -10.259677      -279.1800
  82   2.0000      -1.126200       -30.6454
  83   2.0000      -1.126046       -30.6413
  84   2.0000      -1.087595       -29.5950
  85   2.0000      -1.087272       -29.5862
  86   2.0000      -1.081709       -29.4348
  87   2.0000      -1.013721       -27.5847
  88   2.0000      -1.013021       -27.5657
  89   2.0000      -0.994099       -27.0508
  90   2.0000      -0.993557       -27.0361
  91   2.0000      -0.988434       -26.8967
  92   2.0000      -0.988051       -26.8862
  93   2.0000      -0.967202       -26.3189
  94   2.0000      -0.967191       -26.3186
  95   2.0000      -0.957483       -26.0544
  96   2.0000      -0.956326       -26.0230
  97   2.0000      -0.952657       -25.9231
  98   2.0000      -0.952454       -25.9176
  99   2.0000      -0.937631       -25.5142
 100   2.0000      -0.933992       -25.4152
 101   2.0000      -0.919467       -25.0200
 102   2.0000      -0.919213       -25.0131
 103   2.0000      -0.904890       -24.6233
 104   2.0000      -0.901132       -24.5210
 105   2.0000      -0.890584       -24.2340
 106   2.0000      -0.885514       -24.0961
 107   2.0000      -0.877982       -23.8911
 108   2.0000      -0.876107       -23.8401
 109   2.0000      -0.875418       -23.8213
 110   2.0000      -0.861716       -23.4485
 111   2.0000      -0.856211       -23.2987
 112   2.0000      -0.845406       -23.0047
 113   2.0000      -0.845080       -22.9958
 114   2.0000      -0.843121       -22.9425
 115   2.0000      -0.838336       -22.8123
 116   2.0000      -0.836800       -22.7705
 117   2.0000      -0.835319       -22.7302
 118   2.0000      -0.829564       -22.5736
 119   2.0000      -0.823570       -22.4105
 120   2.0000      -0.823500       -22.4086
 121   2.0000      -0.814504       -22.1638
 122   2.0000      -0.797728       -21.7073
 123   2.0000      -0.783358       -21.3163
 124   2.0000      -0.780673       -21.2432
 125   2.0000      -0.780017       -21.2253
 126   2.0000      -0.772857       -21.0305
 127   2.0000      -0.767171       -20.8758
 128   2.0000      -0.757353       -20.6086
 129   2.0000      -0.756769       -20.5927
 130   2.0000      -0.737758       -20.0754
 131   2.0000      -0.724438       -19.7129
 132   2.0000      -0.711379       -19.3576
 133   2.0000      -0.707254       -19.2454
 134   2.0000      -0.703428       -19.1412
 135   2.0000      -0.702170       -19.1070
 136   2.0000      -0.698592       -19.0097
 137   2.0000      -0.698287       -19.0014
 138   2.0000      -0.697366       -18.9763
 139   2.0000      -0.693525       -18.8718
 140   2.0000      -0.688149       -18.7255
 141   2.0000      -0.686454       -18.6794
 142   2.0000      -0.673912       -18.3381
 143   2.0000      -0.673172       -18.3179
 144   2.0000      -0.671590       -18.2749
 145   2.0000      -0.666829       -18.1453
 146   2.0000      -0.662486       -18.0272
 147   2.0000      -0.658623       -17.9220
 148   2.0000      -0.651605       -17.7311
 149   2.0000      -0.648630       -17.6501
 150   2.0000      -0.633834       -17.2475
 151   2.0000      -0.629363       -17.1258
 152   2.0000      -0.622866       -16.9490
 153   2.0000      -0.615659       -16.7529
 154   2.0000      -0.612003       -16.6535
 155   2.0000      -0.609161       -16.5761
 156   2.0000      -0.601995       -16.3811
 157   2.0000      -0.601983       -16.3808
 158   2.0000      -0.599655       -16.3174
 159   2.0000      -0.598129       -16.2759
 160   2.0000      -0.595711       -16.2101
 161   2.0000      -0.582952       -15.8629
 162   2.0000      -0.581721       -15.8294
 163   2.0000      -0.578292       -15.7361
 164   2.0000      -0.575910       -15.6713
 165   2.0000      -0.566571       -15.4172
 166   2.0000      -0.562223       -15.2989
 167   2.0000      -0.560969       -15.2647
 168   2.0000      -0.560617       -15.2552
 169   2.0000      -0.557166       -15.1612
 170   2.0000      -0.552855       -15.0440
 171   2.0000      -0.552579       -15.0365
 172   2.0000      -0.546346       -14.8668
 173   2.0000      -0.546012       -14.8577
 174   2.0000      -0.541306       -14.7297
 175   2.0000      -0.541189       -14.7265
 176   2.0000      -0.538041       -14.6408
 177   2.0000      -0.537472       -14.6254
 178   2.0000      -0.534314       -14.5394
 179   2.0000      -0.533937       -14.5292
 180   2.0000      -0.531264       -14.4564
 181   2.0000      -0.530722       -14.4417
 182   2.0000      -0.528595       -14.3838
 183   2.0000      -0.527841       -14.3633
 184   2.0000      -0.525645       -14.3035
 185   2.0000      -0.525300       -14.2941
 186   2.0000      -0.520248       -14.1567
 187   2.0000      -0.518642       -14.1130
 188   2.0000      -0.518230       -14.1017
 189   2.0000      -0.515900       -14.0383
 190   2.0000      -0.515846       -14.0369
 191   2.0000      -0.513799       -13.9812
 192   2.0000      -0.513540       -13.9741
 193   2.0000      -0.512008       -13.9324
 194   2.0000      -0.507861       -13.8196
 195   2.0000      -0.507613       -13.8128
 196   2.0000      -0.505582       -13.7576
 197   2.0000      -0.503619       -13.7042
 198   2.0000      -0.495824       -13.4921
 199   2.0000      -0.493708       -13.4345
 200   2.0000      -0.492483       -13.4011
 201   2.0000      -0.490419       -13.3450
 202   2.0000      -0.489442       -13.3184
 203   2.0000      -0.487875       -13.2758
 204   2.0000      -0.486326       -13.2336
 205   2.0000      -0.485398       -13.2083
 206   2.0000      -0.482908       -13.1406
 207   2.0000      -0.481560       -13.1039
 208   2.0000      -0.481131       -13.0922
 209   2.0000      -0.480772       -13.0825
 210   2.0000      -0.480045       -13.0627
 211   2.0000      -0.477647       -12.9974
 212   2.0000      -0.474516       -12.9122
 213   2.0000      -0.461689       -12.5632
 214   2.0000      -0.459460       -12.5025
 215   2.0000      -0.455952       -12.4071
 216   2.0000      -0.454798       -12.3757
 217   2.0000      -0.451697       -12.2913
 218   2.0000      -0.445395       -12.1198
 219   2.0000      -0.445176       -12.1139
 220   2.0000      -0.444234       -12.0882
 221   2.0000      -0.443211       -12.0604
 222   2.0000      -0.440228       -11.9792
 223   2.0000      -0.439813       -11.9679
 224   2.0000      -0.438804       -11.9405
 225   2.0000      -0.437317       -11.9000
 226   2.0000      -0.436555       -11.8793
 227   2.0000      -0.434810       -11.8318
 228   2.0000      -0.433799       -11.8043
 229   2.0000      -0.429711       -11.6930
 230   2.0000      -0.429572       -11.6893
 231   2.0000      -0.428443       -11.6585
 232   2.0000      -0.427969       -11.6456
 233   2.0000      -0.423892       -11.5347
 234   2.0000      -0.421902       -11.4805
 235   2.0000      -0.421233       -11.4623
 236   2.0000      -0.420935       -11.4542
 237   2.0000      -0.420456       -11.4412
 238   2.0000      -0.419575       -11.4172
 239   2.0000      -0.416355       -11.3296
 240   2.0000      -0.410231       -11.1630
 241   2.0000      -0.409192       -11.1347
 242   2.0000      -0.408598       -11.1185
 243   2.0000      -0.406093       -11.0504
 244   2.0000      -0.405638       -11.0380
 245   2.0000      -0.399297       -10.8654
 246   2.0000      -0.397680       -10.8214
 247   2.0000      -0.395916       -10.7734
 248   2.0000      -0.393970       -10.7205
 249   2.0000      -0.393156       -10.6983
 250   2.0000      -0.376366       -10.2414
 251   2.0000      -0.375778       -10.2254
 252   2.0000      -0.368383       -10.0242
 253   2.0000      -0.365399        -9.9430
 254   2.0000      -0.352715        -9.5979
 255   2.0000      -0.332770        -9.0551
 256   2.0000      -0.330319        -8.9884
 257   2.0000      -0.330178        -8.9846
 258   2.0000      -0.329498        -8.9661
 259   2.0000      -0.328665        -8.9434
 260   2.0000      -0.324241        -8.8230
 261   2.0000      -0.320695        -8.7266
 262   2.0000      -0.311957        -8.4888
 263   2.0000      -0.310395        -8.4463
 264   2.0000      -0.292406        -7.9568
 265   2.0000      -0.289883        -7.8881
 266   2.0000      -0.282054        -7.6751
 267   2.0000      -0.268404        -7.3036
 268   2.0000      -0.268274        -7.3001
 269   2.0000      -0.266765        -7.2590
 270   2.0000      -0.263429        -7.1683
 271   2.0000      -0.250995        -6.8299
 272   0.0000      -0.086194        -2.3455
 273   0.0000      -0.085534        -2.3275
 274   0.0000      -0.052299        -1.4231
 275   0.0000      -0.052008        -1.4152
 276   0.0000      -0.025914        -0.7051

MULLIKEN ATOMIC CHARGES
-----------------------
   0 C :    0.317711
   1 C :   -0.360668
   2 C :   -0.184001
   3 N :    0.141027
   4 C :   -0.196245
   5 N :    0.146994
   6 C :    0.046129
   7 C :    0.001061
   8 C :   -0.085535
   9 C :    0.100880
  10 C :    0.097002
  11 C :   -0.083614
  12 C :   -0.020324
  13 C :    0.036673
  14 C :    0.036515
  15 C :   -0.018191
  16 C :    0.159731
  17 O :   -0.151236
  18 C :   -0.055356
  19 C :   -0.025479
  20 C :    0.079885
  21 C :   -0.149559
  22 C :    0.172053
  23 C :    0.080658
  24 C :   -0.048922
  25 C :    0.002380
  26 C :    0.051964
  27 C :    0.168955
  28 N :   -0.187769
  29 C :    0.126010
  30 C :   -0.131167
  31 C :    0.076893
  32 C :   -0.016855
  33 C :   -0.036140
  34 C :    0.073110
  35 C :   -0.135567
  36 C :    0.161234
  37 C :    0.064886
  38 C :   -0.045531
  39 C :   -0.014840
  40 C :    0.061990
  41 C :    0.164766
  42 N :   -0.191858
  43 C :    0.125180
  44 C :   -0.134811
  45 C :    0.076498
  46 C :   -0.016599
  47 C :   -0.043739
  48 C :    0.081199
  49 C :   -0.133395
  50 C :    0.169284
  51 C :    0.052453
  52 C :   -0.035724
  53 C :   -0.015227
  54 C :    0.074733
  55 C :    0.187887
  56 N :   -0.188081
  57 C :    0.122860
  58 C :   -0.161966
  59 C :    0.074218
  60 C :   -0.005666
  61 C :   -0.051311
  62 C :   -0.015539
  63 C :   -0.050360
  64 C :    0.330438
  65 C :   -0.370288
  66 C :   -0.184278
  67 N :    0.144777
  68 C :   -0.183903
  69 N :    0.137268
  70 C :    0.044098
  71 C :    0.004830
  72 C :    0.159889
  73 O :   -0.150693
  74 C :   -0.088917
  75 C :    0.102449
  76 C :    0.097607
  77 C :   -0.086024
  78 C :   -0.022467
  79 C :    0.038472
  80 C :    0.036069
  81 C :   -0.018764
  82 H :   -0.015207
  83 H :   -0.010213
  84 H :   -0.010073
  85 H :   -0.006814
  86 H :   -0.006661
  87 H :   -0.018986
  88 H :    0.002982
  89 H :   -0.024667
  90 H :   -0.030339
  91 H :   -0.005707
  92 H :    0.037684
  93 H :    0.038792
  94 H :    0.045374
  95 H :   -0.042209
  96 H :   -0.029559
  97 H :   -0.030325
  98 H :   -0.044857
  99 H :   -0.034815
 100 H :   -0.031937
 101 H :    0.040082
 102 H :    0.035565
 103 H :    0.037728
 104 H :   -0.047733
 105 H :   -0.033115
 106 H :   -0.035741
 107 H :   -0.043415
 108 H :   -0.030920
 109 H :   -0.028191
 110 H :    0.046895
 111 H :    0.040763
 112 H :    0.037860
 113 H :   -0.017722
 114 H :   -0.007369
 115 H :   -0.029903
 116 H :   -0.014970
 117 H :   -0.014708
 118 H :   -0.008785
 119 H :   -0.008979
 120 H :   -0.007010
 121 H :   -0.006532
 122 H :   -0.018364
Sum of atomic charges:   -0.0000000

LOEWDIN ATOMIC CHARGES
----------------------
   0 C :    0.080779
   1 C :   -0.146508
   2 C :   -0.016302
   3 N :   -0.059570
   4 C :   -0.024309
   5 N :   -0.060722
   6 C :   -0.027108
   7 C :   -0.053721
   8 C :    0.030042
   9 C :   -0.008384
  10 C :   -0.006998
  11 C :    0.018773
  12 C :   -0.005573
  13 C :   -0.015196
  14 C :   -0.013558
  15 C :   -0.010519
  16 C :    0.087259
  17 O :   -0.139406
  18 C :   -0.101175
  19 C :    0.086350
  20 C :   -0.042974
  21 C :   -0.023769
  22 C :    0.021154
  23 C :   -0.014411
  24 C :   -0.015813
  25 C :   -0.005086
  26 C :   -0.053611
  27 C :    0.041240
  28 N :    0.013796
  29 C :    0.037448
  30 C :   -0.057412
  31 C :    0.000634
  32 C :   -0.044167
  33 C :   -0.002211
  34 C :   -0.011430
  35 C :   -0.056424
  36 C :    0.032338
  37 C :   -0.044529
  38 C :   -0.009773
  39 C :   -0.044206
  40 C :   -0.044596
  41 C :    0.032728
  42 N :    0.011494
  43 C :    0.036682
  44 C :   -0.056356
  45 C :   -0.011717
  46 C :   -0.043515
  47 C :   -0.009667
  48 C :    0.000919
  49 C :   -0.057561
  50 C :    0.039770
  51 C :   -0.052511
  52 C :   -0.002199
  53 C :   -0.042934
  54 C :   -0.015547
  55 C :    0.022787
  56 N :    0.013746
  57 C :    0.037856
  58 C :   -0.024647
  59 C :   -0.043320
  60 C :   -0.007934
  61 C :   -0.015999
  62 C :    0.086411
  63 C :   -0.101911
  64 C :    0.082308
  65 C :   -0.147509
  66 C :   -0.016116
  67 N :   -0.059967
  68 C :   -0.022289
  69 N :   -0.062833
  70 C :   -0.027443
  71 C :   -0.053436
  72 C :    0.088222
  73 O :   -0.139103
  74 C :    0.029915
  75 C :   -0.008116
  76 C :   -0.006959
  77 C :    0.019142
  78 C :   -0.005530
  79 C :   -0.015142
  80 C :   -0.013427
  81 C :   -0.010683
  82 H :    0.037929
  83 H :    0.038463
  84 H :    0.034420
  85 H :    0.032489
  86 H :    0.032154
  87 H :    0.031290
  88 H :    0.044129
  89 H :    0.032074
  90 H :    0.030438
  91 H :    0.027701
  92 H :    0.035491
  93 H :    0.029901
  94 H :    0.032854
  95 H :    0.025075
  96 H :    0.025046
  97 H :    0.029632
  98 H :    0.024447
  99 H :    0.027745
 100 H :    0.023857
 101 H :    0.033378
 102 H :    0.026695
 103 H :    0.032325
 104 H :    0.023755
 105 H :    0.023616
 106 H :    0.027596
 107 H :    0.025735
 108 H :    0.029601
 109 H :    0.025340
 110 H :    0.036529
 111 H :    0.028927
 112 H :    0.032906
 113 H :    0.032287
 114 H :    0.026935
 115 H :    0.030430
 116 H :    0.043558
 117 H :    0.037961
 118 H :    0.038657
 119 H :    0.034599
 120 H :    0.032507
 121 H :    0.032176
 122 H :    0.031396

  Mayer bond orders larger than 0.100000
B(  0-C ,  1-C ) :   1.6143 B(  0-C ,  6-C ) :   0.9808 B(  0-C , 18-C ) :   1.0799
B(  1-C ,  2-C ) :   1.1508 B(  1-C ,  4-C ) :   1.1374 B(  2-C ,  3-N ) :   2.9620
B(  4-C ,  5-N ) :   2.9871 B(  6-C ,  7-C ) :   1.2179 B(  6-C , 11-C ) :   1.4438
B(  7-C ,  8-C ) :   1.4695 B(  7-C , 16-C ) :   0.9536 B(  8-C ,  9-C ) :   1.1757
B(  8-C , 82-H ) :   1.0173 B(  9-C , 10-C ) :   1.2568 B(  9-C , 15-C ) :   1.2425
B( 10-C , 11-C ) :   1.2067 B( 10-C , 12-C ) :   1.2380 B( 11-C , 83-H ) :   0.9909
B( 12-C , 13-C ) :   1.4903 B( 12-C , 84-H ) :   0.9978 B( 13-C , 14-C ) :   1.2571
B( 13-C , 85-H ) :   0.9887 B( 14-C , 15-C ) :   1.4894 B( 14-C , 86-H ) :   0.9891
B( 15-C , 87-H ) :   0.9982 B( 16-C , 17-O ) :   2.1785 B( 16-C , 18-C ) :   0.9252
B( 18-C , 19-C ) :   1.5313 B( 19-C , 20-C ) :   1.1735 B( 19-C , 88-H ) :   0.9392
B( 20-C , 21-C ) :   1.2394 B( 20-C , 25-C ) :   1.2978 B( 21-C , 22-C ) :   1.2966
B( 21-C , 89-H ) :   1.0177 B( 22-C , 23-C ) :   1.2703 B( 22-C , 28-N ) :   1.1252
B( 23-C , 24-C ) :   1.2992 B( 23-C , 26-C ) :   1.1078 B( 24-C , 25-C ) :   1.4329
B( 24-C , 90-H ) :   0.9992 B( 25-C , 91-H ) :   0.9669 B( 26-C , 27-C ) :   1.2866
B( 26-C , 33-C ) :   1.3101 B( 27-C , 28-N ) :   1.1255 B( 27-C , 30-C ) :   1.2768
B( 28-N , 29-C ) :   0.9784 B( 29-C , 92-H ) :   0.9702 B( 29-C , 93-H ) :   0.9701
B( 29-C , 94-H ) :   0.9683 B( 30-C , 31-C ) :   1.3992 B( 30-C , 95-H ) :   1.0015
B( 31-C , 32-C ) :   1.3330 B( 31-C , 34-C ) :   0.9505 B( 32-C , 33-C ) :   1.4146
B( 32-C , 96-H ) :   0.9871 B( 33-C , 97-H ) :   0.9982 B( 34-C , 35-C ) :   1.3795
B( 34-C , 39-C ) :   1.3511 B( 35-C , 36-C ) :   1.2877 B( 35-C , 98-H ) :   1.0033
B( 36-C , 37-C ) :   1.2959 B( 36-C , 42-N ) :   1.1224 B( 37-C , 38-C ) :   1.3294
B( 37-C , 40-C ) :   1.0855 B( 38-C , 39-C ) :   1.3977 B( 38-C , 99-H ) :   0.9979
B( 39-C ,100-H ) :   0.9860 B( 40-C , 41-C ) :   1.2961 B( 40-C , 47-C ) :   1.3297
B( 41-C , 42-N ) :   1.1193 B( 41-C , 44-C ) :   1.2866 B( 42-N , 43-C ) :   0.9823
B( 43-C ,101-H ) :   0.9681 B( 43-C ,102-H ) :   0.9741 B( 43-C ,103-H ) :   0.9671
B( 44-C , 45-C ) :   1.3785 B( 44-C ,104-H ) :   1.0028 B( 45-C , 46-C ) :   1.3495
B( 45-C , 48-C ) :   0.9538 B( 46-C , 47-C ) :   1.4005 B( 46-C ,105-H ) :   0.9861
B( 47-C ,106-H ) :   0.9973 B( 48-C , 49-C ) :   1.3859 B( 48-C , 53-C ) :   1.3341
B( 49-C , 50-C ) :   1.2751 B( 49-C ,107-H ) :   1.0061 B( 50-C , 51-C ) :   1.2873
B( 50-C , 56-N ) :   1.1298 B( 51-C , 52-C ) :   1.3100 B( 51-C , 54-C ) :   1.1078
B( 52-C , 53-C ) :   1.4152 B( 52-C ,108-H ) :   0.9985 B( 53-C ,109-H ) :   0.9862
B( 54-C , 55-C ) :   1.2707 B( 54-C , 61-C ) :   1.2991 B( 55-C , 56-N ) :   1.1221
B( 55-C , 58-C ) :   1.2855 B( 56-N , 57-C ) :   0.9776 B( 57-C ,110-H ) :   0.9678
B( 57-C ,111-H ) :   0.9743 B( 57-C ,112-H ) :   0.9663 B( 58-C , 59-C ) :   1.2490
B( 58-C ,113-H ) :   1.0166 B( 59-C , 60-C ) :   1.2952 B( 59-C , 62-C ) :   1.1789
B( 60-C , 61-C ) :   1.4288 B( 60-C ,114-H ) :   0.9666 B( 61-C ,115-H ) :   1.0002
B( 62-C , 63-C ) :   1.5299 B( 62-C ,116-H ) :   0.9283 B( 63-C , 64-C ) :   1.0865
B( 63-C , 72-C ) :   0.9203 B( 64-C , 65-C ) :   1.6035 B( 64-C , 70-C ) :   0.9787
B( 65-C , 66-C ) :   1.1551 B( 65-C , 68-C ) :   1.1386 B( 66-C , 67-N ) :   2.9589
B( 68-C , 69-N ) :   2.9694 B( 70-C , 71-C ) :   1.2183 B( 70-C , 77-C ) :   1.4447
B( 71-C , 72-C ) :   0.9546 B( 71-C , 74-C ) :   1.4708 B( 72-C , 73-O ) :   2.1703
B( 73-O ,114-H ) :   0.1044 B( 74-C , 75-C ) :   1.1761 B( 74-C ,117-H ) :   1.0161
B( 75-C , 76-C ) :   1.2562 B( 75-C , 81-C ) :   1.2434 B( 76-C , 77-C ) :   1.2084
B( 76-C , 78-C ) :   1.2392 B( 77-C ,118-H ) :   0.9881 B( 78-C , 79-C ) :   1.4913
B( 78-C ,119-H ) :   0.9967 B( 79-C , 80-C ) :   1.2585 B( 79-C ,120-H ) :   0.9876
B( 80-C , 81-C ) :   1.4903 B( 80-C ,121-H ) :   0.9884 B( 81-C ,122-H ) :   0.9971

-----------------------------------------------------------------------------
         ABSORPTION SPECTRUM VIA TRANSITION ELECTRIC DIPOLE MOMENTS
-----------------------------------------------------------------------------
State   Energy  Wavelength   fosc         T2         TX        TY        TZ
        (cm-1)    (nm)                  (au**2)     (au)      (au)      (au)
-----------------------------------------------------------------------------
   0   22600.8    442.5   3.115905156  45.38753   0.75403  -6.19129   2.54693
   1   23114.3    432.6   0.024081280   0.34298   0.51944   0.23904   0.12659
   2   23868.0    419.0   0.074340932   1.02539  -0.58959  -0.77963   0.26447
   3   23891.9    418.6   0.045513755   0.62714   0.08601  -0.07393  -0.78376
   4   27956.8    357.7   0.164871243   1.94148  -0.77134   0.89948  -0.73312
   5   28009.6    357.0   0.095252342   1.11955  -0.42525   0.96854   0.02533
   6   29265.2    341.7   0.018444537   0.20749  -0.03515   0.45407  -0.00834
   7   29463.0    339.4   0.014576157   0.16287   0.25409  -0.31349  -0.00590
   8   29500.9    339.0   0.121294071   1.35357   0.97316  -0.63280   0.07809
   9   29599.5    337.8   0.025463054   0.28321  -0.09780  -0.30093  -0.42788
  10   29662.8    337.1   0.043443925   0.48216  -0.24232   0.26452  -0.59453
  11   29783.0    335.8   0.032403625   0.35818  -0.02068  -0.59765   0.02376
  12   30079.8    332.4   0.021497350   0.23528  -0.14448   0.41058  -0.21407
  13   30185.2    331.3   0.022189049   0.24200  -0.22681  -0.37341   0.22610
  14   31296.0    319.5   0.225328265   2.37029  -0.28618   1.34202   0.69812
  15   31335.2    319.1   0.693414730   7.28510  -1.58742   1.86708  -1.13103
  16   32580.4    306.9   0.014609921   0.14763  -0.20117   0.05396   0.32288
  17   32607.0    306.7   0.020091582   0.20285  -0.36219  -0.19442  -0.18404
  18   33831.0    295.6   0.005939897   0.05780  -0.16581   0.08095  -0.15413
  19   34061.7    293.6   0.013075296   0.12637   0.19410   0.07111  -0.28921
  20   34336.3    291.2   0.000933026   0.00895   0.06703  -0.01595   0.06480
  21   34406.0    290.6   0.000906425   0.00867   0.00249   0.09053   0.02170
  22   34786.2    287.5   0.704776078   6.66991   1.97346  -1.08276   1.26609
  23   34844.3    287.0   0.575742476   5.43967   1.03494  -1.89341  -0.88520
  24   35361.4    282.8   0.182043299   1.69481   1.24616   0.37633   0.01609
  25   35427.6    282.3   1.341320120  12.46424  -1.12480   2.89815  -1.67325
  26   35497.6    281.7   0.357057782   3.31142  -0.26531   1.66449   0.68594
  27   35856.9    278.9   0.063084164   0.57919  -0.23701  -0.34810  -0.63391
  28   37028.8    270.1   0.125065403   1.11192   0.35061  -0.92642   0.36158
  29   37122.2    269.4   0.003728706   0.03307  -0.00399  -0.02020  -0.18067
  30   37653.5    265.6   0.001440234   0.01259  -0.10585   0.00595  -0.03677
  31   38177.4    261.9   0.152393891   1.31412   0.11735  -1.04410   0.45848
  32   38410.7    260.3   0.008947254   0.07669   0.07966  -0.19428  -0.18054
  33   38467.5    260.0   0.023346766   0.19981  -0.16951   0.39175  -0.13267
  34   38692.7    258.4   0.001067962   0.00909  -0.02677  -0.08274   0.03904
  35   38964.9    256.6   0.004477639   0.03783   0.04355  -0.04068  -0.18515
  36   39127.6    255.6   0.005337847   0.04491   0.03195   0.11055   0.17796
  37   39190.0    255.2   0.192334236   1.61568   1.23280  -0.19895   0.23727
  38   39223.6    254.9   0.152227985   1.27768  -0.18016   0.61277   0.93259
  39   40122.1    249.2   0.051478179   0.42239  -0.36281   0.49415  -0.21583

FINAL SINGLE POINT ENERGY     -3335.965565847108

DIPOLE MOMENT
-------------
                                X             Y             Z
Electronic contribution:     -3.26690       1.54901       3.00549
Nuclear contribution   :      3.48197      -2.47985      -4.69548
                        -----------------------------------------
Total Dipole Moment    :      0.21506      -0.93084      -1.68999
                        -----------------------------------------
Magnitude (a.u.)       :      1.94133
Magnitude (Debye)      :      4.93448

Rotational constants in cm-1:     0.003781     0.000098     0.000097
Rotational constants in MHz :   113.343396     2.934249     2.918677

                             ****ORCA TERMINATED NORMALLY****
TOTAL RUN TIME: 0 days 0 hours 12 minutes 27 seconds 552 msec
