                         Program Version 4.2.0 -  RELEASE  -
|  1> # ORCA input file
|  2> # SCF done       -190.304517444421          0.000407990563
|  3> ! CAM-B3LYP def2-SVP def2/J RIJCOSX Grid4 TightSCF
|  4> %maxcore 5000
|  5> %tddft
|  6>     Mode sTDDFT
|  7>     Ethresh 5.0
|  8>     maxcore 5000
|  9> end
| 10>
| 11> %pal
| 12>   nprocs 6
| 13>   end
| 14> * xyz 0 1
| 15>    C       -3.41575         5.68098        -2.97818
| 16>    C       -2.49000         4.85267        -3.55734
| 17>    C       -1.45628         5.29435        -4.40848
| 18>    N       -0.59339         5.59842        -5.10203
| 19>    C       -2.46353         3.45027        -3.40871
| 20>    N       -2.39455         2.30540        -3.35169
| 21>    C       -3.53550         7.11567        -3.19934
| 22>    C       -4.70167         7.58445        -2.54556
| 23>    C       -5.09446         8.90004        -2.58449
| 24>    C       -4.30093         9.79733        -3.30676
| 25>    C       -3.13398         9.32167        -3.95167
| 26>    C       -2.73474         7.99218        -3.90971
| 27>    S       -2.29689        10.59898        -4.78157
| 28>    C       -3.51156        11.73710        -4.26217
| 29>    C       -4.49278        11.19215        -3.50441
| 30>   Br       -3.36869        13.53750        -4.76806
| 31>    C       -5.36228         6.46413        -1.84435
| 32>    O       -6.33868         6.53545        -1.13120
| 33>    C       -4.51268         5.27323        -2.11832
| 34>    C       -4.67597         4.06513        -1.51760
| 35>    C       -5.81566         3.68525        -0.72873
| 36>    C       -5.59484         3.11740         0.50034
| 37>    S       -6.99213         2.97188         1.46911
| 38>    C       -7.96366         3.60873         0.17259
| 39>    C       -7.22119         3.90977        -0.97700
| 40>    C       -7.90507         4.29371        -2.15704
| 41>    C       -7.17104         4.28941        -3.47317
| 42>    C       -6.62923         2.89681        -3.80136
| 43>    C       -9.26729         4.56647        -2.10221
| 44>    C      -10.01695         5.08099        -3.30022
| 45>    C      -10.59020         3.92997        -4.13070
| 46>    C       -9.99800         4.34009        -0.91139
| 47>    C      -11.39286         4.56390        -0.60404
| 48>    C      -11.69002         4.21188         0.67906
| 49>    S      -10.37098         3.57264         1.57550
| 50>    C       -9.33008         3.82334         0.21049
| 51>    C      -12.43432         5.11122        -1.45717
| 52>    C      -13.27023         6.07075        -1.01743
| 53>    C      -14.29436         6.65305        -1.81910
| 54>    O      -15.04161         7.65949        -1.28788
| 55>    C      -14.69931         6.45190        -3.12041
| 56>    C      -14.47121         5.65426        -4.31928
| 57>    O      -13.69110         4.75955        -4.54991
| 58>    N      -15.39144         6.15850        -5.22968
| 59>    C      -16.19343         7.19690        -4.74545
| 60>    O      -17.05732         7.73989        -5.40381
| 61>    C      -15.73681         7.39031        -3.38754
| 62>    C      -15.92110         8.13117        -2.22405
| 63>    C      -16.77144         9.20972        -1.92792
| 64>    C      -16.87047         9.74442        -0.66590
| 65>    C      -17.60731        10.85833        -0.25590
| 66>    C      -18.24404        11.81451        -1.02660
| 67>    C      -18.95248        12.92692        -0.51834
| 68>    C      -19.43045        13.78322        -1.47161
| 69>    C      -19.12371        13.39276        -2.78465
| 70>    S      -18.22038        11.88888        -2.77236
| 71>    C      -19.43148        14.01464        -3.98599
| 72>    C      -20.19926        15.16756        -4.23290
| 73>    C      -20.31275        15.47509        -5.56062
| 74>    C      -19.65016        14.58378        -6.43280
| 75>    S      -18.85020        13.34047        -5.48606
| 76>    C      -19.53560        14.74100        -7.80102
| 77>    C      -18.88717        13.92786        -8.73220
| 78>    S      -18.27818        14.69312       -10.19250
| 79>    C      -17.40841        13.30176       -10.65126
| 80>    C      -17.59847        12.24753        -9.78587
| 81>    C      -18.49358        12.57034        -8.71073
| 82>    C      -18.92432        11.55590        -7.85929
| 83>    C      -18.35441        10.29238        -7.92803
| 84>    C      -17.38392        10.01432        -8.93374
| 85>    C      -17.03837        10.94767        -9.85777
| 86>    N      -18.76750         9.30000        -7.09935
| 87>    H       -5.98879         9.22511        -2.07634
| 88>    H       -1.83476         7.67927        -4.41223
| 89>    H       -5.31837        11.74894        -3.10013
| 90>    H       -3.85541         3.35821        -1.52847
| 91>    H       -4.63880         2.86203         0.91688
| 92>    H       -6.34874         5.00674        -3.46531
| 93>    H       -7.83823         4.58354        -4.27847
| 94>    H       -5.84944         2.59329        -3.10720
| 95>    H       -6.20869         2.88892        -4.80470
| 96>    H       -7.43053         2.16259        -3.75605
| 97>    H       -9.37407         5.70599        -3.92084
| 98>    H      -10.82722         5.72136        -2.95147
| 99>    H       -9.79896         3.39148        -4.64694
|100>    H      -11.29743         4.30573        -4.86462
|101>    H      -11.11272         3.22334        -3.49047
|102>    H      -12.65636         4.25509         1.14283
|103>    H      -12.56539         4.70701        -2.45007
|104>    H      -13.16103         6.49171        -0.02745
|105>    H      -15.48493         5.78948        -6.16475
|106>    H      -17.35838         9.57727        -2.75395
|107>    H      -16.31966         9.23465         0.11487
|108>    H      -17.65858        11.03321         0.81172
|109>    H      -19.08631        13.06679         0.54008
|110>    H      -19.98180        14.68136        -1.25701
|111>    H      -20.65173        15.73414        -3.43904
|112>    H      -20.86278        16.31940        -5.93855
|113>    H      -19.91366        15.68178        -8.18579
|114>    H      -16.80132        13.32244       -11.53518
|115>    H      -19.70546        11.73805        -7.14096
|116>    H      -16.95283         9.02482        -8.96141
|117>    H      -16.34171        10.72052       -10.65061
|118>    H      -19.32729         9.57758        -6.30872
|119>    H      -18.13618         8.53722        -6.90035
|120> *
|121>
|122>                          ****END OF INPUT****

CARTESIAN COORDINATES (ANGSTROEM)
---------------------------------
  C     -3.415750    5.680980   -2.978180
  C     -2.490000    4.852670   -3.557340
  C     -1.456280    5.294350   -4.408480
  N     -0.593390    5.598420   -5.102030
  C     -2.463530    3.450270   -3.408710
  N     -2.394550    2.305400   -3.351690
  C     -3.535500    7.115670   -3.199340
  C     -4.701670    7.584450   -2.545560
  C     -5.094460    8.900040   -2.584490
  C     -4.300930    9.797330   -3.306760
  C     -3.133980    9.321670   -3.951670
  C     -2.734740    7.992180   -3.909710
  S     -2.296890   10.598980   -4.781570
  C     -3.511560   11.737100   -4.262170
  C     -4.492780   11.192150   -3.504410
  Br    -3.368690   13.537500   -4.768060
  C     -5.362280    6.464130   -1.844350
  O     -6.338680    6.535450   -1.131200
  C     -4.512680    5.273230   -2.118320
  C     -4.675970    4.065130   -1.517600
  C     -5.815660    3.685250   -0.728730
  C     -5.594840    3.117400    0.500340
  S     -6.992130    2.971880    1.469110
  C     -7.963660    3.608730    0.172590
  C     -7.221190    3.909770   -0.977000
  C     -7.905070    4.293710   -2.157040
  C     -7.171040    4.289410   -3.473170
  C     -6.629230    2.896810   -3.801360
  C     -9.267290    4.566470   -2.102210
  C    -10.016950    5.080990   -3.300220
  C    -10.590200    3.929970   -4.130700
  C     -9.998000    4.340090   -0.911390
  C    -11.392860    4.563900   -0.604040
  C    -11.690020    4.211880    0.679060
  S    -10.370980    3.572640    1.575500
  C     -9.330080    3.823340    0.210490
  C    -12.434320    5.111220   -1.457170
  C    -13.270230    6.070750   -1.017430
  C    -14.294360    6.653050   -1.819100
  O    -15.041610    7.659490   -1.287880
  C    -14.699310    6.451900   -3.120410
  C    -14.471210    5.654260   -4.319280
  O    -13.691100    4.759550   -4.549910
  N    -15.391440    6.158500   -5.229680
  C    -16.193430    7.196900   -4.745450
  O    -17.057320    7.739890   -5.403810
  C    -15.736810    7.390310   -3.387540
  C    -15.921100    8.131170   -2.224050
  C    -16.771440    9.209720   -1.927920
  C    -16.870470    9.744420   -0.665900
  C    -17.607310   10.858330   -0.255900
  C    -18.244040   11.814510   -1.026600
  C    -18.952480   12.926920   -0.518340
  C    -19.430450   13.783220   -1.471610
  C    -19.123710   13.392760   -2.784650
  S    -18.220380   11.888880   -2.772360
  C    -19.431480   14.014640   -3.985990
  C    -20.199260   15.167560   -4.232900
  C    -20.312750   15.475090   -5.560620
  C    -19.650160   14.583780   -6.432800
  S    -18.850200   13.340470   -5.486060
  C    -19.535600   14.741000   -7.801020
  C    -18.887170   13.927860   -8.732200
  S    -18.278180   14.693120  -10.192500
  C    -17.408410   13.301760  -10.651260
  C    -17.598470   12.247530   -9.785870
  C    -18.493580   12.570340   -8.710730
  C    -18.924320   11.555900   -7.859290
  C    -18.354410   10.292380   -7.928030
  C    -17.383920   10.014320   -8.933740
  C    -17.038370   10.947670   -9.857770
  N    -18.767500    9.300000   -7.099350
  H     -5.988790    9.225110   -2.076340
  H     -1.834760    7.679270   -4.412230
  H     -5.318370   11.748940   -3.100130
  H     -3.855410    3.358210   -1.528470
  H     -4.638800    2.862030    0.916880
  H     -6.348740    5.006740   -3.465310
  H     -7.838230    4.583540   -4.278470
  H     -5.849440    2.593290   -3.107200
  H     -6.208690    2.888920   -4.804700
  H     -7.430530    2.162590   -3.756050
  H     -9.374070    5.705990   -3.920840
  H    -10.827220    5.721360   -2.951470
  H     -9.798960    3.391480   -4.646940
  H    -11.297430    4.305730   -4.864620
  H    -11.112720    3.223340   -3.490470
  H    -12.656360    4.255090    1.142830
  H    -12.565390    4.707010   -2.450070
  H    -13.161030    6.491710   -0.027450
  H    -15.484930    5.789480   -6.164750
  H    -17.358380    9.577270   -2.753950
  H    -16.319660    9.234650    0.114870
  H    -17.658580   11.033210    0.811720
  H    -19.086310   13.066790    0.540080
  H    -19.981800   14.681360   -1.257010
  H    -20.651730   15.734140   -3.439040
  H    -20.862780   16.319400   -5.938550
  H    -19.913660   15.681780   -8.185790
  H    -16.801320   13.322440  -11.535180
  H    -19.705460   11.738050   -7.140960
  H    -16.952830    9.024820   -8.961410
  H    -16.341710   10.720520  -10.650610
  H    -19.327290    9.577580   -6.308720
  H    -18.136180    8.537220   -6.900350

 Total Charge           Charge          ....    0
 Multiplicity           Mult            ....    1
 Number of Electrons    NEL             ....  566
 Basis Dimension        Dim             .... 1215

ORBITAL ENERGIES
----------------

  NO   OCC          E(Eh)            E(eV)
   0   2.0000    -482.885644    -13139.9864
   1   2.0000     -88.975348     -2421.1423
   2   2.0000     -88.960943     -2420.7503
   3   2.0000     -88.960197     -2420.7300
   4   2.0000     -88.949396     -2420.4361
   5   2.0000     -88.943710     -2420.2814
   6   2.0000     -88.942131     -2420.2384
   7   2.0000     -62.563372     -1702.4359
   8   2.0000     -56.397324     -1534.6492
   9   2.0000     -56.394603     -1534.5752
  10   2.0000     -56.394574     -1534.5744
  11   2.0000     -19.292460      -524.9745
  12   2.0000     -19.213328      -522.8212
  13   2.0000     -19.204904      -522.5920
  14   2.0000     -19.203496      -522.5537
  15   2.0000     -14.446803      -393.1175
  16   2.0000     -14.415221      -392.2581
  17   2.0000     -14.415139      -392.2559
  18   2.0000     -14.404748      -391.9731
  19   2.0000     -10.392347      -282.7901
  20   2.0000     -10.390508      -282.7401
  21   2.0000     -10.364351      -282.0283
  22   2.0000     -10.359052      -281.8841
  23   2.0000     -10.346949      -281.5548
  24   2.0000     -10.346784      -281.5503
  25   2.0000     -10.342138      -281.4239
  26   2.0000     -10.340931      -281.3911
  27   2.0000     -10.325516      -280.9716
  28   2.0000     -10.317931      -280.7652
  29   2.0000     -10.317855      -280.7631
  30   2.0000     -10.317016      -280.7403
  31   2.0000     -10.313553      -280.6461
  32   2.0000     -10.312877      -280.6277
  33   2.0000     -10.310295      -280.5574
  34   2.0000     -10.307785      -280.4891
  35   2.0000     -10.307613      -280.4844
  36   2.0000     -10.305635      -280.4306
  37   2.0000     -10.304792      -280.4076
  38   2.0000     -10.303969      -280.3852
  39   2.0000     -10.300478      -280.2902
  40   2.0000     -10.300121      -280.2805
  41   2.0000     -10.297155      -280.1998
  42   2.0000     -10.296729      -280.1882
  43   2.0000     -10.296679      -280.1869
  44   2.0000     -10.296595      -280.1846
  45   2.0000     -10.296038      -280.1695
  46   2.0000     -10.296026      -280.1691
  47   2.0000     -10.294835      -280.1367
  48   2.0000     -10.291820      -280.0547
  49   2.0000     -10.291671      -280.0506
  50   2.0000     -10.291506      -280.0461
  51   2.0000     -10.287890      -279.9477
  52   2.0000     -10.282528      -279.8018
  53   2.0000     -10.282290      -279.7953
  54   2.0000     -10.281967      -279.7865
  55   2.0000     -10.280582      -279.7489
  56   2.0000     -10.280123      -279.7364
  57   2.0000     -10.279733      -279.7258
  58   2.0000     -10.279093      -279.7084
  59   2.0000     -10.278165      -279.6831
  60   2.0000     -10.276960      -279.6503
  61   2.0000     -10.275241      -279.6035
  62   2.0000     -10.274865      -279.5933
  63   2.0000     -10.273522      -279.5567
  64   2.0000     -10.271612      -279.5048
  65   2.0000     -10.271319      -279.4968
  66   2.0000     -10.269853      -279.4569
  67   2.0000     -10.269538      -279.4483
  68   2.0000     -10.269461      -279.4462
  69   2.0000     -10.263833      -279.2931
  70   2.0000     -10.261429      -279.2277
  71   2.0000     -10.258398      -279.1452
  72   2.0000     -10.253947      -279.0241
  73   2.0000     -10.251079      -278.9460
  74   2.0000     -10.248708      -278.8815
  75   2.0000     -10.240013      -278.6449
  76   2.0000      -8.792811      -239.2646
  77   2.0000      -8.071378      -219.6334
  78   2.0000      -8.056610      -219.2315
  79   2.0000      -8.056401      -219.2258
  80   2.0000      -8.045644      -218.9331
  81   2.0000      -8.039470      -218.7651
  82   2.0000      -8.037867      -218.7215
  83   2.0000      -6.629125      -180.3877
  84   2.0000      -6.614550      -179.9911
  85   2.0000      -6.614325      -179.9849
  86   2.0000      -6.041062      -164.3856
  87   2.0000      -6.036803      -164.2698
  88   2.0000      -6.032578      -164.1548
  89   2.0000      -6.025764      -163.9694
  90   2.0000      -6.025678      -163.9670
  91   2.0000      -6.021579      -163.8555
  92   2.0000      -6.021552      -163.8548
  93   2.0000      -6.019207      -163.7909
  94   2.0000      -6.018261      -163.7652
  95   2.0000      -6.015134      -163.6801
  96   2.0000      -6.010922      -163.5655
  97   2.0000      -6.009204      -163.5187
  98   2.0000      -6.007477      -163.4718
  99   2.0000      -6.007319      -163.4675
 100   2.0000      -6.004937      -163.4026
 101   2.0000      -6.003396      -163.3607
 102   2.0000      -6.000592      -163.2844
 103   2.0000      -5.999180      -163.2460
 104   2.0000      -2.744981       -74.6947
 105   2.0000      -2.740892       -74.5835
 106   2.0000      -2.740774       -74.5802
 107   2.0000      -2.729165       -74.2644
 108   2.0000      -2.729145       -74.2638
 109   2.0000      -1.207652       -32.8619
 110   2.0000      -1.146194       -31.1895
 111   2.0000      -1.128597       -30.7107
 112   2.0000      -1.125087       -30.6152
 113   2.0000      -1.033151       -28.1135
 114   2.0000      -1.022536       -27.8246
 115   2.0000      -1.013107       -27.5681
 116   2.0000      -1.006470       -27.3874
 117   2.0000      -1.003071       -27.2949
 118   2.0000      -0.993751       -27.0413
 119   2.0000      -0.992220       -26.9997
 120   2.0000      -0.988903       -26.9094
 121   2.0000      -0.983877       -26.7727
 122   2.0000      -0.974271       -26.5113
 123   2.0000      -0.967371       -26.3235
 124   2.0000      -0.942424       -25.6446
 125   2.0000      -0.922209       -25.0946
 126   2.0000      -0.918948       -25.0058
 127   2.0000      -0.911160       -24.7939
 128   2.0000      -0.908185       -24.7130
 129   2.0000      -0.908092       -24.7104
 130   2.0000      -0.905103       -24.6291
 131   2.0000      -0.895583       -24.3701
 132   2.0000      -0.885971       -24.1085
 133   2.0000      -0.885615       -24.0988
 134   2.0000      -0.872517       -23.7424
 135   2.0000      -0.867596       -23.6085
 136   2.0000      -0.857222       -23.3262
 137   2.0000      -0.851240       -23.1634
 138   2.0000      -0.846104       -23.0237
 139   2.0000      -0.837025       -22.7766
 140   2.0000      -0.830612       -22.6021
 141   2.0000      -0.828782       -22.5523
 142   2.0000      -0.821400       -22.3514
 143   2.0000      -0.818050       -22.2603
 144   2.0000      -0.814273       -22.1575
 145   2.0000      -0.806733       -21.9523
 146   2.0000      -0.795718       -21.6526
 147   2.0000      -0.786454       -21.4005
 148   2.0000      -0.778123       -21.1738
 149   2.0000      -0.765314       -20.8252
 150   2.0000      -0.762636       -20.7524
 151   2.0000      -0.755287       -20.5524
 152   2.0000      -0.752276       -20.4705
 153   2.0000      -0.749597       -20.3976
 154   2.0000      -0.731097       -19.8942
 155   2.0000      -0.711938       -19.3728
 156   2.0000      -0.709458       -19.3053
 157   2.0000      -0.706976       -19.2378
 158   2.0000      -0.702589       -19.1184
 159   2.0000      -0.696357       -18.9488
 160   2.0000      -0.692276       -18.8378
 161   2.0000      -0.688444       -18.7335
 162   2.0000      -0.686030       -18.6678
 163   2.0000      -0.674352       -18.3500
 164   2.0000      -0.672250       -18.2929
 165   2.0000      -0.670487       -18.2449
 166   2.0000      -0.660353       -17.9691
 167   2.0000      -0.657017       -17.8783
 168   2.0000      -0.652900       -17.7663
 169   2.0000      -0.643772       -17.5179
 170   2.0000      -0.630446       -17.1553
 171   2.0000      -0.629201       -17.1214
 172   2.0000      -0.621820       -16.9206
 173   2.0000      -0.617008       -16.7896
 174   2.0000      -0.613759       -16.7012
 175   2.0000      -0.612736       -16.6734
 176   2.0000      -0.608179       -16.5494
 177   2.0000      -0.601749       -16.3744
 178   2.0000      -0.598646       -16.2900
 179   2.0000      -0.595903       -16.2153
 180   2.0000      -0.592537       -16.1238
 181   2.0000      -0.588506       -16.0141
 182   2.0000      -0.585808       -15.9406
 183   2.0000      -0.580545       -15.7974
 184   2.0000      -0.571679       -15.5562
 185   2.0000      -0.569568       -15.4987
 186   2.0000      -0.567966       -15.4551
 187   2.0000      -0.563913       -15.3449
 188   2.0000      -0.554952       -15.1010
 189   2.0000      -0.551203       -14.9990
 190   2.0000      -0.549410       -14.9502
 191   2.0000      -0.546664       -14.8755
 192   2.0000      -0.542891       -14.7728
 193   2.0000      -0.538893       -14.6640
 194   2.0000      -0.536300       -14.5935
 195   2.0000      -0.531949       -14.4751
 196   2.0000      -0.528958       -14.3937
 197   2.0000      -0.527853       -14.3636
 198   2.0000      -0.525440       -14.2979
 199   2.0000      -0.525056       -14.2875
 200   2.0000      -0.520807       -14.1719
 201   2.0000      -0.519583       -14.1386
 202   2.0000      -0.512537       -13.9468
 203   2.0000      -0.511005       -13.9051
 204   2.0000      -0.510353       -13.8874
 205   2.0000      -0.508527       -13.8377
 206   2.0000      -0.506611       -13.7856
 207   2.0000      -0.504063       -13.7162
 208   2.0000      -0.500772       -13.6267
 209   2.0000      -0.498634       -13.5685
 210   2.0000      -0.496943       -13.5225
 211   2.0000      -0.496096       -13.4994
 212   2.0000      -0.492128       -13.3915
 213   2.0000      -0.490555       -13.3487
 214   2.0000      -0.489527       -13.3207
 215   2.0000      -0.489031       -13.3072
 216   2.0000      -0.486860       -13.2481
 217   2.0000      -0.486062       -13.2264
 218   2.0000      -0.483305       -13.1514
 219   2.0000      -0.480853       -13.0847
 220   2.0000      -0.476827       -12.9751
 221   2.0000      -0.474489       -12.9115
 222   2.0000      -0.473423       -12.8825
 223   2.0000      -0.469090       -12.7646
 224   2.0000      -0.465056       -12.6548
 225   2.0000      -0.462800       -12.5934
 226   2.0000      -0.458938       -12.4883
 227   2.0000      -0.455404       -12.3922
 228   2.0000      -0.453156       -12.3310
 229   2.0000      -0.451566       -12.2877
 230   2.0000      -0.450751       -12.2656
 231   2.0000      -0.449310       -12.2264
 232   2.0000      -0.448008       -12.1909
 233   2.0000      -0.446840       -12.1591
 234   2.0000      -0.444393       -12.0925
 235   2.0000      -0.443419       -12.0660
 236   2.0000      -0.442728       -12.0472
 237   2.0000      -0.439770       -11.9667
 238   2.0000      -0.438674       -11.9369
 239   2.0000      -0.433449       -11.7947
 240   2.0000      -0.431495       -11.7416
 241   2.0000      -0.426915       -11.6170
 242   2.0000      -0.423722       -11.5301
 243   2.0000      -0.423446       -11.5226
 244   2.0000      -0.422178       -11.4880
 245   2.0000      -0.420456       -11.4412
 246   2.0000      -0.419076       -11.4036
 247   2.0000      -0.418175       -11.3791
 248   2.0000      -0.414582       -11.2813
 249   2.0000      -0.413832       -11.2609
 250   2.0000      -0.410523       -11.1709
 251   2.0000      -0.408610       -11.1188
 252   2.0000      -0.405079       -11.0228
 253   2.0000      -0.403830       -10.9888
 254   2.0000      -0.394562       -10.7366
 255   2.0000      -0.389532       -10.5997
 256   2.0000      -0.387454       -10.5432
 257   2.0000      -0.384175       -10.4539
 258   2.0000      -0.378824       -10.3083
 259   2.0000      -0.375582       -10.2201
 260   2.0000      -0.374689       -10.1958
 261   2.0000      -0.371899       -10.1199
 262   2.0000      -0.366265        -9.9666
 263   2.0000      -0.363267        -9.8850
 264   2.0000      -0.361030        -9.8241
 265   2.0000      -0.354028        -9.6336
 266   2.0000      -0.352252        -9.5853
 267   2.0000      -0.343743        -9.3537
 268   2.0000      -0.340110        -9.2549
 269   2.0000      -0.337394        -9.1810
 270   2.0000      -0.332651        -9.0519
 271   2.0000      -0.330524        -8.9940
 272   2.0000      -0.319461        -8.6930
 273   2.0000      -0.315513        -8.5855
 274   2.0000      -0.310307        -8.4439
 275   2.0000      -0.302751        -8.2383
 276   2.0000      -0.292751        -7.9662
 277   2.0000      -0.290103        -7.8941
 278   2.0000      -0.273622        -7.4456
 279   2.0000      -0.268443        -7.3047
 280   2.0000      -0.258730        -7.0404
 281   2.0000      -0.239354        -6.5132
 282   2.0000      -0.197024        -5.3613
 283   0.0000      -0.085457        -2.3254
 284   0.0000      -0.083330        -2.2675
 285   0.0000      -0.054945        -1.4951
 286   0.0000      -0.037570        -1.0223
 287   0.0000      -0.035268        -0.9597

MULLIKEN ATOMIC CHARGES
-----------------------
   0 C :    0.317795
   1 C :   -0.348002
   2 C :   -0.183897
   3 N :    0.149507
   4 C :   -0.196515
   5 N :    0.161714
   6 C :    0.018992
   7 C :   -0.018458
   8 C :   -0.069560
   9 C :    0.120281
  10 C :   -0.090468
  11 C :   -0.024570
  12 S :    0.185988
  13 C :   -0.122039
  14 C :    0.036536
  15 Br:    0.024181
  16 C :    0.134936
  17 O :   -0.127174
  18 C :   -0.099162
  19 C :   -0.080942
  20 C :    0.035445
  21 C :   -0.080904
  22 S :    0.151285
  23 C :   -0.161363
  24 C :    0.176737
  25 C :   -0.108674
  26 C :    0.062985
  27 C :    0.012147
  28 C :   -0.122546
  29 C :    0.005979
  30 C :    0.046984
  31 C :    0.126135
  32 C :    0.055515
  33 C :   -0.116889
  34 S :    0.123311
  35 C :   -0.141963
  36 C :   -0.028030
  37 C :   -0.011974
  38 C :    0.123222
  39 O :   -0.221983
  40 C :   -0.079137
  41 C :    0.181822
  42 O :   -0.167792
  43 N :   -0.162334
  44 C :    0.171196
  45 O :   -0.197100
  46 C :   -0.035265
  47 C :    0.104314
  48 C :   -0.071106
  49 C :    0.042122
  50 C :   -0.023739
  51 C :   -0.011716
  52 C :    0.016833
  53 C :    0.036478
  54 C :   -0.059176
  55 S :    0.065344
  56 C :   -0.025937
  57 C :    0.014437
  58 C :    0.044863
  59 C :   -0.060128
  60 S :    0.078396
  61 C :    0.038509
  62 C :   -0.187964
  63 S :    0.137595
  64 C :   -0.102209
  65 C :    0.072333
  66 C :    0.147052
  67 C :   -0.110355
  68 C :    0.064153
  69 C :   -0.000587
  70 C :    0.004835
  71 N :   -0.049913
  72 H :   -0.009157
  73 H :   -0.006622
  74 H :   -0.002218
  75 H :    0.037849
  76 H :    0.029204
  77 H :    0.006490
  78 H :   -0.007224
  79 H :    0.020878
  80 H :    0.015045
  81 H :    0.019641
  82 H :    0.005181
  83 H :    0.006739
  84 H :   -0.001443
  85 H :    0.029298
  86 H :    0.013535
  87 H :    0.020153
  88 H :    0.039783
  89 H :   -0.011859
  90 H :    0.129281
  91 H :    0.001968
  92 H :   -0.004088
  93 H :   -0.021410
  94 H :   -0.017893
  95 H :   -0.016164
  96 H :   -0.018304
  97 H :   -0.011765
  98 H :   -0.010038
  99 H :    0.022461
 100 H :   -0.029211
 101 H :   -0.029539
 102 H :   -0.023610
 103 H :    0.113576
 104 H :    0.119083
Sum of atomic charges:   -0.0000000

LOEWDIN ATOMIC CHARGES
----------------------
   0 C :    0.076138
   1 C :   -0.139633
   2 C :   -0.018253
   3 N :   -0.053043
   4 C :   -0.022708
   5 N :   -0.050569
   6 C :   -0.022505
   7 C :   -0.049508
   8 C :    0.021776
   9 C :   -0.031597
  10 C :   -0.144232
  11 C :   -0.009420
  12 S :    0.431860
  13 C :   -0.270911
  14 C :   -0.070288
  15 Br:    0.137091
  16 C :    0.075373
  17 O :   -0.123554
  18 C :   -0.099259
  19 C :    0.074914
  20 C :   -0.068988
  21 C :   -0.140053
  22 S :    0.438913
  23 C :   -0.177144
  24 C :   -0.026638
  25 C :   -0.015122
  26 C :   -0.029703
  27 C :   -0.047657
  28 C :   -0.007473
  29 C :   -0.031208
  30 C :   -0.051436
  31 C :   -0.038959
  32 C :   -0.059923
  33 C :   -0.166161
  34 S :    0.411022
  35 C :   -0.175951
  36 C :    0.015642
  37 C :   -0.049185
  38 C :    0.068204
  39 O :    0.004063
  40 C :   -0.108667
  41 C :    0.087964
  42 O :   -0.172773
  43 N :   -0.005300
  44 C :    0.098906
  45 O :   -0.197991
  46 C :   -0.126701
  47 C :    0.088546
  48 C :   -0.096366
  49 C :    0.001906
  50 C :   -0.101164
  51 C :   -0.123002
  52 C :   -0.057046
  53 C :   -0.024536
  54 C :   -0.210382
  55 S :    0.394141
  56 C :   -0.152117
  57 C :   -0.062544
  58 C :   -0.013000
  59 C :   -0.183984
  60 S :    0.417152
  61 C :   -0.038784
  62 C :   -0.211529
  63 S :    0.458593
  64 C :   -0.163271
  65 C :   -0.069316
  66 C :   -0.025052
  67 C :   -0.102648
  68 C :    0.048607
  69 C :   -0.040099
  70 C :    0.003620
  71 N :    0.005682
  72 H :    0.041599
  73 H :    0.040907
  74 H :    0.039275
  75 H :    0.047386
  76 H :    0.028809
  77 H :    0.025146
  78 H :    0.027021
  79 H :    0.022743
  80 H :    0.026362
  81 H :    0.026853
  82 H :    0.025181
  83 H :    0.029839
  84 H :    0.019115
  85 H :    0.027021
  86 H :    0.023457
  87 H :    0.023723
  88 H :    0.037046
  89 H :    0.035690
  90 H :    0.089645
  91 H :    0.021623
  92 H :    0.032240
  93 H :    0.031072
  94 H :    0.030517
  95 H :    0.031422
  96 H :    0.029828
  97 H :    0.033313
  98 H :    0.035052
  99 H :    0.026117
 100 H :    0.011144
 101 H :    0.028481
 102 H :    0.031507
 103 H :    0.076923
 104 H :    0.061185

  Mayer bond orders larger than 0.100000
B(  0-C ,  1-C ) :   1.6489 B(  0-C ,  6-C ) :   1.0101 B(  0-C , 18-C ) :   1.0461
B(  1-C ,  2-C ) :   1.1360 B(  1-C ,  4-C ) :   1.1519 B(  2-C ,  3-N ) :   2.9717
B(  4-C ,  5-N ) :   2.9691 B(  6-C ,  7-C ) :   1.2729 B(  6-C , 11-C ) :   1.4017
B(  7-C ,  8-C ) :   1.4275 B(  7-C , 16-C ) :   0.9326 B(  8-C ,  9-C ) :   1.2430
B(  8-C , 72-H ) :   1.0178 B(  9-C , 10-C ) :   1.3026 B(  9-C , 14-C ) :   1.1628
B( 10-C , 11-C ) :   1.3344 B( 10-C , 12-S ) :   1.0852 B( 11-C , 73-H ) :   0.9806
B( 12-S , 13-C ) :   1.0858 B( 13-C , 14-C ) :   1.6182 B( 13-C , 15-Br) :   1.0188
B( 14-C , 74-H ) :   1.0005 B( 16-C , 17-O ) :   2.2391 B( 16-C , 18-C ) :   0.9330
B( 18-C , 19-C ) :   1.6476 B( 19-C , 20-C ) :   1.0761 B( 19-C , 75-H ) :   0.9432
B( 20-C , 21-C ) :   1.5370 B( 20-C , 24-C ) :   1.1282 B( 21-C , 22-S ) :   1.1647
B( 21-C , 76-H ) :   0.9685 B( 22-S , 23-C ) :   1.0579 B( 23-C , 24-C ) :   1.3939
B( 23-C , 35-C ) :   1.3812 B( 24-C , 25-C ) :   1.2503 B( 25-C , 26-C ) :   1.0875
B( 25-C , 28-C ) :   1.5112 B( 26-C , 27-C ) :   1.1028 B( 26-C , 77-H ) :   0.9079
B( 26-C , 78-H ) :   0.9076 B( 27-C , 79-H ) :   0.9606 B( 27-C , 80-H ) :   0.9649
B( 27-C , 81-H ) :   0.9600 B( 28-C , 29-C ) :   1.0585 B( 28-C , 31-C ) :   1.2681
B( 29-C , 30-C ) :   1.1048 B( 29-C , 82-H ) :   0.9173 B( 29-C , 83-H ) :   0.9161
B( 30-C , 84-H ) :   0.9600 B( 30-C , 85-H ) :   0.9575 B( 30-C , 86-H ) :   0.9599
B( 31-C , 32-C ) :   1.1554 B( 31-C , 35-C ) :   1.3703 B( 32-C , 33-C ) :   1.6157
B( 32-C , 36-C ) :   1.0118 B( 33-C , 34-S ) :   1.1131 B( 33-C , 87-H ) :   0.9653
B( 34-S , 35-C ) :   1.0766 B( 36-C , 37-C ) :   1.7278 B( 36-C , 88-H ) :   0.9295
B( 37-C , 38-C ) :   1.1408 B( 37-C , 89-H ) :   0.9647 B( 38-C , 39-O ) :   1.1274
B( 38-C , 40-C ) :   1.4459 B( 39-O , 47-C ) :   1.1327 B( 40-C , 41-C ) :   0.8977
B( 40-C , 46-C ) :   1.2434 B( 41-C , 42-O ) :   2.1403 B( 41-C , 43-N ) :   1.0994
B( 43-N , 44-C ) :   1.0798 B( 43-N , 90-H ) :   0.9170 B( 44-C , 45-O ) :   2.1148
B( 44-C , 46-C ) :   0.9370 B( 46-C , 47-C ) :   1.3218 B( 47-C , 48-C ) :   1.2787
B( 48-C , 49-C ) :   1.5025 B( 48-C , 91-H ) :   0.9350 B( 49-C , 50-C ) :   1.2594
B( 49-C , 92-H ) :   0.9691 B( 50-C , 51-C ) :   1.4773 B( 50-C , 93-H ) :   0.9621
B( 51-C , 52-C ) :   1.1951 B( 51-C , 55-S ) :   1.0758 B( 52-C , 53-C ) :   1.5300
B( 52-C , 94-H ) :   0.9993 B( 53-C , 54-C ) :   1.2404 B( 53-C , 95-H ) :   0.9937
B( 54-C , 55-S ) :   1.0279 B( 54-C , 56-C ) :   1.4343 B( 56-C , 57-C ) :   1.2204
B( 56-C , 60-S ) :   1.0780 B( 57-C , 58-C ) :   1.5415 B( 57-C , 96-H ) :   0.9946
B( 58-C , 59-C ) :   1.1886 B( 58-C , 97-H ) :   0.9967 B( 59-C , 60-S ) :   1.0210
B( 59-C , 61-C ) :   1.5326 B( 61-C , 62-C ) :   1.2509 B( 61-C , 98-H ) :   0.9456
B( 62-C , 63-S ) :   1.0966 B( 62-C , 66-C ) :   1.2586 B( 63-S , 64-C ) :   1.2209
B( 64-C , 65-C ) :   1.4177 B( 64-C , 99-H ) :   0.9683 B( 65-C , 66-C ) :   1.1992
B( 65-C , 70-C ) :   1.1541 B( 66-C , 67-C ) :   1.2812 B( 67-C , 68-C ) :   1.3996
B( 67-C ,100-H ) :   0.9679 B( 68-C , 69-C ) :   1.1684 B( 68-C , 71-N ) :   1.2940
B( 69-C , 70-C ) :   1.5843 B( 69-C ,101-H ) :   0.9889 B( 70-C ,102-H ) :   0.9972
B( 71-N ,103-H ) :   0.9500 B( 71-N ,104-H ) :   0.9195

-----------------------------------------------------------------------------
         ABSORPTION SPECTRUM VIA TRANSITION ELECTRIC DIPOLE MOMENTS
-----------------------------------------------------------------------------
State   Energy  Wavelength   fosc         T2         TX        TY        TZ
        (cm-1)    (nm)                  (au**2)     (au)      (au)      (au)
-----------------------------------------------------------------------------
   0   10368.9    964.4   0.559818026  17.77418   1.40191  -2.08202   3.38733
   1   17113.2    584.3   0.001176602   0.02263  -0.13995   0.05008  -0.02321
   2   18419.2    542.9   0.100451827   1.79540  -0.63710   1.14892  -0.26359
   3   20784.7    481.1   1.039283407  16.46134  -1.96665   3.23916   1.44966
   4   20997.9    476.2   0.183927371   2.88367   1.37381  -0.69162   0.71971
   5   22511.7    444.2   0.206560079   3.02075   1.20754   0.91916  -0.84719
   6   23065.9    433.5   0.065238780   0.93113   0.64567   0.47535  -0.53692
   7   23575.1    424.2   0.125272812   1.74936   0.68512   0.69731  -0.89092
   8   24577.0    406.9   0.087067611   1.16628  -0.57633   0.22499   0.88516
   9   26272.4    380.6   0.464343903   5.81857   1.19149  -0.92134  -1.88416
  10   26652.6    375.2   0.034703013   0.42865   0.55968   0.10896  -0.32177
  11   27224.2    367.3   0.013193744   0.15955   0.16955  -0.05266  -0.35781
  12   27765.8    360.2   0.065220011   0.77330  -0.82882  -0.03402   0.29189
  13   28482.7    351.1   0.140697969   1.62623  -0.20407  -1.21253  -0.33817
  14   28729.9    348.1   0.049359148   0.56560  -0.52203   0.50207  -0.20251
  15   28826.5    346.9   0.225842353   2.57922  -0.28530   0.33481  -1.54458
  16   28916.3    345.8   0.421378993   4.79739  -0.21778  -1.97245   0.92705
  17   29624.7    337.6   0.172280489   1.91451   1.17199  -0.64501   0.35345
  18   29802.6    335.5   0.088242169   0.97476   0.39675  -0.01891   0.90388
  19   30654.3    326.2   0.068228852   0.73274   0.41438  -0.73127  -0.16212
  20   30865.3    324.0   0.030435495   0.32463   0.02637   0.35335   0.44618
  21   31754.9    314.9   0.029444529   0.30526   0.14582  -0.04023   0.53139
  22   31889.4    313.6   0.004408534   0.04551   0.14173  -0.04482  -0.15302
  23   31980.4    312.7   0.009204178   0.09475   0.08164   0.21167  -0.20804
  24   32232.0    310.3   0.009808029   0.10018  -0.17847   0.21703   0.14569
  25   32578.1    307.0   0.063086845   0.63751  -0.47525   0.18825   0.61336
  26   32758.9    305.3   0.054776987   0.55048  -0.33113   0.38926  -0.53788
  27   33071.8    302.4   0.008272797   0.08235  -0.15315  -0.04914   0.23766
  28   33167.7    301.5   0.025963459   0.25771  -0.09162   0.19494  -0.45969
  29   34144.6    292.9   0.464087742   4.47459   1.01194  -1.82082  -0.36765
  30   34371.4    290.9   0.015043602   0.14409   0.31268   0.19762   0.08524
  31   34417.2    290.6   0.262245573   2.50847  -0.57417  -1.19255   0.86984
  32   34569.0    289.3   0.087375652   0.83211   0.05159  -0.88599  -0.21086
  33   34702.6    288.2   0.014157406   0.13431  -0.30401   0.19946   0.04582
  34   35038.5    285.4   0.001767319   0.01661   0.05530  -0.01643   0.11523
  35   35841.3    279.0   0.043324300   0.39795  -0.06316  -0.49629   0.38425
  36   36476.1    274.2   0.007335108   0.06620   0.12241  -0.20738  -0.09063
  37   36716.5    272.4   0.032178357   0.28852  -0.08817   0.52969   0.01316
  38   36983.2    270.4   0.061171351   0.54453   0.58348   0.38797   0.23143
  39   37104.8    269.5   0.114600986   1.01680  -0.18285   0.68273  -0.71919
  40   37592.8    266.0   0.144113810   1.26205  -0.71346   0.01486   0.86764
  41   37902.8    263.8   0.001290255   0.01121  -0.08955   0.05182  -0.02240
  42   38461.1    260.0   0.011443265   0.09795  -0.12310  -0.26966   0.10039
  43   38766.0    258.0   0.000315853   0.00268   0.01703  -0.04703   0.01345
  44   38802.8    257.7   0.021673933   0.18389   0.07666   0.37090  -0.20111
  45   39076.2    255.9   0.003487838   0.02938   0.07541   0.15376   0.00744
  46   39352.7    254.1   0.046440501   0.38851  -0.43475  -0.14280   0.42321
  47   39820.7    251.1   0.050589231   0.41824   0.19004  -0.17619   0.59252
  48   39901.3    250.6   0.302996169   2.49992   1.44344   0.49708  -0.41146
  49   40267.8    248.3   0.000193984   0.00159  -0.03881   0.00025   0.00893

FINAL SINGLE POINT ENERGY     -7670.740119917453

DIPOLE MOMENT
-------------
                                X             Y             Z
Electronic contribution:    118.42135      67.75947      -2.19807
Nuclear contribution   :   -120.67480     -64.96520       2.38450
                        -----------------------------------------
Total Dipole Moment    :     -2.25345       2.79427       0.18642
                        -----------------------------------------
Magnitude (a.u.)       :      3.59454
Magnitude (Debye)      :      9.13661

Rotational constants in cm-1:     0.000823     0.000293     0.000247
Rotational constants in MHz :    24.683710     8.792132     7.395843

                             ****ORCA TERMINATED NORMALLY****
TOTAL RUN TIME: 0 days 0 hours 12 minutes 2 seconds 532 msec
