                         Program Version 4.2.0 -  RELEASE  -
|  1> # ORCA input file
|  2> # SCF done       -146.233648560080          0.000468938014
|  3> ! CAM-B3LYP def2-SVP def2/J RIJCOSX Grid4 TightSCF
|  4> %maxcore 5000
|  5> %tddft
|  6>     Mode sTDDFT
|  7>     Ethresh 5.0
|  8>     maxcore 5000
|  9> end
| 10>
| 11> %pal
| 12>   nprocs 6
| 13>   end
| 14> * xyz 0 1
| 15>    C       -6.12437        -2.10780        -4.88439
| 16>    C       -4.87437        -2.03414        -5.45543
| 17>    C       -4.32771        -3.02881        -6.28873
| 18>    N       -3.82993        -3.80150        -6.97815
| 19>    C       -3.95264        -0.98654        -5.26690
| 20>    N       -3.13806        -0.18447        -5.14645
| 21>    C       -7.03994        -3.24094        -5.02352
| 22>    C       -8.17419        -2.99962        -4.21352
| 23>    C       -9.22067        -3.88152        -4.11861
| 24>    C       -9.15209        -5.06164        -4.86667
| 25>    C       -8.01812        -5.29279        -5.67779
| 26>    C       -6.95453        -4.40045        -5.76902
| 27>    S       -8.13820        -6.80669        -6.52475
| 28>    C       -9.68867        -7.10181        -5.78461
| 29>    C      -10.09810        -6.12006        -4.94700
| 30>   Br      -10.62658        -8.67796        -6.18475
| 31>    C       -8.02229        -1.69227        -3.54148
| 32>    O       -8.80821        -1.22142        -2.73602
| 33>    C       -6.75286        -1.13476        -4.02846
| 34>    C       -6.28489         0.13413        -3.72904
| 35>    C       -6.96602         1.04515        -2.92814
| 36>    C       -6.45231         2.28440        -2.59572
| 37>    C       -7.03798         3.23404        -1.76362
| 38>    C       -8.25995         3.18006        -1.10483
| 39>    C       -8.71306         4.14371        -0.17297
| 40>    C       -9.90891         3.84600         0.41841
| 41>    C      -10.47219         2.64051        -0.03977
| 42>    S       -9.44522         1.91014        -1.25205
| 43>    C      -11.62540         1.99080         0.37005
| 44>    C      -12.49232         2.30674         1.43818
| 45>    C      -13.45859         1.36866         1.64485
| 46>    C      -13.39736         0.25421         0.76566
| 47>    S      -12.11749         0.50469        -0.40283
| 48>    C      -14.23175        -0.83691         0.83473
| 49>    C      -14.25654        -2.04441         0.10887
| 50>    S      -15.83767        -2.80716         0.00137
| 51>    C      -15.24432        -3.98239        -1.09546
| 52>    C      -13.91638        -3.85158        -1.35343
| 53>    C      -13.16032        -4.76276        -2.26296
| 54>    C      -13.31532        -2.77264        -0.63376
| 55>    C      -11.89653        -2.59066        -0.63428
| 56>    C      -11.17306        -2.03676         0.36419
| 57>    C       -9.79099        -1.72504         0.22810
| 58>    C       -9.17475        -0.83278         1.03194
| 59>    C       -7.87284        -0.30582         0.80971
| 60>    S       -6.66650        -1.01951        -0.23772
| 61>    C       -5.54064         0.25295        -0.01685
| 62>    C       -6.05580         1.21981         0.81394
| 63>    C       -7.36671         0.88316         1.27881
| 64>    O       -7.87346         1.87013         2.05402
| 65>    C       -6.90659         2.82874         2.08064
| 66>    N       -7.20262         4.02349         2.77219
| 67>    O       -6.33848         4.88090         2.77593
| 68>    O       -8.29564         4.12427         3.29039
| 69>    C       -5.78521         2.50154         1.36592
| 70>    H      -10.07159        -3.66609        -3.49163
| 71>    H       -6.11436        -4.62514        -6.40424
| 72>    H      -11.02839        -6.14121        -4.40901
| 73>    H       -5.33941         0.44846        -4.15178
| 74>    H       -7.92502         0.73751        -2.54633
| 75>    H       -5.47718         2.53786        -2.99499
| 76>    H       -6.46345         4.13180        -1.57088
| 77>    H       -8.13249         5.02287         0.04886
| 78>    H      -10.37663         4.45181         1.17299
| 79>    H      -12.35873         3.18810         2.03846
| 80>    H      -14.19511         1.42039         2.42743
| 81>    H      -15.06609        -0.71882         1.51897
| 82>    H      -15.91749        -4.71847        -1.48997
| 83>    H      -13.82073        -5.52802        -2.66284
| 84>    H      -12.34543        -5.24732        -1.72619
| 85>    H      -12.73936        -4.19731        -3.09460
| 86>    H      -11.37053        -2.93337        -1.51408
| 87>    H      -11.65993        -1.75088         1.28729
| 88>    H       -9.26951        -2.10217        -0.64030
| 89>    H       -9.71175        -0.37602         1.85471
| 90>    H       -4.59316         0.22322        -0.51369
| 91>    H       -4.91074         3.10846         1.25485
| 92> *
| 93>
| 94>                          ****END OF INPUT****

CARTESIAN COORDINATES (ANGSTROEM)
---------------------------------
  C     -6.124370   -2.107800   -4.884390
  C     -4.874370   -2.034140   -5.455430
  C     -4.327710   -3.028810   -6.288730
  N     -3.829930   -3.801500   -6.978150
  C     -3.952640   -0.986540   -5.266900
  N     -3.138060   -0.184470   -5.146450
  C     -7.039940   -3.240940   -5.023520
  C     -8.174190   -2.999620   -4.213520
  C     -9.220670   -3.881520   -4.118610
  C     -9.152090   -5.061640   -4.866670
  C     -8.018120   -5.292790   -5.677790
  C     -6.954530   -4.400450   -5.769020
  S     -8.138200   -6.806690   -6.524750
  C     -9.688670   -7.101810   -5.784610
  C    -10.098100   -6.120060   -4.947000
  Br   -10.626580   -8.677960   -6.184750
  C     -8.022290   -1.692270   -3.541480
  O     -8.808210   -1.221420   -2.736020
  C     -6.752860   -1.134760   -4.028460
  C     -6.284890    0.134130   -3.729040
  C     -6.966020    1.045150   -2.928140
  C     -6.452310    2.284400   -2.595720
  C     -7.037980    3.234040   -1.763620
  C     -8.259950    3.180060   -1.104830
  C     -8.713060    4.143710   -0.172970
  C     -9.908910    3.846000    0.418410
  C    -10.472190    2.640510   -0.039770
  S     -9.445220    1.910140   -1.252050
  C    -11.625400    1.990800    0.370050
  C    -12.492320    2.306740    1.438180
  C    -13.458590    1.368660    1.644850
  C    -13.397360    0.254210    0.765660
  S    -12.117490    0.504690   -0.402830
  C    -14.231750   -0.836910    0.834730
  C    -14.256540   -2.044410    0.108870
  S    -15.837670   -2.807160    0.001370
  C    -15.244320   -3.982390   -1.095460
  C    -13.916380   -3.851580   -1.353430
  C    -13.160320   -4.762760   -2.262960
  C    -13.315320   -2.772640   -0.633760
  C    -11.896530   -2.590660   -0.634280
  C    -11.173060   -2.036760    0.364190
  C     -9.790990   -1.725040    0.228100
  C     -9.174750   -0.832780    1.031940
  C     -7.872840   -0.305820    0.809710
  S     -6.666500   -1.019510   -0.237720
  C     -5.540640    0.252950   -0.016850
  C     -6.055800    1.219810    0.813940
  C     -7.366710    0.883160    1.278810
  O     -7.873460    1.870130    2.054020
  C     -6.906590    2.828740    2.080640
  N     -7.202620    4.023490    2.772190
  O     -6.338480    4.880900    2.775930
  O     -8.295640    4.124270    3.290390
  C     -5.785210    2.501540    1.365920
  H    -10.071590   -3.666090   -3.491630
  H     -6.114360   -4.625140   -6.404240
  H    -11.028390   -6.141210   -4.409010
  H     -5.339410    0.448460   -4.151780
  H     -7.925020    0.737510   -2.546330
  H     -5.477180    2.537860   -2.994990
  H     -6.463450    4.131800   -1.570880
  H     -8.132490    5.022870    0.048860
  H    -10.376630    4.451810    1.172990
  H    -12.358730    3.188100    2.038460
  H    -14.195110    1.420390    2.427430
  H    -15.066090   -0.718820    1.518970
  H    -15.917490   -4.718470   -1.489970
  H    -13.820730   -5.528020   -2.662840
  H    -12.345430   -5.247320   -1.726190
  H    -12.739360   -4.197310   -3.094600
  H    -11.370530   -2.933370   -1.514080
  H    -11.659930   -1.750880    1.287290
  H     -9.269510   -2.102170   -0.640300
  H     -9.711750   -0.376020    1.854710
  H     -4.593160    0.223220   -0.513690
  H     -4.910740    3.108460    1.254850

 Total Charge           Charge          ....    0
 Multiplicity           Mult            ....    1
 Number of Electrons    NEL             ....  442
 Basis Dimension        Dim             ....  918

ORBITAL ENERGIES
----------------

  NO   OCC          E(Eh)            E(eV)
   0   2.0000    -482.882253    -13139.8941
   1   2.0000     -88.973775     -2421.0995
   2   2.0000     -88.969665     -2420.9877
   3   2.0000     -88.963418     -2420.8177
   4   2.0000     -88.962718     -2420.7986
   5   2.0000     -88.961174     -2420.7566
   6   2.0000     -62.559962     -1702.3431
   7   2.0000     -56.393908     -1534.5562
   8   2.0000     -56.391210     -1534.4828
   9   2.0000     -56.391166     -1534.4816
  10   2.0000     -19.307171      -525.3748
  11   2.0000     -19.249528      -523.8063
  12   2.0000     -19.247524      -523.7518
  13   2.0000     -19.205976      -522.6212
  14   2.0000     -14.660103      -398.9217
  15   2.0000     -14.402113      -391.9014
  16   2.0000     -14.399902      -391.8413
  17   2.0000     -10.387589      -282.6607
  18   2.0000     -10.354786      -281.7681
  19   2.0000     -10.353658      -281.7374
  20   2.0000     -10.343014      -281.4477
  21   2.0000     -10.334511      -281.2163
  22   2.0000     -10.326194      -280.9900
  23   2.0000     -10.326182      -280.9897
  24   2.0000     -10.323221      -280.9091
  25   2.0000     -10.321404      -280.8597
  26   2.0000     -10.319142      -280.7981
  27   2.0000     -10.317605      -280.7563
  28   2.0000     -10.315126      -280.6888
  29   2.0000     -10.315100      -280.6881
  30   2.0000     -10.314167      -280.6628
  31   2.0000     -10.312926      -280.6290
  32   2.0000     -10.310436      -280.5612
  33   2.0000     -10.306277      -280.4481
  34   2.0000     -10.306159      -280.4448
  35   2.0000     -10.304268      -280.3934
  36   2.0000     -10.303076      -280.3610
  37   2.0000     -10.300336      -280.2864
  38   2.0000     -10.300234      -280.2836
  39   2.0000     -10.297660      -280.2136
  40   2.0000     -10.297533      -280.2101
  41   2.0000     -10.296528      -280.1828
  42   2.0000     -10.296379      -280.1787
  43   2.0000     -10.296000      -280.1684
  44   2.0000     -10.295618      -280.1580
  45   2.0000     -10.293845      -280.1098
  46   2.0000     -10.293346      -280.0962
  47   2.0000     -10.292402      -280.0705
  48   2.0000     -10.290835      -280.0279
  49   2.0000     -10.289417      -279.9893
  50   2.0000     -10.286595      -279.9125
  51   2.0000     -10.283834      -279.8373
  52   2.0000     -10.282242      -279.7940
  53   2.0000     -10.281204      -279.7658
  54   2.0000     -10.280878      -279.7569
  55   2.0000     -10.278703      -279.6977
  56   2.0000     -10.275879      -279.6209
  57   2.0000     -10.274131      -279.5733
  58   2.0000     -10.264854      -279.3209
  59   2.0000      -8.789372      -239.1710
  60   2.0000      -8.067783      -219.5355
  61   2.0000      -8.065599      -219.4761
  62   2.0000      -8.058664      -219.2874
  63   2.0000      -8.057488      -219.2554
  64   2.0000      -8.057016      -219.2425
  65   2.0000      -6.625631      -180.2926
  66   2.0000      -6.611118      -179.8977
  67   2.0000      -6.610944      -179.8929
  68   2.0000      -6.037076      -164.2772
  69   2.0000      -6.035309      -164.2291
  70   2.0000      -6.032674      -164.1574
  71   2.0000      -6.031007      -164.1121
  72   2.0000      -6.030388      -164.0952
  73   2.0000      -6.028330      -164.0392
  74   2.0000      -6.026827      -163.9983
  75   2.0000      -6.026810      -163.9978
  76   2.0000      -6.026655      -163.9936
  77   2.0000      -6.024033      -163.9223
  78   2.0000      -6.022616      -163.8837
  79   2.0000      -6.022388      -163.8775
  80   2.0000      -6.019960      -163.8114
  81   2.0000      -6.019475      -163.7983
  82   2.0000      -6.018585      -163.7740
  83   2.0000      -2.741497       -74.5999
  84   2.0000      -2.737395       -74.4883
  85   2.0000      -2.737345       -74.4869
  86   2.0000      -2.725777       -74.1722
  87   2.0000      -2.725756       -74.1716
  88   2.0000      -1.331462       -36.2309
  89   2.0000      -1.226468       -33.3739
  90   2.0000      -1.147651       -31.2292
  91   2.0000      -1.118715       -30.4418
  92   2.0000      -1.013904       -27.5897
  93   2.0000      -1.012038       -27.5390
  94   2.0000      -1.001282       -27.2463
  95   2.0000      -0.996286       -27.1103
  96   2.0000      -0.994808       -27.0701
  97   2.0000      -0.985583       -26.8191
  98   2.0000      -0.980479       -26.6802
  99   2.0000      -0.977711       -26.6049
 100   2.0000      -0.937412       -25.5083
 101   2.0000      -0.934732       -25.4353
 102   2.0000      -0.919387       -25.0178
 103   2.0000      -0.918235       -24.9864
 104   2.0000      -0.905821       -24.6487
 105   2.0000      -0.899051       -24.4644
 106   2.0000      -0.893334       -24.3088
 107   2.0000      -0.885154       -24.0863
 108   2.0000      -0.877891       -23.8886
 109   2.0000      -0.876318       -23.8458
 110   2.0000      -0.869732       -23.6666
 111   2.0000      -0.856518       -23.3071
 112   2.0000      -0.853804       -23.2332
 113   2.0000      -0.838787       -22.8246
 114   2.0000      -0.834350       -22.7038
 115   2.0000      -0.824043       -22.4233
 116   2.0000      -0.821253       -22.3474
 117   2.0000      -0.803424       -21.8623
 118   2.0000      -0.792341       -21.5607
 119   2.0000      -0.778156       -21.1747
 120   2.0000      -0.774618       -21.0784
 121   2.0000      -0.754705       -20.5366
 122   2.0000      -0.746791       -20.3212
 123   2.0000      -0.732552       -19.9338
 124   2.0000      -0.719516       -19.5790
 125   2.0000      -0.705914       -19.2089
 126   2.0000      -0.704737       -19.1769
 127   2.0000      -0.689430       -18.7604
 128   2.0000      -0.682506       -18.5719
 129   2.0000      -0.678629       -18.4664
 130   2.0000      -0.671793       -18.2804
 131   2.0000      -0.661024       -17.9874
 132   2.0000      -0.655532       -17.8379
 133   2.0000      -0.653267       -17.7763
 134   2.0000      -0.648654       -17.6508
 135   2.0000      -0.647130       -17.6093
 136   2.0000      -0.643410       -17.5081
 137   2.0000      -0.640508       -17.4291
 138   2.0000      -0.632159       -17.2019
 139   2.0000      -0.630364       -17.1531
 140   2.0000      -0.619870       -16.8675
 141   2.0000      -0.614675       -16.7262
 142   2.0000      -0.607624       -16.5343
 143   2.0000      -0.605452       -16.4752
 144   2.0000      -0.595517       -16.2048
 145   2.0000      -0.590995       -16.0818
 146   2.0000      -0.586609       -15.9624
 147   2.0000      -0.581611       -15.8264
 148   2.0000      -0.574553       -15.6344
 149   2.0000      -0.568516       -15.4701
 150   2.0000      -0.563368       -15.3300
 151   2.0000      -0.560823       -15.2608
 152   2.0000      -0.548887       -14.9360
 153   2.0000      -0.548494       -14.9253
 154   2.0000      -0.539761       -14.6876
 155   2.0000      -0.536607       -14.6018
 156   2.0000      -0.531678       -14.4677
 157   2.0000      -0.530032       -14.4229
 158   2.0000      -0.523300       -14.2397
 159   2.0000      -0.522767       -14.2252
 160   2.0000      -0.519834       -14.1454
 161   2.0000      -0.516119       -14.0443
 162   2.0000      -0.515089       -14.0163
 163   2.0000      -0.511079       -13.9072
 164   2.0000      -0.509038       -13.8516
 165   2.0000      -0.504187       -13.7196
 166   2.0000      -0.501913       -13.6577
 167   2.0000      -0.500914       -13.6306
 168   2.0000      -0.494747       -13.4627
 169   2.0000      -0.493200       -13.4207
 170   2.0000      -0.488323       -13.2879
 171   2.0000      -0.484738       -13.1904
 172   2.0000      -0.483004       -13.1432
 173   2.0000      -0.482139       -13.1197
 174   2.0000      -0.477006       -12.9800
 175   2.0000      -0.474223       -12.9043
 176   2.0000      -0.472666       -12.8619
 177   2.0000      -0.468161       -12.7393
 178   2.0000      -0.462462       -12.5842
 179   2.0000      -0.459748       -12.5104
 180   2.0000      -0.459335       -12.4991
 181   2.0000      -0.455313       -12.3897
 182   2.0000      -0.451128       -12.2758
 183   2.0000      -0.449749       -12.2383
 184   2.0000      -0.443001       -12.0547
 185   2.0000      -0.440634       -11.9903
 186   2.0000      -0.437083       -11.8936
 187   2.0000      -0.436168       -11.8687
 188   2.0000      -0.434886       -11.8338
 189   2.0000      -0.431949       -11.7539
 190   2.0000      -0.430995       -11.7280
 191   2.0000      -0.428784       -11.6678
 192   2.0000      -0.426320       -11.6008
 193   2.0000      -0.422791       -11.5047
 194   2.0000      -0.414714       -11.2850
 195   2.0000      -0.414075       -11.2675
 196   2.0000      -0.409947       -11.1552
 197   2.0000      -0.407128       -11.0785
 198   2.0000      -0.404386       -11.0039
 199   2.0000      -0.395521       -10.7627
 200   2.0000      -0.394365       -10.7312
 201   2.0000      -0.392796       -10.6885
 202   2.0000      -0.390018       -10.6129
 203   2.0000      -0.385865       -10.4999
 204   2.0000      -0.380174       -10.3451
 205   2.0000      -0.377151       -10.2628
 206   2.0000      -0.371920       -10.1205
 207   2.0000      -0.365109        -9.9351
 208   2.0000      -0.355426        -9.6716
 209   2.0000      -0.349526        -9.5111
 210   2.0000      -0.342235        -9.3127
 211   2.0000      -0.333671        -9.0797
 212   2.0000      -0.326517        -8.8850
 213   2.0000      -0.316808        -8.6208
 214   2.0000      -0.313466        -8.5298
 215   2.0000      -0.308165        -8.3856
 216   2.0000      -0.302648        -8.2355
 217   2.0000      -0.287486        -7.8229
 218   2.0000      -0.275772        -7.5041
 219   2.0000      -0.253953        -6.9104
 220   2.0000      -0.224139        -6.0991
 221   0.0000      -0.110798        -3.0150
 222   0.0000      -0.074929        -2.0389
 223   0.0000      -0.061834        -1.6826
 224   0.0000      -0.049621        -1.3503
 225   0.0000      -0.028554        -0.7770

MULLIKEN ATOMIC CHARGES
-----------------------
   0 C :    0.330214
   1 C :   -0.368221
   2 C :   -0.184148
   3 N :    0.133885
   4 C :   -0.195423
   5 N :    0.133342
   6 C :    0.005020
   7 C :    0.023524
   8 C :   -0.073511
   9 C :    0.130076
  10 C :   -0.099910
  11 C :   -0.021765
  12 S :    0.183566
  13 C :   -0.124547
  14 C :    0.037869
  15 Br:    0.014077
  16 C :    0.140681
  17 O :   -0.191804
  18 C :   -0.099909
  19 C :   -0.034221
  20 C :   -0.043803
  21 C :    0.048926
  22 C :   -0.001090
  23 C :   -0.037635
  24 C :    0.025017
  25 C :    0.050437
  26 C :   -0.044640
  27 S :    0.094631
  28 C :   -0.036997
  29 C :    0.024570
  30 C :    0.053712
  31 C :   -0.068449
  32 S :    0.137945
  33 C :    0.037415
  34 C :   -0.195816
  35 S :    0.111662
  36 C :   -0.107657
  37 C :   -0.091800
  38 C :    0.101985
  39 C :    0.168180
  40 C :   -0.065976
  41 C :    0.027863
  42 C :    0.023986
  43 C :    0.002987
  44 C :   -0.179329
  45 S :    0.167687
  46 C :   -0.135751
  47 C :    0.142284
  48 C :    0.201236
  49 O :   -0.199900
  50 C :    0.236232
  51 N :    0.263546
  52 O :   -0.249932
  53 O :   -0.237959
  54 C :   -0.064454
  55 H :   -0.057967
  56 H :   -0.008050
  57 H :   -0.017998
  58 H :   -0.001093
  59 H :    0.053988
  60 H :   -0.001658
  61 H :   -0.014057
  62 H :   -0.001516
  63 H :    0.001949
  64 H :   -0.002347
  65 H :   -0.001250
  66 H :    0.003499
  67 H :    0.022763
  68 H :    0.013405
  69 H :    0.035961
  70 H :    0.037359
  71 H :   -0.019699
  72 H :    0.007097
  73 H :    0.005246
  74 H :    0.001412
  75 H :    0.035751
  76 H :    0.009303
Sum of atomic charges:   -0.0000000

LOEWDIN ATOMIC CHARGES
----------------------
   0 C :    0.074480
   1 C :   -0.159603
   2 C :   -0.019172
   3 N :   -0.069563
   4 C :   -0.020460
   5 N :   -0.069799
   6 C :   -0.016844
   7 C :   -0.046929
   8 C :    0.007495
   9 C :   -0.036258
  10 C :   -0.146098
  11 C :   -0.012304
  12 S :    0.429873
  13 C :   -0.274381
  14 C :   -0.075001
  15 Br:    0.129389
  16 C :    0.082046
  17 O :   -0.172518
  18 C :   -0.124994
  19 C :    0.056502
  20 C :   -0.073304
  21 C :    0.022490
  22 C :   -0.090666
  23 C :   -0.116925
  24 C :   -0.053240
  25 C :   -0.006945
  26 C :   -0.195870
  27 S :    0.459604
  28 C :   -0.141554
  29 C :   -0.049713
  30 C :   -0.004976
  31 C :   -0.172970
  32 S :    0.462226
  33 C :   -0.042291
  34 C :   -0.178831
  35 S :    0.428391
  36 C :   -0.177657
  37 C :   -0.056774
  38 C :   -0.047535
  39 C :   -0.044392
  40 C :   -0.049882
  41 C :   -0.013261
  42 C :   -0.022389
  43 C :   -0.037658
  44 C :   -0.205293
  45 S :    0.511251
  46 C :   -0.170123
  47 C :   -0.085070
  48 C :    0.014844
  49 O :   -0.003405
  50 C :    0.017752
  51 N :    0.274401
  52 O :   -0.212980
  53 O :   -0.201761
  54 C :   -0.000894
  55 H :    0.031531
  56 H :    0.040661
  57 H :    0.034950
  58 H :    0.038416
  59 H :    0.006477
  60 H :    0.035527
  61 H :    0.034445
  62 H :    0.034509
  63 H :    0.037959
  64 H :    0.037013
  65 H :    0.037400
  66 H :    0.038419
  67 H :    0.024882
  68 H :    0.034712
  69 H :    0.037011
  70 H :    0.034788
  71 H :    0.028009
  72 H :    0.027891
  73 H :    0.023364
  74 H :    0.035581
  75 H :    0.030281
  76 H :    0.045711

  Mayer bond orders larger than 0.100000
B(  0-C ,  1-C ) :   1.5855 B(  0-C ,  6-C ) :   0.9851 B(  0-C , 18-C ) :   1.1032
B(  1-C ,  2-C ) :   1.1482 B(  1-C ,  4-C ) :   1.1554 B(  2-C ,  3-N ) :   2.9617
B(  4-C ,  5-N ) :   2.9621 B(  6-C ,  7-C ) :   1.2765 B(  6-C , 11-C ) :   1.4236
B(  7-C ,  8-C ) :   1.4305 B(  7-C , 16-C ) :   0.9442 B(  8-C ,  9-C ) :   1.2447
B(  8-C , 55-H ) :   1.0207 B(  9-C , 10-C ) :   1.3181 B(  9-C , 14-C ) :   1.1585
B( 10-C , 11-C ) :   1.3153 B( 10-C , 12-S ) :   1.0823 B( 11-C , 56-H ) :   0.9799
B( 12-S , 13-C ) :   1.0890 B( 13-C , 14-C ) :   1.6193 B( 13-C , 15-Br) :   1.0135
B( 14-C , 57-H ) :   0.9987 B( 16-C , 17-O ) :   2.0855 B( 16-C , 18-C ) :   0.9993
B( 18-C , 19-C ) :   1.3868 B( 19-C , 20-C ) :   1.3236 B( 19-C , 58-H ) :   0.9679
B( 20-C , 21-C ) :   1.3796 B( 20-C , 59-H ) :   0.9534 B( 21-C , 22-C ) :   1.3218
B( 21-C , 60-H ) :   0.9766 B( 22-C , 23-C ) :   1.4136 B( 22-C , 61-H ) :   0.9628
B( 23-C , 24-C ) :   1.1939 B( 23-C , 27-S ) :   1.1127 B( 24-C , 25-C ) :   1.5272
B( 24-C , 62-H ) :   0.9999 B( 25-C , 26-C ) :   1.2255 B( 25-C , 63-H ) :   0.9933
B( 26-C , 27-S ) :   1.0506 B( 26-C , 28-C ) :   1.4353 B( 28-C , 29-C ) :   1.2007
B( 28-C , 32-S ) :   1.0886 B( 29-C , 30-C ) :   1.5671 B( 29-C , 64-H ) :   0.9954
B( 30-C , 31-C ) :   1.1471 B( 30-C , 65-H ) :   0.9986 B( 31-C , 32-S ) :   1.0528
B( 31-C , 33-C ) :   1.5742 B( 33-C , 34-C ) :   1.1886 B( 33-C , 66-H ) :   0.9400
B( 34-C , 35-S ) :   1.1111 B( 34-C , 39-C ) :   1.3802 B( 35-S , 36-C ) :   1.1487
B( 36-C , 37-C ) :   1.5889 B( 36-C , 67-H ) :   0.9659 B( 37-C , 38-C ) :   1.0918
B( 37-C , 39-C ) :   1.2359 B( 38-C , 68-H ) :   0.9486 B( 38-C , 69-H ) :   0.9431
B( 38-C , 70-H ) :   0.9446 B( 39-C , 40-C ) :   1.1163 B( 40-C , 41-C ) :   1.6678
B( 40-C , 71-H ) :   0.9606 B( 41-C , 42-C ) :   1.1300 B( 41-C , 72-H ) :   0.9807
B( 42-C , 43-C ) :   1.6471 B( 42-C , 73-H ) :   0.9770 B( 43-C , 44-C ) :   1.1235
B( 43-C , 74-H ) :   0.9818 B( 44-C , 45-S ) :   1.1243 B( 44-C , 46-C ) :   0.1053
B( 44-C , 48-C ) :   1.4660 B( 45-S , 46-C ) :   1.2184 B( 46-C , 47-C ) :   1.4156
B( 46-C , 75-H ) :   0.9751 B( 47-C , 48-C ) :   1.2224 B( 47-C , 54-C ) :   1.0521
B( 48-C , 49-O ) :   1.0985 B( 49-O , 50-C ) :   1.1135 B( 50-C , 51-N ) :   0.9169
B( 50-C , 54-C ) :   1.5799 B( 51-N , 52-O ) :   1.5304 B( 51-N , 53-O ) :   1.5163
B( 52-O , 53-O ) :   0.2689 B( 54-C , 76-H ) :   1.0302

-----------------------------------------------------------------------------
         ABSORPTION SPECTRUM VIA TRANSITION ELECTRIC DIPOLE MOMENTS
-----------------------------------------------------------------------------
State   Energy  Wavelength   fosc         T2         TX        TY        TZ
        (cm-1)    (nm)                  (au**2)     (au)      (au)      (au)
-----------------------------------------------------------------------------
   0    9252.1   1080.8   0.318111411  11.31913   2.51691  -0.03588  -2.23227
   1   14304.5    699.1   0.249716390   5.74712  -2.24027   0.39629   0.75584
   2   15630.8    639.8   0.170885250   3.59913   1.20445  -1.02003  -1.05261
   3   19887.8    502.8   0.033218410   0.54988   0.52396  -0.51436  -0.10384
   4   20521.6    487.3   0.214752044   3.44510  -0.33970   1.62220   0.83556
   5   21649.7    461.9   0.234045239   3.55897  -0.77716   1.65266   0.47298
   6   22731.1    439.9   0.231111046   3.34716  -1.02397  -1.50033  -0.21831
   7   24020.9    416.3   0.060892239   0.83454  -0.56200   0.67558   0.24958
   8   25256.2    395.9   0.038002054   0.49535  -0.15557  -0.67053  -0.14675
   9   25412.0    393.5   0.111635726   1.44624  -0.47112  -1.08181  -0.23231
  10   26070.4    383.6   0.005872926   0.07416  -0.17356   0.18839  -0.09246
  11   26801.2    373.1   0.480346931   5.90033  -1.46145  -1.88335  -0.46638
  12   27222.0    367.4   0.010436325   0.12621  -0.33263   0.00626  -0.12462
  13   27751.9    360.3   0.023301105   0.27641  -0.13742  -0.36735  -0.35011
  14   28092.3    356.0   0.220179586   2.58027   1.16029   1.08345   0.24521
  15   28716.1    348.2   0.040067362   0.45935  -0.34678  -0.53530  -0.22923
  16   29366.8    340.5   0.156479457   1.75419  -0.63075  -1.13998  -0.23831
  17   30477.3    328.1   0.022951504   0.24792   0.43439   0.21085   0.12152
  18   30802.1    324.7   0.023599049   0.25223  -0.01849   0.45698   0.20748
  19   31416.3    318.3   0.026828507   0.28114   0.30400   0.40512  -0.15685
  20   31928.7    313.2   0.271011714   2.79436   1.16092   1.13202   0.40638
  21   32149.9    311.0   0.035661722   0.36517   0.38081   0.38556   0.26738
  22   32480.8    307.9   1.293639185  13.11178   2.50818   2.54951   0.56643
  23   32704.7    305.8   0.022164820   0.22312   0.01061  -0.05566   0.46894
  24   33083.4    302.3   0.146322969   1.45606   0.96931   0.71302  -0.08996
  25   33539.3    298.2   0.054208299   0.53209  -0.48628  -0.53418   0.10137
  26   33993.9    294.2   0.495467043   4.79833  -0.88728   1.52625   1.29677
  27   34038.0    293.8   0.068407817   0.66163   0.64943   0.46532   0.15283
  28   34595.9    289.1   0.008261221   0.07861  -0.20026  -0.19370  -0.03144
  29   35526.6    281.5   0.033549981   0.31090  -0.32424  -0.36424  -0.27036
  30   35780.0    279.5   0.191854219   1.76525  -1.10004   0.29942   0.68229
  31   35862.1    278.8   0.047222007   0.43350   0.12956  -0.57795  -0.28755
  32   36379.4    274.9   0.015404908   0.13941   0.14402   0.18526   0.29042
  33   36676.6    272.7   0.169988238   1.52583   1.06507   0.48942  -0.38976
  34   36841.0    271.4   0.102325856   0.91439   0.27596   0.79741   0.44985
  35   37055.9    269.9   0.016947697   0.15057   0.33384   0.17468  -0.09276
  36   37639.3    265.7   0.092793783   0.81162  -0.84071   0.16368   0.27935
  37   37798.2    264.6   0.041597170   0.36230   0.50773   0.28651  -0.14974
  38   38208.9    261.7   0.026879269   0.23159   0.41094  -0.23792  -0.07820
  39   38542.0    259.5   0.181239625   1.54809   0.67868   0.96802   0.38782
  40   38750.7    258.1   0.032038294   0.27219   0.00483   0.42689   0.29989
  41   39188.8    255.2   0.052904627   0.44443  -0.31840   0.41143   0.41687
  42   39430.2    253.6   0.101747115   0.84951   0.40933  -0.69418  -0.44730
  43   40228.7    248.6   0.024931358   0.20403   0.32444   0.31137   0.04255

FINAL SINGLE POINT ENERGY     -6640.315747497926

DIPOLE MOMENT
-------------
                                X             Y             Z
Electronic contribution:     -1.91057     -82.47521     -54.24033
Nuclear contribution   :     -1.69669      82.16450      56.05711
                        -----------------------------------------
Total Dipole Moment    :     -3.60726      -0.31071       1.81678
                        -----------------------------------------
Magnitude (a.u.)       :      4.05087
Magnitude (Debye)      :     10.29650

Rotational constants in cm-1:     0.001653     0.000897     0.000623
Rotational constants in MHz :    49.548095    26.884126    18.673947

                             ****ORCA TERMINATED NORMALLY****
TOTAL RUN TIME: 0 days 0 hours 8 minutes 27 seconds 759 msec
