                         Program Version 4.2.0 -  RELEASE  -
|  1> # ORCA input file
|  2> # SCF done       -193.812941576449          0.000897768252
|  3> ! CAM-B3LYP def2-SVP def2/J RIJCOSX Grid4 TightSCF
|  4> %maxcore 5000
|  5> %tddft
|  6>     Mode sTDDFT
|  7>     Ethresh 5.0
|  8>     maxcore 5000
|  9> end
| 10>
| 11> %pal
| 12>   nprocs 6
| 13>   end
| 14> * xyz 0 1
| 15>    C       -3.62215         3.09437         4.34255
| 16>    C       -2.25295         3.08770         4.41100
| 17>    C       -1.51915         2.87317         5.59715
| 18>    N       -0.86553         2.71202         6.52673
| 19>    C       -1.38332         3.31559         3.32422
| 20>    N       -0.61557         3.50051         2.49048
| 21>    C       -4.53053         2.86547         5.45897
| 22>    C       -5.86589         2.99481         5.00221
| 23>    C       -6.95173         2.83674         5.82850
| 24>    C       -6.71029         2.52367         7.16984
| 25>    C       -5.37291         2.39531         7.61884
| 26>    C       -4.27517         2.56309         6.78479
| 27>    S       -5.30133         2.01051         9.31099
| 28>    C       -7.04312         2.02672         9.39278
| 29>    C       -7.64960         2.30414         8.21373
| 30>   Br       -7.89493         1.67547        11.02493
| 31>    C       -5.86636         3.32483         3.56735
| 32>    O       -6.81094         3.68885         2.90687
| 33>    C       -4.43074         3.29321         3.15256
| 34>    C       -3.99253         3.53115         1.88797
| 35>    C       -4.82369         3.47205         0.73835
| 36>    O       -4.46843         4.17494        -0.37565
| 37>    C       -5.95018         2.73129         0.44016
| 38>    C       -6.86334         1.68943         0.94336
| 39>    O       -6.86738         1.07437         1.97615
| 40>    N       -7.74647         1.49833        -0.11121
| 41>    C       -7.48948         2.25349        -1.25749
| 42>    O       -8.13674         2.22116        -2.26867
| 43>    C       -6.29799         3.02805        -0.89510
| 44>    C       -5.36347         3.93430        -1.36772
| 45>    C       -5.26434         4.57873        -2.62980
| 46>    C       -4.27981         5.45636        -2.92575
| 47>    C       -4.11508         6.17019        -4.16609
| 48>    C       -3.25306         7.29772        -4.24322
| 49>    N       -2.53579         7.74539        -3.18279
| 50>    C       -3.13717         7.97461        -5.46673
| 51>    C       -3.83719         7.57479        -6.57400
| 52>    C       -4.67855         6.44871        -6.52860
| 53>    C       -4.79536         5.77395        -5.31722
| 54>    C       -5.39117         6.05556        -7.71555
| 55>    C       -6.03579         4.88576        -7.91371
| 56>    C       -6.75891         4.58538        -9.09944
| 57>    O       -6.92537         5.50736       -10.08387
| 58>    C       -7.41686         3.42602        -9.47209
| 59>    C       -7.74472         2.05726        -9.06585
| 60>    O       -7.44155         1.42207        -8.09151
| 61>    N       -8.53201         1.58339       -10.11992
| 62>    C       -8.74440         2.48255       -11.15843
| 63>    O       -9.38962         2.26972       -12.15213
| 64>    C       -8.00737         3.67728       -10.73128
| 65>    C       -7.69073         4.97604       -11.07623
| 66>    C       -8.11013         5.73259       -12.19697
| 67>    C       -7.78542         7.02914       -12.41951
| 68>    C       -8.24276         7.79192       -13.52704
| 69>    C       -9.36345         7.63574       -14.28163
| 70>    C      -10.57532         6.85251       -14.12743
| 71>    C      -11.18340         6.48787       -12.95547
| 72>    C      -12.44439         5.85758       -12.89056
| 73>    N      -13.46826         5.35137       -12.78200
| 74>    C      -10.68061         6.77888       -11.67166
| 75>    N      -10.34445         7.01897       -10.60083
| 76>    C      -11.19247         6.75395       -15.44660
| 77>    C      -10.53700         7.65073       -16.32791
| 78>    C       -9.42762         8.30797       -15.61270
| 79>    O       -8.68744         9.17372       -16.01795
| 80>    C      -10.92370         7.81272       -17.63656
| 81>    C      -11.99773         7.04540       -18.09899
| 82>    C      -12.63110         6.13667       -17.21638
| 83>    C      -12.24567         5.97783       -15.89101
| 84>    S      -13.92241         5.27969       -17.99947
| 85>    C      -13.60450         6.14518       -19.47956
| 86>    C      -12.58205         7.02925       -19.39496
| 87>   Br      -14.65129         5.79972       -20.99604
| 88>    H       -7.95501         2.94174         5.44736
| 89>    H       -3.27713         2.45739         7.17593
| 90>    H       -8.71527         2.35284         8.08385
| 91>    H       -2.95525         3.77018         1.69503
| 92>    H       -8.51250         0.84145        -0.06134
| 93>    H       -6.05425         4.32959        -3.32064
| 94>    H       -3.54975         5.63760        -2.14786
| 95>    H       -2.69627         7.39465        -2.25700
| 96>    H       -2.02646         8.60637        -3.27226
| 97>    H       -2.48498         8.83473        -5.51909
| 98>    H       -3.73454         8.12234        -7.49912
| 99>    H       -5.43685         4.91068        -5.26119
|100>    H       -5.39228         6.77655        -8.52319
|101>    H       -6.04022         4.09536        -7.17901
|102>    H       -8.92380         0.65227       -10.12139
|103>    H       -8.72613         5.18335       -12.89542
|104>    H       -7.08512         7.50980       -11.75019
|105>    H       -7.58768         8.59111       -13.86243
|106>    H      -10.41426         8.50924       -18.28372
|107>    H      -12.74914         5.26641       -15.25762
|108>    H      -12.25189         7.64505       -20.21145
|109> *
|110>
|111>                          ****END OF INPUT****

CARTESIAN COORDINATES (ANGSTROEM)
---------------------------------
  C     -3.622150    3.094370    4.342550
  C     -2.252950    3.087700    4.411000
  C     -1.519150    2.873170    5.597150
  N     -0.865530    2.712020    6.526730
  C     -1.383320    3.315590    3.324220
  N     -0.615570    3.500510    2.490480
  C     -4.530530    2.865470    5.458970
  C     -5.865890    2.994810    5.002210
  C     -6.951730    2.836740    5.828500
  C     -6.710290    2.523670    7.169840
  C     -5.372910    2.395310    7.618840
  C     -4.275170    2.563090    6.784790
  S     -5.301330    2.010510    9.310990
  C     -7.043120    2.026720    9.392780
  C     -7.649600    2.304140    8.213730
  Br    -7.894930    1.675470   11.024930
  C     -5.866360    3.324830    3.567350
  O     -6.810940    3.688850    2.906870
  C     -4.430740    3.293210    3.152560
  C     -3.992530    3.531150    1.887970
  C     -4.823690    3.472050    0.738350
  O     -4.468430    4.174940   -0.375650
  C     -5.950180    2.731290    0.440160
  C     -6.863340    1.689430    0.943360
  O     -6.867380    1.074370    1.976150
  N     -7.746470    1.498330   -0.111210
  C     -7.489480    2.253490   -1.257490
  O     -8.136740    2.221160   -2.268670
  C     -6.297990    3.028050   -0.895100
  C     -5.363470    3.934300   -1.367720
  C     -5.264340    4.578730   -2.629800
  C     -4.279810    5.456360   -2.925750
  C     -4.115080    6.170190   -4.166090
  C     -3.253060    7.297720   -4.243220
  N     -2.535790    7.745390   -3.182790
  C     -3.137170    7.974610   -5.466730
  C     -3.837190    7.574790   -6.574000
  C     -4.678550    6.448710   -6.528600
  C     -4.795360    5.773950   -5.317220
  C     -5.391170    6.055560   -7.715550
  C     -6.035790    4.885760   -7.913710
  C     -6.758910    4.585380   -9.099440
  O     -6.925370    5.507360  -10.083870
  C     -7.416860    3.426020   -9.472090
  C     -7.744720    2.057260   -9.065850
  O     -7.441550    1.422070   -8.091510
  N     -8.532010    1.583390  -10.119920
  C     -8.744400    2.482550  -11.158430
  O     -9.389620    2.269720  -12.152130
  C     -8.007370    3.677280  -10.731280
  C     -7.690730    4.976040  -11.076230
  C     -8.110130    5.732590  -12.196970
  C     -7.785420    7.029140  -12.419510
  C     -8.242760    7.791920  -13.527040
  C     -9.363450    7.635740  -14.281630
  C    -10.575320    6.852510  -14.127430
  C    -11.183400    6.487870  -12.955470
  C    -12.444390    5.857580  -12.890560
  N    -13.468260    5.351370  -12.782000
  C    -10.680610    6.778880  -11.671660
  N    -10.344450    7.018970  -10.600830
  C    -11.192470    6.753950  -15.446600
  C    -10.537000    7.650730  -16.327910
  C     -9.427620    8.307970  -15.612700
  O     -8.687440    9.173720  -16.017950
  C    -10.923700    7.812720  -17.636560
  C    -11.997730    7.045400  -18.098990
  C    -12.631100    6.136670  -17.216380
  C    -12.245670    5.977830  -15.891010
  S    -13.922410    5.279690  -17.999470
  C    -13.604500    6.145180  -19.479560
  C    -12.582050    7.029250  -19.394960
  Br   -14.651290    5.799720  -20.996040
  H     -7.955010    2.941740    5.447360
  H     -3.277130    2.457390    7.175930
  H     -8.715270    2.352840    8.083850
  H     -2.955250    3.770180    1.695030
  H     -8.512500    0.841450   -0.061340
  H     -6.054250    4.329590   -3.320640
  H     -3.549750    5.637600   -2.147860
  H     -2.696270    7.394650   -2.257000
  H     -2.026460    8.606370   -3.272260
  H     -2.484980    8.834730   -5.519090
  H     -3.734540    8.122340   -7.499120
  H     -5.436850    4.910680   -5.261190
  H     -5.392280    6.776550   -8.523190
  H     -6.040220    4.095360   -7.179010
  H     -8.923800    0.652270  -10.121390
  H     -8.726130    5.183350  -12.895420
  H     -7.085120    7.509800  -11.750190
  H     -7.587680    8.591110  -13.862430
  H    -10.414260    8.509240  -18.283720
  H    -12.749140    5.266410  -15.257620
  H    -12.251890    7.645050  -20.211450

 Total Charge           Charge          ....    0
 Multiplicity           Mult            ....    1
 Number of Electrons    NEL             ....  560
 Basis Dimension        Dim             .... 1171

ORBITAL ENERGIES
----------------

  NO   OCC          E(Eh)            E(eV)
   0   2.0000    -482.887383    -13140.0337
   1   2.0000    -482.884961    -13139.9678
   2   2.0000     -88.977743     -2421.2075
   3   2.0000     -88.974958     -2421.1317
   4   2.0000     -62.565117     -1702.4834
   5   2.0000     -62.562698     -1702.4176
   6   2.0000     -56.399069     -1534.6967
   7   2.0000     -56.396648     -1534.6308
   8   2.0000     -56.396346     -1534.6226
   9   2.0000     -56.396319     -1534.6219
  10   2.0000     -56.393932     -1534.5569
  11   2.0000     -56.393897     -1534.5559
  12   2.0000     -19.319644      -525.7142
  13   2.0000     -19.310793      -525.4734
  14   2.0000     -19.218743      -522.9686
  15   2.0000     -19.215201      -522.8722
  16   2.0000     -19.215087      -522.8691
  17   2.0000     -19.213367      -522.8223
  18   2.0000     -19.209407      -522.7145
  19   2.0000     -19.206893      -522.6461
  20   2.0000     -14.457043      -393.3962
  21   2.0000     -14.451439      -393.2437
  22   2.0000     -14.443420      -393.0254
  23   2.0000     -14.422426      -392.4542
  24   2.0000     -14.419799      -392.3827
  25   2.0000     -14.415157      -392.2564
  26   2.0000     -14.413776      -392.2188
  27   2.0000     -10.403622      -283.0969
  28   2.0000     -10.402634      -283.0701
  29   2.0000     -10.398528      -282.9583
  30   2.0000     -10.396445      -282.9017
  31   2.0000     -10.373053      -282.2651
  32   2.0000     -10.371383      -282.2197
  33   2.0000     -10.365991      -282.0729
  34   2.0000     -10.365550      -282.0609
  35   2.0000     -10.364160      -282.0231
  36   2.0000     -10.361269      -281.9445
  37   2.0000     -10.358658      -281.8734
  38   2.0000     -10.358214      -281.8613
  39   2.0000     -10.348401      -281.5943
  40   2.0000     -10.347330      -281.5652
  41   2.0000     -10.343230      -281.4536
  42   2.0000     -10.342523      -281.4344
  43   2.0000     -10.340108      -281.3687
  44   2.0000     -10.328327      -281.0481
  45   2.0000     -10.327044      -281.0132
  46   2.0000     -10.325702      -280.9766
  47   2.0000     -10.325019      -280.9580
  48   2.0000     -10.322454      -280.8883
  49   2.0000     -10.316506      -280.7264
  50   2.0000     -10.316336      -280.7218
  51   2.0000     -10.314294      -280.6662
  52   2.0000     -10.311862      -280.6000
  53   2.0000     -10.310278      -280.5569
  54   2.0000     -10.310087      -280.5517
  55   2.0000     -10.309084      -280.5244
  56   2.0000     -10.308805      -280.5168
  57   2.0000     -10.308442      -280.5070
  58   2.0000     -10.307353      -280.4773
  59   2.0000     -10.306689      -280.4593
  60   2.0000     -10.305370      -280.4234
  61   2.0000     -10.304265      -280.3933
  62   2.0000     -10.302829      -280.3542
  63   2.0000     -10.301502      -280.3181
  64   2.0000     -10.298620      -280.2397
  65   2.0000     -10.298573      -280.2384
  66   2.0000     -10.297439      -280.2076
  67   2.0000     -10.296197      -280.1738
  68   2.0000     -10.295404      -280.1522
  69   2.0000     -10.295046      -280.1424
  70   2.0000     -10.294855      -280.1372
  71   2.0000     -10.294834      -280.1367
  72   2.0000     -10.292987      -280.0864
  73   2.0000     -10.292848      -280.0826
  74   2.0000     -10.291357      -280.0421
  75   2.0000     -10.289919      -280.0029
  76   2.0000     -10.288632      -279.9679
  77   2.0000     -10.286403      -279.9073
  78   2.0000     -10.285954      -279.8951
  79   2.0000     -10.282007      -279.7876
  80   2.0000     -10.280167      -279.7376
  81   2.0000      -8.794562      -239.3122
  82   2.0000      -8.792142      -239.2463
  83   2.0000      -8.073734      -219.6975
  84   2.0000      -8.071034      -219.6240
  85   2.0000      -6.630880      -180.4354
  86   2.0000      -6.628457      -180.3695
  87   2.0000      -6.616307      -180.0389
  88   2.0000      -6.616070      -180.0324
  89   2.0000      -6.613855      -179.9721
  90   2.0000      -6.613681      -179.9674
  91   2.0000      -6.043413      -164.4496
  92   2.0000      -6.040735      -164.3767
  93   2.0000      -6.039155      -164.3338
  94   2.0000      -6.036439      -164.2599
  95   2.0000      -6.034961      -164.2196
  96   2.0000      -6.032221      -164.1451
  97   2.0000      -2.746747       -74.7428
  98   2.0000      -2.744310       -74.6765
  99   2.0000      -2.742644       -74.6311
 100   2.0000      -2.742512       -74.6275
 101   2.0000      -2.740270       -74.5665
 102   2.0000      -2.740058       -74.5608
 103   2.0000      -2.730909       -74.3118
 104   2.0000      -2.730894       -74.3114
 105   2.0000      -2.728495       -74.2461
 106   2.0000      -2.728479       -74.2457
 107   2.0000      -1.235172       -33.6107
 108   2.0000      -1.226543       -33.3759
 109   2.0000      -1.159322       -31.5467
 110   2.0000      -1.152570       -31.3630
 111   2.0000      -1.140393       -31.0317
 112   2.0000      -1.133577       -30.8462
 113   2.0000      -1.132145       -30.8072
 114   2.0000      -1.130582       -30.7647
 115   2.0000      -1.046275       -28.4706
 116   2.0000      -1.040063       -28.3016
 117   2.0000      -1.037557       -28.2334
 118   2.0000      -1.026720       -27.9385
 119   2.0000      -1.022857       -27.8334
 120   2.0000      -1.017620       -27.6909
 121   2.0000      -1.012693       -27.5568
 122   2.0000      -0.999725       -27.2039
 123   2.0000      -0.993914       -27.0458
 124   2.0000      -0.993107       -27.0238
 125   2.0000      -0.989376       -26.9223
 126   2.0000      -0.960626       -26.1400
 127   2.0000      -0.950015       -25.8512
 128   2.0000      -0.946471       -25.7548
 129   2.0000      -0.936865       -25.4934
 130   2.0000      -0.932856       -25.3843
 131   2.0000      -0.930383       -25.3170
 132   2.0000      -0.922424       -25.1004
 133   2.0000      -0.913060       -24.8456
 134   2.0000      -0.911643       -24.8071
 135   2.0000      -0.908297       -24.7160
 136   2.0000      -0.905433       -24.6381
 137   2.0000      -0.888640       -24.1811
 138   2.0000      -0.886547       -24.1242
 139   2.0000      -0.885750       -24.1025
 140   2.0000      -0.879747       -23.9391
 141   2.0000      -0.863706       -23.5026
 142   2.0000      -0.856018       -23.2934
 143   2.0000      -0.837795       -22.7976
 144   2.0000      -0.832183       -22.6449
 145   2.0000      -0.828855       -22.5543
 146   2.0000      -0.817928       -22.2570
 147   2.0000      -0.805868       -21.9288
 148   2.0000      -0.785526       -21.3753
 149   2.0000      -0.779340       -21.2069
 150   2.0000      -0.772114       -21.0103
 151   2.0000      -0.767063       -20.8729
 152   2.0000      -0.765873       -20.8405
 153   2.0000      -0.761667       -20.7260
 154   2.0000      -0.760616       -20.6974
 155   2.0000      -0.754193       -20.5226
 156   2.0000      -0.745219       -20.2784
 157   2.0000      -0.731574       -19.9071
 158   2.0000      -0.719337       -19.5741
 159   2.0000      -0.711393       -19.3580
 160   2.0000      -0.706530       -19.2257
 161   2.0000      -0.700894       -19.0723
 162   2.0000      -0.697688       -18.9851
 163   2.0000      -0.693912       -18.8823
 164   2.0000      -0.687183       -18.6992
 165   2.0000      -0.685895       -18.6642
 166   2.0000      -0.675926       -18.3929
 167   2.0000      -0.665332       -18.1046
 168   2.0000      -0.660488       -17.9728
 169   2.0000      -0.659931       -17.9576
 170   2.0000      -0.645874       -17.5751
 171   2.0000      -0.640213       -17.4211
 172   2.0000      -0.630726       -17.1629
 173   2.0000      -0.629683       -17.1346
 174   2.0000      -0.624141       -16.9837
 175   2.0000      -0.621524       -16.9125
 176   2.0000      -0.615706       -16.7542
 177   2.0000      -0.611084       -16.6284
 178   2.0000      -0.602318       -16.3899
 179   2.0000      -0.599363       -16.3095
 180   2.0000      -0.598397       -16.2832
 181   2.0000      -0.595919       -16.2158
 182   2.0000      -0.595270       -16.1981
 183   2.0000      -0.590849       -16.0778
 184   2.0000      -0.587719       -15.9927
 185   2.0000      -0.583522       -15.8785
 186   2.0000      -0.583335       -15.8733
 187   2.0000      -0.579393       -15.7661
 188   2.0000      -0.573145       -15.5961
 189   2.0000      -0.569648       -15.5009
 190   2.0000      -0.562416       -15.3041
 191   2.0000      -0.556379       -15.1398
 192   2.0000      -0.553533       -15.0624
 193   2.0000      -0.550299       -14.9744
 194   2.0000      -0.549327       -14.9480
 195   2.0000      -0.546609       -14.8740
 196   2.0000      -0.544136       -14.8067
 197   2.0000      -0.541324       -14.7302
 198   2.0000      -0.540390       -14.7047
 199   2.0000      -0.539679       -14.6854
 200   2.0000      -0.538836       -14.6625
 201   2.0000      -0.533742       -14.5239
 202   2.0000      -0.531005       -14.4494
 203   2.0000      -0.529465       -14.4075
 204   2.0000      -0.527560       -14.3556
 205   2.0000      -0.523636       -14.2489
 206   2.0000      -0.520815       -14.1721
 207   2.0000      -0.518813       -14.1176
 208   2.0000      -0.515088       -14.0163
 209   2.0000      -0.513989       -13.9863
 210   2.0000      -0.512896       -13.9566
 211   2.0000      -0.511147       -13.9090
 212   2.0000      -0.509341       -13.8599
 213   2.0000      -0.507327       -13.8051
 214   2.0000      -0.503234       -13.6937
 215   2.0000      -0.501032       -13.6338
 216   2.0000      -0.500511       -13.6196
 217   2.0000      -0.497231       -13.5303
 218   2.0000      -0.496587       -13.5128
 219   2.0000      -0.495727       -13.4894
 220   2.0000      -0.493913       -13.4401
 221   2.0000      -0.486416       -13.2361
 222   2.0000      -0.482989       -13.1428
 223   2.0000      -0.479938       -13.0598
 224   2.0000      -0.479587       -13.0502
 225   2.0000      -0.476748       -12.9730
 226   2.0000      -0.474468       -12.9109
 227   2.0000      -0.471542       -12.8313
 228   2.0000      -0.467978       -12.7343
 229   2.0000      -0.461381       -12.5548
 230   2.0000      -0.460667       -12.5354
 231   2.0000      -0.455564       -12.3965
 232   2.0000      -0.454486       -12.3672
 233   2.0000      -0.451234       -12.2787
 234   2.0000      -0.449065       -12.2197
 235   2.0000      -0.448754       -12.2112
 236   2.0000      -0.447779       -12.1847
 237   2.0000      -0.446207       -12.1419
 238   2.0000      -0.445111       -12.1121
 239   2.0000      -0.442294       -12.0354
 240   2.0000      -0.441262       -12.0074
 241   2.0000      -0.438307       -11.9269
 242   2.0000      -0.435454       -11.8493
 243   2.0000      -0.432905       -11.7800
 244   2.0000      -0.430494       -11.7143
 245   2.0000      -0.430057       -11.7025
 246   2.0000      -0.427227       -11.6254
 247   2.0000      -0.425400       -11.5757
 248   2.0000      -0.420000       -11.4288
 249   2.0000      -0.416655       -11.3378
 250   2.0000      -0.413465       -11.2509
 251   2.0000      -0.409330       -11.1384
 252   2.0000      -0.398248       -10.8369
 253   2.0000      -0.392999       -10.6940
 254   2.0000      -0.388562       -10.5733
 255   2.0000      -0.387612       -10.5475
 256   2.0000      -0.384058       -10.4508
 257   2.0000      -0.379474       -10.3260
 258   2.0000      -0.376674       -10.2498
 259   2.0000      -0.375744       -10.2245
 260   2.0000      -0.374389       -10.1876
 261   2.0000      -0.373606       -10.1663
 262   2.0000      -0.366941        -9.9850
 263   2.0000      -0.363069        -9.8796
 264   2.0000      -0.360605        -9.8126
 265   2.0000      -0.358599        -9.7580
 266   2.0000      -0.355961        -9.6862
 267   2.0000      -0.348343        -9.4789
 268   2.0000      -0.342792        -9.3278
 269   2.0000      -0.341376        -9.2893
 270   2.0000      -0.340551        -9.2669
 271   2.0000      -0.330189        -8.9849
 272   2.0000      -0.326181        -8.8758
 273   2.0000      -0.317245        -8.6327
 274   2.0000      -0.314947        -8.5701
 275   2.0000      -0.298168        -8.1136
 276   2.0000      -0.295802        -8.0492
 277   2.0000      -0.293068        -7.9748
 278   2.0000      -0.273329        -7.4377
 279   2.0000      -0.249014        -6.7760
 280   0.0000      -0.103595        -2.8190
 281   0.0000      -0.096307        -2.6206
 282   0.0000      -0.065602        -1.7851
 283   0.0000      -0.062537        -1.7017
 284   0.0000      -0.054463        -1.4820

MULLIKEN ATOMIC CHARGES
-----------------------
   0 C :    0.302807
   1 C :   -0.346577
   2 C :   -0.184596
   3 N :    0.152978
   4 C :   -0.186068
   5 N :    0.151954
   6 C :    0.024767
   7 C :   -0.012330
   8 C :   -0.061914
   9 C :    0.119536
  10 C :   -0.088811
  11 C :   -0.025143
  12 S :    0.188230
  13 C :   -0.122259
  14 C :    0.037204
  15 Br:    0.027146
  16 C :    0.154511
  17 O :   -0.145585
  18 C :   -0.064729
  19 C :   -0.039390
  20 C :    0.114098
  21 O :   -0.209082
  22 C :   -0.015479
  23 C :    0.187953
  24 O :   -0.144576
  25 N :   -0.164418
  26 C :    0.174773
  27 O :   -0.133105
  28 C :   -0.057381
  29 C :    0.099347
  30 C :   -0.023830
  31 C :   -0.030142
  32 C :    0.117277
  33 C :    0.029131
  34 N :   -0.035020
  35 C :   -0.033084
  36 C :   -0.003247
  37 C :    0.116828
  38 C :   -0.077964
  39 C :    0.023619
  40 C :   -0.030301
  41 C :    0.098396
  42 O :   -0.211007
  43 C :   -0.034719
  44 C :    0.165456
  45 O :   -0.138132
  46 N :   -0.167280
  47 C :    0.165515
  48 O :   -0.144630
  49 C :   -0.021875
  50 C :    0.080521
  51 C :    0.001132
  52 C :    0.015365
  53 C :    0.043730
  54 C :   -0.114098
  55 C :    0.262854
  56 C :   -0.329185
  57 C :   -0.180424
  58 N :    0.160084
  59 C :   -0.193473
  60 N :    0.168294
  61 C :   -0.005987
  62 C :    0.008156
  63 C :    0.131737
  64 O :   -0.143742
  65 C :   -0.072361
  66 C :    0.110805
  67 C :   -0.086868
  68 C :   -0.016660
  69 S :    0.188232
  70 C :   -0.124924
  71 C :    0.041223
  72 Br:    0.024103
  73 H :   -0.007780
  74 H :   -0.005578
  75 H :   -0.001175
  76 H :    0.028299
  77 H :    0.141042
  78 H :    0.017239
  79 H :   -0.010062
  80 H :    0.117027
  81 H :    0.119697
  82 H :   -0.038919
  83 H :   -0.018319
  84 H :   -0.021921
  85 H :   -0.004453
  86 H :    0.012656
  87 H :    0.139382
  88 H :    0.032577
  89 H :    0.013651
  90 H :    0.028217
  91 H :   -0.008284
  92 H :    0.002155
  93 H :   -0.002816
Sum of atomic charges:   -0.0000000

LOEWDIN ATOMIC CHARGES
----------------------
   0 C :    0.074983
   1 C :   -0.136235
   2 C :   -0.018303
   3 N :   -0.049304
   4 C :   -0.019435
   5 N :   -0.050788
   6 C :   -0.019974
   7 C :   -0.044788
   8 C :    0.027223
   9 C :   -0.029894
  10 C :   -0.142575
  11 C :   -0.009585
  12 S :    0.434052
  13 C :   -0.270245
  14 C :   -0.069580
  15 Br:    0.139719
  16 C :    0.088722
  17 O :   -0.131272
  18 C :   -0.068540
  19 C :    0.043521
  20 C :    0.044591
  21 O :    0.015695
  22 C :   -0.051095
  23 C :    0.089152
  24 O :   -0.149814
  25 N :   -0.000475
  26 C :    0.087075
  27 O :   -0.150728
  28 C :   -0.102702
  29 C :    0.087203
  30 C :   -0.047742
  31 C :    0.019660
  32 C :   -0.074212
  33 C :    0.058850
  34 N :    0.004365
  35 C :   -0.065561
  36 C :    0.015728
  37 C :   -0.065672
  38 C :    0.028422
  39 C :    0.025795
  40 C :   -0.058852
  41 C :    0.089595
  42 O :    0.017882
  43 C :   -0.107646
  44 C :    0.086424
  45 O :   -0.156336
  46 N :   -0.005625
  47 C :    0.084067
  48 O :   -0.160555
  49 C :   -0.075896
  50 C :    0.055854
  51 C :    0.013323
  52 C :   -0.027267
  53 C :    0.061629
  54 C :   -0.085311
  55 C :    0.065014
  56 C :   -0.135488
  57 C :   -0.019552
  58 N :   -0.048286
  59 C :   -0.016050
  60 N :   -0.043668
  61 C :   -0.017470
  62 C :   -0.053360
  63 C :    0.083859
  64 O :   -0.141861
  65 C :    0.022821
  66 C :   -0.033227
  67 C :   -0.142272
  68 C :   -0.009917
  69 S :    0.434624
  70 C :   -0.271893
  71 C :   -0.070088
  72 Br:    0.137287
  73 H :    0.042660
  74 H :    0.041145
  75 H :    0.039718
  76 H :    0.050359
  77 H :    0.096560
  78 H :    0.045184
  79 H :    0.025816
  80 H :    0.073761
  81 H :    0.080892
  82 H :    0.026188
  83 H :    0.031783
  84 H :    0.030398
  85 H :    0.032573
  86 H :    0.042455
  87 H :    0.095375
  88 H :    0.048338
  89 H :    0.038253
  90 H :    0.047521
  91 H :    0.041593
  92 H :    0.042405
  93 H :    0.039026

  Mayer bond orders larger than 0.100000
B(  0-C ,  1-C ) :   1.6350 B(  0-C ,  6-C ) :   1.0130 B(  0-C , 18-C ) :   1.0762
B(  1-C ,  2-C ) :   1.1404 B(  1-C ,  4-C ) :   1.1433 B(  2-C ,  3-N ) :   2.9695
B(  4-C ,  5-N ) :   2.9678 B(  6-C ,  7-C ) :   1.2726 B(  6-C , 11-C ) :   1.3987
B(  7-C ,  8-C ) :   1.4248 B(  7-C , 16-C ) :   0.9384 B(  8-C ,  9-C ) :   1.2485
B(  8-C , 73-H ) :   1.0166 B(  9-C , 10-C ) :   1.2989 B(  9-C , 14-C ) :   1.1628
B( 10-C , 11-C ) :   1.3376 B( 10-C , 12-S ) :   1.0872 B( 11-C , 74-H ) :   0.9803
B( 12-S , 13-C ) :   1.0854 B( 13-C , 14-C ) :   1.6169 B( 13-C , 15-Br) :   1.0210
B( 14-C , 75-H ) :   1.0014 B( 16-C , 17-O ) :   2.2266 B( 16-C , 18-C ) :   0.9226
B( 18-C , 19-C ) :   1.6207 B( 19-C , 20-C ) :   1.1508 B( 19-C , 76-H ) :   0.9317
B( 20-C , 21-O ) :   1.1153 B( 20-C , 22-C ) :   1.4485 B( 21-O , 29-C ) :   1.1673
B( 22-C , 23-C ) :   0.8621 B( 22-C , 28-C ) :   1.3135 B( 23-C , 24-O ) :   2.2345
B( 23-C , 25-N ) :   1.0951 B( 25-N , 26-C ) :   1.0697 B( 25-N , 77-H ) :   0.9149
B( 26-C , 27-O ) :   2.2737 B( 26-C , 28-C ) :   0.8785 B( 28-C , 29-C ) :   1.3599
B( 29-C , 30-C ) :   1.1793 B( 30-C , 31-C ) :   1.6713 B( 30-C , 78-H ) :   0.9546
B( 31-C , 32-C ) :   1.0328 B( 31-C , 79-H ) :   0.9783 B( 32-C , 33-C ) :   1.2571
B( 32-C , 38-C ) :   1.3601 B( 33-C , 34-N ) :   1.3257 B( 33-C , 35-C ) :   1.2837
B( 34-N , 80-H ) :   0.9445 B( 34-N , 81-H ) :   0.9404 B( 35-C , 36-C ) :   1.4345
B( 35-C , 82-H ) :   0.9905 B( 36-C , 37-C ) :   1.2738 B( 36-C , 83-H ) :   0.9962
B( 37-C , 38-C ) :   1.3486 B( 37-C , 39-C ) :   1.0599 B( 38-C , 84-H ) :   0.9867
B( 39-C , 40-C ) :   1.6471 B( 39-C , 85-H ) :   0.9871 B( 40-C , 41-C ) :   1.1833
B( 40-C , 86-H ) :   0.9501 B( 41-C , 42-O ) :   1.1640 B( 41-C , 43-C ) :   1.3762
B( 42-O , 50-C ) :   1.1401 B( 43-C , 44-C ) :   0.8821 B( 43-C , 49-C ) :   1.2835
B( 44-C , 45-O ) :   2.2706 B( 44-C , 46-N ) :   1.0680 B( 46-N , 47-C ) :   1.0916
B( 46-N , 87-H ) :   0.9134 B( 47-C , 48-O ) :   2.2597 B( 47-C , 49-C ) :   0.8731
B( 49-C , 50-C ) :   1.4072 B( 50-C , 51-C ) :   1.2176 B( 51-C , 52-C ) :   1.6124
B( 51-C , 88-H ) :   0.9452 B( 52-C , 53-C ) :   1.1234 B( 52-C , 89-H ) :   0.9680
B( 53-C , 54-C ) :   1.6822 B( 53-C , 90-H ) :   0.9312 B( 54-C , 55-C ) :   1.0259
B( 54-C , 63-C ) :   0.9423 B( 55-C , 56-C ) :   1.6566 B( 55-C , 61-C ) :   1.0112
B( 56-C , 57-C ) :   1.1266 B( 56-C , 59-C ) :   1.1694 B( 57-C , 58-N ) :   2.9946
B( 59-C , 60-N ) :   2.9865 B( 61-C , 62-C ) :   1.2750 B( 61-C , 68-C ) :   1.4133
B( 62-C , 63-C ) :   0.9218 B( 62-C , 65-C ) :   1.4205 B( 63-C , 64-O ) :   2.2635
B( 65-C , 66-C ) :   1.2530 B( 65-C , 91-H ) :   1.0168 B( 66-C , 67-C ) :   1.3048
B( 66-C , 71-C ) :   1.1650 B( 67-C , 68-C ) :   1.3295 B( 67-C , 69-S ) :   1.0859
B( 68-C , 92-H ) :   0.9837 B( 69-S , 70-C ) :   1.0870 B( 70-C , 71-C ) :   1.6181
B( 70-C , 72-Br) :   1.0190 B( 71-C , 93-H ) :   0.9999

-----------------------------------------------------------------------------
         ABSORPTION SPECTRUM VIA TRANSITION ELECTRIC DIPOLE MOMENTS
-----------------------------------------------------------------------------
State   Energy  Wavelength   fosc         T2         TX        TY        TZ
        (cm-1)    (nm)                  (au**2)     (au)      (au)      (au)
-----------------------------------------------------------------------------
   0   17568.3    569.2   1.381611382  25.88995  -1.84231   1.23829  -4.57848
   1   18568.9    538.5   0.086682344   1.53681   1.01098   0.01934  -0.71719
   2   22828.6    438.0   0.128572608   1.85415  -0.80369  -0.18495  -1.08353
   3   25335.7    394.7   0.218320201   2.83685   0.02342  -0.10707   1.68073
   4   25640.9    390.0   0.189002220   2.42666   0.73665   0.22694  -1.35370
   5   26080.4    383.4   0.151699680   1.91490  -0.36067   0.32945   1.29471
   6   26304.0    380.2   0.071251103   0.89175   0.78151   0.18848   0.49546
   7   26653.1    375.2   0.088796925   1.09680  -0.03249  -0.72759   0.75256
   8   27638.6    361.8   0.565246767   6.73284   0.67810  -0.12221   2.50161
   9   27726.9    360.7   0.125979982   1.49581  -1.15907   0.09948  -0.37745
  10   28379.7    352.4   0.036810147   0.42701  -0.60255   0.05209   0.24745
  11   28845.0    346.7   0.620351002   7.08015   1.49900   2.10054   0.64875
  12   28908.2    345.9   0.022133218   0.25206  -0.31776  -0.37693   0.09491
  13   29843.7    335.1   0.013520454   0.14915   0.08535  -0.08528   0.36686
  14   31026.8    322.3   0.047785247   0.50703   0.70970   0.01026   0.05696
  15   31336.0    319.1   0.112579349   1.18274  -0.02086  -0.45282  -0.98857
  16   31673.9    315.7   0.007853123   0.08162  -0.11541  -0.00100  -0.26135
  17   31815.8    314.3   0.320687118   3.31829  -0.71204  -0.91782   1.40317
  18   32213.1    310.4   0.258773021   2.64461  -0.81163  -0.98503   1.00776
  19   32617.3    306.6   0.442675025   4.46799   1.73794   0.06683  -1.20128
  20   32932.7    303.7   0.518823842   5.18643  -0.33011   0.33646  -2.22806
  21   33541.9    298.1   0.079781980   0.78306  -0.38032  -0.08448  -0.79453
  22   33763.5    296.2   0.001258585   0.01227   0.09120  -0.04690  -0.04189
  23   33781.5    296.0   0.087423825   0.85197  -0.02964   0.33989  -0.85765
  24   34182.4    292.5   0.000677812   0.00653   0.05936  -0.02996  -0.04590
  25   34518.3    289.7   0.057774007   0.55101  -0.33675  -0.42432  -0.50751
  26   34951.3    286.1   0.015274596   0.14387   0.31287   0.17538   0.12340
  27   35471.7    281.9   0.058331852   0.54138   0.03117   0.67675  -0.28707
  28   36146.4    276.7   0.001199369   0.01092  -0.00828   0.02150  -0.10194
  29   36877.7    271.2   0.030745551   0.27447   0.49159   0.03208   0.17826
  30   37071.7    269.7   0.231848964   2.05892   0.96580   0.01433   1.06111
  31   37910.0    263.8   0.047588638   0.41326  -0.58875   0.23904  -0.09746
  32   37995.3    263.2   0.035794519   0.31014  -0.47402  -0.26505  -0.12327
  33   38084.7    262.6   0.003665074   0.03168   0.02000  -0.14889   0.09546
  34   38111.1    262.4   0.012717191   0.10985  -0.19457  -0.11890   0.24054
  35   38504.9    259.7   0.082838116   0.70825  -0.73480  -0.36332   0.19059
  36   38698.4    258.4   0.037944870   0.32280  -0.26913  -0.04980  -0.49788
  37   38789.4    257.8   0.014602821   0.12394   0.22314   0.02006   0.27156
  38   39612.6    252.4   0.094265522   0.78342  -0.61885  -0.06577  -0.62938
  39   39979.6    250.1   0.027236525   0.22428  -0.22968  -0.14125   0.38932
  40   40100.2    249.4   0.002946195   0.02419   0.10014  -0.04753  -0.10909

FINAL SINGLE POINT ENERGY     -8995.677228156985

DIPOLE MOMENT
-------------
                                X             Y             Z
Electronic contribution:    -89.62426     -31.20385      18.57090
Nuclear contribution   :     90.23661      32.88267     -18.87333
                        -----------------------------------------
Total Dipole Moment    :      0.61235       1.67882      -0.30243
                        -----------------------------------------
Magnitude (a.u.)       :      1.81242
Magnitude (Debye)      :      4.60681

Rotational constants in cm-1:     0.001840     0.000136     0.000130
Rotational constants in MHz :    55.172428     4.079817     3.907439

                             ****ORCA TERMINATED NORMALLY****
TOTAL RUN TIME: 0 days 0 hours 8 minutes 50 seconds 742 msec
