                         Program Version 4.2.0 -  RELEASE  -
|  1> # ORCA input file
|  2> # SCF done       -186.699066286176          0.000473395955
|  3> ! CAM-B3LYP def2-SVP def2/J RIJCOSX Grid4 TightSCF
|  4> %maxcore 5000
|  5> %tddft
|  6>     Mode sTDDFT
|  7>     Ethresh 5.0
|  8>     maxcore 5000
|  9> end
| 10>
| 11> %pal
| 12>   nprocs 6
| 13>   end
| 14> * xyz 0 1
| 15>    C       -5.54317        -0.23900        -0.30994
| 16>    C       -4.53930        -0.82012         0.42610
| 17>    C       -3.66904        -1.81074        -0.05425
| 18>    N       -2.90434        -2.59732        -0.39872
| 19>    C       -4.28461        -0.51338         1.77823
| 20>    N       -4.04303        -0.32596         2.88517
| 21>    C       -5.97450        -0.63434        -1.64611
| 22>    C       -7.14899         0.08802        -1.96700
| 23>    C       -7.80131        -0.05717        -3.16501
| 24>    C       -7.29026        -0.98854        -4.07658
| 25>    C       -6.13980        -1.73373        -3.73290
| 26>    C       -5.45670        -1.55767        -2.53396
| 27>    S       -5.72610        -2.87893        -4.97627
| 28>    C       -7.07726        -2.33216        -5.93363
| 29>    C       -7.80029        -1.34532        -5.35554
| 30>   Br       -7.42545        -3.12913        -7.59337
| 31>    C       -7.52798         0.95138        -0.82455
| 32>    O       -8.48797         1.68797        -0.76923
| 33>    C       -6.44142         0.78036         0.16200
| 34>    C       -6.22183         1.63493         1.21511
| 35>    C       -7.17412         2.52219         1.75254
| 36>    S       -6.65094         4.11663         2.23976
| 37>    C       -8.27707         4.59951         2.50199
| 38>    C       -9.18142         3.60664         2.29108
| 39>    C      -10.65223         3.76922         2.47598
| 40>    C       -8.56021         2.37921         1.90442
| 41>    C       -9.26455         1.13959         1.87557
| 42>    C       -8.69911        -0.06942         2.14519
| 43>    C       -9.39693        -1.28831         2.19637
| 44>    C       -8.76105        -2.46711         2.49724
| 45>    C       -9.38152        -3.71191         2.59869
| 46>    C       -8.69922        -4.88365         2.86344
| 47>    C       -9.24545        -6.16548         3.09707
| 48>    C       -8.31648        -7.12808         3.37392
| 49>    C       -6.98945        -6.65547         3.33829
| 50>    S       -6.95253        -4.94961         2.97536
| 51>    C       -5.80629        -7.35981         3.51475
| 52>    C       -5.60802        -8.68701         3.93949
| 53>    C       -4.29304        -9.05340         4.00476
| 54>    C       -3.38577        -8.04802         3.59578
| 55>    S       -4.27529        -6.58903         3.17980
| 56>    C       -2.00844        -8.12621         3.61843
| 57>    C       -1.12228        -7.18218         3.06877
| 58>    S        0.40711        -6.85069         3.83362
| 59>    C        0.70981        -5.56454         2.72629
| 60>    C       -0.27067        -5.38913         1.80273
| 61>    C       -0.19795        -4.36849         0.72059
| 62>    C       -1.32261        -6.34644         1.95490
| 63>    C       -2.35080        -6.63841         1.01654
| 64>    C       -3.00245        -5.78378         0.18084
| 65>    C       -4.01889        -6.24518        -0.67687
| 66>    C       -4.93395        -5.43313        -1.29304
| 67>    C       -5.92334        -5.95755        -2.13023
| 68>    C       -7.04320        -5.38153        -2.68607
| 69>    C       -7.82644        -4.21335        -2.40270
| 70>    C       -7.81227        -3.40402        -1.28638
| 71>    C       -6.89774        -3.40903        -0.22384
| 72>    N       -6.21881        -3.28426         0.69729
| 73>    C       -8.79778        -2.43945        -1.00380
| 74>    N       -9.56995        -1.65570        -0.66941
| 75>    C       -8.81587        -4.07750        -3.47439
| 76>    C       -8.70324        -5.18134        -4.35285
| 77>    C       -7.66014        -6.08835        -3.83523
| 78>    O       -7.35175        -7.17836        -4.26686
| 79>    C       -9.45120        -5.30362        -5.49656
| 80>    C      -10.35371        -4.27659        -5.79654
| 81>    C      -10.47126        -3.18531        -4.90710
| 82>    C       -9.72026        -3.06869        -3.74298
| 83>    S      -11.62119        -2.01477        -5.48172
| 84>    C      -11.92177        -2.99686        -6.89218
| 85>    C      -11.20311        -4.14279        -6.92918
| 86>   Br      -13.15551        -2.41162        -8.17829
| 87>    H       -8.68951         0.51376        -3.38534
| 88>    H       -4.56579        -2.12748        -2.32539
| 89>    H       -8.65849        -0.88381        -5.80896
| 90>    H       -5.21318         1.72413         1.60403
| 91>    H       -8.47674         5.60892         2.80623
| 92>    H      -10.89185         4.80084         2.71989
| 93>    H      -11.00780         3.12764         3.28145
| 94>    H      -11.17500         3.49258         1.56186
| 95>    H      -10.33177         1.19229         1.71439
| 96>    H       -7.64231        -0.11417         2.37802
| 97>    H      -10.45752        -1.28937         1.98663
| 98>    H       -7.69077        -2.43936         2.66635
| 99>    H      -10.45615        -3.77230         2.48334
|100>    H      -10.30715        -6.33756         3.06512
|101>    H       -8.55161        -8.15704         3.58010
|102>    H       -6.42857        -9.32994         4.20380
|103>    H       -3.94938       -10.02484         4.31428
|104>    H       -1.57398        -8.94567         4.17711
|105>    H        1.62077        -5.00662         2.82295
|106>    H        0.79017        -3.91576         0.69626
|107>    H       -0.93398        -3.58259         0.88267
|108>    H       -0.40612        -4.82471        -0.24534
|109>    H       -2.67954        -7.67377         1.02197
|110>    H       -2.82447        -4.72039         0.21611
|111>    H       -4.11699        -7.31772        -0.80658
|112>    H       -4.88188        -4.37141        -1.11380
|113>    H       -5.76738        -6.98018        -2.46673
|114>    H       -9.33286        -6.15284        -6.15067
|115>    H       -9.84333        -2.21019        -3.10460
|116>    H      -11.25829        -4.86129        -7.72608
|117> *
|118>
|119>                          ****END OF INPUT****

CARTESIAN COORDINATES (ANGSTROEM)
---------------------------------
  C     -5.543170   -0.239000   -0.309940
  C     -4.539300   -0.820120    0.426100
  C     -3.669040   -1.810740   -0.054250
  N     -2.904340   -2.597320   -0.398720
  C     -4.284610   -0.513380    1.778230
  N     -4.043030   -0.325960    2.885170
  C     -5.974500   -0.634340   -1.646110
  C     -7.148990    0.088020   -1.967000
  C     -7.801310   -0.057170   -3.165010
  C     -7.290260   -0.988540   -4.076580
  C     -6.139800   -1.733730   -3.732900
  C     -5.456700   -1.557670   -2.533960
  S     -5.726100   -2.878930   -4.976270
  C     -7.077260   -2.332160   -5.933630
  C     -7.800290   -1.345320   -5.355540
  Br    -7.425450   -3.129130   -7.593370
  C     -7.527980    0.951380   -0.824550
  O     -8.487970    1.687970   -0.769230
  C     -6.441420    0.780360    0.162000
  C     -6.221830    1.634930    1.215110
  C     -7.174120    2.522190    1.752540
  S     -6.650940    4.116630    2.239760
  C     -8.277070    4.599510    2.501990
  C     -9.181420    3.606640    2.291080
  C    -10.652230    3.769220    2.475980
  C     -8.560210    2.379210    1.904420
  C     -9.264550    1.139590    1.875570
  C     -8.699110   -0.069420    2.145190
  C     -9.396930   -1.288310    2.196370
  C     -8.761050   -2.467110    2.497240
  C     -9.381520   -3.711910    2.598690
  C     -8.699220   -4.883650    2.863440
  C     -9.245450   -6.165480    3.097070
  C     -8.316480   -7.128080    3.373920
  C     -6.989450   -6.655470    3.338290
  S     -6.952530   -4.949610    2.975360
  C     -5.806290   -7.359810    3.514750
  C     -5.608020   -8.687010    3.939490
  C     -4.293040   -9.053400    4.004760
  C     -3.385770   -8.048020    3.595780
  S     -4.275290   -6.589030    3.179800
  C     -2.008440   -8.126210    3.618430
  C     -1.122280   -7.182180    3.068770
  S      0.407110   -6.850690    3.833620
  C      0.709810   -5.564540    2.726290
  C     -0.270670   -5.389130    1.802730
  C     -0.197950   -4.368490    0.720590
  C     -1.322610   -6.346440    1.954900
  C     -2.350800   -6.638410    1.016540
  C     -3.002450   -5.783780    0.180840
  C     -4.018890   -6.245180   -0.676870
  C     -4.933950   -5.433130   -1.293040
  C     -5.923340   -5.957550   -2.130230
  C     -7.043200   -5.381530   -2.686070
  C     -7.826440   -4.213350   -2.402700
  C     -7.812270   -3.404020   -1.286380
  C     -6.897740   -3.409030   -0.223840
  N     -6.218810   -3.284260    0.697290
  C     -8.797780   -2.439450   -1.003800
  N     -9.569950   -1.655700   -0.669410
  C     -8.815870   -4.077500   -3.474390
  C     -8.703240   -5.181340   -4.352850
  C     -7.660140   -6.088350   -3.835230
  O     -7.351750   -7.178360   -4.266860
  C     -9.451200   -5.303620   -5.496560
  C    -10.353710   -4.276590   -5.796540
  C    -10.471260   -3.185310   -4.907100
  C     -9.720260   -3.068690   -3.742980
  S    -11.621190   -2.014770   -5.481720
  C    -11.921770   -2.996860   -6.892180
  C    -11.203110   -4.142790   -6.929180
  Br   -13.155510   -2.411620   -8.178290
  H     -8.689510    0.513760   -3.385340
  H     -4.565790   -2.127480   -2.325390
  H     -8.658490   -0.883810   -5.808960
  H     -5.213180    1.724130    1.604030
  H     -8.476740    5.608920    2.806230
  H    -10.891850    4.800840    2.719890
  H    -11.007800    3.127640    3.281450
  H    -11.175000    3.492580    1.561860
  H    -10.331770    1.192290    1.714390
  H     -7.642310   -0.114170    2.378020
  H    -10.457520   -1.289370    1.986630
  H     -7.690770   -2.439360    2.666350
  H    -10.456150   -3.772300    2.483340
  H    -10.307150   -6.337560    3.065120
  H     -8.551610   -8.157040    3.580100
  H     -6.428570   -9.329940    4.203800
  H     -3.949380  -10.024840    4.314280
  H     -1.573980   -8.945670    4.177110
  H      1.620770   -5.006620    2.822950
  H      0.790170   -3.915760    0.696260
  H     -0.933980   -3.582590    0.882670
  H     -0.406120   -4.824710   -0.245340
  H     -2.679540   -7.673770    1.021970
  H     -2.824470   -4.720390    0.216110
  H     -4.116990   -7.317720   -0.806580
  H     -4.881880   -4.371410   -1.113800
  H     -5.767380   -6.980180   -2.466730
  H     -9.332860   -6.152840   -6.150670
  H     -9.843330   -2.210190   -3.104600
  H    -11.258290   -4.861290   -7.726080

 Total Charge           Charge          ....    0
 Multiplicity           Mult            ....    1
 Number of Electrons    NEL             ....  588
 Basis Dimension        Dim             .... 1218

ORBITAL ENERGIES
----------------

  NO   OCC          E(Eh)            E(eV)
   0   2.0000    -482.882127    -13139.8907
   1   2.0000    -482.882047    -13139.8885
   2   2.0000     -88.971875     -2421.0478
   3   2.0000     -88.971596     -2421.0402
   4   2.0000     -88.953238     -2420.5407
   5   2.0000     -88.943776     -2420.2832
   6   2.0000     -88.937859     -2420.1222
   7   2.0000     -88.937430     -2420.1105
   8   2.0000     -62.559860     -1702.3403
   9   2.0000     -62.559416     -1702.3283
  10   2.0000     -56.393795     -1534.5532
  11   2.0000     -56.393365     -1534.5415
  12   2.0000     -56.391102     -1534.4799
  13   2.0000     -56.391072     -1534.4791
  14   2.0000     -56.390694     -1534.4688
  15   2.0000     -56.390631     -1534.4671
  16   2.0000     -19.201516      -522.4998
  17   2.0000     -19.199786      -522.4527
  18   2.0000     -14.411397      -392.1541
  19   2.0000     -14.408014      -392.0620
  20   2.0000     -14.405613      -391.9966
  21   2.0000     -14.401275      -391.8786
  22   2.0000     -10.353679      -281.7379
  23   2.0000     -10.352966      -281.7185
  24   2.0000     -10.351695      -281.6839
  25   2.0000     -10.349735      -281.6306
  26   2.0000     -10.329863      -281.0899
  27   2.0000     -10.327429      -281.0236
  28   2.0000     -10.326863      -281.0082
  29   2.0000     -10.326558      -280.9999
  30   2.0000     -10.319404      -280.8052
  31   2.0000     -10.317976      -280.7664
  32   2.0000     -10.317789      -280.7613
  33   2.0000     -10.312369      -280.6138
  34   2.0000     -10.311066      -280.5784
  35   2.0000     -10.310577      -280.5651
  36   2.0000     -10.307436      -280.4796
  37   2.0000     -10.306408      -280.4516
  38   2.0000     -10.304923      -280.4112
  39   2.0000     -10.303280      -280.3665
  40   2.0000     -10.301376      -280.3147
  41   2.0000     -10.300910      -280.3020
  42   2.0000     -10.299520      -280.2642
  43   2.0000     -10.299284      -280.2578
  44   2.0000     -10.298977      -280.2494
  45   2.0000     -10.298791      -280.2444
  46   2.0000     -10.298574      -280.2385
  47   2.0000     -10.297613      -280.2123
  48   2.0000     -10.297011      -280.1959
  49   2.0000     -10.296731      -280.1883
  50   2.0000     -10.296575      -280.1840
  51   2.0000     -10.292107      -280.0625
  52   2.0000     -10.292072      -280.0615
  53   2.0000     -10.291666      -280.0505
  54   2.0000     -10.291202      -280.0378
  55   2.0000     -10.290441      -280.0171
  56   2.0000     -10.287375      -279.9337
  57   2.0000     -10.285357      -279.8788
  58   2.0000     -10.283591      -279.8307
  59   2.0000     -10.283430      -279.8263
  60   2.0000     -10.282734      -279.8074
  61   2.0000     -10.281428      -279.7719
  62   2.0000     -10.281036      -279.7612
  63   2.0000     -10.280717      -279.7525
  64   2.0000     -10.280131      -279.7366
  65   2.0000     -10.279917      -279.7308
  66   2.0000     -10.278931      -279.7039
  67   2.0000     -10.278723      -279.6983
  68   2.0000     -10.276192      -279.6294
  69   2.0000     -10.275671      -279.6152
  70   2.0000     -10.272174      -279.5201
  71   2.0000     -10.270370      -279.4710
  72   2.0000     -10.268453      -279.4188
  73   2.0000     -10.268138      -279.4103
  74   2.0000     -10.267322      -279.3880
  75   2.0000     -10.267028      -279.3800
  76   2.0000     -10.266877      -279.3759
  77   2.0000     -10.266577      -279.3678
  78   2.0000     -10.260662      -279.2068
  79   2.0000     -10.248757      -278.8829
  80   2.0000      -8.789297      -239.1689
  81   2.0000      -8.788714      -239.1531
  82   2.0000      -8.067576      -219.5299
  83   2.0000      -8.066992      -219.5140
  84   2.0000      -8.049237      -219.0309
  85   2.0000      -8.040015      -218.7799
  86   2.0000      -8.033626      -218.6061
  87   2.0000      -8.033242      -218.5956
  88   2.0000      -6.625573      -180.2910
  89   2.0000      -6.624952      -180.2741
  90   2.0000      -6.611037      -179.8955
  91   2.0000      -6.610863      -179.8907
  92   2.0000      -6.610469      -179.8800
  93   2.0000      -6.610304      -179.8755
  94   2.0000      -6.037265      -164.2823
  95   2.0000      -6.036719      -164.2675
  96   2.0000      -6.033026      -164.1670
  97   2.0000      -6.032415      -164.1504
  98   2.0000      -6.028848      -164.0533
  99   2.0000      -6.028277      -164.0378
 100   2.0000      -6.018579      -163.7739
 101   2.0000      -6.014336      -163.6584
 102   2.0000      -6.011326      -163.5765
 103   2.0000      -6.009292      -163.5212
 104   2.0000      -6.005130      -163.4079
 105   2.0000      -6.003405      -163.3610
 106   2.0000      -6.002852      -163.3459
 107   2.0000      -6.002120      -163.3260
 108   2.0000      -5.999219      -163.2470
 109   2.0000      -5.998733      -163.2338
 110   2.0000      -5.994544      -163.1198
 111   2.0000      -5.994390      -163.1156
 112   2.0000      -2.741407       -74.5975
 113   2.0000      -2.740846       -74.5822
 114   2.0000      -2.737360       -74.4874
 115   2.0000      -2.737270       -74.4849
 116   2.0000      -2.736746       -74.4707
 117   2.0000      -2.736665       -74.4684
 118   2.0000      -2.725706       -74.1702
 119   2.0000      -2.725670       -74.1692
 120   2.0000      -2.725135       -74.1547
 121   2.0000      -2.725121       -74.1543
 122   2.0000      -1.116089       -30.3703
 123   2.0000      -1.114569       -30.3290
 124   2.0000      -1.018341       -27.7105
 125   2.0000      -1.012844       -27.5609
 126   2.0000      -1.007528       -27.4162
 127   2.0000      -1.005626       -27.3645
 128   2.0000      -0.991800       -26.9882
 129   2.0000      -0.988267       -26.8921
 130   2.0000      -0.986764       -26.8512
 131   2.0000      -0.984279       -26.7836
 132   2.0000      -0.980186       -26.6722
 133   2.0000      -0.978258       -26.6198
 134   2.0000      -0.977569       -26.6010
 135   2.0000      -0.965503       -26.2727
 136   2.0000      -0.936152       -25.4740
 137   2.0000      -0.933598       -25.4045
 138   2.0000      -0.916378       -24.9359
 139   2.0000      -0.909825       -24.7576
 140   2.0000      -0.900913       -24.5151
 141   2.0000      -0.900348       -24.4997
 142   2.0000      -0.894871       -24.3507
 143   2.0000      -0.890123       -24.2215
 144   2.0000      -0.887424       -24.1480
 145   2.0000      -0.881076       -23.9753
 146   2.0000      -0.877408       -23.8755
 147   2.0000      -0.876197       -23.8425
 148   2.0000      -0.866679       -23.5835
 149   2.0000      -0.865407       -23.5489
 150   2.0000      -0.854452       -23.2508
 151   2.0000      -0.843212       -22.9450
 152   2.0000      -0.839466       -22.8430
 153   2.0000      -0.828932       -22.5564
 154   2.0000      -0.823180       -22.3999
 155   2.0000      -0.821793       -22.3621
 156   2.0000      -0.821010       -22.3408
 157   2.0000      -0.814534       -22.1646
 158   2.0000      -0.802268       -21.8308
 159   2.0000      -0.790271       -21.5044
 160   2.0000      -0.780309       -21.2333
 161   2.0000      -0.769291       -20.9335
 162   2.0000      -0.757785       -20.6204
 163   2.0000      -0.750097       -20.4112
 164   2.0000      -0.745838       -20.2953
 165   2.0000      -0.743241       -20.2246
 166   2.0000      -0.740911       -20.1612
 167   2.0000      -0.721278       -19.6270
 168   2.0000      -0.705856       -19.2073
 169   2.0000      -0.701419       -19.0866
 170   2.0000      -0.691748       -18.8234
 171   2.0000      -0.686924       -18.6922
 172   2.0000      -0.682783       -18.5795
 173   2.0000      -0.676342       -18.4042
 174   2.0000      -0.673881       -18.3372
 175   2.0000      -0.664338       -18.0776
 176   2.0000      -0.656902       -17.8752
 177   2.0000      -0.652672       -17.7601
 178   2.0000      -0.649519       -17.6743
 179   2.0000      -0.649072       -17.6621
 180   2.0000      -0.645389       -17.5619
 181   2.0000      -0.636455       -17.3188
 182   2.0000      -0.632218       -17.2035
 183   2.0000      -0.623312       -16.9612
 184   2.0000      -0.618228       -16.8228
 185   2.0000      -0.614866       -16.7314
 186   2.0000      -0.612424       -16.6649
 187   2.0000      -0.611454       -16.6385
 188   2.0000      -0.607391       -16.5280
 189   2.0000      -0.601388       -16.3646
 190   2.0000      -0.595455       -16.2031
 191   2.0000      -0.589081       -16.0297
 192   2.0000      -0.586571       -15.9614
 193   2.0000      -0.585601       -15.9350
 194   2.0000      -0.581638       -15.8272
 195   2.0000      -0.571007       -15.5379
 196   2.0000      -0.564376       -15.3575
 197   2.0000      -0.559622       -15.2281
 198   2.0000      -0.547275       -14.8921
 199   2.0000      -0.546427       -14.8690
 200   2.0000      -0.543354       -14.7854
 201   2.0000      -0.540900       -14.7186
 202   2.0000      -0.535425       -14.5697
 203   2.0000      -0.533961       -14.5298
 204   2.0000      -0.530743       -14.4423
 205   2.0000      -0.528557       -14.3828
 206   2.0000      -0.526273       -14.3206
 207   2.0000      -0.523763       -14.2523
 208   2.0000      -0.520073       -14.1519
 209   2.0000      -0.517253       -14.0752
 210   2.0000      -0.516257       -14.0481
 211   2.0000      -0.513417       -13.9708
 212   2.0000      -0.506591       -13.7850
 213   2.0000      -0.504659       -13.7325
 214   2.0000      -0.502836       -13.6829
 215   2.0000      -0.500067       -13.6075
 216   2.0000      -0.499669       -13.5967
 217   2.0000      -0.497952       -13.5500
 218   2.0000      -0.497181       -13.5290
 219   2.0000      -0.494793       -13.4640
 220   2.0000      -0.492132       -13.3916
 221   2.0000      -0.490817       -13.3558
 222   2.0000      -0.489050       -13.3077
 223   2.0000      -0.488561       -13.2944
 224   2.0000      -0.487579       -13.2677
 225   2.0000      -0.485701       -13.2166
 226   2.0000      -0.484394       -13.1810
 227   2.0000      -0.482107       -13.1188
 228   2.0000      -0.476669       -12.9708
 229   2.0000      -0.474620       -12.9151
 230   2.0000      -0.470917       -12.8143
 231   2.0000      -0.468203       -12.7404
 232   2.0000      -0.465352       -12.6629
 233   2.0000      -0.464571       -12.6416
 234   2.0000      -0.460835       -12.5399
 235   2.0000      -0.457115       -12.4387
 236   2.0000      -0.455645       -12.3987
 237   2.0000      -0.454404       -12.3650
 238   2.0000      -0.451578       -12.2881
 239   2.0000      -0.449952       -12.2438
 240   2.0000      -0.449053       -12.2193
 241   2.0000      -0.446347       -12.1457
 242   2.0000      -0.443711       -12.0740
 243   2.0000      -0.442069       -12.0293
 244   2.0000      -0.441423       -12.0117
 245   2.0000      -0.438156       -11.9228
 246   2.0000      -0.437126       -11.8948
 247   2.0000      -0.436097       -11.8668
 248   2.0000      -0.435381       -11.8473
 249   2.0000      -0.432965       -11.7816
 250   2.0000      -0.431239       -11.7346
 251   2.0000      -0.430439       -11.7128
 252   2.0000      -0.430246       -11.7076
 253   2.0000      -0.426699       -11.6111
 254   2.0000      -0.423786       -11.5318
 255   2.0000      -0.422508       -11.4970
 256   2.0000      -0.421084       -11.4583
 257   2.0000      -0.417952       -11.3730
 258   2.0000      -0.417430       -11.3588
 259   2.0000      -0.415735       -11.3127
 260   2.0000      -0.413037       -11.2393
 261   2.0000      -0.411331       -11.1929
 262   2.0000      -0.407486       -11.0882
 263   2.0000      -0.405802       -11.0424
 264   2.0000      -0.401929       -10.9371
 265   2.0000      -0.400251       -10.8914
 266   2.0000      -0.396887       -10.7998
 267   2.0000      -0.395343       -10.7578
 268   2.0000      -0.386472       -10.5164
 269   2.0000      -0.382576       -10.4104
 270   2.0000      -0.379797       -10.3348
 271   2.0000      -0.377546       -10.2735
 272   2.0000      -0.372709       -10.1419
 273   2.0000      -0.371807       -10.1174
 274   2.0000      -0.370408       -10.0793
 275   2.0000      -0.359616        -9.7856
 276   2.0000      -0.354002        -9.6329
 277   2.0000      -0.346242        -9.4217
 278   2.0000      -0.333881        -9.0854
 279   2.0000      -0.330970        -9.0061
 280   2.0000      -0.327757        -8.9187
 281   2.0000      -0.324818        -8.8388
 282   2.0000      -0.317357        -8.6357
 283   2.0000      -0.312703        -8.5091
 284   2.0000      -0.309868        -8.4319
 285   2.0000      -0.308122        -8.3844
 286   2.0000      -0.300835        -8.1861
 287   2.0000      -0.293990        -7.9999
 288   2.0000      -0.288903        -7.8615
 289   2.0000      -0.284889        -7.7522
 290   2.0000      -0.274745        -7.4762
 291   2.0000      -0.257294        -7.0013
 292   2.0000      -0.243477        -6.6253
 293   2.0000      -0.199487        -5.4283
 294   0.0000      -0.095057        -2.5866
 295   0.0000      -0.083835        -2.2813
 296   0.0000      -0.070166        -1.9093
 297   0.0000      -0.055603        -1.5130
 298   0.0000      -0.043264        -1.1773

MULLIKEN ATOMIC CHARGES
-----------------------
   0 C :    0.312465
   1 C :   -0.349144
   2 C :   -0.108240
   3 N :    0.098171
   4 C :   -0.222717
   5 N :    0.168614
   6 C :    0.012215
   7 C :   -0.015921
   8 C :   -0.079360
   9 C :    0.090300
  10 C :   -0.094854
  11 C :   -0.026730
  12 S :    0.182526
  13 C :   -0.145801
  14 C :    0.088084
  15 Br:    0.022572
  16 C :    0.177193
  17 O :   -0.141900
  18 C :   -0.138375
  19 C :    0.010642
  20 C :   -0.189929
  21 S :    0.129053
  22 C :   -0.104338
  23 C :   -0.095221
  24 C :    0.113710
  25 C :    0.204159
  26 C :   -0.038017
  27 C :    0.035531
  28 C :    0.040947
  29 C :   -0.008725
  30 C :   -0.002887
  31 C :   -0.027032
  32 C :    0.036667
  33 C :    0.026525
  34 C :   -0.048930
  35 S :    0.126427
  36 C :   -0.062259
  37 C :    0.034226
  38 C :    0.030439
  39 C :   -0.056126
  40 S :    0.112483
  41 C :   -0.009275
  42 C :   -0.136297
  43 S :    0.114028
  44 C :   -0.128590
  45 C :   -0.075597
  46 C :    0.134161
  47 C :    0.112828
  48 C :   -0.058109
  49 C :    0.032298
  50 C :    0.040957
  51 C :    0.010912
  52 C :    0.000088
  53 C :   -0.123575
  54 C :    0.357305
  55 C :   -0.378011
  56 C :   -0.161575
  57 N :    0.137797
  58 C :   -0.195849
  59 N :    0.132881
  60 C :   -0.022083
  61 C :    0.016673
  62 C :    0.127595
  63 O :   -0.154423
  64 C :   -0.086519
  65 C :    0.132818
  66 C :   -0.115294
  67 C :    0.003463
  68 S :    0.165806
  69 C :   -0.123641
  70 C :    0.035883
  71 Br:    0.016223
  72 H :   -0.014742
  73 H :   -0.011711
  74 H :   -0.010866
  75 H :    0.030443
  76 H :    0.021384
  77 H :    0.007656
  78 H :    0.032489
  79 H :    0.040600
  80 H :   -0.015494
  81 H :    0.010090
  82 H :   -0.010445
  83 H :    0.020230
  84 H :   -0.013875
  85 H :   -0.012185
  86 H :   -0.015889
  87 H :   -0.014094
  88 H :   -0.014260
  89 H :   -0.004681
  90 H :    0.015037
  91 H :   -0.002042
  92 H :    0.047924
  93 H :    0.025262
  94 H :    0.016097
  95 H :    0.001711
  96 H :   -0.003376
  97 H :   -0.000684
  98 H :    0.016132
  99 H :   -0.015298
 100 H :   -0.018947
 101 H :   -0.005792
Sum of atomic charges:   -0.0000000

LOEWDIN ATOMIC CHARGES
----------------------
   0 C :    0.075917
   1 C :   -0.147175
   2 C :    0.011423
   3 N :   -0.075215
   4 C :   -0.023898
   5 N :   -0.059449
   6 C :   -0.020327
   7 C :   -0.038789
   8 C :    0.017621
   9 C :   -0.038603
  10 C :   -0.147855
  11 C :   -0.016437
  12 S :    0.434687
  13 C :   -0.275319
  14 C :   -0.066071
  15 Br:    0.142157
  16 C :    0.084989
  17 O :   -0.130419
  18 C :   -0.105371
  19 C :    0.052576
  20 C :   -0.188783
  21 S :    0.439166
  22 C :   -0.166117
  23 C :   -0.055065
  24 C :   -0.043783
  25 C :   -0.002552
  26 C :   -0.019211
  27 C :    0.002854
  28 C :   -0.003099
  29 C :   -0.026649
  30 C :   -0.045464
  31 C :   -0.146578
  32 C :   -0.031839
  33 C :   -0.035727
  34 C :   -0.174749
  35 S :    0.431500
  36 C :   -0.186572
  37 C :   -0.029659
  38 C :   -0.042719
  39 C :   -0.140098
  40 S :    0.417068
  41 C :   -0.089902
  42 C :   -0.158940
  43 S :    0.422665
  44 C :   -0.190859
  45 C :   -0.043060
  46 C :   -0.043501
  47 C :   -0.080465
  48 C :    0.014473
  49 C :   -0.040812
  50 C :    0.055694
  51 C :   -0.053936
  52 C :    0.071571
  53 C :   -0.122527
  54 C :    0.069498
  55 C :   -0.157627
  56 C :   -0.007307
  57 N :   -0.074738
  58 C :   -0.011842
  59 N :   -0.070128
  60 C :   -0.019222
  61 C :   -0.050593
  62 C :    0.079977
  63 O :   -0.155341
  64 C :    0.017698
  65 C :   -0.037566
  66 C :   -0.147818
  67 C :   -0.012748
  68 S :    0.418451
  69 C :   -0.275642
  70 C :   -0.068226
  71 Br:    0.130770
  72 H :    0.039148
  73 H :    0.036990
  74 H :    0.032123
  75 H :    0.043801
  76 H :    0.024635
  77 H :    0.032694
  78 H :    0.037753
  79 H :    0.039864
  80 H :    0.030793
  81 H :    0.032857
  82 H :    0.028188
  83 H :    0.025889
  84 H :    0.033507
  85 H :    0.033170
  86 H :    0.030755
  87 H :    0.031701
  88 H :    0.031954
  89 H :    0.033392
  90 H :    0.021241
  91 H :    0.029907
  92 H :    0.039303
  93 H :    0.036678
  94 H :    0.031667
  95 H :    0.032049
  96 H :    0.031797
  97 H :    0.028288
  98 H :    0.042554
  99 H :    0.038855
 100 H :    0.036111
 101 H :    0.037971

  Mayer bond orders larger than 0.100000
B(  0-C ,  1-C ) :   1.6237 B(  0-C ,  6-C ) :   0.9918 B(  0-C , 18-C ) :   1.0931
B(  1-C ,  2-C ) :   1.1619 B(  1-C ,  4-C ) :   1.1542 B(  2-C ,  3-N ) :   2.8059
B(  4-C ,  5-N ) :   2.9966 B(  6-C ,  7-C ) :   1.2881 B(  6-C , 11-C ) :   1.4047
B(  7-C ,  8-C ) :   1.4242 B(  7-C , 16-C ) :   0.9326 B(  8-C ,  9-C ) :   1.2325
B(  8-C , 72-H ) :   1.0178 B(  9-C , 10-C ) :   1.3225 B(  9-C , 14-C ) :   1.1533
B( 10-C , 11-C ) :   1.3131 B( 10-C , 12-S ) :   1.0821 B( 11-C , 73-H ) :   0.9869
B( 12-S , 13-C ) :   1.0837 B( 13-C , 14-C ) :   1.6158 B( 13-C , 15-Br) :   1.0217
B( 14-C , 74-H ) :   0.9939 B( 16-C , 17-O ) :   2.2077 B( 16-C , 18-C ) :   0.9611
B( 18-C , 19-C ) :   1.5473 B( 19-C , 20-C ) :   1.2021 B( 19-C , 75-H ) :   0.9455
B( 20-C , 21-S ) :   1.0935 B( 20-C , 25-C ) :   1.3754 B( 21-S , 22-C ) :   1.1637
B( 22-C , 23-C ) :   1.5704 B( 22-C , 76-H ) :   0.9658 B( 23-C , 24-C ) :   1.0956
B( 23-C , 25-C ) :   1.2479 B( 24-C , 77-H ) :   0.9501 B( 24-C , 78-H ) :   0.9421
B( 24-C , 79-H ) :   0.9451 B( 25-C , 26-C ) :   1.1187 B( 26-C , 27-C ) :   1.6250
B( 26-C , 80-H ) :   0.9613 B( 27-C , 28-C ) :   1.1861 B( 27-C , 81-H ) :   0.9669
B( 28-C , 29-C ) :   1.5583 B( 28-C , 82-H ) :   0.9882 B( 29-C , 30-C ) :   1.1819
B( 29-C , 83-H ) :   0.9713 B( 30-C , 31-C ) :   1.5146 B( 30-C , 84-H ) :   0.9840
B( 31-C , 32-C ) :   1.1606 B( 31-C , 35-S ) :   1.0537 B( 32-C , 33-C ) :   1.5648
B( 32-C , 85-H ) :   0.9994 B( 33-C , 34-C ) :   1.2053 B( 33-C , 86-H ) :   0.9947
B( 34-C , 35-S ) :   1.0786 B( 34-C , 36-C ) :   1.4514 B( 36-C , 37-C ) :   1.2121
B( 36-C , 40-S ) :   1.0564 B( 37-C , 38-C ) :   1.5586 B( 37-C , 87-H ) :   0.9945
B( 38-C , 39-C ) :   1.1645 B( 38-C , 88-H ) :   0.9983 B( 39-C , 40-S ) :   1.0617
B( 39-C , 41-C ) :   1.5434 B( 41-C , 42-C ) :   1.1880 B( 41-C , 89-H ) :   0.9540
B( 42-C , 43-S ) :   1.1359 B( 42-C , 47-C ) :   1.3551 B( 43-S , 44-C ) :   1.1148
B( 44-C , 45-C ) :   1.6107 B( 44-C , 90-H ) :   0.9648 B( 45-C , 46-C ) :   1.1005
B( 45-C , 47-C ) :   1.2295 B( 46-C , 91-H ) :   0.9421 B( 46-C , 92-H ) :   0.9356
B( 46-C , 93-H ) :   0.9380 B( 47-C , 48-C ) :   1.1332 B( 48-C , 49-C ) :   1.5638
B( 48-C , 94-H ) :   0.9696 B( 49-C , 50-C ) :   1.1799 B( 49-C , 95-H ) :   0.9691
B( 50-C , 51-C ) :   1.5266 B( 50-C , 96-H ) :   0.9913 B( 51-C , 52-C ) :   1.2067
B( 51-C , 97-H ) :   0.9639 B( 52-C , 53-C ) :   1.4848 B( 52-C , 98-H ) :   0.9444
B( 53-C , 54-C ) :   1.0983 B( 53-C , 62-C ) :   0.9598 B( 54-C , 55-C ) :   1.5531
B( 54-C , 60-C ) :   0.9922 B( 55-C , 56-C ) :   1.1935 B( 55-C , 58-C ) :   1.1775
B( 56-C , 57-N ) :   2.8194 B( 58-C , 59-N ) :   2.8597 B( 60-C , 61-C ) :   1.2769
B( 60-C , 67-C ) :   1.4386 B( 61-C , 62-C ) :   0.9195 B( 61-C , 64-C ) :   1.4209
B( 62-C , 63-O ) :   2.2439 B( 64-C , 65-C ) :   1.2316 B( 64-C , 99-H ) :   1.0182
B( 65-C , 66-C ) :   1.3226 B( 65-C , 70-C ) :   1.1561 B( 66-C , 67-C ) :   1.3161
B( 66-C , 68-S ) :   1.0772 B( 67-C ,100-H ) :   0.9760 B( 68-S , 69-C ) :   1.0778
B( 69-C , 70-C ) :   1.6237 B( 69-C , 71-Br) :   1.0138 B( 70-C ,101-H ) :   1.0011

-----------------------------------------------------------------------------
         ABSORPTION SPECTRUM VIA TRANSITION ELECTRIC DIPOLE MOMENTS
-----------------------------------------------------------------------------
State   Energy  Wavelength   fosc         T2         TX        TY        TZ
        (cm-1)    (nm)                  (au**2)     (au)      (au)      (au)
-----------------------------------------------------------------------------
   0    7555.7   1323.5   0.104070394   4.53449   0.82634  -1.88330  -0.55211
   1   10516.2    950.9   0.185876498   5.81888   0.33419  -1.66489   1.71328
   2   14187.8    704.8   0.213786985   4.96070  -1.94234   1.00396   0.42436
   3   16407.7    609.5   0.174871426   3.50870   0.13144  -1.39346   1.24486
   4   17140.8    583.4   0.207905971   3.99312  -0.49584   1.11255  -1.58414
   5   19319.5    517.6   0.391024530   6.66323   2.07556  -1.36461   0.70222
   6   19617.7    509.7   0.411673058   6.90843   2.18191  -1.38903   0.46721
   7   20381.4    490.6   0.834823240  13.48451  -3.11565   1.93876  -0.13586
   8   21831.1    458.1   0.069003847   1.04057  -0.90505  -0.47046  -0.01135
   9   22249.4    449.4   0.060912160   0.90128  -0.18992  -0.20704  -0.90683
  10   23118.6    432.6   0.105710599   1.50533   0.20433  -1.20209   0.13626
  11   24488.0    408.4   0.027323565   0.36733  -0.25167  -0.01659   0.55111
  12   25310.7    395.1   0.146430113   1.90459   0.63762  -0.90329   0.82590
  13   25514.3    391.9   0.004346451   0.05608  -0.13043  -0.00111  -0.19766
  14   26002.7    384.6   0.334737979   4.23801   1.29934   1.40818   0.75284
  15   26622.4    375.6   0.157359378   1.94591   1.08607  -0.70434   0.51988
  16   26794.3    373.2   0.226536582   2.78338  -0.24706  -1.48121   0.72689
  17   26940.6    371.2   0.077848628   0.95130  -0.87694   0.22583  -0.36232
  18   27595.9    362.4   0.031144034   0.37154  -0.45837  -0.25723   0.30865
  19   28010.9    357.0   0.013676868   0.16074  -0.29106  -0.16324  -0.22221
  20   28215.3    354.4   0.089765267   1.04737   0.56758  -0.74304   0.41608
  21   28677.6    348.7   0.131853229   1.51364   0.04486   0.23199   1.20740
  22   28905.6    346.0   0.406681399   4.63178  -0.97819  -0.73932  -1.76870
  23   29054.6    344.2   0.013611728   0.15423  -0.14655   0.30553  -0.19852
  24   29219.0    342.2   0.067323331   0.75854  -0.14188   0.11081   0.85213
  25   29542.5    338.5   0.037635946   0.41940  -0.05886   0.63584   0.10789
  26   29612.9    337.7   0.181938692   2.02264   0.98184   0.85354   0.57454
  27   29930.1    334.1   0.017216690   0.18937  -0.23241  -0.30949  -0.19892
  28   30113.2    332.1   0.005356529   0.05856  -0.20654   0.03664  -0.12066
  29   30482.2    328.1   0.310277603   3.35104  -1.16478  -1.25159  -0.65411
  30   30954.0    323.1   0.007174285   0.07630  -0.06350   0.03704   0.26627
  31   31191.6    320.6   0.015630597   0.16497  -0.36787   0.13898  -0.10163
  32   31575.5    316.7   0.014022930   0.14621  -0.18340  -0.26118   0.21061
  33   31884.4    313.6   0.031382307   0.32403   0.04867   0.14283  -0.54887
  34   32002.9    312.5   0.063554583   0.65378   0.01002   0.61218   0.52812
  35   32078.4    311.7   0.018017991   0.18491   0.10696   0.12064   0.39865
  36   32366.8    309.0   0.078518379   0.79863   0.49675   0.16749   0.72375
  37   32600.2    306.7   0.091153375   0.92051   0.57119  -0.00276   0.77087
  38   32844.7    304.5   0.172359999   1.72761  -0.86324   0.37118  -0.91905
  39   32967.7    303.3   0.006818820   0.06809  -0.12420   0.01561  -0.22896
  40   33075.9    302.3   0.248934087   2.47770   0.20814   0.75412   1.36590
  41   33333.0    300.0   0.018305875   0.18080   0.41819   0.05524  -0.05353
  42   33567.4    297.9   0.308304598   3.02369   1.02751  -0.20261   1.38811
  43   33697.6    296.8   0.195372263   1.90871   0.60807   0.25019   1.21506
  44   33906.5    294.9   0.048024548   0.46629   0.11491  -0.59548  -0.31383
  45   34009.5    294.0   0.193846952   1.87644   0.31191   0.01441   1.33377
  46   34373.2    290.9   0.033637355   0.32216   0.24400   0.00378   0.51246
  47   34638.9    288.7   0.079656647   0.75707   0.64293  -0.56425   0.15914
  48   34951.6    286.1   0.008579195   0.08081  -0.09041  -0.26424   0.05304
  49   35004.8    285.7   0.066209954   0.62269   0.25828   0.74525   0.02404
  50   35168.9    284.3   0.054022161   0.50569  -0.55948  -0.12835  -0.41977
  51   35622.2    280.7   0.056944158   0.52626  -0.42724   0.46420  -0.35812
  52   35707.1    280.1   0.011988775   0.11053   0.11003   0.28727   0.12611
  53   35872.1    278.8   0.010766941   0.09881  -0.23162   0.06634  -0.20190
  54   36040.2    277.5   0.086610265   0.79115  -0.43241  -0.50131  -0.59401
  55   36388.3    274.8   0.007574356   0.06853  -0.06377   0.13738   0.21351
  56   36543.4    273.6   0.058959996   0.53116  -0.37085   0.15909  -0.60689
  57   36736.8    272.2   0.083061548   0.74435   0.54375   0.31548   0.59089
  58   36944.9    270.7   0.026181891   0.23330   0.10812  -0.35635  -0.30762
  59   37092.1    269.6   0.006429225   0.05706   0.15577  -0.13255  -0.12341
  60   37104.1    269.5   0.021074998   0.18699  -0.30036  -0.07535  -0.30183
  61   37313.2    268.0   0.007721372   0.06813  -0.17701   0.13147  -0.13968
  62   37559.8    266.2   0.017590526   0.15418  -0.05221   0.01437  -0.38891
  63   37595.1    266.0   0.016997193   0.14884   0.13156  -0.36098   0.03505
  64   37729.2    265.0   0.010585399   0.09236  -0.11022   0.26729   0.09367
  65   37823.1    264.4   0.045828264   0.39889   0.57810  -0.25145  -0.03823
  66   37854.0    264.2   0.021539036   0.18732  -0.35925   0.03281  -0.23914
  67   37980.0    263.3   0.007584465   0.06574  -0.05946  -0.21580  -0.12505
  68   38225.2    261.6   0.028561537   0.24598  -0.41048   0.23803  -0.14434
  69   38655.4    258.7   0.031905401   0.27172   0.40070   0.31617   0.10583
  70   38863.5    257.3   0.024477554   0.20735   0.42686  -0.15616  -0.02742
  71   39000.2    256.4   0.045752032   0.38621   0.31807   0.19719  -0.49614
  72   39156.5    255.4   0.058577880   0.49250  -0.22681  -0.53522  -0.39319
  73   39214.4    255.0   0.015028959   0.12617   0.32702   0.13782   0.01537
  74   39913.1    250.5   0.034869283   0.28761  -0.15988   0.13186   0.49463
  75   39987.4    250.1   0.031680590   0.26082   0.07980   0.42443   0.27261
  76   40187.9    248.8   0.062256609   0.50999  -0.34890   0.45785  -0.42266

FINAL SINGLE POINT ENERGY    -10130.518503320791

DIPOLE MOMENT
-------------
                                X             Y             Z
Electronic contribution:    -75.62036       8.00298    -172.66553
Nuclear contribution   :     74.25919      -8.37695     172.19885
                        -----------------------------------------
Total Dipole Moment    :     -1.36118      -0.37397      -0.46668
                        -----------------------------------------
Magnitude (a.u.)       :      1.48676
Magnitude (Debye)      :      3.77904

Rotational constants in cm-1:     0.000983     0.000542     0.000441
Rotational constants in MHz :    29.458313    16.237718    13.235719

                             ****ORCA TERMINATED NORMALLY****
TOTAL RUN TIME: 0 days 0 hours 15 minutes 57 seconds 998 msec
