                         Program Version 4.2.0 -  RELEASE  -
|  1> # ORCA input file
|  2> # SCF done       -170.797189305683          0.000635335077
|  3> ! CAM-B3LYP def2-SVP def2/J RIJCOSX Grid4 TightSCF
|  4> %maxcore 5000
|  5> %tddft
|  6>     Mode sTDDFT
|  7>     Ethresh 5.0
|  8>     maxcore 5000
|  9> end
| 10>
| 11> %pal
| 12>   nprocs 6
| 13>   end
| 14> * xyz 0 1
| 15>    C       16.97829        -7.98109         1.51738
| 16>    C       17.84844        -8.49928         2.60637
| 17>    C       18.10075        -7.95688         3.83426
| 18>    C       18.85291        -8.79590         4.67279
| 19>    C       19.17228        -9.99832         4.08806
| 20>    S       18.56729       -10.06712         2.45942
| 21>    C       19.76465       -11.15850         4.66756
| 22>    C       20.12660       -11.39974         5.97421
| 23>    C       20.48806       -12.72950         6.20510
| 24>    C       20.37485       -13.54617         5.09812
| 25>    S       19.92464       -12.60109         3.71228
| 26>    C       20.65137       -14.95162         5.07508
| 27>    C       20.18930       -15.93454         4.26795
| 28>    C       19.18963       -15.92087         3.24692
| 29>    C       19.00390       -16.90691         2.29536
| 30>    C       17.96148       -16.65398         1.40217
| 31>    C       17.30071       -15.47261         1.66673
| 32>    S       17.96570       -14.70184         3.07502
| 33>    C       16.31575       -14.77216         0.91973
| 34>    C       15.58736       -15.14851        -0.19108
| 35>    C       14.82596       -14.11131        -0.72527
| 36>    C       14.95859       -12.90915        -0.04902
| 37>    S       16.02141       -13.10199         1.31336
| 38>    C       14.42538       -11.65373        -0.43312
| 39>    C       14.67325       -10.46107         0.16682
| 40>    S       15.51776       -10.33525         1.69937
| 41>    C       15.52692        -8.50824         1.67235
| 42>    C       14.65549        -8.12357         0.52348
| 43>    C       14.38077        -6.67672         0.28977
| 44>    C       14.26525        -9.14160        -0.28208
| 45>    C       13.52394        -8.91933        -1.50928
| 46>    C       13.76683        -9.51209        -2.69225
| 47>    C       13.01507        -9.21672        -3.86886
| 48>    C       13.27795        -9.78367        -5.06625
| 49>    C       12.57900        -9.53516        -6.29118
| 50>    C       12.95170       -10.20603        -7.46288
| 51>    C       12.31536       -10.03987        -8.71248
| 52>    N       12.88960       -10.73139        -9.73437
| 53>    C       13.87608       -11.43186        -9.33499
| 54>    S       14.26342       -11.33459        -7.64093
| 55>    C       11.21658        -9.17087        -8.84967
| 56>    C       10.87954        -8.45065        -7.70143
| 57>    C       11.51295        -8.62216        -6.44707
| 58>    N       10.99581        -7.83167        -5.46370
| 59>    C       10.03792        -7.10363        -5.88350
| 60>    S        9.60695        -7.27891        -7.56464
| 61>    C       10.52889        -8.97497       -10.08937
| 62>    C       10.27116        -9.95066       -10.99876
| 63>    C        9.76465        -9.77217       -12.34784
| 64>    C        9.54797        -8.58061       -12.99019
| 65>    C        9.06961        -8.46894       -14.31256
| 66>    N        8.67968        -8.31107       -15.38089
| 67>    C        9.76543        -7.30190       -12.43548
| 68>    N        9.92199        -6.22628       -12.06450
| 69>    C        9.57763       -11.09546       -12.92964
| 70>    C        9.91988       -12.07362       -11.96432
| 71>    C       10.32224       -11.40980       -10.70877
| 72>    O       10.52152       -11.95229        -9.64482
| 73>    C        9.84492       -13.42169       -12.21629
| 74>    C        9.42403       -13.82659       -13.48718
| 75>    C        9.08571       -12.84251       -14.44662
| 76>    C        9.15257       -11.47939       -14.18899
| 77>    S        8.58666       -13.56006       -15.94894
| 78>    C        8.83787       -15.14935       -15.27730
| 79>    C        9.27214       -15.14595       -13.99463
| 80>   Br        8.50220       -16.66325       -16.33205
| 81>    H       16.95646        -6.88962         1.54133
| 82>    H       17.35729        -8.30801         0.54702
| 83>    H       17.74785        -6.98457         4.13203
| 84>    H       19.13183        -8.53771         5.67812
| 85>    H       20.10391       -10.64600         6.74044
| 86>    H       20.77639       -13.10541         7.17152
| 87>    H       21.34101       -15.25733         5.85447
| 88>    H       20.62558       -16.91685         4.41294
| 89>    H       19.64290       -17.77062         2.22974
| 90>    H       17.71635       -17.29105         0.57145
| 91>    H       15.61790       -16.14186        -0.60218
| 92>    H       14.20716       -14.21501        -1.59962
| 93>    H       13.80161       -11.66508        -1.31613
| 94>    H       15.12849        -8.16221         2.63043
| 95>    H       14.52562        -6.10716         1.20481
| 96>    H       13.35956        -6.52936        -0.05708
| 97>    H       15.04841        -6.27625        -0.47457
| 98>    H       12.74738        -8.16546        -1.45923
| 99>    H       14.58270       -10.21548        -2.79115
|100>    H       12.20546        -8.50675        -3.78457
|101>    H       14.08878       -10.49936        -5.14263
|102>    H       14.46173       -12.05345        -9.98391
|103>    H        9.50365        -6.41215        -5.26169
|104>    H       10.18847        -7.96327       -10.27517
|105>    H       10.10755       -14.14164       -11.45713
|106>    H        8.87827       -10.77024       -14.95189
|107>    H        9.47630       -16.03597       -13.42791
|108> *
|109>
|110>                          ****END OF INPUT****

CARTESIAN COORDINATES (ANGSTROEM)
---------------------------------
  C     16.978290   -7.981090    1.517380
  C     17.848440   -8.499280    2.606370
  C     18.100750   -7.956880    3.834260
  C     18.852910   -8.795900    4.672790
  C     19.172280   -9.998320    4.088060
  S     18.567290  -10.067120    2.459420
  C     19.764650  -11.158500    4.667560
  C     20.126600  -11.399740    5.974210
  C     20.488060  -12.729500    6.205100
  C     20.374850  -13.546170    5.098120
  S     19.924640  -12.601090    3.712280
  C     20.651370  -14.951620    5.075080
  C     20.189300  -15.934540    4.267950
  C     19.189630  -15.920870    3.246920
  C     19.003900  -16.906910    2.295360
  C     17.961480  -16.653980    1.402170
  C     17.300710  -15.472610    1.666730
  S     17.965700  -14.701840    3.075020
  C     16.315750  -14.772160    0.919730
  C     15.587360  -15.148510   -0.191080
  C     14.825960  -14.111310   -0.725270
  C     14.958590  -12.909150   -0.049020
  S     16.021410  -13.101990    1.313360
  C     14.425380  -11.653730   -0.433120
  C     14.673250  -10.461070    0.166820
  S     15.517760  -10.335250    1.699370
  C     15.526920   -8.508240    1.672350
  C     14.655490   -8.123570    0.523480
  C     14.380770   -6.676720    0.289770
  C     14.265250   -9.141600   -0.282080
  C     13.523940   -8.919330   -1.509280
  C     13.766830   -9.512090   -2.692250
  C     13.015070   -9.216720   -3.868860
  C     13.277950   -9.783670   -5.066250
  C     12.579000   -9.535160   -6.291180
  C     12.951700  -10.206030   -7.462880
  C     12.315360  -10.039870   -8.712480
  N     12.889600  -10.731390   -9.734370
  C     13.876080  -11.431860   -9.334990
  S     14.263420  -11.334590   -7.640930
  C     11.216580   -9.170870   -8.849670
  C     10.879540   -8.450650   -7.701430
  C     11.512950   -8.622160   -6.447070
  N     10.995810   -7.831670   -5.463700
  C     10.037920   -7.103630   -5.883500
  S      9.606950   -7.278910   -7.564640
  C     10.528890   -8.974970  -10.089370
  C     10.271160   -9.950660  -10.998760
  C      9.764650   -9.772170  -12.347840
  C      9.547970   -8.580610  -12.990190
  C      9.069610   -8.468940  -14.312560
  N      8.679680   -8.311070  -15.380890
  C      9.765430   -7.301900  -12.435480
  N      9.921990   -6.226280  -12.064500
  C      9.577630  -11.095460  -12.929640
  C      9.919880  -12.073620  -11.964320
  C     10.322240  -11.409800  -10.708770
  O     10.521520  -11.952290   -9.644820
  C      9.844920  -13.421690  -12.216290
  C      9.424030  -13.826590  -13.487180
  C      9.085710  -12.842510  -14.446620
  C      9.152570  -11.479390  -14.188990
  S      8.586660  -13.560060  -15.948940
  C      8.837870  -15.149350  -15.277300
  C      9.272140  -15.145950  -13.994630
  Br     8.502200  -16.663250  -16.332050
  H     16.956460   -6.889620    1.541330
  H     17.357290   -8.308010    0.547020
  H     17.747850   -6.984570    4.132030
  H     19.131830   -8.537710    5.678120
  H     20.103910  -10.646000    6.740440
  H     20.776390  -13.105410    7.171520
  H     21.341010  -15.257330    5.854470
  H     20.625580  -16.916850    4.412940
  H     19.642900  -17.770620    2.229740
  H     17.716350  -17.291050    0.571450
  H     15.617900  -16.141860   -0.602180
  H     14.207160  -14.215010   -1.599620
  H     13.801610  -11.665080   -1.316130
  H     15.128490   -8.162210    2.630430
  H     14.525620   -6.107160    1.204810
  H     13.359560   -6.529360   -0.057080
  H     15.048410   -6.276250   -0.474570
  H     12.747380   -8.165460   -1.459230
  H     14.582700  -10.215480   -2.791150
  H     12.205460   -8.506750   -3.784570
  H     14.088780  -10.499360   -5.142630
  H     14.461730  -12.053450   -9.983910
  H      9.503650   -6.412150   -5.261690
  H     10.188470   -7.963270  -10.275170
  H     10.107550  -14.141640  -11.457130
  H      8.878270  -10.770240  -14.951890
  H      9.476300  -16.035970  -13.427910

 Total Charge           Charge          ....    0
 Multiplicity           Mult            ....    1
 Number of Electrons    NEL             ....  538
 Basis Dimension        Dim             .... 1109

ORBITAL ENERGIES
----------------

  NO   OCC          E(Eh)            E(eV)
   0   2.0000    -482.885619    -13139.9857
   1   2.0000     -88.974990     -2421.1326
   2   2.0000     -88.970999     -2421.0240
   3   2.0000     -88.965788     -2420.8822
   4   2.0000     -88.943346     -2420.2715
   5   2.0000     -88.940468     -2420.1932
   6   2.0000     -88.940109     -2420.1834
   7   2.0000     -88.937751     -2420.1192
   8   2.0000     -88.923707     -2419.7371
   9   2.0000     -62.563327     -1702.4347
  10   2.0000     -56.397279     -1534.6480
  11   2.0000     -56.394559     -1534.5740
  12   2.0000     -56.394530     -1534.5732
  13   2.0000     -19.210823      -522.7531
  14   2.0000     -14.422648      -392.4602
  15   2.0000     -14.416330      -392.2883
  16   2.0000     -14.415231      -392.2584
  17   2.0000     -14.414491      -392.2382
  18   2.0000     -10.362870      -281.9880
  19   2.0000     -10.358906      -281.8802
  20   2.0000     -10.345540      -281.5165
  21   2.0000     -10.342843      -281.4431
  22   2.0000     -10.341648      -281.4106
  23   2.0000     -10.340165      -281.3702
  24   2.0000     -10.324943      -280.9560
  25   2.0000     -10.320252      -280.8283
  26   2.0000     -10.319939      -280.8198
  27   2.0000     -10.318331      -280.7761
  28   2.0000     -10.317895      -280.7642
  29   2.0000     -10.317397      -280.7506
  30   2.0000     -10.314845      -280.6812
  31   2.0000     -10.312359      -280.6136
  32   2.0000     -10.308409      -280.5061
  33   2.0000     -10.308046      -280.4962
  34   2.0000     -10.307244      -280.4744
  35   2.0000     -10.307018      -280.4682
  36   2.0000     -10.304593      -280.4022
  37   2.0000     -10.300949      -280.3031
  38   2.0000     -10.299412      -280.2613
  39   2.0000     -10.298472      -280.2357
  40   2.0000     -10.297539      -280.2103
  41   2.0000     -10.296502      -280.1821
  42   2.0000     -10.293558      -280.1020
  43   2.0000     -10.293016      -280.0872
  44   2.0000     -10.292202      -280.0651
  45   2.0000     -10.290507      -280.0189
  46   2.0000     -10.289962      -280.0041
  47   2.0000     -10.289298      -279.9860
  48   2.0000     -10.288718      -279.9703
  49   2.0000     -10.288539      -279.9654
  50   2.0000     -10.288512      -279.9647
  51   2.0000     -10.287716      -279.9430
  52   2.0000     -10.285883      -279.8931
  53   2.0000     -10.284260      -279.8489
  54   2.0000     -10.283593      -279.8308
  55   2.0000     -10.280881      -279.7570
  56   2.0000     -10.277866      -279.6750
  57   2.0000     -10.277271      -279.6588
  58   2.0000     -10.277050      -279.6527
  59   2.0000     -10.271822      -279.5105
  60   2.0000     -10.270346      -279.4703
  61   2.0000     -10.268407      -279.4176
  62   2.0000     -10.263941      -279.2960
  63   2.0000     -10.262831      -279.2658
  64   2.0000     -10.262767      -279.2641
  65   2.0000     -10.262635      -279.2605
  66   2.0000     -10.262227      -279.2494
  67   2.0000     -10.261482      -279.2291
  68   2.0000     -10.259891      -279.1858
  69   2.0000     -10.259652      -279.1793
  70   2.0000      -8.792750      -239.2629
  71   2.0000      -8.070979      -219.6225
  72   2.0000      -8.067258      -219.5213
  73   2.0000      -8.062098      -219.3808
  74   2.0000      -8.039026      -218.7530
  75   2.0000      -8.036346      -218.6801
  76   2.0000      -8.035537      -218.6581
  77   2.0000      -8.033676      -218.6074
  78   2.0000      -8.019567      -218.2235
  79   2.0000      -6.629062      -180.3859
  80   2.0000      -6.614481      -179.9892
  81   2.0000      -6.614274      -179.9835
  82   2.0000      -6.040668      -164.3749
  83   2.0000      -6.036510      -164.2618
  84   2.0000      -6.036407      -164.2590
  85   2.0000      -6.032477      -164.1521
  86   2.0000      -6.032197      -164.1444
  87   2.0000      -6.031408      -164.1230
  88   2.0000      -6.029122      -164.0607
  89   2.0000      -6.027357      -164.0127
  90   2.0000      -6.023869      -163.9178
  91   2.0000      -6.008303      -163.4942
  92   2.0000      -6.005575      -163.4200
  93   2.0000      -6.004876      -163.4010
  94   2.0000      -6.003977      -163.3765
  95   2.0000      -6.002920      -163.3478
  96   2.0000      -6.001408      -163.3066
  97   2.0000      -6.001249      -163.3023
  98   2.0000      -6.000641      -163.2857
  99   2.0000      -5.998698      -163.2329
 100   2.0000      -5.998413      -163.2251
 101   2.0000      -5.997558      -163.2019
 102   2.0000      -5.995740      -163.1524
 103   2.0000      -5.989611      -162.9856
 104   2.0000      -5.985477      -162.8731
 105   2.0000      -5.979805      -162.7188
 106   2.0000      -2.744915       -74.6929
 107   2.0000      -2.740868       -74.5828
 108   2.0000      -2.740674       -74.5775
 109   2.0000      -2.729106       -74.2627
 110   2.0000      -2.729088       -74.2623
 111   2.0000      -1.126752       -30.6605
 112   2.0000      -1.079995       -29.3881
 113   2.0000      -1.071962       -29.1696
 114   2.0000      -1.021970       -27.8092
 115   2.0000      -1.012826       -27.5604
 116   2.0000      -0.993415       -27.0322
 117   2.0000      -0.988407       -26.8959
 118   2.0000      -0.987055       -26.8591
 119   2.0000      -0.980958       -26.6932
 120   2.0000      -0.976829       -26.5809
 121   2.0000      -0.961665       -26.1682
 122   2.0000      -0.959707       -26.1150
 123   2.0000      -0.956879       -26.0380
 124   2.0000      -0.945576       -25.7304
 125   2.0000      -0.935940       -25.4682
 126   2.0000      -0.910356       -24.7720
 127   2.0000      -0.907610       -24.6973
 128   2.0000      -0.897697       -24.4276
 129   2.0000      -0.892007       -24.2727
 130   2.0000      -0.887869       -24.1601
 131   2.0000      -0.886515       -24.1233
 132   2.0000      -0.884965       -24.0811
 133   2.0000      -0.873944       -23.7812
 134   2.0000      -0.862003       -23.4563
 135   2.0000      -0.851238       -23.1634
 136   2.0000      -0.844975       -22.9929
 137   2.0000      -0.836698       -22.7677
 138   2.0000      -0.831095       -22.6152
 139   2.0000      -0.828469       -22.5438
 140   2.0000      -0.826946       -22.5023
 141   2.0000      -0.821714       -22.3600
 142   2.0000      -0.812778       -22.1168
 143   2.0000      -0.809456       -22.0264
 144   2.0000      -0.803089       -21.8532
 145   2.0000      -0.795032       -21.6339
 146   2.0000      -0.790287       -21.5048
 147   2.0000      -0.775691       -21.1076
 148   2.0000      -0.764393       -20.8002
 149   2.0000      -0.756981       -20.5985
 150   2.0000      -0.744070       -20.2472
 151   2.0000      -0.742541       -20.2056
 152   2.0000      -0.728453       -19.8222
 153   2.0000      -0.716501       -19.4970
 154   2.0000      -0.699379       -19.0311
 155   2.0000      -0.695096       -18.9145
 156   2.0000      -0.688989       -18.7483
 157   2.0000      -0.685449       -18.6520
 158   2.0000      -0.677082       -18.4243
 159   2.0000      -0.673076       -18.3153
 160   2.0000      -0.663381       -18.0515
 161   2.0000      -0.659699       -17.9513
 162   2.0000      -0.657225       -17.8840
 163   2.0000      -0.656557       -17.8658
 164   2.0000      -0.651384       -17.7251
 165   2.0000      -0.641477       -17.4555
 166   2.0000      -0.633308       -17.2332
 167   2.0000      -0.622195       -16.9308
 168   2.0000      -0.620163       -16.8755
 169   2.0000      -0.615043       -16.7362
 170   2.0000      -0.612091       -16.6558
 171   2.0000      -0.606792       -16.5116
 172   2.0000      -0.603330       -16.4174
 173   2.0000      -0.598001       -16.2724
 174   2.0000      -0.596791       -16.2395
 175   2.0000      -0.593143       -16.1402
 176   2.0000      -0.588347       -16.0097
 177   2.0000      -0.584928       -15.9167
 178   2.0000      -0.579012       -15.7557
 179   2.0000      -0.573015       -15.5925
 180   2.0000      -0.570406       -15.5215
 181   2.0000      -0.559913       -15.2360
 182   2.0000      -0.554219       -15.0811
 183   2.0000      -0.550067       -14.9681
 184   2.0000      -0.548857       -14.9352
 185   2.0000      -0.545489       -14.8435
 186   2.0000      -0.541052       -14.7228
 187   2.0000      -0.538733       -14.6597
 188   2.0000      -0.536423       -14.5968
 189   2.0000      -0.534704       -14.5500
 190   2.0000      -0.531755       -14.4698
 191   2.0000      -0.523923       -14.2567
 192   2.0000      -0.522550       -14.2193
 193   2.0000      -0.521378       -14.1874
 194   2.0000      -0.513159       -13.9638
 195   2.0000      -0.511752       -13.9255
 196   2.0000      -0.509595       -13.8668
 197   2.0000      -0.507762       -13.8169
 198   2.0000      -0.505914       -13.7666
 199   2.0000      -0.501865       -13.6564
 200   2.0000      -0.495295       -13.4777
 201   2.0000      -0.493639       -13.4326
 202   2.0000      -0.492579       -13.4038
 203   2.0000      -0.489263       -13.3135
 204   2.0000      -0.488198       -13.2846
 205   2.0000      -0.486662       -13.2427
 206   2.0000      -0.483969       -13.1695
 207   2.0000      -0.482475       -13.1288
 208   2.0000      -0.480414       -13.0727
 209   2.0000      -0.478655       -13.0249
 210   2.0000      -0.475420       -12.9368
 211   2.0000      -0.474072       -12.9002
 212   2.0000      -0.472901       -12.8683
 213   2.0000      -0.466096       -12.6831
 214   2.0000      -0.463337       -12.6081
 215   2.0000      -0.460144       -12.5212
 216   2.0000      -0.458183       -12.4678
 217   2.0000      -0.457324       -12.4444
 218   2.0000      -0.455521       -12.3954
 219   2.0000      -0.450887       -12.2693
 220   2.0000      -0.448981       -12.2174
 221   2.0000      -0.448201       -12.1962
 222   2.0000      -0.447005       -12.1636
 223   2.0000      -0.444816       -12.1041
 224   2.0000      -0.443307       -12.0630
 225   2.0000      -0.440034       -11.9739
 226   2.0000      -0.438966       -11.9449
 227   2.0000      -0.437845       -11.9144
 228   2.0000      -0.435196       -11.8423
 229   2.0000      -0.429134       -11.6773
 230   2.0000      -0.427040       -11.6203
 231   2.0000      -0.426496       -11.6056
 232   2.0000      -0.425453       -11.5772
 233   2.0000      -0.423560       -11.5256
 234   2.0000      -0.422445       -11.4953
 235   2.0000      -0.419474       -11.4145
 236   2.0000      -0.418167       -11.3789
 237   2.0000      -0.413046       -11.2396
 238   2.0000      -0.409761       -11.1502
 239   2.0000      -0.407068       -11.0769
 240   2.0000      -0.405170       -11.0252
 241   2.0000      -0.400987       -10.9114
 242   2.0000      -0.394416       -10.7326
 243   2.0000      -0.387059       -10.5324
 244   2.0000      -0.386457       -10.5160
 245   2.0000      -0.375744       -10.2245
 246   2.0000      -0.374969       -10.2034
 247   2.0000      -0.370823       -10.0906
 248   2.0000      -0.363954        -9.9037
 249   2.0000      -0.363047        -9.8790
 250   2.0000      -0.355028        -9.6608
 251   2.0000      -0.353186        -9.6107
 252   2.0000      -0.351258        -9.5582
 253   2.0000      -0.337310        -9.1787
 254   2.0000      -0.335076        -9.1179
 255   2.0000      -0.329420        -8.9640
 256   2.0000      -0.323033        -8.7902
 257   2.0000      -0.316634        -8.6160
 258   2.0000      -0.313939        -8.5427
 259   2.0000      -0.311894        -8.4871
 260   2.0000      -0.309154        -8.4125
 261   2.0000      -0.307525        -8.3682
 262   2.0000      -0.295166        -8.0319
 263   2.0000      -0.292064        -7.9475
 264   2.0000      -0.288481        -7.8500
 265   2.0000      -0.279044        -7.5932
 266   2.0000      -0.256856        -6.9894
 267   2.0000      -0.239042        -6.5047
 268   2.0000      -0.215933        -5.8758
 269   0.0000      -0.094352        -2.5675
 270   0.0000      -0.061329        -1.6688
 271   0.0000      -0.044330        -1.2063
 272   0.0000      -0.036929        -1.0049
 273   0.0000      -0.020740        -0.5644

MULLIKEN ATOMIC CHARGES
-----------------------
   0 C :    0.214667
   1 C :   -0.192909
   2 C :    0.031357
   3 C :   -0.015792
   4 C :   -0.043711
   5 S :    0.145409
   6 C :   -0.040599
   7 C :   -0.006644
   8 C :    0.030728
   9 C :   -0.095027
  10 S :    0.133878
  11 C :    0.010805
  12 C :    0.029184
  13 C :   -0.090242
  14 C :    0.024975
  15 C :   -0.001151
  16 C :   -0.042448
  17 S :    0.124342
  18 C :   -0.022675
  19 C :    0.012495
  20 C :   -0.001690
  21 C :   -0.056405
  22 S :    0.091434
  23 C :   -0.013131
  24 C :   -0.066110
  25 S :    0.011277
  26 C :   -0.109986
  27 C :   -0.186500
  28 C :    0.118337
  29 C :    0.164453
  30 C :   -0.063478
  31 C :    0.015577
  32 C :    0.039935
  33 C :   -0.096054
  34 C :    0.100337
  35 C :   -0.117099
  36 C :    0.049176
  37 N :   -0.061566
  38 C :    0.029874
  39 S :    0.094556
  40 C :    0.054695
  41 C :   -0.104810
  42 C :    0.011852
  43 N :   -0.060870
  44 C :    0.016968
  45 S :    0.117153
  46 C :   -0.103778
  47 C :   -0.045863
  48 C :    0.302655
  49 C :   -0.349494
  50 C :   -0.187610
  51 N :    0.153789
  52 C :   -0.187782
  53 N :    0.152387
  54 C :    0.016881
  55 C :   -0.018005
  56 C :    0.153040
  57 O :   -0.142295
  58 C :   -0.069977
  59 C :    0.117164
  60 C :   -0.092541
  61 C :   -0.019067
  62 S :    0.186230
  63 C :   -0.122040
  64 C :    0.038812
  65 Br:    0.023305
  66 H :    0.011886
  67 H :    0.009989
  68 H :   -0.030398
  69 H :   -0.025171
  70 H :   -0.023579
  71 H :   -0.024053
  72 H :   -0.004813
  73 H :   -0.009762
  74 H :   -0.023531
  75 H :   -0.026117
  76 H :   -0.025769
  77 H :   -0.026087
  78 H :   -0.014963
  79 H :    0.046588
  80 H :    0.016315
  81 H :    0.024067
  82 H :    0.041277
  83 H :    0.002391
  84 H :    0.005596
  85 H :    0.009627
  86 H :   -0.020716
  87 H :    0.043914
  88 H :    0.045374
  89 H :    0.031056
  90 H :   -0.012560
  91 H :   -0.006835
  92 H :   -0.004106
Sum of atomic charges:   -0.0000000

LOEWDIN ATOMIC CHARGES
----------------------
   0 C :   -0.041243
   1 C :   -0.190110
   2 C :   -0.070644
   3 C :   -0.063144
   4 C :   -0.189642
   5 S :    0.440115
   6 C :   -0.184213
   7 C :   -0.064136
   8 C :   -0.050625
   9 C :   -0.188875
  10 S :    0.438567
  11 C :   -0.056904
  12 C :   -0.048421
  13 C :   -0.191224
  14 C :   -0.048883
  15 C :   -0.067836
  16 C :   -0.180091
  17 S :    0.436110
  18 C :   -0.195094
  19 C :   -0.056126
  20 C :   -0.066564
  21 C :   -0.169098
  22 S :    0.427555
  23 C :   -0.091746
  24 C :   -0.144704
  25 S :    0.321054
  26 C :   -0.109742
  27 C :   -0.029462
  28 C :   -0.047130
  29 C :   -0.054982
  30 C :   -0.003531
  31 C :   -0.023942
  32 C :    0.012287
  33 C :   -0.045673
  34 C :   -0.013293
  35 C :   -0.166852
  36 C :   -0.005837
  37 N :   -0.082125
  38 C :   -0.093141
  39 S :    0.396745
  40 C :   -0.058629
  41 C :   -0.148939
  42 C :   -0.034379
  43 N :   -0.080550
  44 C :   -0.100757
  45 S :    0.408486
  46 C :    0.066342
  47 C :   -0.073303
  48 C :    0.076763
  49 C :   -0.137816
  50 C :   -0.017957
  51 N :   -0.053090
  52 C :   -0.020854
  53 N :   -0.050624
  54 C :   -0.020966
  55 C :   -0.046131
  56 C :    0.085816
  57 O :   -0.135811
  58 C :    0.020440
  59 C :   -0.031807
  60 C :   -0.143968
  61 C :   -0.009768
  62 S :    0.431667
  63 C :   -0.271179
  64 C :   -0.070879
  65 Br:    0.136734
  66 H :    0.034799
  67 H :    0.032420
  68 H :    0.024942
  69 H :    0.026269
  70 H :    0.026988
  71 H :    0.027894
  72 H :    0.036189
  73 H :    0.036489
  74 H :    0.027663
  75 H :    0.026533
  76 H :    0.027292
  77 H :    0.026246
  78 H :    0.036065
  79 H :    0.029537
  80 H :    0.031266
  81 H :    0.037766
  82 H :    0.043312
  83 H :    0.031174
  84 H :    0.029377
  85 H :    0.029289
  86 H :    0.019382
  87 H :    0.021892
  88 H :    0.021948
  89 H :    0.039184
  90 H :    0.040290
  91 H :    0.040922
  92 H :    0.038631

  Mayer bond orders larger than 0.100000
B(  0-C ,  1-C ) :   1.0595 B(  0-C , 26-C ) :   0.9950 B(  0-C , 66-H ) :   0.9150
B(  0-C , 67-H ) :   0.9133 B(  1-C ,  2-C ) :   1.5726 B(  1-C ,  4-C ) :   0.1015
B(  1-C ,  5-S ) :   1.1571 B(  2-C ,  3-C ) :   1.2435 B(  2-C , 68-H ) :   0.9977
B(  3-C ,  4-C ) :   1.5446 B(  3-C , 69-H ) :   0.9968 B(  4-C ,  5-S ) :   1.1273
B(  4-C ,  6-C ) :   1.0951 B(  6-C ,  7-C ) :   1.5194 B(  6-C ,  9-C ) :   0.1039
B(  6-C , 10-S ) :   1.1309 B(  7-C ,  8-C ) :   1.2673 B(  7-C , 70-H ) :   0.9959
B(  8-C ,  9-C ) :   1.4914 B(  8-C , 71-H ) :   0.9987 B(  9-C , 10-S ) :   1.1199
B(  9-C , 11-C ) :   1.0880 B( 11-C , 12-C ) :   1.7546 B( 11-C , 72-H ) :   0.9566
B( 12-C , 13-C ) :   1.1137 B( 12-C , 73-H ) :   0.9555 B( 13-C , 14-C ) :   1.4805
B( 13-C , 16-C ) :   0.1015 B( 13-C , 17-S ) :   1.1113 B( 14-C , 15-C ) :   1.2722
B( 14-C , 74-H ) :   0.9979 B( 15-C , 16-C ) :   1.5060 B( 15-C , 75-H ) :   0.9959
B( 16-C , 17-S ) :   1.1298 B( 16-C , 18-C ) :   1.1111 B( 18-C , 19-C ) :   1.5013
B( 18-C , 22-S ) :   1.1123 B( 19-C , 20-C ) :   1.2803 B( 19-C , 76-H ) :   0.9973
B( 20-C , 21-C ) :   1.4551 B( 20-C , 77-H ) :   0.9994 B( 21-C , 22-S ) :   1.1115
B( 21-C , 23-C ) :   1.1561 B( 23-C , 24-C ) :   1.6552 B( 23-C , 78-H ) :   0.9591
B( 24-C , 25-S ) :   1.0261 B( 24-C , 29-C ) :   1.0764 B( 25-S , 26-C ) :   1.0028
B( 26-C , 27-C ) :   1.0104 B( 26-C , 79-H ) :   0.9043 B( 27-C , 28-C ) :   1.0999
B( 27-C , 29-C ) :   1.7290 B( 28-C , 80-H ) :   0.9486 B( 28-C , 81-H ) :   0.9391
B( 28-C , 82-H ) :   0.9407 B( 29-C , 30-C ) :   1.0167 B( 30-C , 31-C ) :   1.7252
B( 30-C , 83-H ) :   0.9629 B( 31-C , 32-C ) :   1.0899 B( 31-C , 84-H ) :   0.9899
B( 32-C , 33-C ) :   1.6644 B( 32-C , 85-H ) :   0.9633 B( 33-C , 34-C ) :   1.0983
B( 33-C , 86-H ) :   0.9717 B( 34-C , 35-C ) :   1.3510 B( 34-C , 40-C ) :   0.1001
B( 34-C , 42-C ) :   1.2836 B( 35-C , 36-C ) :   1.2971 B( 35-C , 39-S ) :   1.0649
B( 36-C , 37-N ) :   1.3239 B( 36-C , 40-C ) :   1.3184 B( 37-N , 38-C ) :   1.7504
B( 37-N , 39-S ) :   0.1078 B( 38-C , 39-S ) :   1.1201 B( 38-C , 87-H ) :   0.9629
B( 40-C , 41-C ) :   1.3507 B( 40-C , 46-C ) :   1.0848 B( 41-C , 42-C ) :   1.3016
B( 41-C , 45-S ) :   1.0892 B( 42-C , 43-N ) :   1.3208 B( 43-N , 44-C ) :   1.7559
B( 43-N , 45-S ) :   0.1061 B( 44-C , 45-S ) :   1.1120 B( 44-C , 88-H ) :   0.9643
B( 46-C , 47-C ) :   1.6724 B( 46-C , 89-H ) :   0.9285 B( 47-C , 48-C ) :   1.0656
B( 47-C , 56-C ) :   0.9252 B( 48-C , 49-C ) :   1.6371 B( 48-C , 54-C ) :   1.0083
B( 49-C , 50-C ) :   1.1405 B( 49-C , 52-C ) :   1.1451 B( 50-C , 51-N ) :   2.9700
B( 52-C , 53-N ) :   2.9675 B( 54-C , 55-C ) :   1.2748 B( 54-C , 61-C ) :   1.4012
B( 55-C , 56-C ) :   0.9417 B( 55-C , 58-C ) :   1.4260 B( 56-C , 57-O ) :   2.2337
B( 58-C , 59-C ) :   1.2452 B( 58-C , 90-H ) :   1.0162 B( 59-C , 60-C ) :   1.3055
B( 59-C , 64-C ) :   1.1626 B( 60-C , 61-C ) :   1.3367 B( 60-C , 62-S ) :   1.0847
B( 61-C , 91-H ) :   0.9785 B( 62-S , 63-C ) :   1.0866 B( 63-C , 64-C ) :   1.6174
B( 63-C , 65-Br) :   1.0180 B( 64-C , 92-H ) :   1.0004

-----------------------------------------------------------------------------
         ABSORPTION SPECTRUM VIA TRANSITION ELECTRIC DIPOLE MOMENTS
-----------------------------------------------------------------------------
State   Energy  Wavelength   fosc         T2         TX        TY        TZ
        (cm-1)    (nm)                  (au**2)     (au)      (au)      (au)
-----------------------------------------------------------------------------
   0   17468.5    572.5   0.067101654   1.26460  -0.35842  -0.26553  -1.03229
   1   19548.7    511.5   1.221351457  20.56834  -2.05155  -0.02108  -4.04463
   2   20824.1    480.2   0.114594596   1.81165   1.22625  -0.17752   0.52577
   3   23573.0    424.2   0.007783903   0.10871   0.12485   0.25526   0.16722
   4   24792.6    403.3   0.019931183   0.26466  -0.20125  -0.31265  -0.35554
   5   25613.3    390.4   0.035212253   0.45259  -0.02194  -0.64919  -0.17508
   6   26306.4    380.1   0.089390739   1.11868   0.37896  -0.95239   0.26082
   7   26717.7    374.3   0.114154880   1.40660  -0.26873   0.52505  -1.02893
   8   27439.0    364.4   0.107792382   1.29329   0.54622   0.43851   0.89590
   9   28118.8    355.6   1.089078677  12.75082   0.25306  -3.52307  -0.52419
  10   29349.0    340.7   0.418470836   4.69404   0.56802  -1.98648   0.65214
  11   29459.2    339.5   0.033791506   0.37763  -0.55308   0.20675  -0.17026
  12   29590.3    337.9   0.008980864   0.09992  -0.11042  -0.18114  -0.23433
  13   30632.0    326.5   0.138045579   1.48362  -0.79364   0.36098  -0.85055
  14   30752.5    325.2   0.021725675   0.23258  -0.05025   0.27355   0.39398
  15   31376.4    318.7   0.069501170   0.72923   0.41583   0.36870   0.64836
  16   31879.3    313.7   0.044991547   0.46462  -0.42136   0.10320  -0.52576
  17   32269.3    309.9   0.110771704   1.13010   0.70583  -0.27062   0.74744
  18   32377.1    308.9   0.004345295   0.04418  -0.06190  -0.04979  -0.19461
  19   33297.6    300.3   0.065970414   0.65225  -0.11786   0.78945   0.12297
  20   33521.5    298.3   0.368857497   3.62251   0.14802   1.88929   0.17664
  21   33720.1    296.6   0.301366517   2.94226  -0.67858   1.53944  -0.33453
  22   34019.0    294.0   0.055972183   0.54166  -0.30120   0.66791  -0.06950
  23   34203.1    292.4   0.056129888   0.54026  -0.10547   0.32882   0.64886
  24   34645.3    288.6   0.015246324   0.14488   0.18450   0.32063  -0.08963
  25   34959.1    286.0   0.049646844   0.46753  -0.41755  -0.00508  -0.54144
  26   35229.2    283.9   0.054302926   0.50745  -0.36699  -0.18559  -0.58166
  27   35679.3    280.3   0.088715725   0.81858   0.54152  -0.01327   0.72468
  28   35761.6    279.6   0.100034923   0.92090   0.31624  -0.57406  -0.70096
  29   35982.3    277.9   0.087897832   0.80420  -0.11657  -0.75129  -0.47558
  30   36360.6    275.0   0.062809640   0.56868  -0.03209   0.11847   0.74406
  31   37253.6    268.4   0.145215673   1.28328   0.86667   0.04503   0.72811
  32   37365.4    267.6   0.152912882   1.34726  -0.69363  -0.13958  -0.92014
  33   37822.2    264.4   0.260867655   2.27065   0.15124  -0.55644  -1.39217
  34   38130.3    262.3   0.053969991   0.46597   0.25560  -0.41578   0.47724
  35   38400.7    260.4   0.049406550   0.42357  -0.03472   0.27736   0.58774
  36   38631.0    258.9   0.016764829   0.14287  -0.11188  -0.14091  -0.33241
  37   38883.6    257.2   0.030477878   0.25804  -0.09926  -0.03563   0.49691
  38   39012.6    256.3   0.014794145   0.12484  -0.21552   0.03758  -0.27746
  39   39109.9    255.7   0.004143593   0.03488  -0.12308  -0.10482   0.09352
  40   39198.6    255.1   0.210588124   1.76864  -0.51287   0.18212  -1.21344
  41   39870.8    250.8   0.047982758   0.39619  -0.31919   0.10730  -0.53178
  42   39971.9    250.2   0.037575617   0.30948   0.17294  -0.37338   0.37437
  43   40179.9    248.9   0.030265623   0.24798  -0.08716  -0.34250  -0.35082

FINAL SINGLE POINT ENERGY     -8047.525550203809

DIPOLE MOMENT
-------------
                                X             Y             Z
Electronic contribution:    -85.29987     -63.38373    -190.88288
Nuclear contribution   :     85.60187      62.79115     192.11003
                        -----------------------------------------
Total Dipole Moment    :      0.30200      -0.59258       1.22714
                        -----------------------------------------
Magnitude (a.u.)       :      1.39579
Magnitude (Debye)      :      3.54782

Rotational constants in cm-1:     0.001569     0.000227     0.000203
Rotational constants in MHz :    47.044231     6.813382     6.085408

                             ****ORCA TERMINATED NORMALLY****
TOTAL RUN TIME: 0 days 0 hours 12 minutes 39 seconds 319 msec
