                         Program Version 4.2.0 -  RELEASE  -
|  1> # ORCA input file
|  2> # SCF done       -168.504302021711          0.000942738110
|  3> ! CAM-B3LYP def2-SVP def2/J RIJCOSX Grid4 TightSCF
|  4> %maxcore 5000
|  5> %tddft
|  6>     Mode sTDDFT
|  7>     Ethresh 5.0
|  8>     maxcore 5000
|  9> end
| 10>
| 11> %pal
| 12>   nprocs 6
| 13>   end
| 14> * xyz 0 1
| 15>    C        5.62447         0.59425         9.19925
| 16>    C        6.34932        -0.10942        10.11427
| 17>    S        6.95638        -1.61367         9.51760
| 18>    C        6.24086        -1.30188         7.99382
| 19>    C        5.55974        -0.09047         7.97336
| 20>    C        4.95629         0.09495         6.64817
| 21>    O        4.25012         0.99154         6.25135
| 22>    C        5.45458        -1.07070         5.84275
| 23>    C        6.09878        -2.00662         6.74916
| 24>    C        6.34990        -3.33985         6.55981
| 25>    C        7.01423        -4.09720         7.54473
| 26>    N        7.59113        -4.70275         8.33083
| 27>    C        5.92181        -4.07473         5.43808
| 28>    N        5.54135        -4.71562         4.56532
| 29>    C        5.36571        -1.02468         4.49310
| 30>    C        6.04454        -1.79232         3.49262
| 31>    C        5.50315        -1.89861         2.21106
| 32>    C        6.09579        -2.63217         1.19510
| 33>    C        7.31410        -3.29256         1.35584
| 34>    C        7.93725        -3.12802         2.61247
| 35>    C        7.30249        -2.41006         3.67280
| 36>    N        8.13754        -2.44464         4.72381
| 37>    N        9.17062        -3.12177         4.29403
| 38>    N        9.12603        -3.53716         3.06835
| 39>    C       10.28058        -3.43268         5.13899
| 40>    C        7.88111        -4.09738         0.32436
| 41>    C        8.87574        -5.07859         0.41009
| 42>    C        9.20359        -5.66659        -0.86963
| 43>    N       10.20808        -6.53614        -0.97398
| 44>    C       10.80997        -6.91957         0.12424
| 45>    C       11.86762        -7.94940        -0.00267
| 46>    O       12.17743        -8.45446        -1.06408
| 47>    C       12.46126        -8.39176         1.26962
| 48>    C       12.09671        -7.91469         2.46481
| 49>    C       11.09296        -6.85406         2.64698
| 50>    O       10.91131        -6.32138         3.72475
| 51>    C       10.40182        -6.42442         1.40924
| 52>    N        9.46190        -5.51962         1.52320
| 53>    C        8.41676        -5.17627        -1.91887
| 54>    S        7.33479        -3.96720        -1.31306
| 55>    C        8.43837        -5.52138        -3.30154
| 56>    C        7.85881        -4.70385        -4.27569
| 57>    C        7.91713        -4.97040        -5.63573
| 58>    C        8.57052        -6.09112        -6.15310
| 59>    C        9.14741        -6.95156        -5.18482
| 60>    C        9.06866        -6.69099        -3.78328
| 61>    N        9.66655        -7.71275        -3.15914
| 62>    N       10.08500        -8.48201        -4.11675
| 63>    N        9.81688        -8.10183        -5.33572
| 64>    C       10.82598        -9.67137        -3.83954
| 65>    C        8.71638        -6.48604        -7.51733
| 66>    C        8.30161        -5.96059        -8.70363
| 67>    C        8.58678        -6.62353        -9.98106
| 68>    C        9.25621        -7.79376       -10.22974
| 69>    C        9.41147        -8.25174       -11.55690
| 70>    N        9.53944        -8.63237       -12.63175
| 71>    C        9.85154        -8.66595        -9.29617
| 72>    N       10.36826        -9.44415        -8.62773
| 73>    C        8.00844        -5.79890       -11.00399
| 74>    C        7.39216        -4.68294       -10.45992
| 75>    C        6.81234        -3.84607       -11.42804
| 76>    C        7.00241        -4.34840       -12.68126
| 77>    S        7.88203        -5.83476       -12.71379
| 78>    C        7.53508        -4.71100        -8.99942
| 79>    O        7.11259        -3.87746        -8.22714
| 80>    H        5.16157         1.54433         9.39168
| 81>    H        6.56416         0.16371        11.12894
| 82>    H        4.71864        -0.23944         4.11169
| 83>    H        4.55204        -1.42475         2.01780
| 84>    H        5.58486        -2.71497         0.24667
| 85>    H       11.06219        -2.67872         5.03147
| 86>    H       10.66798        -4.40535         4.83418
| 87>    H        9.94178        -3.45835         6.17251
| 88>    H       13.22411        -9.15353         1.17886
| 89>    H       12.55537        -8.27372         3.37644
| 90>    H        7.35749        -3.80259        -3.95177
| 91>    H        7.45013        -4.27645        -6.31441
| 92>    H       11.43653        -9.90820        -4.70781
| 93>    H       10.14625       -10.50129        -3.63952
| 94>    H       11.44041        -9.48813        -2.95779
| 95>    H        9.27495        -7.41345        -7.58926
| 96>    H        6.28930        -2.93334       -11.21088
| 97>    H        6.67245        -3.92822       -13.61140
| 98> *
| 99>
|100>                          ****END OF INPUT****

CARTESIAN COORDINATES (ANGSTROEM)
---------------------------------
  C      5.624470    0.594250    9.199250
  C      6.349320   -0.109420   10.114270
  S      6.956380   -1.613670    9.517600
  C      6.240860   -1.301880    7.993820
  C      5.559740   -0.090470    7.973360
  C      4.956290    0.094950    6.648170
  O      4.250120    0.991540    6.251350
  C      5.454580   -1.070700    5.842750
  C      6.098780   -2.006620    6.749160
  C      6.349900   -3.339850    6.559810
  C      7.014230   -4.097200    7.544730
  N      7.591130   -4.702750    8.330830
  C      5.921810   -4.074730    5.438080
  N      5.541350   -4.715620    4.565320
  C      5.365710   -1.024680    4.493100
  C      6.044540   -1.792320    3.492620
  C      5.503150   -1.898610    2.211060
  C      6.095790   -2.632170    1.195100
  C      7.314100   -3.292560    1.355840
  C      7.937250   -3.128020    2.612470
  C      7.302490   -2.410060    3.672800
  N      8.137540   -2.444640    4.723810
  N      9.170620   -3.121770    4.294030
  N      9.126030   -3.537160    3.068350
  C     10.280580   -3.432680    5.138990
  C      7.881110   -4.097380    0.324360
  C      8.875740   -5.078590    0.410090
  C      9.203590   -5.666590   -0.869630
  N     10.208080   -6.536140   -0.973980
  C     10.809970   -6.919570    0.124240
  C     11.867620   -7.949400   -0.002670
  O     12.177430   -8.454460   -1.064080
  C     12.461260   -8.391760    1.269620
  C     12.096710   -7.914690    2.464810
  C     11.092960   -6.854060    2.646980
  O     10.911310   -6.321380    3.724750
  C     10.401820   -6.424420    1.409240
  N      9.461900   -5.519620    1.523200
  C      8.416760   -5.176270   -1.918870
  S      7.334790   -3.967200   -1.313060
  C      8.438370   -5.521380   -3.301540
  C      7.858810   -4.703850   -4.275690
  C      7.917130   -4.970400   -5.635730
  C      8.570520   -6.091120   -6.153100
  C      9.147410   -6.951560   -5.184820
  C      9.068660   -6.690990   -3.783280
  N      9.666550   -7.712750   -3.159140
  N     10.085000   -8.482010   -4.116750
  N      9.816880   -8.101830   -5.335720
  C     10.825980   -9.671370   -3.839540
  C      8.716380   -6.486040   -7.517330
  C      8.301610   -5.960590   -8.703630
  C      8.586780   -6.623530   -9.981060
  C      9.256210   -7.793760  -10.229740
  C      9.411470   -8.251740  -11.556900
  N      9.539440   -8.632370  -12.631750
  C      9.851540   -8.665950   -9.296170
  N     10.368260   -9.444150   -8.627730
  C      8.008440   -5.798900  -11.003990
  C      7.392160   -4.682940  -10.459920
  C      6.812340   -3.846070  -11.428040
  C      7.002410   -4.348400  -12.681260
  S      7.882030   -5.834760  -12.713790
  C      7.535080   -4.711000   -8.999420
  O      7.112590   -3.877460   -8.227140
  H      5.161570    1.544330    9.391680
  H      6.564160    0.163710   11.128940
  H      4.718640   -0.239440    4.111690
  H      4.552040   -1.424750    2.017800
  H      5.584860   -2.714970    0.246670
  H     11.062190   -2.678720    5.031470
  H     10.667980   -4.405350    4.834180
  H      9.941780   -3.458350    6.172510
  H     13.224110   -9.153530    1.178860
  H     12.555370   -8.273720    3.376440
  H      7.357490   -3.802590   -3.951770
  H      7.450130   -4.276450   -6.314410
  H     11.436530   -9.908200   -4.707810
  H     10.146250  -10.501290   -3.639520
  H     11.440410   -9.488130   -2.957790
  H      9.274950   -7.413450   -7.589260
  H      6.289300   -2.933340  -11.210880
  H      6.672450   -3.928220  -13.611400

 Total Charge           Charge          ....    0
 Multiplicity           Mult            ....    1
 Number of Electrons    NEL             ....  458
 Basis Dimension        Dim             .... 1012

ORBITAL ENERGIES
----------------

  NO   OCC          E(Eh)            E(eV)
   0   2.0000     -88.996095     -2421.7069
   1   2.0000     -88.985842     -2421.4279
   2   2.0000     -88.983997     -2421.3777
   3   2.0000     -19.230839      -523.2977
   4   2.0000     -19.230425      -523.2865
   5   2.0000     -19.221389      -523.0406
   6   2.0000     -19.214454      -522.8519
   7   2.0000     -14.541650      -395.6984
   8   2.0000     -14.537126      -395.5753
   9   2.0000     -14.438568      -392.8934
  10   2.0000     -14.438259      -392.8850
  11   2.0000     -14.436572      -392.8391
  12   2.0000     -14.436209      -392.8292
  13   2.0000     -14.434646      -392.7867
  14   2.0000     -14.433363      -392.7518
  15   2.0000     -14.414129      -392.2284
  16   2.0000     -14.413581      -392.2135
  17   2.0000     -14.412673      -392.1888
  18   2.0000     -14.408444      -392.0737
  19   2.0000     -10.379091      -282.4294
  20   2.0000     -10.378821      -282.4221
  21   2.0000     -10.375899      -282.3426
  22   2.0000     -10.368039      -282.1287
  23   2.0000     -10.345481      -281.5149
  24   2.0000     -10.342468      -281.4329
  25   2.0000     -10.339018      -281.3390
  26   2.0000     -10.337992      -281.3111
  27   2.0000     -10.335240      -281.2362
  28   2.0000     -10.334960      -281.2286
  29   2.0000     -10.332354      -281.1576
  30   2.0000     -10.331818      -281.1430
  31   2.0000     -10.331120      -281.1241
  32   2.0000     -10.330875      -281.1174
  33   2.0000     -10.324819      -280.9526
  34   2.0000     -10.323942      -280.9287
  35   2.0000     -10.318979      -280.7937
  36   2.0000     -10.316184      -280.7176
  37   2.0000     -10.315270      -280.6928
  38   2.0000     -10.314949      -280.6840
  39   2.0000     -10.314605      -280.6747
  40   2.0000     -10.314550      -280.6732
  41   2.0000     -10.314333      -280.6673
  42   2.0000     -10.312032      -280.6047
  43   2.0000     -10.311314      -280.5851
  44   2.0000     -10.311116      -280.5797
  45   2.0000     -10.310577      -280.5651
  46   2.0000     -10.309197      -280.5275
  47   2.0000     -10.307601      -280.4841
  48   2.0000     -10.306809      -280.4625
  49   2.0000     -10.306222      -280.4465
  50   2.0000     -10.303803      -280.3807
  51   2.0000     -10.303668      -280.3771
  52   2.0000     -10.303120      -280.3621
  53   2.0000     -10.301532      -280.3189
  54   2.0000     -10.300574      -280.2929
  55   2.0000     -10.297817      -280.2179
  56   2.0000     -10.295939      -280.1667
  57   2.0000     -10.295927      -280.1664
  58   2.0000     -10.295725      -280.1609
  59   2.0000     -10.295563      -280.1565
  60   2.0000     -10.294794      -280.1356
  61   2.0000     -10.293180      -280.0917
  62   2.0000     -10.292193      -280.0648
  63   2.0000     -10.288166      -279.9552
  64   2.0000     -10.282228      -279.7936
  65   2.0000      -8.090572      -220.1557
  66   2.0000      -8.080354      -219.8776
  67   2.0000      -8.078657      -219.8314
  68   2.0000      -6.059380      -164.8841
  69   2.0000      -6.055317      -164.7736
  70   2.0000      -6.053738      -164.7306
  71   2.0000      -6.049678      -164.6201
  72   2.0000      -6.047977      -164.5738
  73   2.0000      -6.045068      -164.4947
  74   2.0000      -6.043390      -164.4490
  75   2.0000      -6.042914      -164.4360
  76   2.0000      -6.041231      -164.3903
  77   2.0000      -1.220053       -33.1993
  78   2.0000      -1.215968       -33.0882
  79   2.0000      -1.145586       -31.1730
  80   2.0000      -1.141674       -31.0665
  81   2.0000      -1.136599       -30.9284
  82   2.0000      -1.129697       -30.7406
  83   2.0000      -1.094990       -29.7962
  84   2.0000      -1.027071       -27.9480
  85   2.0000      -1.024479       -27.8775
  86   2.0000      -1.020729       -27.7754
  87   2.0000      -1.009801       -27.4781
  88   2.0000      -1.004983       -27.3470
  89   2.0000      -1.003780       -27.3142
  90   2.0000      -0.994067       -27.0499
  91   2.0000      -0.991223       -26.9725
  92   2.0000      -0.988577       -26.9005
  93   2.0000      -0.988294       -26.8928
  94   2.0000      -0.984429       -26.7877
  95   2.0000      -0.976837       -26.5811
  96   2.0000      -0.959375       -26.1059
  97   2.0000      -0.955935       -26.0123
  98   2.0000      -0.940875       -25.6025
  99   2.0000      -0.927961       -25.2511
 100   2.0000      -0.922150       -25.0930
 101   2.0000      -0.911949       -24.8154
 102   2.0000      -0.902891       -24.5689
 103   2.0000      -0.897405       -24.4196
 104   2.0000      -0.890229       -24.2244
 105   2.0000      -0.870237       -23.6804
 106   2.0000      -0.862218       -23.4621
 107   2.0000      -0.852129       -23.1876
 108   2.0000      -0.850032       -23.1305
 109   2.0000      -0.839758       -22.8510
 110   2.0000      -0.820703       -22.3325
 111   2.0000      -0.815541       -22.1920
 112   2.0000      -0.810288       -22.0491
 113   2.0000      -0.792601       -21.5678
 114   2.0000      -0.787437       -21.4273
 115   2.0000      -0.772681       -21.0257
 116   2.0000      -0.767037       -20.8721
 117   2.0000      -0.758763       -20.6470
 118   2.0000      -0.754590       -20.5334
 119   2.0000      -0.741777       -20.1848
 120   2.0000      -0.730172       -19.8690
 121   2.0000      -0.725646       -19.7458
 122   2.0000      -0.724391       -19.7117
 123   2.0000      -0.712654       -19.3923
 124   2.0000      -0.701986       -19.1020
 125   2.0000      -0.687139       -18.6980
 126   2.0000      -0.686788       -18.6885
 127   2.0000      -0.677452       -18.4344
 128   2.0000      -0.673990       -18.3402
 129   2.0000      -0.669356       -18.2141
 130   2.0000      -0.666622       -18.1397
 131   2.0000      -0.662145       -18.0179
 132   2.0000      -0.653896       -17.7934
 133   2.0000      -0.642251       -17.4765
 134   2.0000      -0.632425       -17.2092
 135   2.0000      -0.626235       -17.0407
 136   2.0000      -0.625248       -17.0139
 137   2.0000      -0.619220       -16.8498
 138   2.0000      -0.611029       -16.6270
 139   2.0000      -0.607809       -16.5393
 140   2.0000      -0.605779       -16.4841
 141   2.0000      -0.603416       -16.4198
 142   2.0000      -0.600586       -16.3428
 143   2.0000      -0.597501       -16.2588
 144   2.0000      -0.597108       -16.2481
 145   2.0000      -0.592707       -16.1284
 146   2.0000      -0.589779       -16.0487
 147   2.0000      -0.575059       -15.6482
 148   2.0000      -0.574159       -15.6237
 149   2.0000      -0.563692       -15.3388
 150   2.0000      -0.562816       -15.3150
 151   2.0000      -0.559992       -15.2382
 152   2.0000      -0.557499       -15.1703
 153   2.0000      -0.549539       -14.9537
 154   2.0000      -0.547006       -14.8848
 155   2.0000      -0.542634       -14.7658
 156   2.0000      -0.539117       -14.6701
 157   2.0000      -0.536018       -14.5858
 158   2.0000      -0.531989       -14.4761
 159   2.0000      -0.530685       -14.4407
 160   2.0000      -0.524751       -14.2792
 161   2.0000      -0.523580       -14.2473
 162   2.0000      -0.520578       -14.1657
 163   2.0000      -0.518724       -14.1152
 164   2.0000      -0.515723       -14.0335
 165   2.0000      -0.511453       -13.9173
 166   2.0000      -0.505617       -13.7585
 167   2.0000      -0.502711       -13.6795
 168   2.0000      -0.500688       -13.6244
 169   2.0000      -0.498838       -13.5741
 170   2.0000      -0.495140       -13.4734
 171   2.0000      -0.494292       -13.4504
 172   2.0000      -0.493289       -13.4231
 173   2.0000      -0.491717       -13.3803
 174   2.0000      -0.487274       -13.2594
 175   2.0000      -0.486096       -13.2273
 176   2.0000      -0.483494       -13.1565
 177   2.0000      -0.479022       -13.0349
 178   2.0000      -0.477410       -12.9910
 179   2.0000      -0.474646       -12.9158
 180   2.0000      -0.473919       -12.8960
 181   2.0000      -0.472459       -12.8563
 182   2.0000      -0.467530       -12.7222
 183   2.0000      -0.465372       -12.6634
 184   2.0000      -0.461404       -12.5554
 185   2.0000      -0.457593       -12.4517
 186   2.0000      -0.455951       -12.4071
 187   2.0000      -0.452953       -12.3255
 188   2.0000      -0.451566       -12.2877
 189   2.0000      -0.448177       -12.1955
 190   2.0000      -0.444945       -12.1076
 191   2.0000      -0.443785       -12.0760
 192   2.0000      -0.441770       -12.0212
 193   2.0000      -0.439129       -11.9493
 194   2.0000      -0.436807       -11.8861
 195   2.0000      -0.434156       -11.8140
 196   2.0000      -0.424796       -11.5593
 197   2.0000      -0.424184       -11.5426
 198   2.0000      -0.420863       -11.4523
 199   2.0000      -0.418527       -11.3887
 200   2.0000      -0.417715       -11.3666
 201   2.0000      -0.417236       -11.3536
 202   2.0000      -0.413480       -11.2514
 203   2.0000      -0.407539       -11.0897
 204   2.0000      -0.404704       -11.0126
 205   2.0000      -0.399504       -10.8711
 206   2.0000      -0.394154       -10.7255
 207   2.0000      -0.389752       -10.6057
 208   2.0000      -0.382088       -10.3971
 209   2.0000      -0.376724       -10.2512
 210   2.0000      -0.375946       -10.2300
 211   2.0000      -0.363067        -9.8796
 212   2.0000      -0.354410        -9.6440
 213   2.0000      -0.352965        -9.6047
 214   2.0000      -0.350828        -9.5465
 215   2.0000      -0.345385        -9.3984
 216   2.0000      -0.344338        -9.3699
 217   2.0000      -0.342709        -9.3256
 218   2.0000      -0.340888        -9.2760
 219   2.0000      -0.339871        -9.2484
 220   2.0000      -0.336541        -9.1577
 221   2.0000      -0.329441        -8.9646
 222   2.0000      -0.328670        -8.9436
 223   2.0000      -0.326371        -8.8810
 224   2.0000      -0.307892        -8.3782
 225   2.0000      -0.305235        -8.3059
 226   2.0000      -0.294818        -8.0224
 227   2.0000      -0.289697        -7.8830
 228   2.0000      -0.251824        -6.8525
 229   0.0000      -0.109949        -2.9919
 230   0.0000      -0.093451        -2.5429
 231   0.0000      -0.079851        -2.1728
 232   0.0000      -0.075470        -2.0536
 233   0.0000      -0.058769        -1.5992

MULLIKEN ATOMIC CHARGES
-----------------------
   0 C :    0.018430
   1 C :   -0.056215
   2 S :    0.208861
   3 C :   -0.166909
   4 C :    0.021079
   5 C :    0.141271
   6 O :   -0.138152
   7 C :   -0.117872
   8 C :    0.269585
   9 C :   -0.299140
  10 C :   -0.211210
  11 N :    0.154968
  12 C :   -0.210431
  13 N :    0.173520
  14 C :   -0.011067
  15 C :    0.069224
  16 C :   -0.011189
  17 C :   -0.049473
  18 C :    0.088798
  19 C :    0.000819
  20 C :   -0.036820
  21 N :   -0.070237
  22 N :   -0.058654
  23 N :   -0.012525
  24 C :    0.133143
  25 C :   -0.174033
  26 C :    0.032981
  27 C :    0.023724
  28 N :    0.102820
  29 C :   -0.131577
  30 C :    0.160705
  31 O :   -0.119932
  32 C :   -0.016478
  33 C :   -0.005790
  34 C :    0.156194
  35 O :   -0.122475
  36 C :   -0.123097
  37 N :    0.106733
  38 C :   -0.167406
  39 S :    0.188617
  40 C :    0.097003
  41 C :   -0.056834
  42 C :   -0.033376
  43 C :    0.041016
  44 C :   -0.022706
  45 C :   -0.017605
  46 N :   -0.022386
  47 N :   -0.058438
  48 N :   -0.055680
  49 C :    0.136634
  50 C :   -0.072037
  51 C :   -0.058616
  52 C :    0.250967
  53 C :   -0.340943
  54 C :   -0.211338
  55 N :    0.159026
  56 C :   -0.188172
  57 N :    0.172095
  58 C :   -0.153307
  59 C :    0.023934
  60 C :    0.012449
  61 C :   -0.050856
  62 S :    0.220651
  63 C :    0.175653
  64 O :   -0.145848
  65 H :    0.004625
  66 H :    0.040440
  67 H :    0.018061
  68 H :   -0.013713
  69 H :   -0.013073
  70 H :    0.045807
  71 H :    0.064809
  72 H :    0.051066
  73 H :    0.018635
  74 H :    0.018467
  75 H :   -0.015147
  76 H :    0.001790
  77 H :    0.056308
  78 H :    0.046071
  79 H :    0.062609
  80 H :    0.025373
  81 H :    0.003561
  82 H :    0.042236
Sum of atomic charges:    0.0000000

LOEWDIN ATOMIC CHARGES
----------------------
   0 C :   -0.035806
   1 C :   -0.158174
   2 S :    0.501618
   3 C :   -0.166315
   4 C :   -0.076059
   5 C :    0.084652
   6 O :   -0.137380
   7 C :   -0.075167
   8 C :    0.057844
   9 C :   -0.131640
  10 C :   -0.031400
  11 N :   -0.053192
  12 C :   -0.022032
  13 N :   -0.049510
  14 C :    0.061243
  15 C :   -0.039781
  16 C :    0.012939
  17 C :   -0.027954
  18 C :   -0.021814
  19 C :   -0.041953
  20 C :   -0.041153
  21 N :   -0.099499
  22 N :    0.169245
  23 N :   -0.048169
  24 C :    0.027861
  25 C :   -0.158827
  26 C :   -0.039458
  27 C :   -0.039592
  28 N :    0.029405
  29 C :   -0.046952
  30 C :    0.067447
  31 O :   -0.108356
  32 C :   -0.011955
  33 C :   -0.010119
  34 C :    0.069226
  35 O :   -0.107290
  36 C :   -0.046637
  37 N :    0.029806
  38 C :   -0.161522
  39 S :    0.532250
  40 C :   -0.022355
  41 C :   -0.033647
  42 C :    0.016675
  43 C :   -0.049505
  44 C :   -0.038303
  45 C :   -0.052953
  46 N :   -0.057659
  47 N :    0.168496
  48 N :   -0.094357
  49 C :    0.029229
  50 C :    0.074674
  51 C :   -0.086218
  52 C :    0.061780
  53 C :   -0.138760
  54 C :   -0.033183
  55 N :   -0.048499
  56 C :   -0.031227
  57 N :   -0.036000
  58 C :   -0.175685
  59 C :   -0.069751
  60 C :   -0.036491
  61 C :   -0.153823
  62 S :    0.510002
  63 C :    0.088075
  64 O :   -0.134972
  65 H :    0.041780
  66 H :    0.029085
  67 H :    0.046516
  68 H :    0.036070
  69 H :    0.024339
  70 H :    0.037414
  71 H :    0.042400
  72 H :    0.040300
  73 H :    0.045265
  74 H :    0.045579
  75 H :    0.023054
  76 H :    0.031905
  77 H :    0.043893
  78 H :    0.038477
  79 H :    0.040795
  80 H :    0.050191
  81 H :    0.041500
  82 H :    0.030062

  Mayer bond orders larger than 0.100000
B(  0-C ,  1-C ) :   1.5557 B(  0-C ,  4-C ) :   1.2683 B(  0-C , 65-H ) :   1.0065
B(  1-C ,  2-S ) :   1.1590 B(  1-C , 66-H ) :   0.9683 B(  2-S ,  3-C ) :   1.1550
B(  3-C ,  4-C ) :   1.4441 B(  3-C ,  8-C ) :   1.0917 B(  4-C ,  5-C ) :   0.9448
B(  5-C ,  6-O ) :   2.2597 B(  5-C ,  7-C ) :   0.9226 B(  7-C ,  8-C ) :   1.0310
B(  7-C , 14-C ) :   1.7195 B(  8-C ,  9-C ) :   1.6575 B(  9-C , 10-C ) :   1.1437
B(  9-C , 12-C ) :   1.1545 B( 10-C , 11-N ) :   2.9945 B( 12-C , 13-N ) :   3.0137
B( 14-C , 15-C ) :   1.0701 B( 14-C , 67-H ) :   0.9420 B( 15-C , 16-C ) :   1.3886
B( 15-C , 18-C ) :   0.1027 B( 15-C , 20-C ) :   1.1847 B( 16-C , 17-C ) :   1.3000
B( 16-C , 68-H ) :   0.9937 B( 17-C , 18-C ) :   1.3912 B( 17-C , 69-H ) :   0.9847
B( 18-C , 19-C ) :   1.2164 B( 18-C , 25-C ) :   1.1077 B( 19-C , 20-C ) :   1.2206
B( 19-C , 23-N ) :   1.4632 B( 20-C , 21-N ) :   1.4684 B( 21-N , 22-N ) :   1.2045
B( 21-N , 23-N ) :   0.1509 B( 22-N , 23-N ) :   1.2639 B( 22-N , 24-C ) :   0.9461
B( 24-C , 70-H ) :   0.9651 B( 24-C , 71-H ) :   0.9502 B( 24-C , 72-H ) :   0.9645
B( 25-C , 26-C ) :   1.3428 B( 25-C , 38-C ) :   0.1385 B( 25-C , 39-S ) :   1.1825
B( 26-C , 27-C ) :   1.1713 B( 26-C , 37-N ) :   1.4442 B( 27-C , 28-N ) :   1.4492
B( 27-C , 38-C ) :   1.3400 B( 28-N , 29-C ) :   1.7253 B( 29-C , 30-C ) :   0.8996
B( 29-C , 36-C ) :   1.0832 B( 30-C , 31-O ) :   2.1559 B( 30-C , 32-C ) :   1.0281
B( 32-C , 33-C ) :   1.6901 B( 32-C , 73-H ) :   0.9963 B( 33-C , 34-C ) :   1.0254
B( 33-C , 74-H ) :   0.9952 B( 34-C , 35-O ) :   2.1480 B( 34-C , 36-C ) :   0.9003
B( 36-C , 37-N ) :   1.7253 B( 38-C , 39-S ) :   1.1804 B( 38-C , 40-C ) :   1.1158
B( 40-C , 41-C ) :   1.3763 B( 40-C , 43-C ) :   0.1069 B( 40-C , 45-C ) :   1.2066
B( 41-C , 42-C ) :   1.3052 B( 41-C , 75-H ) :   0.9865 B( 42-C , 43-C ) :   1.3769
B( 42-C , 76-H ) :   0.9708 B( 43-C , 44-C ) :   1.1579 B( 43-C , 50-C ) :   1.1849
B( 44-C , 45-C ) :   1.2103 B( 44-C , 48-N ) :   1.4873 B( 45-C , 46-N ) :   1.4666
B( 46-N , 47-N ) :   1.2499 B( 46-N , 48-N ) :   0.1562 B( 47-N , 48-N ) :   1.2173
B( 47-N , 49-C ) :   0.9472 B( 49-C , 77-H ) :   0.9649 B( 49-C , 78-H ) :   0.9665
B( 49-C , 79-H ) :   0.9530 B( 50-C , 51-C ) :   1.5886 B( 50-C , 80-H ) :   0.9332
B( 51-C , 52-C ) :   1.0745 B( 51-C , 63-C ) :   0.9048 B( 52-C , 53-C ) :   1.6293
B( 52-C , 58-C ) :   1.0903 B( 53-C , 54-C ) :   1.1513 B( 53-C , 56-C ) :   1.1372
B( 54-C , 55-N ) :   3.0003 B( 56-C , 57-N ) :   2.9800 B( 58-C , 59-C ) :   1.4409
B( 58-C , 62-S ) :   1.1433 B( 59-C , 60-C ) :   1.2655 B( 59-C , 63-C ) :   0.9806
B( 60-C , 61-C ) :   1.5458 B( 60-C , 81-H ) :   1.0080 B( 61-C , 62-S ) :   1.1652
B( 61-C , 82-H ) :   0.9680 B( 63-C , 64-O ) :   2.1657 B( 64-O , 76-H ) :   0.1039

-----------------------------------------------------------------------------
         ABSORPTION SPECTRUM VIA TRANSITION ELECTRIC DIPOLE MOMENTS
-----------------------------------------------------------------------------
State   Energy  Wavelength   fosc         T2         TX        TY        TZ
        (cm-1)    (nm)                  (au**2)     (au)      (au)      (au)
-----------------------------------------------------------------------------
   0   15093.7    662.5   1.207436467  26.33559   0.77851  -1.49761  -4.84631
   1   18715.3    534.3   0.126355586   2.22266  -1.10854   0.83624  -0.54270
   2   20212.7    494.7   0.144627391   2.35560  -0.05399   0.55076   1.43155
   3   22000.4    454.5   0.016086541   0.24072  -0.36058   0.17495  -0.28300
   4   22658.3    441.3   0.230616688   3.35072   0.32852  -0.24532  -1.78399
   5   22835.1    437.9   0.052723678   0.76011   0.11681   0.23026   0.83274
   6   23621.4    423.3   0.037253213   0.51920  -0.52179   0.42137  -0.26340
   7   25671.9    389.5   0.122421598   1.56992  -0.01922   0.17153  -1.24102
   8   25805.4    387.5   0.126716335   1.61658  -0.02066  -0.63686  -1.10026
   9   26541.6    376.8   0.002402428   0.02980   0.00694   0.10747   0.13491
  10   27458.0    364.2   0.045853181   0.54976   0.52813  -0.50853   0.11065
  11   28056.5    356.4   0.092020295   1.07976   0.51603  -0.38895  -0.81375
  12   28708.3    348.3   0.008677340   0.09951   0.11306  -0.11366   0.27167
  13   29000.7    344.8   0.046551442   0.52844  -0.41999   0.42926  -0.40963
  14   29436.4    339.7   0.051856173   0.57995   0.35974  -0.63124   0.22818
  15   29697.5    336.7   0.028228453   0.31293  -0.30939  -0.40359  -0.23306
  16   30312.8    329.9   0.019104454   0.20748   0.04531  -0.35185  -0.28572
  17   30541.1    327.4   0.014156496   0.15260   0.03390   0.05258   0.38559
  18   30647.0    326.3   0.050656971   0.54416  -0.19155   0.48944   0.51761
  19   31215.0    320.4   0.172436818   1.81862  -0.40143   1.26495   0.23956
  20   31640.2    316.1   0.009388483   0.09769  -0.05369   0.16140   0.26221
  21   31866.1    313.8   0.037742725   0.38992  -0.12717   0.49977   0.35212
  22   31948.1    313.0   0.040695325   0.41935   0.07057  -0.00271   0.64371
  23   32111.6    311.4   0.063099798   0.64691  -0.12155   0.34756   0.71508
  24   32490.4    307.8   0.041122673   0.41668   0.03273  -0.54624   0.34240
  25   32721.4    305.6   0.422842534   4.25425  -0.56130   1.62232   1.14337
  26   32875.3    304.2   0.013265357   0.13284   0.13383   0.33102  -0.07319
  27   33405.1    299.4   0.339289422   3.34374  -0.91493   1.50400  -0.49459
  28   33617.3    297.5   0.076924457   0.75332  -0.14755   0.82978   0.20741
  29   34093.7    293.3   0.128123473   1.23717  -0.73357   0.77026  -0.32517
  30   34199.5    292.4   0.131494418   1.26580   0.71554  -0.68906   0.52820
  31   34337.1    291.2   0.016630121   0.15944  -0.20310   0.33287  -0.08598
  32   34737.3    287.9   0.047835386   0.45335  -0.43074   0.25601  -0.44974
  33   34848.9    287.0   0.052250609   0.49360   0.30901  -0.62805  -0.06054
  34   35076.4    285.1   0.035609694   0.33422  -0.30635   0.41587   0.25965
  35   35420.3    282.3   0.047054808   0.43735   0.37157  -0.31543   0.44698
  36   35539.9    281.4   0.110154478   1.02038   0.50799  -0.67055   0.55918
  37   35754.0    279.7   0.022601249   0.20811   0.34189  -0.22097   0.20589
  38   35943.3    278.2   0.093451490   0.85594   0.47540  -0.65933   0.44183
  39   36296.8    275.5   0.005370437   0.04871   0.02452  -0.17597   0.13093
  40   36444.5    274.4   0.004612274   0.04166   0.00570   0.16924   0.11397
  41   36543.8    273.6   0.050357013   0.45365  -0.03570   0.11476  -0.66273
  42   36659.0    272.8   0.064586674   0.58001  -0.03775   0.18692  -0.73732
  43   36805.3    271.7   0.132212361   1.18260   0.31336  -0.09462   1.03704
  44   36895.2    271.0   0.043637218   0.38937   0.18150  -0.54165  -0.25108
  45   36998.6    270.3   0.104535962   0.93016   0.21550  -0.47996  -0.80831
  46   37203.6    268.8   0.026788984   0.23705   0.38748  -0.29163   0.04312
  47   37958.1    263.4   0.034447838   0.29877   0.12233  -0.23932  -0.47595
  48   38193.0    261.8   0.031788519   0.27401   0.00744  -0.19746  -0.48473
  49   38264.7    261.3   0.007947250   0.06837  -0.05964   0.02327  -0.25353
  50   38606.9    259.0   0.020104874   0.17144  -0.22134  -0.15309  -0.31466
  51   38833.2    257.5   0.049414742   0.41892  -0.33538   0.51690  -0.19813
  52   38932.4    256.9   0.007628060   0.06450  -0.04661  -0.24314  -0.05671
  53   39415.4    253.7   0.006390523   0.05338   0.12069  -0.19311   0.03899
  54   39861.5    250.9   0.008583202   0.07089   0.10051  -0.23452  -0.07605
  55   40022.7    249.9   0.026048415   0.21426  -0.21393   0.37822  -0.15951

FINAL SINGLE POINT ENERGY     -3912.273944704587

DIPOLE MOMENT
-------------
                                X             Y             Z
Electronic contribution:     -5.45555      -0.60721      -6.90957
Nuclear contribution   :      5.72589       2.70098       7.87403
                        -----------------------------------------
Total Dipole Moment    :      0.27034       2.09377       0.96446
                        -----------------------------------------
Magnitude (a.u.)       :      2.32102
Magnitude (Debye)      :      5.89955

Rotational constants in cm-1:     0.002620     0.000384     0.000341
Rotational constants in MHz :    78.557589    11.521146    10.219164

                             ****ORCA TERMINATED NORMALLY****
TOTAL RUN TIME: 0 days 0 hours 8 minutes 31 seconds 14 msec
