                         Program Version 4.2.0 -  RELEASE  -
|  1> # ORCA input file
|  2> # SCF done       -201.681300448306          0.000577092063
|  3> ! CAM-B3LYP def2-SVP def2/J RIJCOSX Grid4 TightSCF
|  4> %maxcore 5000
|  5> %tddft
|  6>     Mode sTDDFT
|  7>     Ethresh 5.0
|  8>     maxcore 5000
|  9> end
| 10>
| 11> %pal
| 12>   nprocs 6
| 13>   end
| 14> * xyz 0 1
| 15>    C       -2.79020        -7.04977         8.63500
| 16>    C       -1.67974        -7.30926         7.84474
| 17>    C       -1.81304        -7.68974         6.46416
| 18>    N       -0.70793        -7.93381         5.72991
| 19>    C        0.45537        -7.82171         6.28187
| 20>    C        0.58595        -7.44577         7.65172
| 21>    N       -0.43981        -7.20247         8.39171
| 22>    F        1.79315        -7.33866         8.19842
| 23>    F        1.52735        -8.06713         5.53612
| 24>    C       -3.07073        -7.82367         5.83614
| 25>    C       -4.19420        -7.55302         6.65072
| 26>    C       -4.04188        -7.16962         8.04051
| 27>    N       -5.22836        -6.96314         8.62716
| 28>    S       -6.38988        -7.21951         7.56053
| 29>    N       -5.48066        -7.60545         6.29888
| 30>    C       -3.18363        -8.21845         4.47354
| 31>    C       -4.36295        -8.39670         3.76028
| 32>    C       -4.12475        -8.80934         2.45737
| 33>    C       -2.74724        -8.94451         2.16981
| 34>    S       -1.75768        -8.55998         3.50858
| 35>    C       -2.61091        -9.38679         0.83454
| 36>    C       -3.90275        -9.53599         0.27624
| 37>    C       -4.89155        -9.16874         1.27838
| 38>    C       -6.24851        -9.16412         1.13801
| 39>    C       -6.87602        -9.53736        -0.06920
| 40>    N       -7.38473        -9.84054        -1.05108
| 41>    C       -7.11425        -8.78491         2.18587
| 42>    N       -7.82786        -8.48081         3.03040
| 43>    C       -3.87469        -9.99239        -1.03223
| 44>    C       -2.56998       -10.18899        -1.47549
| 45>    S       -1.36261        -9.79689        -0.25761
| 46>    C       -2.13985       -10.65768        -2.72526
| 47>    C       -0.80130       -10.81456        -3.10635
| 48>    C       -0.65014       -11.32860        -4.43558
| 49>    N        0.55326       -11.54457        -4.96306
| 50>    C        1.59334       -11.26007        -4.20613
| 51>    C        2.93592       -11.50096        -4.79090
| 52>    O        3.09047       -11.95104        -5.90668
| 53>    C        4.06783       -11.15374        -3.91487
| 54>    C        3.92680       -10.66820        -2.67689
| 55>    C        2.62243       -10.42114        -2.03915
| 56>    O        2.52119        -9.98583        -0.91144
| 57>    C        1.44236       -10.74289        -2.87963
| 58>    N        0.25578       -10.52940        -2.34854
| 59>    C       -1.87256       -11.56974        -5.07518
| 60>    S       -3.19266       -11.14809        -4.02178
| 61>    C       -2.01360       -12.08721        -6.37090
| 62>    C       -3.18861       -12.37930        -7.05758
| 63>    C       -2.92563       -12.89026        -8.31888
| 64>    C       -1.54112       -12.98514        -8.59630
| 65>    S       -0.56475       -12.44842        -7.30087
| 66>    C       -1.37911       -13.51474        -9.89651
| 67>    C       -2.66012       -13.75689       -10.44326
| 68>    C       -3.66891       -13.37513        -9.47184
| 69>    C       -5.02390       -13.45900        -9.60602
| 70>    C       -5.63728       -13.95278       -10.77698
| 71>    N       -6.14799       -14.35359       -11.72210
| 72>    C       -5.90249       -13.05899        -8.57718
| 73>    N       -6.61631       -12.73435        -7.74067
| 74>    C       -2.60558       -14.28392       -11.72537
| 75>    C       -1.29767       -14.44750       -12.16558
| 76>    S       -0.11840       -13.93781       -10.96939
| 77>    C       -0.88811       -14.96559       -13.42616
| 78>    C        0.47704       -15.08540       -13.76691
| 79>    C        0.90993       -15.61025       -15.03404
| 80>    N        2.23986       -15.70123       -15.30046
| 81>    C        3.07858       -15.31151       -14.40402
| 82>    C        2.65072       -14.78955       -13.14732
| 83>    N        1.39444       -14.68936       -12.86056
| 84>    F        3.53330       -14.39154       -12.23732
| 85>    F        4.37648       -15.40602       -14.67630
| 86>    C       -0.00041       -16.02806       -15.99406
| 87>    C       -1.35223       -15.92019       -15.68519
| 88>    C       -1.80574       -15.39385       -14.41283
| 89>    N       -3.13830       -15.38456       -14.33748
| 90>    S       -3.74881       -15.96614       -15.70004
| 91>    N       -2.38141       -16.26650       -16.46964
| 92>    H       -2.67792        -6.76806         9.66716
| 93>    H       -5.32741        -8.22913         4.20337
| 94>    H       -4.73244       -10.18315        -1.65227
| 95>    H        5.04589       -11.32209        -4.34508
| 96>    H        4.78619       -10.42761        -2.06567
| 97>    H       -4.16338       -12.21909        -6.63252
| 98>    H       -3.44933       -14.54748       -12.33632
| 99>    H        0.33553       -16.41927       -16.93822
|100> *
|101>
|102>                          ****END OF INPUT****

CARTESIAN COORDINATES (ANGSTROEM)
---------------------------------
  C     -2.790200   -7.049770    8.635000
  C     -1.679740   -7.309260    7.844740
  C     -1.813040   -7.689740    6.464160
  N     -0.707930   -7.933810    5.729910
  C      0.455370   -7.821710    6.281870
  C      0.585950   -7.445770    7.651720
  N     -0.439810   -7.202470    8.391710
  F      1.793150   -7.338660    8.198420
  F      1.527350   -8.067130    5.536120
  C     -3.070730   -7.823670    5.836140
  C     -4.194200   -7.553020    6.650720
  C     -4.041880   -7.169620    8.040510
  N     -5.228360   -6.963140    8.627160
  S     -6.389880   -7.219510    7.560530
  N     -5.480660   -7.605450    6.298880
  C     -3.183630   -8.218450    4.473540
  C     -4.362950   -8.396700    3.760280
  C     -4.124750   -8.809340    2.457370
  C     -2.747240   -8.944510    2.169810
  S     -1.757680   -8.559980    3.508580
  C     -2.610910   -9.386790    0.834540
  C     -3.902750   -9.535990    0.276240
  C     -4.891550   -9.168740    1.278380
  C     -6.248510   -9.164120    1.138010
  C     -6.876020   -9.537360   -0.069200
  N     -7.384730   -9.840540   -1.051080
  C     -7.114250   -8.784910    2.185870
  N     -7.827860   -8.480810    3.030400
  C     -3.874690   -9.992390   -1.032230
  C     -2.569980  -10.188990   -1.475490
  S     -1.362610   -9.796890   -0.257610
  C     -2.139850  -10.657680   -2.725260
  C     -0.801300  -10.814560   -3.106350
  C     -0.650140  -11.328600   -4.435580
  N      0.553260  -11.544570   -4.963060
  C      1.593340  -11.260070   -4.206130
  C      2.935920  -11.500960   -4.790900
  O      3.090470  -11.951040   -5.906680
  C      4.067830  -11.153740   -3.914870
  C      3.926800  -10.668200   -2.676890
  C      2.622430  -10.421140   -2.039150
  O      2.521190   -9.985830   -0.911440
  C      1.442360  -10.742890   -2.879630
  N      0.255780  -10.529400   -2.348540
  C     -1.872560  -11.569740   -5.075180
  S     -3.192660  -11.148090   -4.021780
  C     -2.013600  -12.087210   -6.370900
  C     -3.188610  -12.379300   -7.057580
  C     -2.925630  -12.890260   -8.318880
  C     -1.541120  -12.985140   -8.596300
  S     -0.564750  -12.448420   -7.300870
  C     -1.379110  -13.514740   -9.896510
  C     -2.660120  -13.756890  -10.443260
  C     -3.668910  -13.375130   -9.471840
  C     -5.023900  -13.459000   -9.606020
  C     -5.637280  -13.952780  -10.776980
  N     -6.147990  -14.353590  -11.722100
  C     -5.902490  -13.058990   -8.577180
  N     -6.616310  -12.734350   -7.740670
  C     -2.605580  -14.283920  -11.725370
  C     -1.297670  -14.447500  -12.165580
  S     -0.118400  -13.937810  -10.969390
  C     -0.888110  -14.965590  -13.426160
  C      0.477040  -15.085400  -13.766910
  C      0.909930  -15.610250  -15.034040
  N      2.239860  -15.701230  -15.300460
  C      3.078580  -15.311510  -14.404020
  C      2.650720  -14.789550  -13.147320
  N      1.394440  -14.689360  -12.860560
  F      3.533300  -14.391540  -12.237320
  F      4.376480  -15.406020  -14.676300
  C     -0.000410  -16.028060  -15.994060
  C     -1.352230  -15.920190  -15.685190
  C     -1.805740  -15.393850  -14.412830
  N     -3.138300  -15.384560  -14.337480
  S     -3.748810  -15.966140  -15.700040
  N     -2.381410  -16.266500  -16.469640
  H     -2.677920   -6.768060    9.667160
  H     -5.327410   -8.229130    4.203370
  H     -4.732440  -10.183150   -1.652270
  H      5.045890  -11.322090   -4.345080
  H      4.786190  -10.427610   -2.065670
  H     -4.163380  -12.219090   -6.632520
  H     -3.449330  -14.547480  -12.336320
  H      0.335530  -16.419270  -16.938220

 Total Charge           Charge          ....    0
 Multiplicity           Mult            ....    1
 Number of Electrons    NEL             ....  570
 Basis Dimension        Dim             .... 1146

ORBITAL ENERGIES
----------------

  NO   OCC          E(Eh)            E(eV)
   0   2.0000     -89.040133     -2422.9052
   1   2.0000     -89.040011     -2422.9019
   2   2.0000     -89.001601     -2421.8567
   3   2.0000     -88.983635     -2421.3678
   4   2.0000     -88.983549     -2421.3655
   5   2.0000     -88.979574     -2421.2573
   6   2.0000     -88.979450     -2421.2539
   7   2.0000     -24.820120      -675.3898
   8   2.0000     -24.820027      -675.3873
   9   2.0000     -24.814394      -675.2340
  10   2.0000     -24.814267      -675.2305
  11   2.0000     -19.231085      -523.3044
  12   2.0000     -19.231061      -523.3038
  13   2.0000     -14.460365      -393.4865
  14   2.0000     -14.460333      -393.4857
  15   2.0000     -14.457362      -393.4048
  16   2.0000     -14.457220      -393.4009
  17   2.0000     -14.452857      -393.2822
  18   2.0000     -14.452857      -393.2822
  19   2.0000     -14.448512      -393.1640
  20   2.0000     -14.448423      -393.1616
  21   2.0000     -14.445814      -393.0906
  22   2.0000     -14.445811      -393.0905
  23   2.0000     -14.425633      -392.5414
  24   2.0000     -14.425578      -392.5399
  25   2.0000     -14.424286      -392.5048
  26   2.0000     -14.424283      -392.5047
  27   2.0000     -10.435517      -283.9648
  28   2.0000     -10.435491      -283.9641
  29   2.0000     -10.431007      -283.8421
  30   2.0000     -10.431002      -283.8420
  31   2.0000     -10.381044      -282.4826
  32   2.0000     -10.380942      -282.4798
  33   2.0000     -10.358385      -281.8660
  34   2.0000     -10.358354      -281.8651
  35   2.0000     -10.347459      -281.5687
  36   2.0000     -10.347201      -281.5616
  37   2.0000     -10.346462      -281.5415
  38   2.0000     -10.346433      -281.5408
  39   2.0000     -10.344412      -281.4858
  40   2.0000     -10.344399      -281.4854
  41   2.0000     -10.343812      -281.4694
  42   2.0000     -10.343752      -281.4678
  43   2.0000     -10.338770      -281.3322
  44   2.0000     -10.338744      -281.3315
  45   2.0000     -10.338052      -281.3127
  46   2.0000     -10.337939      -281.3096
  47   2.0000     -10.336573      -281.2725
  48   2.0000     -10.336293      -281.2648
  49   2.0000     -10.335394      -281.2404
  50   2.0000     -10.335365      -281.2396
  51   2.0000     -10.328858      -281.0625
  52   2.0000     -10.328768      -281.0601
  53   2.0000     -10.326274      -280.9922
  54   2.0000     -10.326183      -280.9897
  55   2.0000     -10.324790      -280.9518
  56   2.0000     -10.324764      -280.9511
  57   2.0000     -10.324662      -280.9483
  58   2.0000     -10.324532      -280.9448
  59   2.0000     -10.322016      -280.8763
  60   2.0000     -10.322010      -280.8762
  61   2.0000     -10.320345      -280.8309
  62   2.0000     -10.320287      -280.8293
  63   2.0000     -10.318487      -280.7803
  64   2.0000     -10.318482      -280.7802
  65   2.0000     -10.313938      -280.6565
  66   2.0000     -10.313232      -280.6373
  67   2.0000     -10.303583      -280.3747
  68   2.0000     -10.303578      -280.3746
  69   2.0000     -10.300885      -280.3013
  70   2.0000     -10.300883      -280.3013
  71   2.0000     -10.295861      -280.1646
  72   2.0000     -10.295818      -280.1635
  73   2.0000     -10.294269      -280.1213
  74   2.0000     -10.294207      -280.1196
  75   2.0000     -10.291367      -280.0423
  76   2.0000     -10.291338      -280.0415
  77   2.0000      -8.131429      -221.2674
  78   2.0000      -8.131362      -221.2656
  79   2.0000      -8.095693      -220.2950
  80   2.0000      -8.077042      -219.7875
  81   2.0000      -8.076978      -219.7857
  82   2.0000      -8.072393      -219.6610
  83   2.0000      -8.072329      -219.6592
  84   2.0000      -6.102400      -166.0547
  85   2.0000      -6.102332      -166.0529
  86   2.0000      -6.094542      -165.8409
  87   2.0000      -6.094498      -165.8397
  88   2.0000      -6.094477      -165.8392
  89   2.0000      -6.094412      -165.8374
  90   2.0000      -6.064846      -165.0328
  91   2.0000      -6.060750      -164.9214
  92   2.0000      -6.058206      -164.8522
  93   2.0000      -6.046423      -164.5315
  94   2.0000      -6.046362      -164.5299
  95   2.0000      -6.041951      -164.4098
  96   2.0000      -6.041883      -164.4080
  97   2.0000      -6.041838      -164.4068
  98   2.0000      -6.041780      -164.4052
  99   2.0000      -6.039347      -164.3390
 100   2.0000      -6.039280      -164.3372
 101   2.0000      -6.037123      -164.2785
 102   2.0000      -6.037052      -164.2765
 103   2.0000      -6.034922      -164.2186
 104   2.0000      -6.034841      -164.2164
 105   2.0000      -1.346596       -36.6427
 106   2.0000      -1.346548       -36.6414
 107   2.0000      -1.331260       -36.2254
 108   2.0000      -1.331249       -36.2251
 109   2.0000      -1.148858       -31.2620
 110   2.0000      -1.144115       -31.1329
 111   2.0000      -1.136595       -30.9283
 112   2.0000      -1.136565       -30.9275
 113   2.0000      -1.114759       -30.3341
 114   2.0000      -1.114695       -30.3324
 115   2.0000      -1.107714       -30.1424
 116   2.0000      -1.042303       -28.3625
 117   2.0000      -1.042083       -28.3565
 118   2.0000      -1.039211       -28.2784
 119   2.0000      -1.037299       -28.2263
 120   2.0000      -1.033876       -28.1332
 121   2.0000      -1.017987       -27.7008
 122   2.0000      -1.016203       -27.6523
 123   2.0000      -1.011391       -27.5214
 124   2.0000      -1.002671       -27.2841
 125   2.0000      -1.002496       -27.2793
 126   2.0000      -0.996152       -27.1067
 127   2.0000      -0.992835       -27.0164
 128   2.0000      -0.985967       -26.8295
 129   2.0000      -0.982769       -26.7425
 130   2.0000      -0.969654       -26.3856
 131   2.0000      -0.966960       -26.3123
 132   2.0000      -0.950591       -25.8669
 133   2.0000      -0.948604       -25.8128
 134   2.0000      -0.944070       -25.6895
 135   2.0000      -0.915418       -24.9098
 136   2.0000      -0.906719       -24.6731
 137   2.0000      -0.884318       -24.0635
 138   2.0000      -0.882301       -24.0086
 139   2.0000      -0.881690       -23.9920
 140   2.0000      -0.880803       -23.9679
 141   2.0000      -0.874177       -23.7876
 142   2.0000      -0.869757       -23.6673
 143   2.0000      -0.858612       -23.3640
 144   2.0000      -0.854503       -23.2522
 145   2.0000      -0.848073       -23.0772
 146   2.0000      -0.845862       -23.0171
 147   2.0000      -0.814239       -22.1566
 148   2.0000      -0.812724       -22.1153
 149   2.0000      -0.807519       -21.9737
 150   2.0000      -0.806368       -21.9424
 151   2.0000      -0.795936       -21.6585
 152   2.0000      -0.784659       -21.3517
 153   2.0000      -0.776675       -21.1344
 154   2.0000      -0.773437       -21.0463
 155   2.0000      -0.767755       -20.8917
 156   2.0000      -0.760849       -20.7037
 157   2.0000      -0.756203       -20.5773
 158   2.0000      -0.755269       -20.5519
 159   2.0000      -0.743052       -20.2195
 160   2.0000      -0.739533       -20.1237
 161   2.0000      -0.714954       -19.4549
 162   2.0000      -0.711038       -19.3483
 163   2.0000      -0.692524       -18.8445
 164   2.0000      -0.689104       -18.7515
 165   2.0000      -0.685506       -18.6536
 166   2.0000      -0.685465       -18.6525
 167   2.0000      -0.684072       -18.6145
 168   2.0000      -0.679311       -18.4850
 169   2.0000      -0.678789       -18.4708
 170   2.0000      -0.675439       -18.3796
 171   2.0000      -0.671421       -18.2703
 172   2.0000      -0.670138       -18.2354
 173   2.0000      -0.664614       -18.0851
 174   2.0000      -0.657123       -17.8812
 175   2.0000      -0.655291       -17.8314
 176   2.0000      -0.645564       -17.5667
 177   2.0000      -0.641629       -17.4596
 178   2.0000      -0.630455       -17.1556
 179   2.0000      -0.630226       -17.1493
 180   2.0000      -0.625912       -17.0319
 181   2.0000      -0.625772       -17.0281
 182   2.0000      -0.620528       -16.8854
 183   2.0000      -0.620495       -16.8845
 184   2.0000      -0.617581       -16.8052
 185   2.0000      -0.612004       -16.6535
 186   2.0000      -0.609067       -16.5736
 187   2.0000      -0.608433       -16.5563
 188   2.0000      -0.604080       -16.4379
 189   2.0000      -0.594952       -16.1895
 190   2.0000      -0.584694       -15.9103
 191   2.0000      -0.574644       -15.6369
 192   2.0000      -0.574509       -15.6332
 193   2.0000      -0.572861       -15.5883
 194   2.0000      -0.572840       -15.5878
 195   2.0000      -0.572524       -15.5792
 196   2.0000      -0.564561       -15.3625
 197   2.0000      -0.562296       -15.3009
 198   2.0000      -0.562287       -15.3006
 199   2.0000      -0.554775       -15.0962
 200   2.0000      -0.549930       -14.9644
 201   2.0000      -0.543302       -14.7840
 202   2.0000      -0.542958       -14.7746
 203   2.0000      -0.541669       -14.7396
 204   2.0000      -0.541186       -14.7264
 205   2.0000      -0.539566       -14.6823
 206   2.0000      -0.538420       -14.6511
 207   2.0000      -0.536748       -14.6057
 208   2.0000      -0.529945       -14.4205
 209   2.0000      -0.525838       -14.3088
 210   2.0000      -0.522202       -14.2098
 211   2.0000      -0.520315       -14.1585
 212   2.0000      -0.520031       -14.1508
 213   2.0000      -0.515233       -14.0202
 214   2.0000      -0.515131       -14.0174
 215   2.0000      -0.512939       -13.9578
 216   2.0000      -0.511882       -13.9290
 217   2.0000      -0.510564       -13.8931
 218   2.0000      -0.508767       -13.8442
 219   2.0000      -0.505515       -13.7558
 220   2.0000      -0.499220       -13.5845
 221   2.0000      -0.497687       -13.5428
 222   2.0000      -0.497457       -13.5365
 223   2.0000      -0.491851       -13.3840
 224   2.0000      -0.490301       -13.3418
 225   2.0000      -0.488873       -13.3029
 226   2.0000      -0.487254       -13.2589
 227   2.0000      -0.486948       -13.2505
 228   2.0000      -0.482850       -13.1390
 229   2.0000      -0.482263       -13.1231
 230   2.0000      -0.478894       -13.0314
 231   2.0000      -0.476921       -12.9777
 232   2.0000      -0.468807       -12.7569
 233   2.0000      -0.462466       -12.5843
 234   2.0000      -0.459544       -12.5048
 235   2.0000      -0.459348       -12.4995
 236   2.0000      -0.458451       -12.4751
 237   2.0000      -0.456613       -12.4251
 238   2.0000      -0.456570       -12.4239
 239   2.0000      -0.455331       -12.3902
 240   2.0000      -0.452336       -12.3087
 241   2.0000      -0.450011       -12.2454
 242   2.0000      -0.448864       -12.2142
 243   2.0000      -0.445309       -12.1175
 244   2.0000      -0.442258       -12.0345
 245   2.0000      -0.441145       -12.0042
 246   2.0000      -0.435455       -11.8493
 247   2.0000      -0.435399       -11.8478
 248   2.0000      -0.433938       -11.8081
 249   2.0000      -0.433195       -11.7878
 250   2.0000      -0.427935       -11.6447
 251   2.0000      -0.426888       -11.6162
 252   2.0000      -0.422962       -11.5094
 253   2.0000      -0.422431       -11.4949
 254   2.0000      -0.414615       -11.2822
 255   2.0000      -0.414484       -11.2787
 256   2.0000      -0.408937       -11.1277
 257   2.0000      -0.408652       -11.1200
 258   2.0000      -0.404430       -11.0051
 259   2.0000      -0.404092       -10.9959
 260   2.0000      -0.401704       -10.9309
 261   2.0000      -0.401425       -10.9233
 262   2.0000      -0.397191       -10.8081
 263   2.0000      -0.385074       -10.4784
 264   2.0000      -0.377864       -10.2822
 265   2.0000      -0.375959       -10.2304
 266   2.0000      -0.375915       -10.2292
 267   2.0000      -0.369295       -10.0490
 268   2.0000      -0.368319       -10.0225
 269   2.0000      -0.366009        -9.9596
 270   2.0000      -0.365913        -9.9570
 271   2.0000      -0.354187        -9.6379
 272   2.0000      -0.351924        -9.5763
 273   2.0000      -0.342621        -9.3232
 274   2.0000      -0.341458        -9.2916
 275   2.0000      -0.341083        -9.2813
 276   2.0000      -0.340136        -9.2556
 277   2.0000      -0.339588        -9.2406
 278   2.0000      -0.338099        -9.2002
 279   2.0000      -0.317873        -8.6498
 280   2.0000      -0.316202        -8.6043
 281   2.0000      -0.314643        -8.5619
 282   2.0000      -0.287314        -7.8182
 283   2.0000      -0.259867        -7.0713
 284   2.0000      -0.228626        -6.2212
 285   0.0000      -0.121295        -3.3006
 286   0.0000      -0.109750        -2.9865
 287   0.0000      -0.096095        -2.6149
 288   0.0000      -0.093712        -2.5500
 289   0.0000      -0.089537        -2.4364

MULLIKEN ATOMIC CHARGES
-----------------------
   0 C :   -0.085543
   1 C :    0.027066
   2 C :   -0.063938
   3 N :   -0.051112
   4 C :    0.147147
   5 C :    0.127618
   6 N :    0.013580
   7 F :   -0.140036
   8 F :   -0.134984
   9 C :    0.202868
  10 C :   -0.045257
  11 C :    0.097863
  12 N :   -0.272174
  13 S :    0.553289
  14 N :   -0.286787
  15 C :   -0.177860
  16 C :   -0.059582
  17 C :    0.036735
  18 C :   -0.065719
  19 S :    0.212147
  20 C :   -0.092978
  21 C :    0.028727
  22 C :    0.308755
  23 C :   -0.304342
  24 C :   -0.192026
  25 N :    0.171690
  26 C :   -0.186965
  27 N :    0.170105
  28 C :   -0.084602
  29 C :   -0.075462
  30 S :    0.239758
  31 C :   -0.120612
  32 C :    0.025745
  33 C :    0.020616
  34 N :    0.034925
  35 C :   -0.111620
  36 C :    0.137808
  37 O :   -0.105924
  38 C :   -0.019409
  39 C :   -0.016544
  40 C :    0.137388
  41 O :   -0.104837
  42 C :   -0.114080
  43 N :    0.034838
  44 C :   -0.118945
  45 S :    0.232077
  46 C :   -0.072748
  47 C :   -0.089597
  48 C :    0.033685
  49 C :   -0.090574
  50 S :    0.239640
  51 C :   -0.068329
  52 C :    0.033378
  53 C :    0.309538
  54 C :   -0.304577
  55 C :   -0.186013
  56 N :    0.173293
  57 C :   -0.194749
  58 N :    0.169742
  59 C :   -0.055449
  60 C :   -0.179527
  61 S :    0.212642
  62 C :    0.200717
  63 C :   -0.060113
  64 C :    0.023495
  65 N :    0.014334
  66 C :    0.126929
  67 C :    0.147812
  68 N :   -0.050218
  69 F :   -0.134568
  70 F :   -0.140296
  71 C :   -0.086970
  72 C :    0.102428
  73 C :   -0.047511
  74 N :   -0.286270
  75 S :    0.553322
  76 N :   -0.274488
  77 H :   -0.022630
  78 H :    0.020822
  79 H :    0.009733
  80 H :    0.018022
  81 H :    0.018380
  82 H :    0.008662
  83 H :    0.021532
  84 H :   -0.022889
Sum of atomic charges:   -0.0000000

LOEWDIN ATOMIC CHARGES
----------------------
   0 C :   -0.019836
   1 C :   -0.010126
   2 C :   -0.024621
   3 N :   -0.061646
   4 C :    0.061947
   5 C :    0.054610
   6 N :   -0.036561
   7 F :   -0.028692
   8 F :   -0.024684
   9 C :   -0.029407
  10 C :   -0.043655
  11 C :   -0.048582
  12 N :   -0.287179
  13 S :    0.687180
  14 N :   -0.281470
  15 C :   -0.170444
  16 C :   -0.009420
  17 C :   -0.075139
  18 C :   -0.179930
  19 S :    0.515733
  20 C :   -0.179563
  21 C :   -0.066169
  22 C :    0.081848
  23 C :   -0.106239
  24 C :   -0.017185
  25 N :   -0.036505
  26 C :   -0.016820
  27 N :   -0.034371
  28 C :   -0.028420
  29 C :   -0.182529
  30 S :    0.527414
  31 C :   -0.189687
  32 C :   -0.055880
  33 C :   -0.056064
  34 N :   -0.008820
  35 C :   -0.040841
  36 C :    0.054684
  37 O :   -0.103404
  38 C :   -0.012109
  39 C :   -0.012144
  40 C :    0.054569
  41 O :   -0.103279
  42 C :   -0.040908
  43 N :   -0.008825
  44 C :   -0.189515
  45 S :    0.517334
  46 C :   -0.182485
  47 C :   -0.028404
  48 C :   -0.066238
  49 C :   -0.179401
  50 S :    0.527337
  51 C :   -0.180009
  52 C :   -0.075092
  53 C :    0.081829
  54 C :   -0.106249
  55 C :   -0.016935
  56 N :   -0.034281
  57 C :   -0.017139
  58 N :   -0.036471
  59 C :   -0.009363
  60 C :   -0.170494
  61 S :    0.515703
  62 C :   -0.029544
  63 C :   -0.024550
  64 C :   -0.010310
  65 N :   -0.036494
  66 C :    0.054677
  67 C :    0.061799
  68 N :   -0.061481
  69 F :   -0.024606
  70 F :   -0.028672
  71 C :   -0.019775
  72 C :   -0.048318
  73 C :   -0.043703
  74 N :   -0.281397
  75 S :    0.687269
  76 N :   -0.287471
  77 H :    0.046360
  78 H :    0.037861
  79 H :    0.037593
  80 H :    0.045999
  81 H :    0.046102
  82 H :    0.037427
  83 H :    0.037964
  84 H :    0.046315

  Mayer bond orders larger than 0.100000
B(  0-C ,  1-C ) :   1.3374 B(  0-C ,  9-C ) :   0.1344 B(  0-C , 11-C ) :   1.1745
B(  0-C , 77-H ) :   1.0600 B(  1-C ,  2-C ) :   1.1341 B(  1-C ,  6-N ) :   1.3263
B(  2-C ,  3-N ) :   1.3593 B(  2-C ,  9-C ) :   1.3103 B(  3-N ,  4-C ) :   1.6689
B(  4-C ,  5-C ) :   1.0874 B(  4-C ,  8-F ) :   1.1861 B(  5-C ,  6-N ) :   1.7300
B(  5-C ,  7-F ) :   1.1750 B(  9-C , 10-C ) :   1.2118 B(  9-C , 15-C ) :   1.1709
B( 10-C , 11-C ) :   1.1245 B( 10-C , 14-N ) :   1.5042 B( 11-C , 12-N ) :   1.4602
B( 12-N , 13-S ) :   1.3089 B( 12-N , 14-N ) :   0.1570 B( 13-S , 14-N ) :   1.2791
B( 15-C , 16-C ) :   1.4260 B( 15-C , 19-S ) :   1.0886 B( 16-C , 17-C ) :   1.2737
B( 16-C , 78-H ) :   0.9817 B( 17-C , 18-C ) :   1.3936 B( 17-C , 22-C ) :   0.9945
B( 18-C , 19-S ) :   1.0968 B( 18-C , 20-C ) :   1.2072 B( 20-C , 21-C ) :   1.3966
B( 20-C , 30-S ) :   1.0997 B( 21-C , 22-C ) :   0.9874 B( 21-C , 28-C ) :   1.3297
B( 22-C , 23-C ) :   1.7092 B( 23-C , 24-C ) :   1.1316 B( 23-C , 26-C ) :   1.1390
B( 24-C , 25-N ) :   2.9940 B( 26-C , 27-N ) :   2.9859 B( 28-C , 29-C ) :   1.3763
B( 28-C , 79-H ) :   0.9953 B( 29-C , 30-S ) :   1.1122 B( 29-C , 31-C ) :   1.2485
B( 31-C , 32-C ) :   1.3159 B( 31-C , 44-C ) :   0.1152 B( 31-C , 45-S ) :   1.1511
B( 32-C , 33-C ) :   1.1828 B( 32-C , 43-N ) :   1.4215 B( 33-C , 34-N ) :   1.4238
B( 33-C , 44-C ) :   1.3166 B( 34-N , 35-C ) :   1.6923 B( 35-C , 36-C ) :   0.8995
B( 35-C , 42-C ) :   1.1081 B( 36-C , 37-O ) :   2.2476 B( 36-C , 38-C ) :   1.0229
B( 38-C , 39-C ) :   1.6757 B( 38-C , 80-H ) :   0.9991 B( 39-C , 40-C ) :   1.0223
B( 39-C , 81-H ) :   0.9987 B( 40-C , 41-O ) :   2.2489 B( 40-C , 42-C ) :   0.8991
B( 42-C , 43-N ) :   1.6945 B( 44-C , 45-S ) :   1.1507 B( 44-C , 46-C ) :   1.2479
B( 46-C , 47-C ) :   1.3753 B( 46-C , 50-S ) :   1.1116 B( 47-C , 48-C ) :   1.3281
B( 47-C , 82-H ) :   0.9966 B( 48-C , 49-C ) :   1.3941 B( 48-C , 53-C ) :   0.9867
B( 49-C , 50-S ) :   1.1001 B( 49-C , 51-C ) :   1.2075 B( 51-C , 52-C ) :   1.3955
B( 51-C , 61-S ) :   1.0964 B( 52-C , 53-C ) :   0.9950 B( 52-C , 59-C ) :   1.2739
B( 53-C , 54-C ) :   1.7082 B( 54-C , 55-C ) :   1.1382 B( 54-C , 57-C ) :   1.1337
B( 55-C , 56-N ) :   2.9876 B( 57-C , 58-N ) :   2.9928 B( 59-C , 60-C ) :   1.4266
B( 59-C , 83-H ) :   0.9808 B( 60-C , 61-S ) :   1.0892 B( 60-C , 62-C ) :   1.1714
B( 62-C , 63-C ) :   1.3095 B( 62-C , 71-C ) :   0.1352 B( 62-C , 73-C ) :   1.2117
B( 63-C , 64-C ) :   1.1340 B( 63-C , 68-N ) :   1.3589 B( 64-C , 65-N ) :   1.3289
B( 64-C , 71-C ) :   1.3373 B( 65-N , 66-C ) :   1.7289 B( 66-C , 67-C ) :   1.0868
B( 66-C , 70-F ) :   1.1742 B( 67-C , 68-N ) :   1.6708 B( 67-C , 69-F ) :   1.1869
B( 71-C , 72-C ) :   1.1728 B( 71-C , 84-H ) :   1.0606 B( 72-C , 73-C ) :   1.1251
B( 72-C , 76-N ) :   1.4584 B( 73-C , 74-N ) :   1.5045 B( 74-N , 75-S ) :   1.2797
B( 74-N , 76-N ) :   0.1570 B( 75-S , 76-N ) :   1.3088

-----------------------------------------------------------------------------
         ABSORPTION SPECTRUM VIA TRANSITION ELECTRIC DIPOLE MOMENTS
-----------------------------------------------------------------------------
State   Energy  Wavelength   fosc         T2         TX        TY        TZ
        (cm-1)    (nm)                  (au**2)     (au)      (au)      (au)
-----------------------------------------------------------------------------
   0    8773.0   1139.9   1.022441519  38.36759  -0.65422   2.14304   5.77468
   1   11267.0    887.5   0.002569804   0.07509  -0.24526  -0.12047   0.02058
   2   13102.0    763.2   0.025313438   0.63605  -0.08340   0.29822   0.73495
   3   14900.1    671.1   0.018910895   0.41783   0.63311   0.12745   0.02756
   4   15245.9    655.9   0.418953924   9.04669  -0.31410   0.98237   2.82542
   5   15813.2    632.4   0.116433447   2.42401   1.54471  -0.06072   0.18495
   6   17479.8    572.1   0.003117517   0.05871   0.22205   0.09686  -0.00504
   7   20101.3    497.5   0.021515143   0.35237  -0.06411   0.16526   0.56652
   8   23030.9    434.2   0.044554011   0.63687   0.79454   0.02373   0.07077
   9   23724.1    421.5   0.008324403   0.11552  -0.04252   0.14036   0.30660
  10   23763.8    420.8   0.006028249   0.08351   0.28449  -0.01217   0.04928
  11   23957.3    417.4   0.093857455   1.28975   0.12064  -0.38281  -1.06238
  12   24333.9    410.9   0.244883720   3.31301   0.18939  -0.64305  -1.69223
  13   24855.1    402.3   0.002131754   0.02824   0.00863   0.10735  -0.12899
  14   25810.2    387.4   0.000011973   0.00015   0.01102   0.00136   0.00542
  15   26572.9    376.3   0.013310974   0.16491   0.40055  -0.02700   0.06114
  16   26577.1    376.3   0.001132297   0.01403  -0.03331  -0.08690   0.07324
  17   27325.7    366.0   0.424430324   5.11341   0.23705  -0.83075  -2.08976
  18   27458.0    364.2   0.398200563   4.77429  -0.22585   0.74563   2.04140
  19   27545.9    363.0   0.099082781   1.18418   1.08312   0.01462   0.10403
  20   29039.2    344.4   0.044064916   0.49956  -0.07503   0.27806   0.64545
  21   29179.5    342.7   0.000786615   0.00887  -0.08707   0.02592  -0.02496
  22   29933.8    334.1   0.007903682   0.08692  -0.28175  -0.00572  -0.08665
  23   29949.6    333.9   0.133910228   1.47197  -0.14025   0.43528   1.12376
  24   30227.1    330.8   0.010323801   0.11244  -0.33273  -0.04161   0.00113
  25   30252.1    330.6   0.003286489   0.03576   0.01361   0.06866   0.17569
  26   30767.0    325.0   0.015974157   0.17093  -0.40957   0.01359  -0.05471
  27   30884.9    323.8   0.000078324   0.00083   0.02802  -0.00130  -0.00694
  28   30910.2    323.5   0.007659651   0.08158   0.03466  -0.10556  -0.26313
  29   31048.8    322.1   0.000677723   0.00719  -0.07620   0.02877  -0.02350
  30   31799.0    314.5   0.584419721   6.05043  -2.44559  -0.10333  -0.24259
  31   31843.5    314.0   0.018736274   0.19370  -0.08995   0.17953   0.39164
  32   32182.6    310.7   0.041979259   0.42943   0.06240  -0.17416  -0.62865
  33   32428.8    308.4   0.005848000   0.05937   0.24239   0.01726   0.01776
  34   32910.0    303.9   0.000942415   0.00943  -0.04691  -0.08461   0.00820
  35   33004.9    303.0   0.007905790   0.07886  -0.23439   0.00991   0.15434
  36   33018.1    302.9   0.031588411   0.31496  -0.32350  -0.18232  -0.42079
  37   33025.2    302.8   0.070020617   0.69800   0.27561  -0.17646  -0.76870
  38   33203.9    301.2   1.201421794  11.91191   3.42734   0.08532   0.39749
  39   33220.4    301.0   0.066553053   0.65954   0.21730  -0.33452  -0.70740
  40   33913.8    294.9   0.001992667   0.01934  -0.13890  -0.00705  -0.00091
  41   33953.7    294.5   0.037548410   0.36407   0.59846   0.06241   0.04496
  42   34810.1    287.3   0.000593165   0.00561   0.01540  -0.03745  -0.06301
  43   35010.2    285.6   0.000113794   0.00107   0.00874  -0.01195  -0.02917
  44   35296.1    283.3   0.005467236   0.05099  -0.22124  -0.04498  -0.00475
  45   35314.3    283.2   0.079988980   0.74568  -0.85863  -0.02173  -0.08926
  46   35354.0    282.9   0.002344974   0.02184   0.04083  -0.02494  -0.13981
  47   35543.4    281.3   0.017059644   0.15801   0.39435   0.02407   0.04383
  48   35730.4    279.9   0.101747562   0.93748  -0.10229   0.30675   0.91265
  49   36136.1    276.7   0.033650908   0.30657  -0.55020  -0.01316  -0.06066
  50   36456.4    274.3   0.110631699   0.99904  -0.10381   0.31729   0.94212
  51   36760.4    272.0   0.002646962   0.02371  -0.02839  -0.15064  -0.01432
  52   36815.7    271.6   0.020648613   0.18464  -0.00017  -0.19819  -0.38127
  53   36839.0    271.5   0.064689125   0.57809   0.75931  -0.00790   0.03851
  54   36881.7    271.1   0.046038260   0.41094  -0.03766   0.23891   0.59367
  55   37071.3    269.8   0.059266075   0.52631   0.09035  -0.21853  -0.68585
  56   37205.6    268.8   0.265153412   2.34619  -1.52077   0.01239  -0.18249
  57   37395.6    267.4   0.085364838   0.75151  -0.86322  -0.03300  -0.07260
  58   37431.4    267.2   0.088167362   0.77544   0.87449   0.06711   0.07871
  59   37599.4    266.0   0.025402227   0.22242   0.04199  -0.14753  -0.44597
  60   37984.9    263.3   0.055786309   0.48350   0.69189  -0.00072   0.06911
  61   38256.0    261.4   0.017171762   0.14777   0.38307  -0.00408   0.03187
  62   38322.4    260.9   0.132338258   1.13686  -0.11062   0.32262   1.01022
  63   38412.7    260.3   0.030704550   0.26315   0.04805  -0.15660  -0.48612
  64   39045.7    256.1   0.114487250   0.96529   0.18973  -0.33826  -0.90270
  65   39076.5    255.9   0.554276014   4.66967  -2.14380  -0.08058  -0.25941
  66   39200.8    255.1   0.137811081   1.15735  -1.07104  -0.00650  -0.10094
  67   39513.5    253.1   0.200509854   1.67057   0.14237  -0.49557  -1.18521
  68   39622.7    252.4   0.197372216   1.63990  -1.27311  -0.08072  -0.11214
  69   39922.2    250.5   0.157613798   1.29974  -1.12894  -0.09390  -0.12811
  70   39969.4    250.2   0.079344911   0.65353  -0.11855   0.27040   0.75257
  71   40207.4    248.7   0.000196561   0.00161   0.03000   0.02655  -0.00206
  72   40225.6    248.6   0.008098947   0.06628   0.01178  -0.25282   0.04719

FINAL SINGLE POINT ENERGY     -6008.885902554037

DIPOLE MOMENT
-------------
                                X             Y             Z
Electronic contribution:     15.69722      -0.19180       1.81083
Nuclear contribution   :    -13.27704       0.21996      -1.55574
                        -----------------------------------------
Total Dipole Moment    :      2.42018       0.02816       0.25510
                        -----------------------------------------
Magnitude (a.u.)       :      2.43375
Magnitude (Debye)      :      6.18609

Rotational constants in cm-1:     0.001723     0.000212     0.000189
Rotational constants in MHz :    51.659346     6.357439     5.666038

                             ****ORCA TERMINATED NORMALLY****
TOTAL RUN TIME: 0 days 0 hours 9 minutes 37 seconds 677 msec
