                         Program Version 4.2.0 -  RELEASE  -
|  1> # ORCA input file
|  2> # SCF done       -207.034560333546          0.000952385106
|  3> ! CAM-B3LYP def2-SVP def2/J RIJCOSX Grid4 TightSCF
|  4> %maxcore 5000
|  5> %tddft
|  6>     Mode sTDDFT
|  7>     Ethresh 5.0
|  8>     maxcore 5000
|  9> end
| 10>
| 11> %pal
| 12>   nprocs 6
| 13>   end
| 14> * xyz 0 1
| 15>    C        0.31810       -17.66635        -4.79895
| 16>    C       -0.19744       -17.96896        -6.02807
| 17>    F        0.41960       -18.86003        -6.81611
| 18>    C       -1.38017       -17.35171        -6.48132
| 19>    F       -1.86319       -17.66880        -7.69073
| 20>    C       -2.03126       -16.43913        -5.69913
| 21>    C       -1.52506       -16.10624        -4.42793
| 22>    C       -0.32961       -16.73057        -3.96794
| 23>    C        0.19736       -16.41536        -2.69372
| 24>    C       -0.45196       -15.50434        -1.90373
| 25>    C       -1.64428       -14.88524        -2.37428
| 26>    C       -2.17771       -15.16679        -3.59813
| 27>    C       -2.14211       -13.95866        -1.34283
| 28>    O       -3.13630       -13.26004        -1.40992
| 29>    C       -1.19668       -14.04543        -0.22569
| 30>    C       -0.15668       -14.99184        -0.56562
| 31>    C        0.91721       -15.36426         0.20335
| 32>    C        1.21494       -14.88428         1.49573
| 33>    N        1.53154       -14.55325         2.54932
| 34>    C        1.89076       -16.30065        -0.20273
| 35>    N        2.71700       -17.05110        -0.47165
| 36>    C       -1.30213       -13.33127         0.94301
| 37>    C       -2.27814       -12.41860         1.35230
| 38>    C       -2.19980       -11.79482         2.61469
| 39>    C       -3.25506       -10.92581         2.86516
| 40>    O       -3.46641       -10.16360         3.96620
| 41>    C       -2.35649       -10.00830         4.82830
| 42>    C       -1.73588       -11.34277         5.20916
| 43>    S       -0.91743       -12.10226         3.76417
| 44>    C       -4.16825       -10.87952         1.80489
| 45>    S       -3.70994       -11.90453         0.47985
| 46>    C       -5.30828       -10.06482         1.79878
| 47>    C       -6.25009        -9.90916         0.77081
| 48>    C       -7.27385        -8.96882         1.11536
| 49>    N       -8.23852        -8.63549         0.26692
| 50>    C       -8.22351        -9.21616        -0.91542
| 51>    C       -9.27971        -8.81024        -1.87350
| 52>    O      -10.16624        -8.03273        -1.57935
| 53>    C       -9.17326        -9.42258        -3.20591
| 54>    C       -8.25360       -10.34009        -3.52127
| 55>    C       -7.23687       -10.85038        -2.58054
| 56>    O       -6.47582       -11.74194        -2.88219
| 57>    C       -7.22362       -10.18485        -1.24989
| 58>    N       -6.25759       -10.51509        -0.41807
| 59>    C       -7.12247        -8.40878         2.39291
| 60>    S       -5.70832        -9.04736         3.15954
| 61>    C       -7.97987        -7.41073         2.86814
| 62>    C       -7.89328        -6.62209         4.01271
| 63>    C       -8.88758        -5.62957         4.06543
| 64>    O       -9.02787        -4.68543         5.01941
| 65>    C       -7.90021        -4.47554         5.84481
| 66>    C       -7.41600        -5.75943         6.49923
| 67>    S       -6.67808        -6.86579         5.24466
| 68>    C       -9.74140        -5.66033         2.96246
| 69>    S       -9.33791        -6.96714         1.88099
| 70>    C      -10.82296        -4.78374         2.72655
| 71>    C      -11.45289        -4.56565         1.53908
| 72>    C      -12.83062        -4.00504         1.51148
| 73>    O      -13.40661        -3.44140         2.41294
| 74>    C      -13.35633        -4.35533         0.17397
| 75>    C      -14.61699        -4.19538        -0.32473
| 76>    C      -14.90157        -4.65686        -1.62991
| 77>    C      -13.87703        -5.29587        -2.38843
| 78>    C      -14.17869        -5.77013        -3.68088
| 79>    C      -15.43272        -5.61069        -4.19952
| 80>    C      -16.44237        -4.97323        -3.45151
| 81>    C      -16.18398        -4.50695        -2.19331
| 82>    F      -17.66387        -4.82876        -3.98577
| 83>    F      -15.71534        -6.06060        -5.43062
| 84>    C      -12.57750        -5.43974        -1.85101
| 85>    C      -12.32118        -4.95967        -0.59594
| 86>    C      -11.08808        -4.92056         0.18064
| 87>    C       -9.82653        -4.91680        -0.35018
| 88>    C       -8.67975        -4.57160         0.39509
| 89>    N       -7.73563        -4.24135         0.95931
| 90>    C       -9.53850        -5.17047        -1.70595
| 91>    N       -9.23486        -5.36466        -2.79567
| 92>    H        1.22440       -18.14845        -4.46704
| 93>    H       -2.93571       -15.97484        -6.05965
| 94>    H        1.10309       -16.90659        -2.37739
| 95>    H       -3.08476       -14.68109        -3.92424
| 96>    H       -0.52352       -13.48231         1.68286
| 97>    H       -2.75450        -9.50188         5.71096
| 98>    H       -1.60186        -9.36784         4.35330
| 99>    H       -2.49747       -12.03203         5.57421
|100>    H       -0.96131       -11.21271         5.96118
|101>    H       -9.90475        -9.08649        -3.92794
|102>    H       -8.21607       -10.77909        -4.50929
|103>    H       -8.23492        -3.76386         6.60333
|104>    H       -7.08843        -4.02496         5.25883
|105>    H       -8.24305        -6.28561         6.97659
|106>    H       -6.63368        -5.55756         7.22698
|107>    H      -11.23626        -4.28372         3.59604
|108>    H      -15.38793        -3.72522         0.26671
|109>    H      -13.41518        -6.25613        -4.26755
|110>    H      -16.96827        -4.02246        -1.63295
|111>    H      -11.81736        -5.94599        -2.42404
|112> *
|113>
|114>                          ****END OF INPUT****

CARTESIAN COORDINATES (ANGSTROEM)
---------------------------------
  C      0.318100  -17.666350   -4.798950
  C     -0.197440  -17.968960   -6.028070
  F      0.419600  -18.860030   -6.816110
  C     -1.380170  -17.351710   -6.481320
  F     -1.863190  -17.668800   -7.690730
  C     -2.031260  -16.439130   -5.699130
  C     -1.525060  -16.106240   -4.427930
  C     -0.329610  -16.730570   -3.967940
  C      0.197360  -16.415360   -2.693720
  C     -0.451960  -15.504340   -1.903730
  C     -1.644280  -14.885240   -2.374280
  C     -2.177710  -15.166790   -3.598130
  C     -2.142110  -13.958660   -1.342830
  O     -3.136300  -13.260040   -1.409920
  C     -1.196680  -14.045430   -0.225690
  C     -0.156680  -14.991840   -0.565620
  C      0.917210  -15.364260    0.203350
  C      1.214940  -14.884280    1.495730
  N      1.531540  -14.553250    2.549320
  C      1.890760  -16.300650   -0.202730
  N      2.717000  -17.051100   -0.471650
  C     -1.302130  -13.331270    0.943010
  C     -2.278140  -12.418600    1.352300
  C     -2.199800  -11.794820    2.614690
  C     -3.255060  -10.925810    2.865160
  O     -3.466410  -10.163600    3.966200
  C     -2.356490  -10.008300    4.828300
  C     -1.735880  -11.342770    5.209160
  S     -0.917430  -12.102260    3.764170
  C     -4.168250  -10.879520    1.804890
  S     -3.709940  -11.904530    0.479850
  C     -5.308280  -10.064820    1.798780
  C     -6.250090   -9.909160    0.770810
  C     -7.273850   -8.968820    1.115360
  N     -8.238520   -8.635490    0.266920
  C     -8.223510   -9.216160   -0.915420
  C     -9.279710   -8.810240   -1.873500
  O    -10.166240   -8.032730   -1.579350
  C     -9.173260   -9.422580   -3.205910
  C     -8.253600  -10.340090   -3.521270
  C     -7.236870  -10.850380   -2.580540
  O     -6.475820  -11.741940   -2.882190
  C     -7.223620  -10.184850   -1.249890
  N     -6.257590  -10.515090   -0.418070
  C     -7.122470   -8.408780    2.392910
  S     -5.708320   -9.047360    3.159540
  C     -7.979870   -7.410730    2.868140
  C     -7.893280   -6.622090    4.012710
  C     -8.887580   -5.629570    4.065430
  O     -9.027870   -4.685430    5.019410
  C     -7.900210   -4.475540    5.844810
  C     -7.416000   -5.759430    6.499230
  S     -6.678080   -6.865790    5.244660
  C     -9.741400   -5.660330    2.962460
  S     -9.337910   -6.967140    1.880990
  C    -10.822960   -4.783740    2.726550
  C    -11.452890   -4.565650    1.539080
  C    -12.830620   -4.005040    1.511480
  O    -13.406610   -3.441400    2.412940
  C    -13.356330   -4.355330    0.173970
  C    -14.616990   -4.195380   -0.324730
  C    -14.901570   -4.656860   -1.629910
  C    -13.877030   -5.295870   -2.388430
  C    -14.178690   -5.770130   -3.680880
  C    -15.432720   -5.610690   -4.199520
  C    -16.442370   -4.973230   -3.451510
  C    -16.183980   -4.506950   -2.193310
  F    -17.663870   -4.828760   -3.985770
  F    -15.715340   -6.060600   -5.430620
  C    -12.577500   -5.439740   -1.851010
  C    -12.321180   -4.959670   -0.595940
  C    -11.088080   -4.920560    0.180640
  C     -9.826530   -4.916800   -0.350180
  C     -8.679750   -4.571600    0.395090
  N     -7.735630   -4.241350    0.959310
  C     -9.538500   -5.170470   -1.705950
  N     -9.234860   -5.364660   -2.795670
  H      1.224400  -18.148450   -4.467040
  H     -2.935710  -15.974840   -6.059650
  H      1.103090  -16.906590   -2.377390
  H     -3.084760  -14.681090   -3.924240
  H     -0.523520  -13.482310    1.682860
  H     -2.754500   -9.501880    5.710960
  H     -1.601860   -9.367840    4.353300
  H     -2.497470  -12.032030    5.574210
  H     -0.961310  -11.212710    5.961180
  H     -9.904750   -9.086490   -3.927940
  H     -8.216070  -10.779090   -4.509290
  H     -8.234920   -3.763860    6.603330
  H     -7.088430   -4.024960    5.258830
  H     -8.243050   -6.285610    6.976590
  H     -6.633680   -5.557560    7.226980
  H    -11.236260   -4.283720    3.596040
  H    -15.387930   -3.725220    0.266710
  H    -13.415180   -6.256130   -4.267550
  H    -16.968270   -4.022460   -1.632950
  H    -11.817360   -5.945990   -2.424040

 Total Charge           Charge          ....    0
 Multiplicity           Mult            ....    1
 Number of Electrons    NEL             ....  562
 Basis Dimension        Dim             .... 1198

ORBITAL ENERGIES
----------------

  NO   OCC          E(Eh)            E(eV)
   0   2.0000     -89.001118     -2421.8436
   1   2.0000     -88.968079     -2420.9445
   2   2.0000     -88.962755     -2420.7996
   3   2.0000     -88.956760     -2420.6365
   4   2.0000     -88.952506     -2420.5208
   5   2.0000     -24.794322      -674.6878
   6   2.0000     -24.793495      -674.6653
   7   2.0000     -24.792155      -674.6288
   8   2.0000     -24.791809      -674.6194
   9   2.0000     -19.282640      -524.7073
  10   2.0000     -19.274006      -524.4724
  11   2.0000     -19.233330      -523.3655
  12   2.0000     -19.227733      -523.2132
  13   2.0000     -19.217196      -522.9265
  14   2.0000     -19.206635      -522.6391
  15   2.0000     -14.454523      -393.3276
  16   2.0000     -14.452070      -393.2608
  17   2.0000     -14.413278      -392.2052
  18   2.0000     -14.410130      -392.1196
  19   2.0000     -14.405950      -392.0058
  20   2.0000     -14.405108      -391.9829
  21   2.0000     -10.381254      -282.4883
  22   2.0000     -10.377110      -282.3755
  23   2.0000     -10.377053      -282.3740
  24   2.0000     -10.376353      -282.3549
  25   2.0000     -10.374279      -282.2985
  26   2.0000     -10.373945      -282.2894
  27   2.0000     -10.364561      -282.0340
  28   2.0000     -10.360510      -281.9238
  29   2.0000     -10.358837      -281.8783
  30   2.0000     -10.358120      -281.8588
  31   2.0000     -10.356128      -281.8046
  32   2.0000     -10.353353      -281.7291
  33   2.0000     -10.346223      -281.5350
  34   2.0000     -10.345274      -281.5092
  35   2.0000     -10.338268      -281.3186
  36   2.0000     -10.337485      -281.2973
  37   2.0000     -10.336498      -281.2704
  38   2.0000     -10.335514      -281.2436
  39   2.0000     -10.335308      -281.2380
  40   2.0000     -10.334045      -281.2037
  41   2.0000     -10.332378      -281.1583
  42   2.0000     -10.330973      -281.1201
  43   2.0000     -10.330946      -281.1193
  44   2.0000     -10.327460      -281.0245
  45   2.0000     -10.327328      -281.0209
  46   2.0000     -10.325725      -280.9773
  47   2.0000     -10.323673      -280.9214
  48   2.0000     -10.322981      -280.9026
  49   2.0000     -10.320442      -280.8335
  50   2.0000     -10.319352      -280.8038
  51   2.0000     -10.316014      -280.7130
  52   2.0000     -10.313722      -280.6506
  53   2.0000     -10.312277      -280.6113
  54   2.0000     -10.310450      -280.5616
  55   2.0000     -10.309559      -280.5374
  56   2.0000     -10.309506      -280.5359
  57   2.0000     -10.308492      -280.5083
  58   2.0000     -10.305698      -280.4323
  59   2.0000     -10.305439      -280.4252
  60   2.0000     -10.304602      -280.4025
  61   2.0000     -10.302553      -280.3467
  62   2.0000     -10.302529      -280.3461
  63   2.0000     -10.302275      -280.3392
  64   2.0000     -10.297543      -280.2104
  65   2.0000     -10.297280      -280.2032
  66   2.0000     -10.297129      -280.1991
  67   2.0000     -10.296734      -280.1884
  68   2.0000     -10.296107      -280.1713
  69   2.0000     -10.294373      -280.1241
  70   2.0000     -10.294294      -280.1220
  71   2.0000     -10.293512      -280.1007
  72   2.0000     -10.293405      -280.0978
  73   2.0000     -10.291301      -280.0405
  74   2.0000     -10.288466      -279.9634
  75   2.0000     -10.288292      -279.9587
  76   2.0000     -10.285463      -279.8817
  77   2.0000      -8.093940      -220.2473
  78   2.0000      -8.060175      -219.3285
  79   2.0000      -8.056119      -219.2181
  80   2.0000      -8.052148      -219.1101
  81   2.0000      -8.047682      -218.9886
  82   2.0000      -6.063113      -164.9857
  83   2.0000      -6.058635      -164.8639
  84   2.0000      -6.056816      -164.8143
  85   2.0000      -6.029944      -164.0831
  86   2.0000      -6.025798      -163.9703
  87   2.0000      -6.025359      -163.9584
  88   2.0000      -6.022483      -163.8801
  89   2.0000      -6.021645      -163.8573
  90   2.0000      -6.021505      -163.8535
  91   2.0000      -6.018529      -163.7725
  92   2.0000      -6.018036      -163.7591
  93   2.0000      -6.017476      -163.7438
  94   2.0000      -6.014048      -163.6506
  95   2.0000      -6.011850      -163.5907
  96   2.0000      -6.007307      -163.4671
  97   2.0000      -1.316638       -35.8275
  98   2.0000      -1.314442       -35.7678
  99   2.0000      -1.301785       -35.4234
 100   2.0000      -1.299675       -35.3660
 101   2.0000      -1.190697       -32.4005
 102   2.0000      -1.184003       -32.2184
 103   2.0000      -1.147797       -31.2331
 104   2.0000      -1.142280       -31.0830
 105   2.0000      -1.133821       -30.8529
 106   2.0000      -1.122047       -30.5324
 107   2.0000      -1.105885       -30.0927
 108   2.0000      -1.034505       -28.1503
 109   2.0000      -1.018445       -27.7133
 110   2.0000      -1.015703       -27.6387
 111   2.0000      -1.010982       -27.5102
 112   2.0000      -1.002715       -27.2853
 113   2.0000      -1.000300       -27.2195
 114   2.0000      -0.995167       -27.0799
 115   2.0000      -0.990804       -26.9611
 116   2.0000      -0.990015       -26.9397
 117   2.0000      -0.983424       -26.7603
 118   2.0000      -0.976886       -26.5824
 119   2.0000      -0.972860       -26.4729
 120   2.0000      -0.943416       -25.6716
 121   2.0000      -0.941930       -25.6312
 122   2.0000      -0.937047       -25.4983
 123   2.0000      -0.927818       -25.2472
 124   2.0000      -0.922574       -25.1045
 125   2.0000      -0.906585       -24.6694
 126   2.0000      -0.899425       -24.4746
 127   2.0000      -0.891675       -24.2637
 128   2.0000      -0.888053       -24.1651
 129   2.0000      -0.884419       -24.0663
 130   2.0000      -0.881350       -23.9828
 131   2.0000      -0.879609       -23.9354
 132   2.0000      -0.875287       -23.8178
 133   2.0000      -0.870608       -23.6904
 134   2.0000      -0.857144       -23.3241
 135   2.0000      -0.836425       -22.7603
 136   2.0000      -0.834338       -22.7035
 137   2.0000      -0.832386       -22.6504
 138   2.0000      -0.821433       -22.3523
 139   2.0000      -0.802187       -21.8286
 140   2.0000      -0.796200       -21.6657
 141   2.0000      -0.792212       -21.5572
 142   2.0000      -0.782774       -21.3004
 143   2.0000      -0.782154       -21.2835
 144   2.0000      -0.780489       -21.2382
 145   2.0000      -0.763773       -20.7833
 146   2.0000      -0.757607       -20.6155
 147   2.0000      -0.756016       -20.5722
 148   2.0000      -0.750761       -20.4292
 149   2.0000      -0.743535       -20.2326
 150   2.0000      -0.738017       -20.0825
 151   2.0000      -0.721413       -19.6306
 152   2.0000      -0.714864       -19.4524
 153   2.0000      -0.709711       -19.3122
 154   2.0000      -0.708304       -19.2739
 155   2.0000      -0.694296       -18.8928
 156   2.0000      -0.690090       -18.7783
 157   2.0000      -0.684185       -18.6176
 158   2.0000      -0.676882       -18.4189
 159   2.0000      -0.675092       -18.3702
 160   2.0000      -0.671740       -18.2790
 161   2.0000      -0.671054       -18.2603
 162   2.0000      -0.654820       -17.8186
 163   2.0000      -0.652245       -17.7485
 164   2.0000      -0.648700       -17.6520
 165   2.0000      -0.646558       -17.5937
 166   2.0000      -0.640816       -17.4375
 167   2.0000      -0.636534       -17.3210
 168   2.0000      -0.635926       -17.3044
 169   2.0000      -0.634083       -17.2543
 170   2.0000      -0.629021       -17.1165
 171   2.0000      -0.625042       -17.0083
 172   2.0000      -0.612481       -16.6664
 173   2.0000      -0.609506       -16.5855
 174   2.0000      -0.606162       -16.4945
 175   2.0000      -0.601936       -16.3795
 176   2.0000      -0.600911       -16.3516
 177   2.0000      -0.593425       -16.1479
 178   2.0000      -0.588229       -16.0065
 179   2.0000      -0.586143       -15.9498
 180   2.0000      -0.581467       -15.8225
 181   2.0000      -0.581274       -15.8173
 182   2.0000      -0.579122       -15.7587
 183   2.0000      -0.576843       -15.6967
 184   2.0000      -0.573710       -15.6114
 185   2.0000      -0.572127       -15.5684
 186   2.0000      -0.566664       -15.4197
 187   2.0000      -0.565359       -15.3842
 188   2.0000      -0.562025       -15.2935
 189   2.0000      -0.560644       -15.2559
 190   2.0000      -0.559020       -15.2117
 191   2.0000      -0.551411       -15.0047
 192   2.0000      -0.548208       -14.9175
 193   2.0000      -0.546484       -14.8706
 194   2.0000      -0.542994       -14.7756
 195   2.0000      -0.542771       -14.7695
 196   2.0000      -0.541086       -14.7237
 197   2.0000      -0.538250       -14.6465
 198   2.0000      -0.537932       -14.6379
 199   2.0000      -0.534104       -14.5337
 200   2.0000      -0.532972       -14.5029
 201   2.0000      -0.530395       -14.4328
 202   2.0000      -0.528845       -14.3906
 203   2.0000      -0.525790       -14.3075
 204   2.0000      -0.524144       -14.2627
 205   2.0000      -0.523040       -14.2326
 206   2.0000      -0.522920       -14.2294
 207   2.0000      -0.520583       -14.1658
 208   2.0000      -0.514869       -14.0103
 209   2.0000      -0.513859       -13.9828
 210   2.0000      -0.512568       -13.9477
 211   2.0000      -0.511840       -13.9279
 212   2.0000      -0.510392       -13.8885
 213   2.0000      -0.506367       -13.7789
 214   2.0000      -0.505108       -13.7447
 215   2.0000      -0.503156       -13.6916
 216   2.0000      -0.500670       -13.6239
 217   2.0000      -0.496841       -13.5197
 218   2.0000      -0.494063       -13.4441
 219   2.0000      -0.493953       -13.4411
 220   2.0000      -0.493310       -13.4237
 221   2.0000      -0.487873       -13.2757
 222   2.0000      -0.485234       -13.2039
 223   2.0000      -0.484627       -13.1874
 224   2.0000      -0.482131       -13.1195
 225   2.0000      -0.476018       -12.9531
 226   2.0000      -0.471633       -12.8338
 227   2.0000      -0.470519       -12.8035
 228   2.0000      -0.467905       -12.7323
 229   2.0000      -0.464793       -12.6477
 230   2.0000      -0.460131       -12.5208
 231   2.0000      -0.459687       -12.5087
 232   2.0000      -0.457364       -12.4455
 233   2.0000      -0.454295       -12.3620
 234   2.0000      -0.451338       -12.2815
 235   2.0000      -0.449286       -12.2257
 236   2.0000      -0.446704       -12.1554
 237   2.0000      -0.443437       -12.0665
 238   2.0000      -0.442638       -12.0448
 239   2.0000      -0.440223       -11.9791
 240   2.0000      -0.438104       -11.9214
 241   2.0000      -0.437188       -11.8965
 242   2.0000      -0.434623       -11.8267
 243   2.0000      -0.433690       -11.8013
 244   2.0000      -0.427936       -11.6447
 245   2.0000      -0.427518       -11.6334
 246   2.0000      -0.425705       -11.5840
 247   2.0000      -0.423113       -11.5135
 248   2.0000      -0.418041       -11.3755
 249   2.0000      -0.416340       -11.3292
 250   2.0000      -0.415650       -11.3104
 251   2.0000      -0.413450       -11.2505
 252   2.0000      -0.409537       -11.1441
 253   2.0000      -0.405499       -11.0342
 254   2.0000      -0.403752       -10.9867
 255   2.0000      -0.400253       -10.8914
 256   2.0000      -0.396763       -10.7965
 257   2.0000      -0.392636       -10.6842
 258   2.0000      -0.388843       -10.5809
 259   2.0000      -0.385265       -10.4836
 260   2.0000      -0.379803       -10.3350
 261   2.0000      -0.376965       -10.2577
 262   2.0000      -0.374046       -10.1783
 263   2.0000      -0.368046       -10.0150
 264   2.0000      -0.365768        -9.9531
 265   2.0000      -0.356312        -9.6958
 266   2.0000      -0.352455        -9.5908
 267   2.0000      -0.350182        -9.5289
 268   2.0000      -0.345926        -9.4131
 269   2.0000      -0.337607        -9.1868
 270   2.0000      -0.330902        -9.0043
 271   2.0000      -0.328455        -8.9377
 272   2.0000      -0.322100        -8.7648
 273   2.0000      -0.314110        -8.5474
 274   2.0000      -0.308752        -8.4016
 275   2.0000      -0.299242        -8.1428
 276   2.0000      -0.293818        -7.9952
 277   2.0000      -0.290015        -7.8917
 278   2.0000      -0.288572        -7.8524
 279   2.0000      -0.278953        -7.5907
 280   2.0000      -0.239705        -6.5227
 281   0.0000      -0.118301        -3.2191
 282   0.0000      -0.096697        -2.6313
 283   0.0000      -0.077869        -2.1189
 284   0.0000      -0.073875        -2.0102
 285   0.0000      -0.055638        -1.5140

MULLIKEN ATOMIC CHARGES
-----------------------
   0 C :   -0.109625
   1 C :    0.241860
   2 F :   -0.173157
   3 C :    0.238818
   4 F :   -0.173056
   5 C :   -0.105832
   6 C :    0.115777
   7 C :    0.114504
   8 C :   -0.085902
   9 C :    0.043311
  10 C :   -0.000921
  11 C :   -0.082719
  12 C :    0.168204
  13 O :   -0.171051
  14 C :   -0.101841
  15 C :    0.337413
  16 C :   -0.357531
  17 C :   -0.192087
  18 N :    0.146569
  19 C :   -0.185968
  20 N :    0.139504
  21 C :   -0.058069
  22 C :   -0.101335
  23 C :   -0.042520
  24 C :    0.166459
  25 O :   -0.326081
  26 C :    0.223726
  27 C :   -0.098348
  28 S :    0.048061
  29 C :   -0.098704
  30 S :    0.260607
  31 C :   -0.163085
  32 C :    0.045051
  33 C :    0.017924
  34 N :    0.024377
  35 C :   -0.104853
  36 C :    0.169296
  37 O :   -0.123568
  38 C :   -0.013866
  39 C :   -0.010495
  40 C :    0.133738
  41 O :   -0.093218
  42 C :   -0.118131
  43 N :    0.066936
  44 C :   -0.112199
  45 S :    0.239917
  46 C :   -0.108433
  47 C :   -0.070744
  48 C :    0.228511
  49 O :   -0.283878
  50 C :    0.216579
  51 C :   -0.095352
  52 S :    0.013896
  53 C :   -0.173764
  54 S :    0.190764
  55 C :    0.063633
  56 C :   -0.132102
  57 C :    0.136964
  58 O :   -0.144569
  59 C :    0.015321
  60 C :   -0.089024
  61 C :    0.113018
  62 C :    0.115097
  63 C :   -0.106816
  64 C :    0.239392
  65 C :    0.237491
  66 C :   -0.106105
  67 F :   -0.175292
  68 F :   -0.174767
  69 C :   -0.068275
  70 C :    0.026941
  71 C :    0.248972
  72 C :   -0.310833
  73 C :   -0.207356
  74 N :    0.159441
  75 C :   -0.167014
  76 N :    0.146094
  77 H :    0.005931
  78 H :   -0.001171
  79 H :   -0.008981
  80 H :   -0.004546
  81 H :    0.020831
  82 H :    0.037586
  83 H :    0.042652
  84 H :    0.079597
  85 H :    0.071824
  86 H :    0.016928
  87 H :    0.018889
  88 H :    0.041379
  89 H :    0.049347
  90 H :    0.079948
  91 H :    0.066799
  92 H :    0.025748
  93 H :   -0.012081
  94 H :   -0.000429
  95 H :   -0.002457
  96 H :   -0.003476
Sum of atomic charges:   -0.0000000

LOEWDIN ATOMIC CHARGES
----------------------
   0 C :   -0.029675
   1 C :    0.065498
   2 F :   -0.050525
   3 C :    0.066240
   4 F :   -0.050808
   5 C :   -0.033007
   6 C :   -0.009479
   7 C :   -0.007248
   8 C :    0.015938
   9 C :   -0.021417
  10 C :   -0.050726
  11 C :    0.030250
  12 C :    0.083008
  13 O :   -0.156437
  14 C :   -0.109297
  15 C :    0.075167
  16 C :   -0.146495
  17 C :   -0.023628
  18 N :   -0.055973
  19 C :   -0.017342
  20 N :   -0.059922
  21 C :    0.045364
  22 C :   -0.203077
  23 C :   -0.189793
  24 C :   -0.018621
  25 O :   -0.104862
  26 C :    0.075575
  27 C :   -0.138310
  28 S :    0.335356
  29 C :   -0.195838
  30 S :    0.545702
  31 C :   -0.190001
  32 C :   -0.040673
  33 C :   -0.047014
  34 N :   -0.010746
  35 C :   -0.036259
  36 C :    0.067362
  37 O :   -0.108177
  38 C :   -0.010699
  39 C :   -0.008531
  40 C :    0.055839
  41 O :   -0.089895
  42 C :   -0.035728
  43 N :    0.001303
  44 C :   -0.200608
  45 S :    0.544984
  46 C :   -0.179689
  47 C :   -0.221743
  48 C :    0.026962
  49 O :   -0.084158
  50 C :    0.075689
  51 C :   -0.136712
  52 S :    0.297747
  53 C :   -0.214037
  54 S :    0.530295
  55 C :    0.056165
  56 C :   -0.098318
  57 C :    0.081663
  58 O :   -0.146820
  59 C :   -0.052677
  60 C :    0.025949
  61 C :   -0.010560
  62 C :   -0.006027
  63 C :   -0.031330
  64 C :    0.064474
  65 C :    0.064252
  66 C :   -0.033977
  67 F :   -0.052791
  68 F :   -0.052631
  69 C :    0.018238
  70 C :   -0.015504
  71 C :    0.062150
  72 C :   -0.139638
  73 C :   -0.033222
  74 N :   -0.062663
  75 C :   -0.014294
  76 N :   -0.066867
  77 H :    0.047202
  78 H :    0.044699
  79 H :    0.039412
  80 H :    0.042576
  81 H :    0.040216
  82 H :    0.033285
  83 H :    0.024502
  84 H :    0.034026
  85 H :    0.041538
  86 H :    0.046258
  87 H :    0.046173
  88 H :    0.035290
  89 H :    0.027387
  90 H :    0.033977
  91 H :    0.038886
  92 H :    0.050733
  93 H :    0.039075
  94 H :    0.045173
  95 H :    0.043784
  96 H :    0.039108

  Mayer bond orders larger than 0.100000
B(  0-C ,  1-C ) :   1.4373 B(  0-C ,  5-C ) :   0.1090 B(  0-C ,  7-C ) :   1.1896
B(  0-C , 77-H ) :   1.0076 B(  1-C ,  2-F ) :   1.1322 B(  1-C ,  3-C ) :   1.1943
B(  3-C ,  4-F ) :   1.1325 B(  3-C ,  5-C ) :   1.4391 B(  5-C ,  6-C ) :   1.1922
B(  5-C , 78-H ) :   1.0084 B(  6-C ,  7-C ) :   1.2617 B(  6-C , 11-C ) :   1.1789
B(  7-C ,  8-C ) :   1.2100 B(  8-C ,  9-C ) :   1.4559 B(  8-C , 79-H ) :   0.9902
B(  9-C , 10-C ) :   1.2245 B(  9-C , 15-C ) :   0.9765 B( 10-C , 11-C ) :   1.4732
B( 10-C , 12-C ) :   0.9506 B( 11-C , 80-H ) :   1.0189 B( 12-C , 13-O ) :   2.1261
B( 12-C , 14-C ) :   0.9810 B( 14-C , 15-C ) :   1.0956 B( 14-C , 21-C ) :   1.4908
B( 15-C , 16-C ) :   1.6070 B( 16-C , 17-C ) :   1.1481 B( 16-C , 19-C ) :   1.1512
B( 17-C , 18-N ) :   2.9617 B( 19-C , 20-N ) :   2.9564 B( 21-C , 22-C ) :   1.3053
B( 21-C , 81-H ) :   0.9336 B( 22-C , 23-C ) :   1.3758 B( 22-C , 29-C ) :   0.1034
B( 22-C , 30-S ) :   1.0583 B( 23-C , 24-C ) :   1.3440 B( 23-C , 28-S ) :   1.0357
B( 24-C , 25-O ) :   1.1297 B( 24-C , 29-C ) :   1.3610 B( 25-O , 26-C ) :   0.9419
B( 26-C , 27-C ) :   1.0426 B( 26-C , 82-H ) :   0.9514 B( 26-C , 83-H ) :   0.9540
B( 27-C , 28-S ) :   1.0077 B( 27-C , 84-H ) :   0.9437 B( 27-C , 85-H ) :   0.9479
B( 29-C , 30-S ) :   1.0970 B( 29-C , 31-C ) :   1.2841 B( 31-C , 32-C ) :   1.2869
B( 31-C , 44-C ) :   0.1150 B( 31-C , 45-S ) :   1.1551 B( 32-C , 33-C ) :   1.2077
B( 32-C , 43-N ) :   1.4570 B( 33-C , 34-N ) :   1.4204 B( 33-C , 44-C ) :   1.2896
B( 34-N , 35-C ) :   1.6822 B( 35-C , 36-C ) :   0.9072 B( 35-C , 42-C ) :   1.1220
B( 36-C , 37-O ) :   2.1679 B( 36-C , 38-C ) :   1.0312 B( 38-C , 39-C ) :   1.6802
B( 38-C , 86-H ) :   0.9983 B( 39-C , 40-C ) :   1.0191 B( 39-C , 87-H ) :   0.9956
B( 40-C , 41-O ) :   2.2589 B( 40-C , 42-C ) :   0.8914 B( 42-C , 43-N ) :   1.6894
B( 44-C , 45-S ) :   1.1327 B( 44-C , 46-C ) :   1.2597 B( 46-C , 47-C ) :   1.4505
B( 46-C , 53-C ) :   0.1062 B( 46-C , 54-S ) :   1.1548 B( 47-C , 48-C ) :   1.2731
B( 47-C , 52-S ) :   1.0022 B( 48-C , 49-O ) :   1.2077 B( 48-C , 53-C ) :   1.4288
B( 49-O , 50-C ) :   0.9524 B( 50-C , 51-C ) :   1.0423 B( 50-C , 88-H ) :   0.9521
B( 50-C , 89-H ) :   0.9523 B( 51-C , 52-S ) :   0.9992 B( 51-C , 90-H ) :   0.9434
B( 51-C , 91-H ) :   0.9483 B( 53-C , 54-S ) :   1.0561 B( 53-C , 55-C ) :   1.1506
B( 55-C , 56-C ) :   1.6081 B( 55-C , 92-H ) :   0.9557 B( 56-C , 57-C ) :   0.9477
B( 56-C , 71-C ) :   1.0356 B( 57-C , 58-O ) :   2.2757 B( 57-C , 59-C ) :   0.9133
B( 59-C , 60-C ) :   1.4764 B( 59-C , 70-C ) :   1.2207 B( 60-C , 61-C ) :   1.1952
B( 60-C , 93-H ) :   1.0155 B( 61-C , 62-C ) :   1.2571 B( 61-C , 66-C ) :   1.1940
B( 62-C , 63-C ) :   1.1905 B( 62-C , 69-C ) :   1.2040 B( 63-C , 64-C ) :   1.4412
B( 63-C , 66-C ) :   0.1093 B( 63-C , 94-H ) :   1.0068 B( 64-C , 65-C ) :   1.1931
B( 64-C , 68-F ) :   1.1301 B( 65-C , 66-C ) :   1.4439 B( 65-C , 67-F ) :   1.1297
B( 66-C , 95-H ) :   1.0062 B( 69-C , 70-C ) :   1.4723 B( 69-C , 96-H ) :   0.9913
B( 70-C , 71-C ) :   1.0003 B( 71-C , 72-C ) :   1.6632 B( 72-C , 73-C ) :   1.1534
B( 72-C , 75-C ) :   1.1470 B( 73-C , 74-N ) :   3.0201 B( 75-C , 76-N ) :   2.9753

-----------------------------------------------------------------------------
         ABSORPTION SPECTRUM VIA TRANSITION ELECTRIC DIPOLE MOMENTS
-----------------------------------------------------------------------------
State   Energy  Wavelength   fosc         T2         TX        TY        TZ
        (cm-1)    (nm)                  (au**2)     (au)      (au)      (au)
-----------------------------------------------------------------------------
   0   10830.1    923.4   0.883092452  26.84407   3.66308  -3.58925  -0.73701
   1   15552.9    643.0   0.104028734   2.20201  -1.31606   0.68159   0.07360
   2   19172.5    521.6   0.275627944   4.73283   1.48254  -1.58622   0.13720
   3   19713.0    507.3   0.093934424   1.56873  -0.88640   0.64797   0.60263
   4   20293.6    492.8   0.108081229   1.75334  -1.04541   0.29943  -0.75552
   5   20715.4    482.7   0.336530714   5.34820   0.16495  -0.86598  -2.13801
   6   21378.0    467.8   0.026368387   0.40606   0.53981  -0.02462  -0.33773
   7   23549.3    424.6   0.025589408   0.35773   0.22817  -0.22361   0.50564
   8   23965.6    417.3   0.007777185   0.10683   0.19420   0.03097   0.26107
   9   24916.9    401.3   0.008939117   0.11811  -0.20696   0.03529  -0.27209
  10   25041.1    399.3   0.011258028   0.14801  -0.03346  -0.10951  -0.36728
  11   25449.0    392.9   0.007319115   0.09468   0.08935   0.03142   0.29276
  12   26079.9    383.4   0.020623859   0.26034  -0.02291   0.13268   0.49215
  13   26201.0    381.7   0.076654970   0.96316  -0.00706  -0.46674  -0.86329
  14   26667.1    375.0   0.005213337   0.06436   0.03251   0.01748  -0.25099
  15   26923.1    371.4   0.019847824   0.24270   0.40447  -0.23129   0.16002
  16   27079.8    369.3   0.028637722   0.34815  -0.33175  -0.08055  -0.48125
  17   27341.6    365.7   0.108359419   1.30472  -1.03269   0.47553  -0.11020
  18   27430.4    364.6   0.072758197   0.87322  -0.73725   0.22578  -0.52793
  19   28041.5    356.6   0.045447388   0.53356  -0.65935   0.22050  -0.22405
  20   28396.7    352.2   0.012480418   0.14469  -0.15043  -0.09836  -0.33524
  21   28530.1    350.5   0.053746238   0.62018   0.43261   0.05212   0.65598
  22   28917.6    345.8   0.042624418   0.48526  -0.56566   0.31914  -0.25187
  23   29139.9    343.2   0.012740031   0.14393  -0.31977   0.20212  -0.02882
  24   29800.1    335.6   0.096167137   1.06239   0.98224  -0.31037  -0.03553
  25   30182.3    331.3   0.090883790   0.99131   0.49502  -0.20137  -0.84007
  26   30410.0    328.8   0.005254145   0.05688  -0.06230   0.21789  -0.07432
  27   31060.8    321.9   0.066774575   0.70774   0.01455  -0.33288  -0.77248
  28   31538.5    317.1   0.186467802   1.94643   0.12728  -0.78424  -1.14682
  29   32188.0    310.7   0.344431345   3.52277  -1.24688  -0.18762  -1.39027
  30   32308.5    309.5   0.073786528   0.75186  -0.60473  -0.28701  -0.55117
  31   32496.1    307.7   0.042546389   0.43103  -0.18804   0.18044   0.60259
  32   32668.6    306.1   0.087776337   0.88455  -0.36387  -0.20734  -0.84211
  33   32916.8    303.8   0.091176650   0.91189   0.58711  -0.02750   0.75262
  34   33144.1    301.7   0.001473895   0.01464   0.01372   0.07216   0.09615
  35   33263.7    300.6   0.130151291   1.28811   0.60200  -0.11013   0.95581
  36   33506.7    298.4   0.039482795   0.38793  -0.54402   0.13485  -0.27164
  37   33588.5    297.7   0.135537859   1.32845   0.78001   0.07954   0.84481
  38   33822.6    295.7   0.168309760   1.63824   0.68182   0.24757   1.05455
  39   33935.0    294.7   0.042744105   0.41467   0.56688  -0.15825  -0.26128
  40   34013.9    294.0   0.083757407   0.81067   0.38095   0.27368   0.76853
  41   34264.0    291.9   0.005336227   0.05127  -0.14383  -0.11570  -0.13114
  42   34533.4    289.6   0.093339038   0.88981  -0.06741  -0.37403  -0.86335
  43   34828.9    287.1   0.015938367   0.15065  -0.02691   0.14308   0.35980
  44   35093.0    285.0   0.009942273   0.09327  -0.20174   0.17039  -0.15343
  45   35222.2    283.9   0.002795208   0.02613  -0.15804   0.02810  -0.01895
  46   35567.8    281.2   0.031799687   0.29433  -0.47460   0.08597   0.24839
  47   35759.2    279.6   0.158050775   1.45507  -1.13135   0.21715  -0.35771
  48   35993.7    277.8   0.013676261   0.12509  -0.16294   0.12995   0.28575
  49   36165.9    276.5   0.137463088   1.25130  -1.05380   0.31587  -0.20254
  50   36241.3    275.9   0.319007436   2.89782   0.79355   0.33419   1.46848
  51   36432.6    274.5   0.018869860   0.17051  -0.38718  -0.03400   0.13944
  52   36486.0    274.1   0.053059630   0.47876  -0.33502   0.20433   0.56988
  53   36558.4    273.5   0.128075739   1.15334  -0.61028  -0.50057  -0.72824
  54   36721.9    272.3   0.238069763   2.13429  -1.20244  -0.15343  -0.81542
  55   36961.7    270.6   0.202828757   1.80656  -1.27957   0.22140  -0.34675
  56   37018.4    270.1   0.009830838   0.08743   0.19707   0.07721   0.20647
  57   37492.7    266.7   0.255500713   2.24348   1.15782  -0.16068   0.93654
  58   37518.1    266.5   0.014994450   0.13157  -0.25301   0.21050  -0.15247
  59   37964.3    263.4   0.061059786   0.52949   0.01628   0.01019   0.72741
  60   38169.3    262.0   0.024002068   0.20702  -0.28054  -0.00527  -0.35818
  61   38343.5    260.8   0.013364335   0.11474   0.26379  -0.06295   0.20296
  62   38426.2    260.2   0.013679642   0.11720   0.27463   0.00498   0.20434
  63   38821.0    257.6   0.018671437   0.15834   0.20184  -0.12231   0.32037
  64   39358.1    254.1   0.037613171   0.31462  -0.07503   0.32842   0.44847
  65   39462.0    253.4   0.031716487   0.26459   0.12817  -0.19304  -0.45924
  66   39532.1    253.0   0.070525471   0.58732  -0.24284   0.29389   0.66481
  67   39611.1    252.5   0.084110246   0.69905   0.51461   0.04545   0.65739
  68   39765.5    251.5   0.165142906   1.36719  -0.33705   0.73015   0.84880
  69   40064.3    249.6   0.049499877   0.40675  -0.22940   0.20693   0.55794
  70   40270.9    248.3   0.019633159   0.16050   0.05128  -0.39234  -0.06276

FINAL SINGLE POINT ENERGY     -5311.412413862336

DIPOLE MOMENT
-------------
                                X             Y             Z
Electronic contribution:     -9.44737     -16.94452     -38.84129
Nuclear contribution   :      8.39465      17.68065      41.83044
                        -----------------------------------------
Total Dipole Moment    :     -1.05271       0.73613       2.98914
                        -----------------------------------------
Magnitude (a.u.)       :      3.25347
Magnitude (Debye)      :      8.26966

Rotational constants in cm-1:     0.001121     0.000343     0.000266
Rotational constants in MHz :    33.592743    10.268772     7.987296

                             ****ORCA TERMINATED NORMALLY****
TOTAL RUN TIME: 0 days 0 hours 12 minutes 23 seconds 946 msec
