                         Program Version 4.2.0 -  RELEASE  -
|  1> # ORCA input file
|  2> # SCF done       -197.837768010179          0.000776441169
|  3> ! CAM-B3LYP def2-SVP def2/J RIJCOSX Grid4 TightSCF
|  4> %maxcore 5000
|  5> %tddft
|  6>     Mode sTDDFT
|  7>     Ethresh 5.0
|  8>     maxcore 5000
|  9> end
| 10>
| 11> %pal
| 12>   nprocs 6
| 13>   end
| 14> * xyz 0 1
| 15>    C       -0.17300        -6.22045         4.14507
| 16>    C        1.07139        -6.52312         3.66202
| 17>    C        2.17992        -6.81802         4.48018
| 18>    N        3.10463        -7.06036         5.11440
| 19>    C        1.30377        -6.70210         2.28162
| 20>    N        1.47896        -6.91573         1.16726
| 21>    C       -0.62523        -6.35323         5.52495
| 22>    C       -2.02163        -6.55016         5.52444
| 23>    C       -2.71794        -6.77759         6.69491
| 24>    C       -2.00602        -6.79858         7.88884
| 25>    C       -0.62147        -6.58900         7.89578
| 26>    C        0.07956        -6.36957         6.71475
| 27>   Cl        0.23584        -6.60906         9.38152
| 28>   Cl       -2.83448        -7.09206         9.36137
| 29>    C       -2.52473        -6.49538         4.13675
| 30>    O       -3.64168        -6.73048         3.72905
| 31>    C       -1.35638        -6.06065         3.32889
| 32>    C       -1.55221        -5.53881         2.09108
| 33>    C       -0.70987        -4.71977         1.29831
| 34>    C       -0.86276        -4.51004        -0.06822
| 35>    C        0.10677        -3.62267        -0.60139
| 36>    C        0.98051        -3.14970         0.40724
| 37>    S        0.61505        -3.79162         1.97069
| 38>    N        1.96739        -2.29472         0.22868
| 39>    C        2.13862        -1.86584        -1.00081
| 40>    C        1.32216        -2.22020        -2.09691
| 41>    C        0.27818        -3.10036        -1.90890
| 42>    C       -0.69294        -3.40826        -3.00932
| 43>    C       -1.93050        -2.51689        -2.87723
| 44>    C        1.68367        -1.49321        -3.35869
| 45>    C        3.09542        -0.93735        -3.18603
| 46>    S        3.40670        -0.74488        -1.38719
| 47>    C       -1.90481        -5.25319        -0.76330
| 48>    N       -1.61460        -6.31451        -1.59452
| 49>    C       -2.77133        -7.00770        -1.81124
| 50>    C       -3.30481        -8.16818        -2.37392
| 51>    C       -4.64235        -8.20614        -1.97216
| 52>    N       -4.93651        -7.07097        -1.24457
| 53>    C       -3.80981        -6.32716        -1.13835
| 54>    C       -3.26286        -5.21289        -0.49380
| 55>    C       -5.52983        -9.31840        -2.00485
| 56>    C       -6.36552        -9.57611        -0.97088
| 57>    C       -7.15139       -10.74548        -0.81907
| 58>    C       -7.57321       -11.28387         0.39979
| 59>    C       -8.48385       -12.38498         0.21230
| 60>    C       -8.69814       -12.64055        -1.15789
| 61>    S       -7.81432       -11.56218        -2.19848
| 62>    N       -9.46360       -13.58460        -1.66556
| 63>    C      -10.07126       -14.35763        -0.79517
| 64>    C       -9.91966       -14.25421         0.59822
| 65>    C       -9.10345       -13.26866         1.12710
| 66>    C       -8.91487       -13.17182         2.61291
| 67>    C       -9.97511       -12.27706         3.25952
| 68>    C      -10.74687       -15.25059         1.35632
| 69>    C      -11.16286       -16.34870         0.38064
| 70>    S      -11.13763       -15.63566        -1.31062
| 71>    C       -7.14981       -10.77846         1.66200
| 72>    C       -5.90292       -10.33342         2.01686
| 73>    C       -5.55589        -9.79194         3.31879
| 74>    C       -6.40836        -9.23232         4.23339
| 75>    C       -5.97546        -8.64652         5.44010
| 76>    N       -5.68333        -8.15709         6.43677
| 77>    C       -7.80220        -9.10962         4.05889
| 78>    N       -8.93947        -8.97404         3.97170
| 79>    C       -4.10183        -9.82117         3.43964
| 80>    C       -3.55753       -10.15560         2.18879
| 81>    C       -4.64774       -10.53673         1.26010
| 82>    O       -4.50776       -11.00408         0.14940
| 83>    C       -2.19530       -10.16893         1.97307
| 84>    C       -1.35700        -9.89897         3.04838
| 85>    C       -1.89260        -9.68082         4.32077
| 86>    C       -3.26608        -9.61770         4.52416
| 87>   Cl       -0.83357        -9.51112         5.66971
| 88>   Cl        0.34815        -9.86044         2.81843
| 89>    H       -3.78465        -6.95073         6.68431
| 90>    H        1.14640        -6.21632         6.74729
| 91>    H       -2.54008        -5.72224         1.68238
| 92>    H       -1.00173        -4.45060        -2.96365
| 93>    H       -0.22579        -3.23340        -3.97876
| 94>    H       -2.43203        -2.70551        -1.93148
| 95>    H       -2.62684        -2.72427        -3.68533
| 96>    H       -1.65311        -1.46613        -2.91845
| 97>    H        0.97126        -0.67785        -3.51715
| 98>    H        1.64535        -2.14690        -4.23116
| 99>    H        3.23178         0.03194        -3.65921
|100>    H        3.84920        -1.62835        -3.56460
|101>    H       -0.68089        -6.63102        -1.79762
|102>    H       -2.80293        -8.93328        -2.93037
|103>    H       -5.84450        -6.84587        -0.87733
|104>    H       -3.76659        -4.47046         0.09327
|105>    H       -5.40797       -10.04440        -2.79436
|106>    H       -6.36344        -8.91114        -0.11510
|107>    H       -7.91390       -12.79529         2.82946
|108>    H       -8.98734       -14.16929         3.05032
|109>    H       -9.97238       -11.27907         2.82876
|110>    H       -9.79171       -12.18810         4.32737
|111>    H      -10.96533       -12.70122         3.11522
|112>    H      -11.63115       -14.74460         1.75554
|113>    H      -10.20301       -15.68567         2.19604
|114>    H      -12.16200       -16.73195         0.57328
|115>    H      -10.45518       -17.17861         0.38453
|116>    H       -7.89986       -10.77680         2.43979
|117>    H       -1.79333       -10.38928         0.99700
|118>    H       -3.64509        -9.42900         5.51461
|119> *
|120>
|121>                          ****END OF INPUT****

CARTESIAN COORDINATES (ANGSTROEM)
---------------------------------
  C     -0.173000   -6.220450    4.145070
  C      1.071390   -6.523120    3.662020
  C      2.179920   -6.818020    4.480180
  N      3.104630   -7.060360    5.114400
  C      1.303770   -6.702100    2.281620
  N      1.478960   -6.915730    1.167260
  C     -0.625230   -6.353230    5.524950
  C     -2.021630   -6.550160    5.524440
  C     -2.717940   -6.777590    6.694910
  C     -2.006020   -6.798580    7.888840
  C     -0.621470   -6.589000    7.895780
  C      0.079560   -6.369570    6.714750
  Cl     0.235840   -6.609060    9.381520
  Cl    -2.834480   -7.092060    9.361370
  C     -2.524730   -6.495380    4.136750
  O     -3.641680   -6.730480    3.729050
  C     -1.356380   -6.060650    3.328890
  C     -1.552210   -5.538810    2.091080
  C     -0.709870   -4.719770    1.298310
  C     -0.862760   -4.510040   -0.068220
  C      0.106770   -3.622670   -0.601390
  C      0.980510   -3.149700    0.407240
  S      0.615050   -3.791620    1.970690
  N      1.967390   -2.294720    0.228680
  C      2.138620   -1.865840   -1.000810
  C      1.322160   -2.220200   -2.096910
  C      0.278180   -3.100360   -1.908900
  C     -0.692940   -3.408260   -3.009320
  C     -1.930500   -2.516890   -2.877230
  C      1.683670   -1.493210   -3.358690
  C      3.095420   -0.937350   -3.186030
  S      3.406700   -0.744880   -1.387190
  C     -1.904810   -5.253190   -0.763300
  N     -1.614600   -6.314510   -1.594520
  C     -2.771330   -7.007700   -1.811240
  C     -3.304810   -8.168180   -2.373920
  C     -4.642350   -8.206140   -1.972160
  N     -4.936510   -7.070970   -1.244570
  C     -3.809810   -6.327160   -1.138350
  C     -3.262860   -5.212890   -0.493800
  C     -5.529830   -9.318400   -2.004850
  C     -6.365520   -9.576110   -0.970880
  C     -7.151390  -10.745480   -0.819070
  C     -7.573210  -11.283870    0.399790
  C     -8.483850  -12.384980    0.212300
  C     -8.698140  -12.640550   -1.157890
  S     -7.814320  -11.562180   -2.198480
  N     -9.463600  -13.584600   -1.665560
  C    -10.071260  -14.357630   -0.795170
  C     -9.919660  -14.254210    0.598220
  C     -9.103450  -13.268660    1.127100
  C     -8.914870  -13.171820    2.612910
  C     -9.975110  -12.277060    3.259520
  C    -10.746870  -15.250590    1.356320
  C    -11.162860  -16.348700    0.380640
  S    -11.137630  -15.635660   -1.310620
  C     -7.149810  -10.778460    1.662000
  C     -5.902920  -10.333420    2.016860
  C     -5.555890   -9.791940    3.318790
  C     -6.408360   -9.232320    4.233390
  C     -5.975460   -8.646520    5.440100
  N     -5.683330   -8.157090    6.436770
  C     -7.802200   -9.109620    4.058890
  N     -8.939470   -8.974040    3.971700
  C     -4.101830   -9.821170    3.439640
  C     -3.557530  -10.155600    2.188790
  C     -4.647740  -10.536730    1.260100
  O     -4.507760  -11.004080    0.149400
  C     -2.195300  -10.168930    1.973070
  C     -1.357000   -9.898970    3.048380
  C     -1.892600   -9.680820    4.320770
  C     -3.266080   -9.617700    4.524160
  Cl    -0.833570   -9.511120    5.669710
  Cl     0.348150   -9.860440    2.818430
  H     -3.784650   -6.950730    6.684310
  H      1.146400   -6.216320    6.747290
  H     -2.540080   -5.722240    1.682380
  H     -1.001730   -4.450600   -2.963650
  H     -0.225790   -3.233400   -3.978760
  H     -2.432030   -2.705510   -1.931480
  H     -2.626840   -2.724270   -3.685330
  H     -1.653110   -1.466130   -2.918450
  H      0.971260   -0.677850   -3.517150
  H      1.645350   -2.146900   -4.231160
  H      3.231780    0.031940   -3.659210
  H      3.849200   -1.628350   -3.564600
  H     -0.680890   -6.631020   -1.797620
  H     -2.802930   -8.933280   -2.930370
  H     -5.844500   -6.845870   -0.877330
  H     -3.766590   -4.470460    0.093270
  H     -5.407970  -10.044400   -2.794360
  H     -6.363440   -8.911140   -0.115100
  H     -7.913900  -12.795290    2.829460
  H     -8.987340  -14.169290    3.050320
  H     -9.972380  -11.279070    2.828760
  H     -9.791710  -12.188100    4.327370
  H    -10.965330  -12.701220    3.115220
  H    -11.631150  -14.744600    1.755540
  H    -10.203010  -15.685670    2.196040
  H    -12.162000  -16.731950    0.573280
  H    -10.455180  -17.178610    0.384530
  H     -7.899860  -10.776800    2.439790
  H     -1.793330  -10.389280    0.997000
  H     -3.645090   -9.429000    5.514610

 Total Charge           Charge          ....    0
 Multiplicity           Mult            ....    1
 Number of Electrons    NEL             ....  570
 Basis Dimension        Dim             .... 1218

ORBITAL ENERGIES
----------------

  NO   OCC          E(Eh)            E(eV)
   0   2.0000    -101.603076     -2764.7603
   1   2.0000    -101.602302     -2764.7392
   2   2.0000    -101.594250     -2764.5201
   3   2.0000    -101.590991     -2764.4314
   4   2.0000     -88.958857     -2420.6936
   5   2.0000     -88.956893     -2420.6401
   6   2.0000     -88.931134     -2419.9392
   7   2.0000     -88.921729     -2419.6833
   8   2.0000     -19.220359      -523.0126
   9   2.0000     -19.218730      -522.9682
  10   2.0000     -14.463888      -393.5824
  11   2.0000     -14.459648      -393.4670
  12   2.0000     -14.421629      -392.4325
  13   2.0000     -14.421551      -392.4304
  14   2.0000     -14.414809      -392.2469
  15   2.0000     -14.413169      -392.2023
  16   2.0000     -14.412263      -392.1776
  17   2.0000     -14.407175      -392.0392
  18   2.0000     -10.370884      -282.2061
  19   2.0000     -10.368483      -282.1408
  20   2.0000     -10.356808      -281.8231
  21   2.0000     -10.355613      -281.7906
  22   2.0000     -10.351111      -281.6680
  23   2.0000     -10.347979      -281.5828
  24   2.0000     -10.347133      -281.5598
  25   2.0000     -10.345914      -281.5266
  26   2.0000     -10.344325      -281.4834
  27   2.0000     -10.340409      -281.3768
  28   2.0000     -10.340231      -281.3720
  29   2.0000     -10.339828      -281.3610
  30   2.0000     -10.331504      -281.1345
  31   2.0000     -10.328589      -281.0552
  32   2.0000     -10.326106      -280.9876
  33   2.0000     -10.324437      -280.9422
  34   2.0000     -10.322251      -280.8827
  35   2.0000     -10.320183      -280.8264
  36   2.0000     -10.317514      -280.7538
  37   2.0000     -10.316538      -280.7273
  38   2.0000     -10.316098      -280.7153
  39   2.0000     -10.314738      -280.6783
  40   2.0000     -10.313843      -280.6539
  41   2.0000     -10.313659      -280.6489
  42   2.0000     -10.310918      -280.5743
  43   2.0000     -10.309797      -280.5438
  44   2.0000     -10.309701      -280.5412
  45   2.0000     -10.307838      -280.4905
  46   2.0000     -10.307512      -280.4817
  47   2.0000     -10.305732      -280.4332
  48   2.0000     -10.305446      -280.4254
  49   2.0000     -10.303459      -280.3714
  50   2.0000     -10.301420      -280.3159
  51   2.0000     -10.301187      -280.3096
  52   2.0000     -10.301172      -280.3091
  53   2.0000     -10.299057      -280.2516
  54   2.0000     -10.298457      -280.2353
  55   2.0000     -10.296633      -280.1856
  56   2.0000     -10.296529      -280.1828
  57   2.0000     -10.295154      -280.1454
  58   2.0000     -10.294569      -280.1295
  59   2.0000     -10.294167      -280.1185
  60   2.0000     -10.293544      -280.1016
  61   2.0000     -10.291901      -280.0569
  62   2.0000     -10.291415      -280.0436
  63   2.0000     -10.288906      -279.9754
  64   2.0000     -10.288437      -279.9626
  65   2.0000     -10.288151      -279.9548
  66   2.0000     -10.283586      -279.8306
  67   2.0000     -10.282343      -279.7968
  68   2.0000     -10.279780      -279.7270
  69   2.0000     -10.279122      -279.7091
  70   2.0000     -10.269483      -279.4468
  71   2.0000     -10.269274      -279.4411
  72   2.0000     -10.266156      -279.3563
  73   2.0000     -10.263497      -279.2839
  74   2.0000      -9.557350      -260.0687
  75   2.0000      -9.556685      -260.0506
  76   2.0000      -9.549365      -259.8514
  77   2.0000      -9.546069      -259.7618
  78   2.0000      -8.054870      -219.1842
  79   2.0000      -8.053664      -219.1513
  80   2.0000      -8.028483      -218.4661
  81   2.0000      -8.019039      -218.2091
  82   2.0000      -7.327696      -199.3967
  83   2.0000      -7.327076      -199.3799
  84   2.0000      -7.319734      -199.1801
  85   2.0000      -7.317667      -199.1238
  86   2.0000      -7.317006      -199.1059
  87   2.0000      -7.316963      -199.1047
  88   2.0000      -7.316469      -199.0913
  89   2.0000      -7.316231      -199.0848
  90   2.0000      -7.309636      -198.9053
  91   2.0000      -7.308881      -198.8848
  92   2.0000      -7.306363      -198.8163
  93   2.0000      -7.305540      -198.7939
  94   2.0000      -6.024262      -163.9285
  95   2.0000      -6.022850      -163.8901
  96   2.0000      -6.020264      -163.8197
  97   2.0000      -6.018948      -163.7839
  98   2.0000      -6.016376      -163.7139
  99   2.0000      -6.015386      -163.6870
 100   2.0000      -5.998550      -163.2289
 101   2.0000      -5.994545      -163.1199
 102   2.0000      -5.989229      -162.9752
 103   2.0000      -5.988393      -162.9524
 104   2.0000      -5.985245      -162.8668
 105   2.0000      -5.978717      -162.6892
 106   2.0000      -1.134021       -30.8583
 107   2.0000      -1.133217       -30.8364
 108   2.0000      -1.094154       -29.7734
 109   2.0000      -1.065417       -28.9915
 110   2.0000      -1.058498       -28.8032
 111   2.0000      -1.057710       -28.7818
 112   2.0000      -1.032236       -28.0886
 113   2.0000      -1.026182       -27.9238
 114   2.0000      -1.019509       -27.7422
 115   2.0000      -1.012823       -27.5603
 116   2.0000      -1.000463       -27.2240
 117   2.0000      -0.994105       -27.0510
 118   2.0000      -0.993252       -27.0278
 119   2.0000      -0.988652       -26.9026
 120   2.0000      -0.983608       -26.7653
 121   2.0000      -0.983304       -26.7571
 122   2.0000      -0.962211       -26.1831
 123   2.0000      -0.955241       -25.9934
 124   2.0000      -0.954222       -25.9657
 125   2.0000      -0.948813       -25.8185
 126   2.0000      -0.934723       -25.4351
 127   2.0000      -0.930900       -25.3311
 128   2.0000      -0.920086       -25.0368
 129   2.0000      -0.919550       -25.0222
 130   2.0000      -0.905601       -24.6427
 131   2.0000      -0.898955       -24.4618
 132   2.0000      -0.897426       -24.4202
 133   2.0000      -0.883527       -24.0420
 134   2.0000      -0.877422       -23.8759
 135   2.0000      -0.868315       -23.6281
 136   2.0000      -0.864517       -23.5247
 137   2.0000      -0.860925       -23.4269
 138   2.0000      -0.856311       -23.3014
 139   2.0000      -0.854376       -23.2487
 140   2.0000      -0.845129       -22.9971
 141   2.0000      -0.843563       -22.9545
 142   2.0000      -0.830579       -22.6012
 143   2.0000      -0.824642       -22.4397
 144   2.0000      -0.816865       -22.2280
 145   2.0000      -0.812224       -22.1017
 146   2.0000      -0.805651       -21.9229
 147   2.0000      -0.783588       -21.3225
 148   2.0000      -0.774939       -21.0872
 149   2.0000      -0.768006       -20.8985
 150   2.0000      -0.763518       -20.7764
 151   2.0000      -0.760106       -20.6835
 152   2.0000      -0.745015       -20.2729
 153   2.0000      -0.737547       -20.0697
 154   2.0000      -0.728570       -19.8254
 155   2.0000      -0.718725       -19.5575
 156   2.0000      -0.711694       -19.3662
 157   2.0000      -0.705025       -19.1847
 158   2.0000      -0.699089       -19.0232
 159   2.0000      -0.696203       -18.9447
 160   2.0000      -0.694701       -18.9038
 161   2.0000      -0.692497       -18.8438
 162   2.0000      -0.689852       -18.7718
 163   2.0000      -0.686412       -18.6782
 164   2.0000      -0.682024       -18.5588
 165   2.0000      -0.678779       -18.4705
 166   2.0000      -0.669836       -18.2272
 167   2.0000      -0.659436       -17.9442
 168   2.0000      -0.656501       -17.8643
 169   2.0000      -0.653050       -17.7704
 170   2.0000      -0.648717       -17.6525
 171   2.0000      -0.642373       -17.4799
 172   2.0000      -0.630458       -17.1556
 173   2.0000      -0.620878       -16.8950
 174   2.0000      -0.619295       -16.8519
 175   2.0000      -0.616787       -16.7836
 176   2.0000      -0.610139       -16.6027
 177   2.0000      -0.609694       -16.5906
 178   2.0000      -0.596390       -16.2286
 179   2.0000      -0.593510       -16.1502
 180   2.0000      -0.586799       -15.9676
 181   2.0000      -0.579881       -15.7794
 182   2.0000      -0.573502       -15.6058
 183   2.0000      -0.570481       -15.5236
 184   2.0000      -0.567018       -15.4294
 185   2.0000      -0.565608       -15.3910
 186   2.0000      -0.562978       -15.3194
 187   2.0000      -0.557551       -15.1717
 188   2.0000      -0.557087       -15.1591
 189   2.0000      -0.553661       -15.0659
 190   2.0000      -0.550124       -14.9696
 191   2.0000      -0.546063       -14.8591
 192   2.0000      -0.544148       -14.8070
 193   2.0000      -0.541920       -14.7464
 194   2.0000      -0.539726       -14.6867
 195   2.0000      -0.539194       -14.6722
 196   2.0000      -0.536684       -14.6039
 197   2.0000      -0.534536       -14.5455
 198   2.0000      -0.531005       -14.4494
 199   2.0000      -0.528728       -14.3874
 200   2.0000      -0.525975       -14.3125
 201   2.0000      -0.523784       -14.2529
 202   2.0000      -0.521212       -14.1829
 203   2.0000      -0.518417       -14.1068
 204   2.0000      -0.516789       -14.0625
 205   2.0000      -0.514174       -13.9914
 206   2.0000      -0.510849       -13.9009
 207   2.0000      -0.506725       -13.7887
 208   2.0000      -0.506402       -13.7799
 209   2.0000      -0.504910       -13.7393
 210   2.0000      -0.502215       -13.6660
 211   2.0000      -0.500556       -13.6208
 212   2.0000      -0.499569       -13.5940
 213   2.0000      -0.498205       -13.5569
 214   2.0000      -0.497234       -13.5304
 215   2.0000      -0.493336       -13.4244
 216   2.0000      -0.491493       -13.3742
 217   2.0000      -0.488001       -13.2792
 218   2.0000      -0.483224       -13.1492
 219   2.0000      -0.480650       -13.0791
 220   2.0000      -0.477455       -12.9922
 221   2.0000      -0.473954       -12.8969
 222   2.0000      -0.473149       -12.8750
 223   2.0000      -0.469099       -12.7648
 224   2.0000      -0.467370       -12.7178
 225   2.0000      -0.466014       -12.6809
 226   2.0000      -0.464706       -12.6453
 227   2.0000      -0.463220       -12.6048
 228   2.0000      -0.459251       -12.4969
 229   2.0000      -0.454263       -12.3611
 230   2.0000      -0.453911       -12.3515
 231   2.0000      -0.453243       -12.3334
 232   2.0000      -0.450121       -12.2484
 233   2.0000      -0.449284       -12.2256
 234   2.0000      -0.448732       -12.2106
 235   2.0000      -0.447617       -12.1803
 236   2.0000      -0.446394       -12.1470
 237   2.0000      -0.444690       -12.1006
 238   2.0000      -0.443102       -12.0574
 239   2.0000      -0.441637       -12.0176
 240   2.0000      -0.439484       -11.9590
 241   2.0000      -0.437424       -11.9029
 242   2.0000      -0.436202       -11.8697
 243   2.0000      -0.433585       -11.7985
 244   2.0000      -0.432343       -11.7646
 245   2.0000      -0.431271       -11.7355
 246   2.0000      -0.427603       -11.6357
 247   2.0000      -0.425867       -11.5884
 248   2.0000      -0.425243       -11.5714
 249   2.0000      -0.423823       -11.5328
 250   2.0000      -0.422025       -11.4839
 251   2.0000      -0.420372       -11.4389
 252   2.0000      -0.416466       -11.3326
 253   2.0000      -0.415513       -11.3067
 254   2.0000      -0.411989       -11.2108
 255   2.0000      -0.410943       -11.1823
 256   2.0000      -0.402040       -10.9401
 257   2.0000      -0.401244       -10.9184
 258   2.0000      -0.400481       -10.8976
 259   2.0000      -0.393912       -10.7189
 260   2.0000      -0.391535       -10.6542
 261   2.0000      -0.383407       -10.4330
 262   2.0000      -0.381067       -10.3694
 263   2.0000      -0.374470       -10.1898
 264   2.0000      -0.372950       -10.1485
 265   2.0000      -0.370870       -10.0919
 266   2.0000      -0.363921        -9.9028
 267   2.0000      -0.358179        -9.7466
 268   2.0000      -0.348609        -9.4861
 269   2.0000      -0.343351        -9.3430
 270   2.0000      -0.341756        -9.2997
 271   2.0000      -0.337605        -9.1867
 272   2.0000      -0.336934        -9.1684
 273   2.0000      -0.334556        -9.1037
 274   2.0000      -0.333853        -9.0846
 275   2.0000      -0.323224        -8.7954
 276   2.0000      -0.319936        -8.7059
 277   2.0000      -0.311445        -8.4749
 278   2.0000      -0.304189        -8.2774
 279   2.0000      -0.302629        -8.2350
 280   2.0000      -0.293577        -7.9886
 281   2.0000      -0.289007        -7.8643
 282   2.0000      -0.272044        -7.4027
 283   2.0000      -0.265123        -7.2144
 284   2.0000      -0.233753        -6.3607
 285   0.0000      -0.091157        -2.4805
 286   0.0000      -0.089652        -2.4395
 287   0.0000      -0.068470        -1.8632
 288   0.0000      -0.059032        -1.6063
 289   0.0000      -0.029716        -0.8086

MULLIKEN ATOMIC CHARGES
-----------------------
   0 C :    0.214443
   1 C :   -0.313333
   2 C :   -0.180058
   3 N :    0.168383
   4 C :   -0.195830
   5 N :    0.164621
   6 C :    0.040920
   7 C :    0.001620
   8 C :   -0.033855
   9 C :    0.053933
  10 C :    0.051885
  11 C :   -0.029921
  12 Cl:   -0.039278
  13 Cl:   -0.036963
  14 C :    0.153601
  15 O :   -0.164376
  16 C :   -0.110482
  17 C :    0.033347
  18 C :   -0.147377
  19 C :    0.125402
  20 C :    0.083431
  21 C :   -0.137535
  22 S :    0.158576
  23 N :   -0.023299
  24 C :   -0.101050
  25 C :   -0.120387
  26 C :   -0.099122
  27 C :    0.089598
  28 C :    0.031662
  29 C :    0.123428
  30 C :   -0.071346
  31 S :    0.025667
  32 C :   -0.048822
  33 N :   -0.038432
  34 C :    0.104753
  35 C :   -0.138317
  36 C :    0.065107
  37 N :   -0.041871
  38 C :    0.083053
  39 C :   -0.118536
  40 C :    0.036971
  41 C :   -0.030504
  42 C :   -0.078191
  43 C :    0.121023
  44 C :    0.079574
  45 C :   -0.165663
  46 S :    0.161839
  47 N :   -0.022745
  48 C :   -0.113192
  49 C :   -0.115951
  50 C :   -0.066069
  51 C :    0.040249
  52 C :    0.031659
  53 C :    0.133737
  54 C :   -0.074501
  55 S :    0.010670
  56 C :   -0.087788
  57 C :   -0.109893
  58 C :    0.278791
  59 C :   -0.338955
  60 C :   -0.140725
  61 N :    0.142170
  62 C :   -0.204609
  63 N :    0.167376
  64 C :    0.051355
  65 C :    0.000633
  66 C :    0.138805
  67 O :   -0.132227
  68 C :   -0.035340
  69 C :    0.067082
  70 C :    0.017786
  71 C :   -0.010330
  72 Cl:   -0.031866
  73 Cl:   -0.026987
  74 H :   -0.015541
  75 H :    0.002200
  76 H :    0.015938
  77 H :    0.002751
  78 H :   -0.007350
  79 H :    0.018688
  80 H :    0.023558
  81 H :    0.006868
  82 H :    0.033976
  83 H :    0.032849
  84 H :    0.054353
  85 H :    0.066847
  86 H :    0.135714
  87 H :   -0.030946
  88 H :    0.130136
  89 H :   -0.022047
  90 H :    0.003422
  91 H :   -0.000453
  92 H :    0.008986
  93 H :   -0.001934
  94 H :    0.038719
  95 H :    0.027289
  96 H :    0.005354
  97 H :    0.035614
  98 H :    0.025034
  99 H :    0.050881
 100 H :    0.064476
 101 H :    0.019080
 102 H :   -0.001789
 103 H :   -0.000101
Sum of atomic charges:   -0.0000000

LOEWDIN ATOMIC CHARGES
----------------------
   0 C :    0.057792
   1 C :   -0.135851
   2 C :   -0.022193
   3 N :   -0.043656
   4 C :   -0.033824
   5 N :   -0.061205
   6 C :   -0.014724
   7 C :   -0.056528
   8 C :    0.000145
   9 C :   -0.137047
  10 C :   -0.130826
  11 C :   -0.019984
  12 Cl:    0.161124
  13 Cl:    0.162244
  14 C :    0.086704
  15 O :   -0.152627
  16 C :   -0.095957
  17 C :    0.049643
  18 C :   -0.168716
  19 C :   -0.023986
  20 C :   -0.077921
  21 C :   -0.114570
  22 S :    0.450976
  23 N :   -0.113694
  24 C :   -0.112709
  25 C :   -0.079243
  26 C :    0.020468
  27 C :   -0.031082
  28 C :   -0.042884
  29 C :   -0.033801
  30 C :   -0.113295
  31 S :    0.310022
  32 C :   -0.007517
  33 N :    0.076329
  34 C :   -0.034298
  35 C :   -0.078940
  36 C :   -0.009659
  37 N :    0.074046
  38 C :   -0.025528
  39 C :   -0.095246
  40 C :    0.003662
  41 C :   -0.063312
  42 C :   -0.106787
  43 C :   -0.077942
  44 C :   -0.066076
  45 C :   -0.128420
  46 S :    0.444105
  47 N :   -0.111069
  48 C :   -0.123703
  49 C :   -0.074539
  50 C :    0.012253
  51 C :   -0.031734
  52 C :   -0.046699
  53 C :   -0.033829
  54 C :   -0.113732
  55 S :    0.290238
  56 C :    0.067566
  57 C :   -0.103588
  58 C :    0.082831
  59 C :   -0.138913
  60 C :    0.001720
  61 N :   -0.056128
  62 C :   -0.021603
  63 N :   -0.049848
  64 C :   -0.008537
  65 C :   -0.033230
  66 C :    0.076128
  67 O :   -0.123845
  68 C :   -0.000790
  69 C :   -0.132601
  70 C :   -0.141417
  71 C :   -0.007868
  72 Cl:    0.178448
  73 Cl:    0.176339
  74 H :    0.040392
  75 H :    0.043785
  76 H :    0.049199
  77 H :    0.027289
  78 H :    0.026277
  79 H :    0.025209
  80 H :    0.028863
  81 H :    0.022331
  82 H :    0.038123
  83 H :    0.036138
  84 H :    0.027840
  85 H :    0.026100
  86 H :    0.094588
  87 H :    0.027242
  88 H :    0.089065
  89 H :    0.027327
  90 H :    0.034352
  91 H :    0.025550
  92 H :    0.027882
  93 H :    0.029239
  94 H :    0.026316
  95 H :    0.030344
  96 H :    0.025243
  97 H :    0.037587
  98 H :    0.034474
  99 H :    0.026573
 100 H :    0.024577
 101 H :    0.041486
 102 H :    0.045859
 103 H :    0.041686

  Mayer bond orders larger than 0.100000
B(  0-C ,  1-C ) :   1.6821 B(  0-C ,  6-C ) :   1.0053 B(  0-C , 16-C ) :   1.0199
B(  1-C ,  2-C ) :   1.1331 B(  1-C ,  4-C ) :   1.1545 B(  2-C ,  3-N ) :   3.0048
B(  4-C ,  5-N ) :   3.0162 B(  6-C ,  7-C ) :   1.3107 B(  6-C , 11-C ) :   1.3430
B(  7-C ,  8-C ) :   1.3414 B(  7-C , 14-C ) :   0.9322 B(  8-C ,  9-C ) :   1.3480
B(  8-C , 74-H ) :   0.9991 B(  9-C , 10-C ) :   1.4013 B(  9-C , 13-Cl) :   1.0640
B( 10-C , 11-C ) :   1.3505 B( 10-C , 12-Cl) :   1.0640 B( 11-C , 75-H ) :   0.9946
B( 14-C , 15-O ) :   2.1729 B( 14-C , 16-C ) :   0.9614 B( 16-C , 17-C ) :   1.6659
B( 17-C , 18-C ) :   1.1504 B( 17-C , 76-H ) :   0.9271 B( 18-C , 19-C ) :   1.4858
B( 18-C , 22-S ) :   1.0741 B( 19-C , 20-C ) :   1.2241 B( 19-C , 32-C ) :   0.9419
B( 20-C , 21-C ) :   1.2052 B( 20-C , 26-C ) :   1.2632 B( 21-C , 22-S ) :   1.1048
B( 21-C , 23-N ) :   1.5127 B( 23-N , 24-C ) :   1.5702 B( 24-C , 25-C ) :   1.2177
B( 24-C , 31-S ) :   1.0641 B( 25-C , 26-C ) :   1.5650 B( 25-C , 29-C ) :   1.0423
B( 26-C , 27-C ) :   1.1006 B( 27-C , 28-C ) :   1.1035 B( 27-C , 77-H ) :   0.8965
B( 27-C , 78-H ) :   0.9094 B( 28-C , 79-H ) :   0.9671 B( 28-C , 80-H ) :   0.9673
B( 28-C , 81-H ) :   0.9621 B( 29-C , 30-C ) :   1.0425 B( 29-C , 82-H ) :   0.9150
B( 29-C , 83-H ) :   0.9259 B( 30-C , 31-S ) :   0.9947 B( 30-C , 84-H ) :   0.9530
B( 30-C , 85-H ) :   0.9528 B( 32-C , 33-N ) :   1.2226 B( 32-C , 39-C ) :   1.4709
B( 33-N , 34-C ) :   1.1270 B( 33-N , 86-H ) :   0.9326 B( 34-C , 35-C ) :   1.2545
B( 34-C , 38-C ) :   1.3428 B( 35-C , 36-C ) :   1.3957 B( 35-C , 87-H ) :   1.0380
B( 36-C , 37-N ) :   1.1825 B( 36-C , 40-C ) :   1.1326 B( 37-N , 38-C ) :   1.1795
B( 37-N , 88-H ) :   0.9314 B( 38-C , 39-C ) :   1.2201 B( 39-C , 89-H ) :   1.0338
B( 40-C , 41-C ) :   1.6586 B( 40-C , 90-H ) :   0.9655 B( 41-C , 42-C ) :   1.1917
B( 41-C , 91-H ) :   0.9440 B( 42-C , 43-C ) :   1.4198 B( 42-C , 46-S ) :   1.1248
B( 43-C , 44-C ) :   1.1338 B( 43-C , 56-C ) :   1.1519 B( 44-C , 45-C ) :   1.2502
B( 44-C , 50-C ) :   1.3097 B( 45-C , 46-S ) :   1.0616 B( 45-C , 47-N ) :   1.5209
B( 47-N , 48-C ) :   1.5651 B( 48-C , 49-C ) :   1.2530 B( 48-C , 55-S ) :   1.0433
B( 49-C , 50-C ) :   1.5332 B( 49-C , 53-C ) :   1.0448 B( 50-C , 51-C ) :   1.0725
B( 51-C , 52-C ) :   1.0996 B( 51-C , 92-H ) :   0.9170 B( 51-C , 93-H ) :   0.9119
B( 52-C , 94-H ) :   0.9577 B( 52-C , 95-H ) :   0.9671 B( 52-C , 96-H ) :   0.9577
B( 53-C , 54-C ) :   1.0412 B( 53-C , 97-H ) :   0.9121 B( 53-C , 98-H ) :   0.9241
B( 54-C , 55-S ) :   0.9990 B( 54-C , 99-H ) :   0.9532 B( 54-C ,100-H ) :   0.9531
B( 56-C , 57-C ) :   1.5839 B( 56-C ,101-H ) :   0.9266 B( 57-C , 58-C ) :   1.0546
B( 57-C , 66-C ) :   0.9594 B( 58-C , 59-C ) :   1.6563 B( 58-C , 64-C ) :   0.9933
B( 59-C , 60-C ) :   1.1511 B( 59-C , 62-C ) :   1.1491 B( 60-C , 61-N ) :   2.9071
B( 62-C , 63-N ) :   2.9846 B( 64-C , 65-C ) :   1.3357 B( 64-C , 71-C ) :   1.3345
B( 65-C , 66-C ) :   0.9352 B( 65-C , 68-C ) :   1.3449 B( 66-C , 67-O ) :   2.2137
B( 68-C , 69-C ) :   1.3360 B( 68-C ,102-H ) :   1.0165 B( 69-C , 70-C ) :   1.4137
B( 69-C , 73-Cl) :   1.0537 B( 70-C , 71-C ) :   1.3529 B( 70-C , 72-Cl) :   1.0625
B( 71-C ,103-H ) :   0.9928

-----------------------------------------------------------------------------
         ABSORPTION SPECTRUM VIA TRANSITION ELECTRIC DIPOLE MOMENTS
-----------------------------------------------------------------------------
State   Energy  Wavelength   fosc         T2         TX        TY        TZ
        (cm-1)    (nm)                  (au**2)     (au)      (au)      (au)
-----------------------------------------------------------------------------
   0   14696.4    680.4   0.117645558   2.63536  -0.79481  -0.93555   1.06226
   1   15288.9    654.1   0.098270312   2.11602  -0.47230   0.10905  -1.37152
   2   18818.4    531.4   0.033813425   0.59154  -0.13214  -0.64391   0.39931
   3   21728.0    460.2   0.627107315   9.50161  -0.83591  -2.12635   2.06918
   4   22810.1    438.4   0.047491646   0.68543  -0.23012  -0.32133   0.72748
   5   23560.9    424.4   0.209774824   2.93114  -0.83523  -0.68642  -1.32754
   6   25973.6    385.0   0.165465126   2.09725  -0.51591  -0.54680  -1.23778
   7   26218.0    381.4   0.045332409   0.56923  -0.40584  -0.53175  -0.34895
   8   26357.2    379.4   0.008945345   0.11173   0.11464   0.22927  -0.21453
   9   27101.4    369.0   0.133032819   1.61601   1.00285   0.77840   0.06622
  10   27217.9    367.4   0.017769834   0.21493  -0.08544  -0.40473  -0.20936
  11   27711.2    360.9   0.063417223   0.75340  -0.14366  -0.49901   0.69552
  12   28136.0    355.4   0.885831075  10.36488  -2.15361  -2.36210  -0.38387
  13   28351.7    352.7   0.235861987   2.73876   1.36858   0.92048   0.13592
  14   28952.8    345.4   0.294514912   3.34883   1.11267   1.06285  -0.99053
  15   29145.4    343.1   0.127761367   1.44313  -0.82762  -0.11639   0.86292
  16   30369.6    329.3   0.115526316   1.25232  -0.93935  -0.02928  -0.60752
  17   30889.0    323.7   0.031634967   0.33716  -0.00404  -0.32549  -0.48084
  18   31075.6    321.8   0.171815695   1.82020   0.39736  -0.22621  -1.26931
  19   31357.4    318.9   0.024658304   0.25888  -0.38273   0.27893   0.18600
  20   31532.6    317.1   0.076575061   0.79947  -0.66562  -0.59619  -0.03124
  21   31688.0    315.6   0.012200041   0.12675   0.25468   0.21788  -0.12007
  22   31945.8    313.0   0.018123275   0.18677  -0.30136  -0.02479  -0.30876
  23   32353.0    309.1   0.043024849   0.43780   0.56701  -0.20477   0.27272
  24   32615.8    306.6   0.010479811   0.10578  -0.27831   0.01085  -0.16795
  25   32699.7    305.8   0.108522929   1.09258   1.03827  -0.00670  -0.12054
  26   32914.2    303.8   0.026400089   0.26406   0.19340   0.13406   0.45682
  27   33347.9    299.9   0.063473382   0.62661   0.69211   0.28124   0.26172
  28   33595.5    297.7   0.007848042   0.07691   0.18658   0.15176  -0.13807
  29   33659.0    297.1   0.138526763   1.35490   1.09708  -0.05583  -0.38498
  30   34100.3    293.3   0.280913499   2.71200  -1.59576   0.00142   0.40689
  31   34268.7    291.8   0.008112700   0.07794  -0.03308  -0.19215   0.19980
  32   34425.8    290.5   0.156117905   1.49295   0.81852   0.54911  -0.72212
  33   34580.5    289.2   0.023358703   0.22238   0.29583   0.30158   0.20956
  34   34872.0    286.8   0.309815200   2.92483   1.14730  -0.14656  -1.25978
  35   35032.8    285.4   0.002786067   0.02618  -0.14697  -0.06590  -0.01547
  36   35274.6    283.5   0.127983951   1.19445  -0.78243  -0.75854  -0.08294
  37   35470.0    281.9   0.123094534   1.14249  -0.92353  -0.40715  -0.35186
  38   35622.2    280.7   0.038356259   0.35448   0.30702  -0.22738   0.45664
  39   35996.4    277.8   0.064105001   0.58628  -0.63287   0.40447  -0.14887
  40   36014.3    277.7   0.041445348   0.37886  -0.57257  -0.01223  -0.22556
  41   36376.7    274.9   0.055258413   0.50009  -0.61414  -0.10382   0.33488
  42   36596.7    273.2   0.036039059   0.32420  -0.11293   0.31585   0.46009
  43   36733.4    272.2   0.052825834   0.47344   0.07642  -0.29069  -0.61895
  44   36987.9    270.4   0.054552407   0.48555  -0.10850  -0.64654  -0.23614
  45   37507.9    266.6   0.029890574   0.26235  -0.42338   0.07966   0.27705
  46   37655.8    265.6   0.182619735   1.59658  -1.10082  -0.45741   0.41898
  47   37782.8    264.7   0.004841604   0.04219   0.20343  -0.02079  -0.01925
  48   37849.4    264.2   0.121167531   1.05391  -0.95190  -0.04114   0.38224
  49   38030.9    262.9   0.023398929   0.20255  -0.36542  -0.04197  -0.25935
  50   38100.3    262.5   0.023820882   0.20583   0.41113   0.13126   0.13989
  51   38545.5    259.4   0.064802200   0.55347   0.11090  -0.33931  -0.65271
  52   38879.5    257.2   0.188869734   1.59925   0.07058   0.25415   1.23680
  53   38944.8    256.8   0.028683060   0.24247  -0.15372  -0.20686  -0.41958
  54   39120.0    255.6   0.027663727   0.23280  -0.30431  -0.36475  -0.08459
  55   39441.2    253.5   0.003822581   0.03191  -0.09234   0.13586   0.07016
  56   39641.1    252.3   0.350267283   2.90890   0.49327  -0.08113   1.63064
  57   39847.5    251.0   0.039897512   0.32963  -0.04088  -0.52982   0.21737
  58   40207.4    248.7   0.053290054   0.43633  -0.53369  -0.37737   0.09535

FINAL SINGLE POINT ENERGY     -6169.492006025603

DIPOLE MOMENT
-------------
                                X             Y             Z
Electronic contribution:     47.96110       0.18799      71.65389
Nuclear contribution   :    -48.78879      -0.04927     -73.94654
                        -----------------------------------------
Total Dipole Moment    :     -0.82769       0.13872      -2.29265
                        -----------------------------------------
Magnitude (a.u.)       :      2.44143
Magnitude (Debye)      :      6.20561

Rotational constants in cm-1:     0.001082     0.000500     0.000375
Rotational constants in MHz :    32.441252    14.990444    11.240536

                             ****ORCA TERMINATED NORMALLY****
TOTAL RUN TIME: 0 days 0 hours 14 minutes 23 seconds 766 msec
