                         Program Version 4.2.0 -  RELEASE  -
|  1> # ORCA input file
|  2> # SCF done       -211.782970343887          0.000935061734
|  3> ! CAM-B3LYP def2-SVP def2/J RIJCOSX Grid4 TightSCF
|  4> %maxcore 5000
|  5> %tddft
|  6>     Mode sTDDFT
|  7>     Ethresh 5.0
|  8>     maxcore 5000
|  9> end
| 10>
| 11> %pal
| 12>   nprocs 6
| 13>   end
| 14> * xyz 0 1
| 15>    C        5.11295         2.84735         1.97926
| 16>    C        4.54128         1.77105         1.35615
| 17>    C        5.04902         0.45654         1.43103
| 18>    N        5.41827        -0.62958         1.45684
| 19>    C        3.35374         1.82896         0.59611
| 20>    N        2.38595         1.81623        -0.02154
| 21>    C        6.29423         2.82271         2.82938
| 22>    C        6.45101         4.10660         3.42702
| 23>    C        7.48241         4.38517         4.27733
| 24>    C        8.42519         3.37514         4.57004
| 25>    C        8.28081         2.09061         3.96913
| 26>    C        7.20036         1.82981         3.09598
| 27>    C        9.23434         1.09404         4.26120
| 28>    C       10.27921         1.35144         5.10646
| 29>    C       10.41891         2.61546         5.69901
| 30>    C        9.51108         3.60558         5.43739
| 31>    C        5.36925         4.99910         2.98046
| 32>    O        5.17732         6.14141         3.33413
| 33>    C        4.60391         4.21138         1.97045
| 34>    C        3.76768         4.74534         1.04521
| 35>    C        3.26356         6.08395         1.05526
| 36>    C        2.78993         6.76660         2.13618
| 37>    C        2.25346         8.03360         1.68218
| 38>    C        1.64328         9.01087         2.47713
| 39>    N        1.08777         9.82390         3.06840
| 40>    C        2.38393         8.11667         0.32448
| 41>    C        3.01467         6.90825        -0.14587
| 42>    C        3.40031         6.63343        -1.43002
| 43>    C        3.02722         7.39139        -2.65590
| 44>    C        3.78543         6.90936        -3.67956
| 45>    C        4.62863         5.84633        -3.17193
| 46>    C        4.37541         5.66208        -1.83923
| 47>    C        5.56152         5.13964        -3.94438
| 48>    N        6.32570         4.56636        -4.57995
| 49>    C        2.02175         8.40230        -2.70494
| 50>    C        1.99581         9.40721        -3.60916
| 51>    C        1.08417        10.50800        -3.53435
| 52>    C        1.06200        11.49685        -4.51479
| 53>    F        1.87215        11.37060        -5.58001
| 54>    C        0.25807        12.64206        -4.46061
| 55>    F        0.41262        13.53307        -5.45879
| 56>    C       -0.61328        12.91045        -3.41219
| 57>    C       -0.59022        11.94010        -2.38276
| 58>    C        0.21954        10.76752        -2.44077
| 59>    N        0.00932        10.08989        -1.30127
| 60>    N       -0.85716        10.81171        -0.64320
| 61>    N       -1.25554        11.90756        -1.21871
| 62>    C       -1.33690        10.43040         0.64905
| 63>    C       -1.39974        14.11151        -3.28111
| 64>    C       -1.64411        14.75432        -2.10690
| 65>    C       -2.29522        16.01722        -2.40030
| 66>    C       -2.74033        16.91682        -1.42125
| 67>    N       -3.10454        17.64215        -0.61029
| 68>    C       -2.40639        16.16377        -3.75550
| 69>    C       -1.92974        14.95330        -4.37220
| 70>    C       -2.16364        14.57057        -5.66577
| 71>    C       -2.46048        15.44518        -6.82397
| 72>    C       -2.81749        14.63027        -7.86493
| 73>    C       -2.75822        13.25700        -7.42019
| 74>    C       -2.31991        13.21896        -6.12237
| 75>    C       -3.09802        12.14845        -8.20972
| 76>    N       -3.37723        11.24193        -8.85487
| 77>    C       -2.20727        16.84168        -6.86256
| 78>    C       -2.56036        17.66997        -7.88345
| 79>    C       -2.21736        19.03970        -7.86105
| 80>    C       -2.50737        19.93831        -8.84908
| 81>    C       -2.15688        21.34647        -8.87269
| 82>    C       -1.49233        22.04785        -7.89866
| 83>    C       -1.17715        23.42034        -7.98713
| 84>    N       -0.88958        24.53176        -7.99208
| 85>    C       -1.02772        21.52225        -6.67523
| 86>    N       -0.61959        21.17275        -5.65989
| 87>    C       -2.64123        21.90363       -10.13090
| 88>    C       -3.28592        20.87086       -10.87015
| 89>    C       -3.23250        19.61351       -10.10682
| 90>    O       -3.68772        18.54034       -10.44461
| 91>    C       -3.84112        21.09844       -12.09633
| 92>    C       -3.77584        22.39535       -12.65247
| 93>    C       -3.13250        23.43462       -11.92015
| 94>    C       -2.56719        23.16863       -10.65204
| 95>    C       -3.07189        24.72531       -12.48394
| 96>    C       -3.61979        24.97898       -13.71188
| 97>    C       -4.25297        23.95492       -14.43202
| 98>    C       -4.32944        22.69057       -13.91365
| 99>    H        7.57767         5.36571         4.71982
|100>    H        7.12151         0.85094         2.64989
|101>    H        9.12206         0.12206         3.80405
|102>    H       11.00449         0.58184         5.32341
|103>    H       11.24981         2.80108         6.36290
|104>    H        9.61352         4.58094         5.88992
|105>    H        3.45392         4.13248         0.20894
|106>    H        2.75835         6.42846         3.15339
|107>    H        2.14186         8.97629        -0.26774
|108>    H        3.75592         7.20872        -4.70986
|109>    H        4.90148         4.98770        -1.19236
|110>    H        1.24844         8.37408        -1.95371
|111>    H        2.72829         9.45047        -4.40302
|112>    H       -1.67437         9.39503         0.62302
|113>    H       -2.15907        11.09195         0.91031
|114>    H       -0.54186        10.51808         1.39323
|115>    H       -1.37564        14.42039        -1.12366
|116>    H       -2.90883        16.96570        -4.26058
|117>    H       -3.06100        14.92485        -8.86798
|118>    H       -2.22517        12.34072        -5.51211
|119>    H       -1.65715        17.26185        -6.03024
|120>    H       -3.11474        17.29830        -8.73110
|121>    H       -1.67247        19.38243        -6.99045
|122>    H       -4.32404        20.29711       -12.63576
|123>    H       -2.08747        23.97779       -10.12503
|124>    H       -2.58332        25.51035       -11.92562
|125>    H       -3.56818        25.97080       -14.13534
|126>    H       -4.67977        24.17284       -15.39957
|127>    H       -4.81562        21.89806       -14.46354
|128> *
|129>
|130>                          ****END OF INPUT****

CARTESIAN COORDINATES (ANGSTROEM)
---------------------------------
  C      5.112950    2.847350    1.979260
  C      4.541280    1.771050    1.356150
  C      5.049020    0.456540    1.431030
  N      5.418270   -0.629580    1.456840
  C      3.353740    1.828960    0.596110
  N      2.385950    1.816230   -0.021540
  C      6.294230    2.822710    2.829380
  C      6.451010    4.106600    3.427020
  C      7.482410    4.385170    4.277330
  C      8.425190    3.375140    4.570040
  C      8.280810    2.090610    3.969130
  C      7.200360    1.829810    3.095980
  C      9.234340    1.094040    4.261200
  C     10.279210    1.351440    5.106460
  C     10.418910    2.615460    5.699010
  C      9.511080    3.605580    5.437390
  C      5.369250    4.999100    2.980460
  O      5.177320    6.141410    3.334130
  C      4.603910    4.211380    1.970450
  C      3.767680    4.745340    1.045210
  C      3.263560    6.083950    1.055260
  C      2.789930    6.766600    2.136180
  C      2.253460    8.033600    1.682180
  C      1.643280    9.010870    2.477130
  N      1.087770    9.823900    3.068400
  C      2.383930    8.116670    0.324480
  C      3.014670    6.908250   -0.145870
  C      3.400310    6.633430   -1.430020
  C      3.027220    7.391390   -2.655900
  C      3.785430    6.909360   -3.679560
  C      4.628630    5.846330   -3.171930
  C      4.375410    5.662080   -1.839230
  C      5.561520    5.139640   -3.944380
  N      6.325700    4.566360   -4.579950
  C      2.021750    8.402300   -2.704940
  C      1.995810    9.407210   -3.609160
  C      1.084170   10.508000   -3.534350
  C      1.062000   11.496850   -4.514790
  F      1.872150   11.370600   -5.580010
  C      0.258070   12.642060   -4.460610
  F      0.412620   13.533070   -5.458790
  C     -0.613280   12.910450   -3.412190
  C     -0.590220   11.940100   -2.382760
  C      0.219540   10.767520   -2.440770
  N      0.009320   10.089890   -1.301270
  N     -0.857160   10.811710   -0.643200
  N     -1.255540   11.907560   -1.218710
  C     -1.336900   10.430400    0.649050
  C     -1.399740   14.111510   -3.281110
  C     -1.644110   14.754320   -2.106900
  C     -2.295220   16.017220   -2.400300
  C     -2.740330   16.916820   -1.421250
  N     -3.104540   17.642150   -0.610290
  C     -2.406390   16.163770   -3.755500
  C     -1.929740   14.953300   -4.372200
  C     -2.163640   14.570570   -5.665770
  C     -2.460480   15.445180   -6.823970
  C     -2.817490   14.630270   -7.864930
  C     -2.758220   13.257000   -7.420190
  C     -2.319910   13.218960   -6.122370
  C     -3.098020   12.148450   -8.209720
  N     -3.377230   11.241930   -8.854870
  C     -2.207270   16.841680   -6.862560
  C     -2.560360   17.669970   -7.883450
  C     -2.217360   19.039700   -7.861050
  C     -2.507370   19.938310   -8.849080
  C     -2.156880   21.346470   -8.872690
  C     -1.492330   22.047850   -7.898660
  C     -1.177150   23.420340   -7.987130
  N     -0.889580   24.531760   -7.992080
  C     -1.027720   21.522250   -6.675230
  N     -0.619590   21.172750   -5.659890
  C     -2.641230   21.903630  -10.130900
  C     -3.285920   20.870860  -10.870150
  C     -3.232500   19.613510  -10.106820
  O     -3.687720   18.540340  -10.444610
  C     -3.841120   21.098440  -12.096330
  C     -3.775840   22.395350  -12.652470
  C     -3.132500   23.434620  -11.920150
  C     -2.567190   23.168630  -10.652040
  C     -3.071890   24.725310  -12.483940
  C     -3.619790   24.978980  -13.711880
  C     -4.252970   23.954920  -14.432020
  C     -4.329440   22.690570  -13.913650
  H      7.577670    5.365710    4.719820
  H      7.121510    0.850940    2.649890
  H      9.122060    0.122060    3.804050
  H     11.004490    0.581840    5.323410
  H     11.249810    2.801080    6.362900
  H      9.613520    4.580940    5.889920
  H      3.453920    4.132480    0.208940
  H      2.758350    6.428460    3.153390
  H      2.141860    8.976290   -0.267740
  H      3.755920    7.208720   -4.709860
  H      4.901480    4.987700   -1.192360
  H      1.248440    8.374080   -1.953710
  H      2.728290    9.450470   -4.403020
  H     -1.674370    9.395030    0.623020
  H     -2.159070   11.091950    0.910310
  H     -0.541860   10.518080    1.393230
  H     -1.375640   14.420390   -1.123660
  H     -2.908830   16.965700   -4.260580
  H     -3.061000   14.924850   -8.867980
  H     -2.225170   12.340720   -5.512110
  H     -1.657150   17.261850   -6.030240
  H     -3.114740   17.298300   -8.731100
  H     -1.672470   19.382430   -6.990450
  H     -4.324040   20.297110  -12.635760
  H     -2.087470   23.977790  -10.125030
  H     -2.583320   25.510350  -11.925620
  H     -3.568180   25.970800  -14.135340
  H     -4.679770   24.172840  -15.399570
  H     -4.815620   21.898060  -14.463540

 Total Charge           Charge          ....    0
 Multiplicity           Mult            ....    1
 Number of Electrons    NEL             ....  554
 Basis Dimension        Dim             .... 1321

ORBITAL ENERGIES
----------------

  NO   OCC          E(Eh)            E(eV)
   0   2.0000     -24.811802      -675.1635
   1   2.0000     -24.809128      -675.0907
   2   2.0000     -19.228395      -523.2312
   3   2.0000     -19.218582      -522.9642
   4   2.0000     -14.564771      -396.3276
   5   2.0000     -14.467427      -393.6787
   6   2.0000     -14.467176      -393.6719
   7   2.0000     -14.430948      -392.6861
   8   2.0000     -14.425059      -392.5258
   9   2.0000     -14.423509      -392.4836
  10   2.0000     -14.422653      -392.4603
  11   2.0000     -14.420197      -392.3935
  12   2.0000     -14.418480      -392.3468
  13   2.0000     -14.418145      -392.3377
  14   2.0000     -14.414894      -392.2492
  15   2.0000     -10.391882      -282.7775
  16   2.0000     -10.390331      -282.7353
  17   2.0000     -10.379994      -282.4540
  18   2.0000     -10.369032      -282.1557
  19   2.0000     -10.353248      -281.7262
  20   2.0000     -10.350627      -281.6549
  21   2.0000     -10.342861      -281.4436
  22   2.0000     -10.341574      -281.4085
  23   2.0000     -10.340224      -281.3718
  24   2.0000     -10.338548      -281.3262
  25   2.0000     -10.338355      -281.3209
  26   2.0000     -10.337725      -281.3038
  27   2.0000     -10.337068      -281.2859
  28   2.0000     -10.336504      -281.2706
  29   2.0000     -10.335006      -281.2298
  30   2.0000     -10.333808      -281.1972
  31   2.0000     -10.332415      -281.1593
  32   2.0000     -10.332340      -281.1573
  33   2.0000     -10.331157      -281.1251
  34   2.0000     -10.330985      -281.1204
  35   2.0000     -10.329920      -281.0914
  36   2.0000     -10.328504      -281.0529
  37   2.0000     -10.327378      -281.0222
  38   2.0000     -10.325650      -280.9752
  39   2.0000     -10.321786      -280.8701
  40   2.0000     -10.321697      -280.8677
  41   2.0000     -10.320959      -280.8476
  42   2.0000     -10.320000      -280.8215
  43   2.0000     -10.319181      -280.7992
  44   2.0000     -10.318370      -280.7771
  45   2.0000     -10.317807      -280.7618
  46   2.0000     -10.317563      -280.7552
  47   2.0000     -10.316378      -280.7229
  48   2.0000     -10.314945      -280.6839
  49   2.0000     -10.314707      -280.6774
  50   2.0000     -10.314609      -280.6748
  51   2.0000     -10.314313      -280.6667
  52   2.0000     -10.313692      -280.6498
  53   2.0000     -10.312702      -280.6229
  54   2.0000     -10.312141      -280.6076
  55   2.0000     -10.311572      -280.5921
  56   2.0000     -10.310984      -280.5761
  57   2.0000     -10.310612      -280.5660
  58   2.0000     -10.310523      -280.5636
  59   2.0000     -10.309159      -280.5265
  60   2.0000     -10.306447      -280.4527
  61   2.0000     -10.306102      -280.4433
  62   2.0000     -10.306022      -280.4411
  63   2.0000     -10.305715      -280.4328
  64   2.0000     -10.305648      -280.4309
  65   2.0000     -10.303918      -280.3839
  66   2.0000     -10.303616      -280.3757
  67   2.0000     -10.300646      -280.2948
  68   2.0000     -10.298678      -280.2413
  69   2.0000     -10.298614      -280.2395
  70   2.0000     -10.298333      -280.2319
  71   2.0000     -10.298289      -280.2307
  72   2.0000     -10.297612      -280.2123
  73   2.0000     -10.297373      -280.2058
  74   2.0000     -10.293866      -280.1103
  75   2.0000     -10.293344      -280.0961
  76   2.0000     -10.293180      -280.0917
  77   2.0000     -10.293054      -280.0882
  78   2.0000     -10.292569      -280.0750
  79   2.0000     -10.289195      -279.9832
  80   2.0000     -10.287536      -279.9381
  81   2.0000     -10.286972      -279.9227
  82   2.0000     -10.286645      -279.9138
  83   2.0000     -10.286152      -279.9004
  84   2.0000      -1.333565       -36.2881
  85   2.0000      -1.315660       -35.8009
  86   2.0000      -1.243577       -33.8395
  87   2.0000      -1.144016       -31.1303
  88   2.0000      -1.132801       -30.8251
  89   2.0000      -1.031094       -28.0575
  90   2.0000      -1.029377       -28.0108
  91   2.0000      -1.027070       -27.9480
  92   2.0000      -1.019155       -27.7326
  93   2.0000      -1.017746       -27.6943
  94   2.0000      -1.017153       -27.6781
  95   2.0000      -1.013878       -27.5890
  96   2.0000      -1.007750       -27.4223
  97   2.0000      -1.006753       -27.3951
  98   2.0000      -1.005055       -27.3489
  99   2.0000      -1.002437       -27.2777
 100   2.0000      -0.999694       -27.2031
 101   2.0000      -0.997658       -27.1476
 102   2.0000      -0.994617       -27.0649
 103   2.0000      -0.992686       -27.0124
 104   2.0000      -0.988038       -26.8859
 105   2.0000      -0.980088       -26.6695
 106   2.0000      -0.972509       -26.4633
 107   2.0000      -0.946717       -25.7615
 108   2.0000      -0.935364       -25.4525
 109   2.0000      -0.934771       -25.4364
 110   2.0000      -0.928936       -25.2776
 111   2.0000      -0.920828       -25.0570
 112   2.0000      -0.917540       -24.9675
 113   2.0000      -0.898092       -24.4383
 114   2.0000      -0.896758       -24.4020
 115   2.0000      -0.894740       -24.3471
 116   2.0000      -0.890654       -24.2359
 117   2.0000      -0.889148       -24.1950
 118   2.0000      -0.884413       -24.0661
 119   2.0000      -0.881863       -23.9967
 120   2.0000      -0.869760       -23.6674
 121   2.0000      -0.854722       -23.2582
 122   2.0000      -0.842762       -22.9327
 123   2.0000      -0.836517       -22.7628
 124   2.0000      -0.830611       -22.6021
 125   2.0000      -0.829076       -22.5603
 126   2.0000      -0.827630       -22.5210
 127   2.0000      -0.819033       -22.2870
 128   2.0000      -0.812708       -22.1149
 129   2.0000      -0.810763       -22.0620
 130   2.0000      -0.798171       -21.7193
 131   2.0000      -0.789071       -21.4717
 132   2.0000      -0.771983       -21.0067
 133   2.0000      -0.770955       -20.9787
 134   2.0000      -0.762847       -20.7581
 135   2.0000      -0.758595       -20.6424
 136   2.0000      -0.741430       -20.1753
 137   2.0000      -0.740461       -20.1490
 138   2.0000      -0.736294       -20.0356
 139   2.0000      -0.733783       -19.9673
 140   2.0000      -0.727822       -19.8050
 141   2.0000      -0.714919       -19.4539
 142   2.0000      -0.711595       -19.3635
 143   2.0000      -0.706873       -19.2350
 144   2.0000      -0.705173       -19.1887
 145   2.0000      -0.702668       -19.1206
 146   2.0000      -0.695137       -18.9157
 147   2.0000      -0.689115       -18.7518
 148   2.0000      -0.685292       -18.6478
 149   2.0000      -0.680852       -18.5269
 150   2.0000      -0.672699       -18.3051
 151   2.0000      -0.667678       -18.1685
 152   2.0000      -0.664674       -18.0867
 153   2.0000      -0.657329       -17.8868
 154   2.0000      -0.653767       -17.7899
 155   2.0000      -0.650279       -17.6950
 156   2.0000      -0.649772       -17.6812
 157   2.0000      -0.643951       -17.5228
 158   2.0000      -0.642559       -17.4849
 159   2.0000      -0.635159       -17.2836
 160   2.0000      -0.633621       -17.2417
 161   2.0000      -0.625792       -17.0287
 162   2.0000      -0.625588       -17.0231
 163   2.0000      -0.622525       -16.9398
 164   2.0000      -0.614857       -16.7311
 165   2.0000      -0.613974       -16.7071
 166   2.0000      -0.610665       -16.6170
 167   2.0000      -0.608216       -16.5504
 168   2.0000      -0.607102       -16.5201
 169   2.0000      -0.597107       -16.2481
 170   2.0000      -0.590861       -16.0781
 171   2.0000      -0.590403       -16.0657
 172   2.0000      -0.588486       -16.0135
 173   2.0000      -0.582906       -15.8617
 174   2.0000      -0.567532       -15.4433
 175   2.0000      -0.566572       -15.4172
 176   2.0000      -0.561526       -15.2799
 177   2.0000      -0.559448       -15.2233
 178   2.0000      -0.555953       -15.1282
 179   2.0000      -0.555713       -15.1217
 180   2.0000      -0.554174       -15.0798
 181   2.0000      -0.549719       -14.9586
 182   2.0000      -0.547361       -14.8945
 183   2.0000      -0.545530       -14.8446
 184   2.0000      -0.542852       -14.7718
 185   2.0000      -0.541576       -14.7370
 186   2.0000      -0.538359       -14.6495
 187   2.0000      -0.536897       -14.6097
 188   2.0000      -0.535004       -14.5582
 189   2.0000      -0.532367       -14.4864
 190   2.0000      -0.530278       -14.4296
 191   2.0000      -0.526913       -14.3380
 192   2.0000      -0.526701       -14.3323
 193   2.0000      -0.525284       -14.2937
 194   2.0000      -0.523865       -14.2551
 195   2.0000      -0.521850       -14.2003
 196   2.0000      -0.520617       -14.1667
 197   2.0000      -0.519083       -14.1250
 198   2.0000      -0.517888       -14.0925
 199   2.0000      -0.517599       -14.0846
 200   2.0000      -0.517022       -14.0689
 201   2.0000      -0.515411       -14.0250
 202   2.0000      -0.512267       -13.9395
 203   2.0000      -0.510090       -13.8802
 204   2.0000      -0.508061       -13.8250
 205   2.0000      -0.507590       -13.8122
 206   2.0000      -0.506147       -13.7729
 207   2.0000      -0.504935       -13.7400
 208   2.0000      -0.503321       -13.6961
 209   2.0000      -0.502634       -13.6774
 210   2.0000      -0.499537       -13.5931
 211   2.0000      -0.498152       -13.5554
 212   2.0000      -0.497968       -13.5504
 213   2.0000      -0.493474       -13.4281
 214   2.0000      -0.492887       -13.4121
 215   2.0000      -0.487716       -13.2714
 216   2.0000      -0.483534       -13.1576
 217   2.0000      -0.478475       -13.0200
 218   2.0000      -0.476221       -12.9586
 219   2.0000      -0.473657       -12.8889
 220   2.0000      -0.468688       -12.7537
 221   2.0000      -0.465184       -12.6583
 222   2.0000      -0.463607       -12.6154
 223   2.0000      -0.460754       -12.5378
 224   2.0000      -0.457914       -12.4605
 225   2.0000      -0.457011       -12.4359
 226   2.0000      -0.454330       -12.3629
 227   2.0000      -0.453096       -12.3294
 228   2.0000      -0.452329       -12.3085
 229   2.0000      -0.450296       -12.2532
 230   2.0000      -0.449120       -12.2212
 231   2.0000      -0.448170       -12.1953
 232   2.0000      -0.447178       -12.1683
 233   2.0000      -0.446510       -12.1501
 234   2.0000      -0.445315       -12.1176
 235   2.0000      -0.444813       -12.1040
 236   2.0000      -0.441867       -12.0238
 237   2.0000      -0.441472       -12.0131
 238   2.0000      -0.440754       -11.9935
 239   2.0000      -0.435816       -11.8591
 240   2.0000      -0.434583       -11.8256
 241   2.0000      -0.434090       -11.8122
 242   2.0000      -0.433621       -11.7994
 243   2.0000      -0.430230       -11.7071
 244   2.0000      -0.428877       -11.6703
 245   2.0000      -0.427980       -11.6459
 246   2.0000      -0.424914       -11.5625
 247   2.0000      -0.421681       -11.4745
 248   2.0000      -0.421163       -11.4604
 249   2.0000      -0.420654       -11.4466
 250   2.0000      -0.419184       -11.4066
 251   2.0000      -0.417533       -11.3616
 252   2.0000      -0.415420       -11.3041
 253   2.0000      -0.411989       -11.2108
 254   2.0000      -0.410134       -11.1603
 255   2.0000      -0.406924       -11.0730
 256   2.0000      -0.398123       -10.8335
 257   2.0000      -0.390807       -10.6344
 258   2.0000      -0.386607       -10.5201
 259   2.0000      -0.385610       -10.4930
 260   2.0000      -0.375896       -10.2286
 261   2.0000      -0.364785        -9.9263
 262   2.0000      -0.355039        -9.6611
 263   2.0000      -0.350957        -9.5500
 264   2.0000      -0.346465        -9.4278
 265   2.0000      -0.341207        -9.2847
 266   2.0000      -0.338687        -9.2161
 267   2.0000      -0.337554        -9.1853
 268   2.0000      -0.334460        -9.1011
 269   2.0000      -0.326056        -8.8724
 270   2.0000      -0.318118        -8.6564
 271   2.0000      -0.315585        -8.5875
 272   2.0000      -0.309111        -8.4113
 273   2.0000      -0.298180        -8.1139
 274   2.0000      -0.297334        -8.0909
 275   2.0000      -0.281506        -7.6602
 276   2.0000      -0.273951        -7.4546
 277   0.0000      -0.140906        -3.8343
 278   0.0000      -0.136373        -3.7109
 279   0.0000      -0.095573        -2.6007
 280   0.0000      -0.094348        -2.5673
 281   0.0000      -0.068730        -1.8702

MULLIKEN ATOMIC CHARGES
-----------------------
   0 C :    0.295781
   1 C :   -0.333431
   2 C :   -0.180544
   3 N :    0.154125
   4 C :   -0.197876
   5 N :    0.163307
   6 C :    0.051017
   7 C :   -0.009461
   8 C :   -0.074188
   9 C :    0.095547
  10 C :    0.095091
  11 C :   -0.077619
  12 C :   -0.015520
  13 C :    0.036929
  14 C :    0.037134
  15 C :   -0.013768
  16 C :    0.142860
  17 O :   -0.142917
  18 C :   -0.094539
  19 C :   -0.054761
  20 C :    0.054239
  21 C :    0.076941
  22 C :   -0.130910
  23 C :   -0.077079
  24 N :    0.105375
  25 C :   -0.014060
  26 C :    0.053300
  27 C :    0.064371
  28 C :    0.094094
  29 C :   -0.020950
  30 C :   -0.086653
  31 C :   -0.042374
  32 C :   -0.130365
  33 N :    0.153631
  34 C :   -0.015068
  35 C :   -0.041956
  36 C :   -0.003118
  37 C :    0.175530
  38 F :   -0.172101
  39 C :    0.116138
  40 F :   -0.169801
  41 C :    0.029906
  42 C :   -0.039262
  43 C :    0.003435
  44 N :   -0.088442
  45 N :   -0.065873
  46 N :   -0.043566
  47 C :    0.135680
  48 C :    0.020200
  49 C :    0.002907
  50 C :   -0.097019
  51 C :   -0.128246
  52 N :    0.151321
  53 C :   -0.020414
  54 C :    0.040561
  55 C :    0.057190
  56 C :    0.088410
  57 C :    0.000903
  58 C :   -0.106964
  59 C :   -0.004077
  60 C :   -0.129559
  61 N :    0.149909
  62 C :   -0.004435
  63 C :    0.004848
  64 C :   -0.045100
  65 C :   -0.064055
  66 C :    0.342067
  67 C :   -0.356821
  68 C :   -0.181957
  69 N :    0.147307
  70 C :   -0.186919
  71 N :    0.144711
  72 C :    0.046238
  73 C :   -0.002249
  74 C :    0.149075
  75 O :   -0.153172
  76 C :   -0.080953
  77 C :    0.098486
  78 C :    0.096947
  79 C :   -0.084968
  80 C :   -0.018687
  81 C :    0.036679
  82 C :    0.038122
  83 C :   -0.017195
  84 H :   -0.011530
  85 H :   -0.005471
  86 H :   -0.007819
  87 H :   -0.001023
  88 H :   -0.001638
  89 H :   -0.015779
  90 H :    0.046434
  91 H :    0.008195
  92 H :    0.012674
  93 H :    0.001651
  94 H :    0.004374
  95 H :    0.030624
  96 H :   -0.005791
  97 H :    0.053123
  98 H :    0.055532
  99 H :    0.068104
 100 H :    0.005292
 101 H :    0.010246
 102 H :    0.013366
 103 H :    0.015408
 104 H :    0.017450
 105 H :    0.026830
 106 H :    0.007042
 107 H :   -0.013825
 108 H :   -0.009425
 109 H :   -0.008236
 110 H :   -0.004543
 111 H :   -0.005184
 112 H :   -0.017399
Sum of atomic charges:   -0.0000000

LOEWDIN ATOMIC CHARGES
----------------------
   0 C :    0.073336
   1 C :   -0.133485
   2 C :   -0.017947
   3 N :   -0.045353
   4 C :   -0.024144
   5 N :   -0.045988
   6 C :   -0.027523
   7 C :   -0.057588
   8 C :    0.035149
   9 C :   -0.007406
  10 C :   -0.005170
  11 C :    0.022682
  12 C :   -0.003971
  13 C :   -0.010385
  14 C :   -0.009365
  15 C :   -0.008332
  16 C :    0.083944
  17 O :   -0.135046
  18 C :   -0.082878
  19 C :    0.063404
  20 C :   -0.052014
  21 C :    0.077411
  22 C :   -0.066297
  23 C :   -0.014350
  24 N :   -0.053001
  25 C :    0.036385
  26 C :    0.032356
  27 C :    0.049439
  28 C :   -0.022463
  29 C :    0.011486
  30 C :   -0.036394
  31 C :   -0.008348
  32 C :   -0.030450
  33 N :   -0.030099
  34 C :   -0.013401
  35 C :   -0.004807
  36 C :   -0.053109
  37 C :    0.069583
  38 F :   -0.048969
  39 C :    0.057314
  40 F :   -0.046325
  41 C :   -0.050774
  42 C :   -0.048423
  43 C :   -0.040993
  44 N :   -0.095128
  45 N :    0.164779
  46 N :   -0.076939
  47 C :    0.029984
  48 C :   -0.031556
  49 C :    0.039614
  50 C :   -0.048511
  51 C :   -0.030969
  52 N :   -0.031750
  53 C :    0.006400
  54 C :    0.041704
  55 C :    0.042570
  56 C :   -0.040751
  57 C :    0.045455
  58 C :   -0.053513
  59 C :    0.017355
  60 C :   -0.031892
  61 N :   -0.034653
  62 C :    0.023974
  63 C :   -0.018040
  64 C :    0.065109
  65 C :   -0.089647
  66 C :    0.075469
  67 C :   -0.138762
  68 C :   -0.016999
  69 N :   -0.053256
  70 C :   -0.019625
  71 N :   -0.053781
  72 C :   -0.025879
  73 C :   -0.056163
  74 C :    0.085266
  75 O :   -0.148111
  76 C :    0.032561
  77 C :   -0.008161
  78 C :   -0.006068
  79 C :    0.020025
  80 C :   -0.004885
  81 C :   -0.012921
  82 C :   -0.011577
  83 C :   -0.009514
  84 H :    0.039837
  85 H :    0.039990
  86 H :    0.035601
  87 H :    0.034708
  88 H :    0.034211
  89 H :    0.032723
  90 H :    0.045224
  91 H :    0.039830
  92 H :    0.035399
  93 H :    0.035954
  94 H :    0.035138
  95 H :    0.031752
  96 H :    0.032857
  97 H :    0.042543
  98 H :    0.045103
  99 H :    0.043082
 100 H :    0.036403
 101 H :    0.038234
 102 H :    0.040948
 103 H :    0.037656
 104 H :    0.037434
 105 H :    0.033556
 106 H :    0.041722
 107 H :    0.038805
 108 H :    0.039046
 109 H :    0.035059
 110 H :    0.033413
 111 H :    0.032929
 112 H :    0.031940

  Mayer bond orders larger than 0.100000
B(  0-C ,  1-C ) :   1.6646 B(  0-C ,  6-C ) :   1.0003 B(  0-C , 18-C ) :   1.0249
B(  1-C ,  2-C ) :   1.1383 B(  1-C ,  4-C ) :   1.1397 B(  2-C ,  3-N ) :   2.9724
B(  4-C ,  5-N ) :   2.9870 B(  6-C ,  7-C ) :   1.2084 B(  6-C , 11-C ) :   1.4476
B(  7-C ,  8-C ) :   1.4701 B(  7-C , 16-C ) :   0.9482 B(  8-C ,  9-C ) :   1.1823
B(  8-C , 84-H ) :   1.0161 B(  9-C , 10-C ) :   1.2539 B(  9-C , 15-C ) :   1.2440
B( 10-C , 11-C ) :   1.2092 B( 10-C , 12-C ) :   1.2388 B( 11-C , 85-H ) :   0.9902
B( 12-C , 13-C ) :   1.4905 B( 12-C , 86-H ) :   0.9971 B( 13-C , 14-C ) :   1.2594
B( 13-C , 87-H ) :   0.9882 B( 14-C , 15-C ) :   1.4897 B( 14-C , 88-H ) :   0.9888
B( 15-C , 89-H ) :   0.9975 B( 16-C , 17-O ) :   2.2229 B( 16-C , 18-C ) :   0.9272
B( 18-C , 19-C ) :   1.6868 B( 19-C , 20-C ) :   1.0707 B( 19-C , 90-H ) :   0.9266
B( 20-C , 21-C ) :   1.5990 B( 20-C , 26-C ) :   1.0630 B( 21-C , 22-C ) :   1.0892
B( 21-C , 91-H ) :   1.0095 B( 22-C , 23-C ) :   1.0643 B( 22-C , 25-C ) :   1.6385
B( 23-C , 24-N ) :   2.9336 B( 25-C , 26-C ) :   1.0695 B( 25-C , 92-H ) :   1.0068
B( 26-C , 27-C ) :   1.5009 B( 27-C , 28-C ) :   1.0373 B( 27-C , 31-C ) :   1.0763
B( 28-C , 29-C ) :   1.6233 B( 28-C , 34-C ) :   1.0582 B( 29-C , 30-C ) :   1.0856
B( 29-C , 93-H ) :   1.0165 B( 30-C , 31-C ) :   1.6373 B( 30-C , 32-C ) :   1.0583
B( 31-C , 94-H ) :   1.0128 B( 32-C , 33-N ) :   3.0405 B( 34-C , 35-C ) :   1.6879
B( 34-C , 95-H ) :   0.9390 B( 35-C , 36-C ) :   1.1265 B( 35-C , 96-H ) :   0.9795
B( 36-C , 37-C ) :   1.3683 B( 36-C , 41-C ) :   0.1314 B( 36-C , 43-C ) :   1.1507
B( 37-C , 38-F ) :   1.1581 B( 37-C , 39-C ) :   1.1663 B( 39-C , 40-F ) :   1.1449
B( 39-C , 41-C ) :   1.3883 B( 41-C , 42-C ) :   1.2148 B( 41-C , 48-C ) :   0.9852
B( 42-C , 43-C ) :   1.2283 B( 42-C , 46-N ) :   1.4845 B( 43-C , 44-N ) :   1.4388
B( 44-N , 45-N ) :   1.2226 B( 44-N , 46-N ) :   0.1554 B( 45-N , 46-N ) :   1.2552
B( 45-N , 47-C ) :   0.9387 B( 47-C , 97-H ) :   0.9665 B( 47-C , 98-H ) :   0.9618
B( 47-C , 99-H ) :   0.9555 B( 48-C , 49-C ) :   1.6628 B( 48-C , 54-C ) :   1.0639
B( 49-C , 50-C ) :   1.0718 B( 49-C ,100-H ) :   1.0148 B( 50-C , 51-C ) :   1.0629
B( 50-C , 53-C ) :   1.6407 B( 51-C , 52-N ) :   3.0396 B( 53-C , 54-C ) :   1.0764
B( 53-C ,101-H ) :   1.0126 B( 54-C , 55-C ) :   1.4926 B( 55-C , 56-C ) :   1.0428
B( 55-C , 59-C ) :   1.0961 B( 56-C , 57-C ) :   1.5823 B( 56-C , 62-C ) :   1.0667
B( 57-C , 58-C ) :   1.1051 B( 57-C ,102-H ) :   1.0125 B( 58-C , 59-C ) :   1.6295
B( 58-C , 60-C ) :   1.0563 B( 59-C ,103-H ) :   1.0044 B( 60-C , 61-N ) :   3.0435
B( 62-C , 63-C ) :   1.5853 B( 62-C ,104-H ) :   0.9771 B( 63-C , 64-C ) :   1.1551
B( 63-C ,105-H ) :   0.9816 B( 64-C , 65-C ) :   1.5383 B( 64-C ,106-H ) :   0.9619
B( 65-C , 66-C ) :   1.0621 B( 65-C , 74-C ) :   0.9419 B( 66-C , 67-C ) :   1.6245
B( 66-C , 72-C ) :   0.9869 B( 67-C , 68-C ) :   1.1480 B( 67-C , 70-C ) :   1.1474
B( 68-C , 69-N ) :   2.9611 B( 70-C , 71-N ) :   2.9570 B( 72-C , 73-C ) :   1.2148
B( 72-C , 79-C ) :   1.4480 B( 73-C , 74-C ) :   0.9466 B( 73-C , 76-C ) :   1.4677
B( 74-C , 75-O ) :   2.1984 B( 76-C , 77-C ) :   1.1795 B( 76-C ,107-H ) :   1.0165
B( 77-C , 78-C ) :   1.2557 B( 77-C , 83-C ) :   1.2430 B( 78-C , 79-C ) :   1.2062
B( 78-C , 80-C ) :   1.2399 B( 79-C ,108-H ) :   0.9892 B( 80-C , 81-C ) :   1.4887
B( 80-C ,109-H ) :   0.9975 B( 81-C , 82-C ) :   1.2589 B( 81-C ,110-H ) :   0.9887
B( 82-C , 83-C ) :   1.4897 B( 82-C ,111-H ) :   0.9885 B( 83-C ,112-H ) :   0.9977

-----------------------------------------------------------------------------
         ABSORPTION SPECTRUM VIA TRANSITION ELECTRIC DIPOLE MOMENTS
-----------------------------------------------------------------------------
State   Energy  Wavelength   fosc         T2         TX        TY        TZ
        (cm-1)    (nm)                  (au**2)     (au)      (au)      (au)
-----------------------------------------------------------------------------
   0   11535.8    866.9   0.210714942   6.01345  -1.03982   1.83309  -1.25379
   1   12578.3    795.0   0.050249737   1.31519   0.34302  -0.94737   0.54773
   2   13829.9    723.1   0.047490777   1.13048  -0.20216  -0.82953   0.63364
   3   16471.9    607.1   0.021968137   0.43906  -0.20414   0.56341  -0.28277
   4   21764.0    459.5   0.007603471   0.11501  -0.24341   0.20542  -0.11649
   5   22246.1    449.5   0.005853113   0.08662  -0.25673   0.05501  -0.13297
   6   22385.6    446.7   0.060273779   0.88641   0.60249  -0.62839  -0.35853
   7   22517.7    444.1   0.016328769   0.23873  -0.20330  -0.38772  -0.21696
   8   22848.1    437.7   0.201118027   2.89785   0.58831  -1.54244   0.41547
   9   23683.3    422.2   0.959354652  13.33561  -0.20178   2.98250  -2.09753
  10   24677.2    405.2   0.075288448   1.00440   0.39957  -0.91684   0.06441
  11   25149.9    397.6   0.013333394   0.17453   0.31548  -0.27231  -0.02917
  12   25404.6    393.6   0.008498978   0.11014  -0.06585   0.32085  -0.05344
  13   25849.1    386.9   0.322595726   4.10855   1.03987  -0.80710   1.54137
  14   25904.2    386.0   0.100429202   1.27633  -0.22482   0.51793  -0.97854
  15   25935.4    385.6   0.093079574   1.18151   0.04234   1.07550  -0.15173
  16   26080.4    383.4   0.123233885   1.55558  -0.27843   0.85425  -0.86505
  17   26873.3    372.1   0.002377844   0.02913   0.10656  -0.01167   0.13281
  18   27189.1    367.8   0.049819806   0.60323   0.76299   0.11417   0.08969
  19   27716.1    360.8   0.093469757   1.11023   0.32805   0.94290   0.33698
  20   28040.6    356.6   0.090048871   1.05722   0.38808   0.63661   0.70806
  21   28264.0    353.8   0.228292754   2.65909  -0.56721   1.08342  -1.07869
  22   28510.6    350.7   0.088832447   1.02575  -0.75282   0.48080  -0.47732
  23   28700.5    348.4   0.039979683   0.45859  -0.54470   0.04522  -0.39981
  24   29046.5    344.3   0.055788151   0.63230  -0.17596   0.28790  -0.72004
  25   29624.7    337.6   0.010283030   0.11427  -0.18812   0.19610   0.20106
  26   29684.5    336.9   0.043505169   0.48249   0.52511  -0.31905   0.32397
  27   30082.7    332.4   0.260677073   2.85274  -0.21946  -1.38863  -0.93609
  28   30155.6    331.6   0.004148967   0.04529  -0.17873   0.04500  -0.10643
  29   30332.4    329.7   0.261620670   2.83949   0.53167  -0.77029   1.40124
  30   30597.2    326.8   0.134827112   1.45068  -0.98219   0.65723   0.23247
  31   30798.0    324.7   0.021840175   0.23346   0.40220   0.20382   0.17365
  32   31408.8    318.4   0.655279597   6.86833  -0.68297   1.53837   2.00881
  33   31709.6    315.4   0.008927655   0.09269   0.02635  -0.12735  -0.27527
  34   31902.7    313.5   0.164979620   1.70247   0.54061  -1.07563   0.50321
  35   32257.3    310.0   0.345446330   3.52556  -0.50946   1.15203   1.39242
  36   32623.8    306.5   0.006786470   0.06848   0.06584   0.05988  -0.24610
  37   32924.7    303.7   0.005699244   0.05699  -0.06089   0.09072   0.21225
  38   33313.2    300.2   0.023583467   0.23306   0.17028  -0.18797   0.41077
  39   33333.0    300.0   0.000810653   0.00801   0.04912  -0.06976   0.02698
  40   33663.0    297.1   0.026311986   0.25732  -0.44478   0.23895  -0.04891
  41   33891.5    295.1   0.193906967   1.88355  -1.10964   0.75583  -0.28457
  42   34356.9    291.1   0.672097054   6.44011   1.09582  -0.75331   2.16144
  43   34434.8    290.4   0.367209201   3.51068  -1.50001   1.11318   0.14653
  44   34534.5    289.6   0.289191670   2.75682  -1.29593  -0.40584  -0.95534
  45   34718.0    288.0   0.011212053   0.10632   0.12881   0.04722   0.29580
  46   34861.0    286.9   0.523371934   4.94250  -1.64902  -0.65700  -1.33849
  47   35293.6    283.3   0.024126567   0.22505  -0.08699   0.35386   0.30375
  48   35446.2    282.1   0.111222393   1.03299   0.65060  -0.50942  -0.59178
  49   36042.2    277.5   0.048281992   0.44101   0.05934   0.12851   0.64883
  50   36439.4    274.4   0.035865690   0.32403  -0.38869   0.41286   0.04992
  51   36620.8    273.1   0.009709501   0.08729   0.26376  -0.05647  -0.12054
  52   36717.2    272.4   0.000055226   0.00050  -0.00339  -0.01818  -0.01238
  53   37274.9    268.3   0.003218253   0.02842  -0.01189  -0.08243   0.14659
  54   37572.7    266.2   0.025540991   0.22379  -0.19260  -0.33148  -0.27716
  55   37807.1    264.5   0.039653759   0.34529  -0.16526  -0.33516  -0.45349
  56   37915.9    263.7   0.012774935   0.11092  -0.09648  -0.11701  -0.29652
  57   38102.9    262.4   0.015238311   0.13166   0.11916   0.20629   0.27368
  58   38238.5    261.5   0.009209769   0.07929   0.15809  -0.04161  -0.22928
  59   38319.8    261.0   0.069479634   0.59691   0.07074  -0.33968  -0.69031
  60   38750.0    258.1   0.156449944   1.32917   0.44981   0.52750  -0.92118
  61   38966.8    256.6   0.004292149   0.03626   0.01619  -0.18706  -0.03178
  62   39067.3    256.0   0.024599505   0.20729  -0.08265  -0.31969   0.31346
  63   39188.8    255.2   0.005336957   0.04483  -0.19252   0.07302  -0.04937
  64   39241.0    254.8   0.099588602   0.83550   0.31864  -0.80304  -0.29850
  65   39340.5    254.2   0.000501815   0.00420  -0.00209   0.02731   0.05873
  66   39419.2    253.7   0.353721452   2.95413  -0.51762  -1.14384  -1.17381
  67   40196.0    248.8   0.035346275   0.28949   0.02485   0.53121   0.08181
  68   40219.4    248.6   0.110679758   0.90596  -0.01947  -0.86882  -0.38825

FINAL SINGLE POINT ENERGY     -3594.366515426123

DIPOLE MOMENT
-------------
                                X             Y             Z
Electronic contribution:     -2.89583      -6.20756      -3.25941
Nuclear contribution   :      3.80241       6.00396       3.83246
                        -----------------------------------------
Total Dipole Moment    :      0.90658      -0.20360       0.57305
                        -----------------------------------------
Magnitude (a.u.)       :      1.09166
Magnitude (Debye)      :      2.77478

Rotational constants in cm-1:     0.001966     0.000172     0.000169
Rotational constants in MHz :    58.928737     5.155049     5.053270

                             ****ORCA TERMINATED NORMALLY****
TOTAL RUN TIME: 0 days 0 hours 13 minutes 53 seconds 637 msec
