                         Program Version 4.2.0 -  RELEASE  -
|  1> # ORCA input file
|  2> # SCF done       -183.795149089114          0.000466690402
|  3> ! CAM-B3LYP def2-SVP def2/J RIJCOSX Grid4 TightSCF
|  4> %maxcore 5000
|  5> %tddft
|  6>     Mode sTDDFT
|  7>     Ethresh 5.0
|  8>     maxcore 5000
|  9> end
| 10>
| 11> %pal
| 12>   nprocs 6
| 13>   end
| 14> * xyz 0 1
| 15>    C       -2.42072         3.69679        -2.25605
| 16>    C       -2.54781         3.02796        -1.03543
| 17>    C       -1.94293         3.57045         0.09951
| 18>    C       -1.22142         4.76145         0.01705
| 19>    C       -1.11024         5.40300        -1.19698
| 20>    C       -1.71015         4.87206        -2.33662
| 21>    O       -2.02904         2.96836         1.31126
| 22>    C       -2.72599         1.82906         1.44834
| 23>    C       -2.68133         1.33470         2.85919
| 24>    C       -3.36500         1.20836         0.41767
| 25>    C       -3.31055         1.77504        -0.94583
| 26>    O       -3.85972         1.27171        -1.90834
| 27>    C       -4.14180        -0.00457         0.57667
| 28>    C       -4.24971        -1.02012        -0.34373
| 29>    C       -5.15815        -2.00707         0.05800
| 30>    C       -5.75983        -1.72051         1.29248
| 31>    S       -5.19377        -0.25701         1.96422
| 32>    C       -6.67163        -2.75607         1.60769
| 33>    C       -6.64897        -3.70693         0.56876
| 34>    C       -5.66321        -3.28292        -0.41995
| 35>    C       -5.24265        -3.97777        -1.51376
| 36>    C       -5.70623        -5.27589        -1.82373
| 37>    N       -6.02447        -6.34810        -2.07363
| 38>    C       -4.24396        -3.48628        -2.38299
| 39>    N       -3.42232        -3.11453        -3.09082
| 40>    C       -7.54500        -4.75127         0.76399
| 41>    C       -8.24236        -4.61205         1.95839
| 42>    S       -7.77656        -3.16203         2.84254
| 43>    C       -9.21539        -5.48687         2.47361
| 44>    C       -9.77307        -6.60603         1.84028
| 45>    C      -10.71555        -7.31323         2.66844
| 46>    N      -11.26768        -8.45615         2.25577
| 47>    C      -10.96972        -8.86276         1.04182
| 48>    C      -11.49788       -10.18475         0.61990
| 49>    O      -12.06218       -10.93769         1.38369
| 50>    C      -11.24510       -10.53082        -0.79041
| 51>    C      -10.54803        -9.75946        -1.63092
| 52>    C       -9.96326        -8.45987        -1.25485
| 53>    O       -9.40994        -7.73856        -2.05630
| 54>    C      -10.14253        -8.08481         0.17058
| 55>    N       -9.53650        -6.99484         0.58564
| 56>    C      -10.91727        -6.70452         3.91479
| 57>    S       -9.90336        -5.30125         4.05762
| 58>    C      -11.79250        -7.11680         4.93540
| 59>    C      -12.72459        -8.14608         4.87144
| 60>    C      -13.43009        -8.27362         6.06231
| 61>    C      -13.02622        -7.35051         7.04655
| 62>    S      -11.79544        -6.30450         6.49793
| 63>    C      -13.77375        -7.58907         8.22426
| 64>    C      -14.65048        -8.65998         7.99525
| 65>    C      -14.49422        -9.10200         6.61978
| 66>    C      -15.24042       -10.03488         5.96492
| 67>    C      -16.27875       -10.75297         6.59807
| 68>    N      -17.13722       -11.33509         7.08649
| 69>    C      -15.09496       -10.30528         4.58582
| 70>    N      -15.03626       -10.51204         3.46013
| 71>    C      -15.42387        -8.97628         9.11890
| 72>    C      -15.15865        -8.14917        10.18481
| 73>    S      -13.91573        -6.96271         9.80549
| 74>    C      -15.71602        -8.27035        11.51676
| 75>    C      -16.00047        -7.19962        12.30988
| 76>    O      -16.48690        -7.30759        13.55663
| 77>    C      -16.70800        -8.53143        14.09633
| 78>    C      -17.19314        -8.58599        15.40305
| 79>    C      -17.43141        -9.81118        15.98606
| 80>    C      -17.19322       -10.98931        15.28195
| 81>    C      -16.71608       -10.93590        13.99273
| 82>    C      -16.46566        -9.70472        13.38036
| 83>    C      -15.94940        -9.64516        12.00575
| 84>    O      -15.71991       -10.64353        11.34857
| 85>    C      -15.84262        -5.76560        11.91567
| 86>    H       -2.89696         3.25798        -3.11949
| 87>    H       -0.76411         5.15648         0.91039
| 88>    H       -0.55304         6.32505        -1.26290
| 89>    H       -1.61547         5.38498        -3.28111
| 90>    H       -1.83566         1.79441         3.36482
| 91>    H       -2.58348         0.25293         2.89186
| 92>    H       -3.59035         1.61413         3.39050
| 93>    H       -3.69443        -1.03157        -1.26291
| 94>    H       -7.72073        -5.57707         0.09805
| 95>    H      -11.66156       -11.47706        -1.10874
| 96>    H      -10.38262       -10.05305        -2.65882
| 97>    H      -12.84120        -8.75098         3.99005
| 98>    H      -16.14344        -9.77204         9.16709
| 99>    H      -17.37151        -7.66293        15.93154
|100>    H      -17.80570        -9.85582        16.99745
|101>    H      -17.38395       -11.94220        15.75070
|102>    H      -16.52145       -11.82920        13.41922
|103>    H      -16.12112        -5.61166        10.87670
|104>    H      -14.80953        -5.44546        12.04625
|105>    H      -16.47239        -5.15477        12.55801
|106> *
|107>
|108>                          ****END OF INPUT****

CARTESIAN COORDINATES (ANGSTROEM)
---------------------------------
  C     -2.420720    3.696790   -2.256050
  C     -2.547810    3.027960   -1.035430
  C     -1.942930    3.570450    0.099510
  C     -1.221420    4.761450    0.017050
  C     -1.110240    5.403000   -1.196980
  C     -1.710150    4.872060   -2.336620
  O     -2.029040    2.968360    1.311260
  C     -2.725990    1.829060    1.448340
  C     -2.681330    1.334700    2.859190
  C     -3.365000    1.208360    0.417670
  C     -3.310550    1.775040   -0.945830
  O     -3.859720    1.271710   -1.908340
  C     -4.141800   -0.004570    0.576670
  C     -4.249710   -1.020120   -0.343730
  C     -5.158150   -2.007070    0.058000
  C     -5.759830   -1.720510    1.292480
  S     -5.193770   -0.257010    1.964220
  C     -6.671630   -2.756070    1.607690
  C     -6.648970   -3.706930    0.568760
  C     -5.663210   -3.282920   -0.419950
  C     -5.242650   -3.977770   -1.513760
  C     -5.706230   -5.275890   -1.823730
  N     -6.024470   -6.348100   -2.073630
  C     -4.243960   -3.486280   -2.382990
  N     -3.422320   -3.114530   -3.090820
  C     -7.545000   -4.751270    0.763990
  C     -8.242360   -4.612050    1.958390
  S     -7.776560   -3.162030    2.842540
  C     -9.215390   -5.486870    2.473610
  C     -9.773070   -6.606030    1.840280
  C    -10.715550   -7.313230    2.668440
  N    -11.267680   -8.456150    2.255770
  C    -10.969720   -8.862760    1.041820
  C    -11.497880  -10.184750    0.619900
  O    -12.062180  -10.937690    1.383690
  C    -11.245100  -10.530820   -0.790410
  C    -10.548030   -9.759460   -1.630920
  C     -9.963260   -8.459870   -1.254850
  O     -9.409940   -7.738560   -2.056300
  C    -10.142530   -8.084810    0.170580
  N     -9.536500   -6.994840    0.585640
  C    -10.917270   -6.704520    3.914790
  S     -9.903360   -5.301250    4.057620
  C    -11.792500   -7.116800    4.935400
  C    -12.724590   -8.146080    4.871440
  C    -13.430090   -8.273620    6.062310
  C    -13.026220   -7.350510    7.046550
  S    -11.795440   -6.304500    6.497930
  C    -13.773750   -7.589070    8.224260
  C    -14.650480   -8.659980    7.995250
  C    -14.494220   -9.102000    6.619780
  C    -15.240420  -10.034880    5.964920
  C    -16.278750  -10.752970    6.598070
  N    -17.137220  -11.335090    7.086490
  C    -15.094960  -10.305280    4.585820
  N    -15.036260  -10.512040    3.460130
  C    -15.423870   -8.976280    9.118900
  C    -15.158650   -8.149170   10.184810
  S    -13.915730   -6.962710    9.805490
  C    -15.716020   -8.270350   11.516760
  C    -16.000470   -7.199620   12.309880
  O    -16.486900   -7.307590   13.556630
  C    -16.708000   -8.531430   14.096330
  C    -17.193140   -8.585990   15.403050
  C    -17.431410   -9.811180   15.986060
  C    -17.193220  -10.989310   15.281950
  C    -16.716080  -10.935900   13.992730
  C    -16.465660   -9.704720   13.380360
  C    -15.949400   -9.645160   12.005750
  O    -15.719910  -10.643530   11.348570
  C    -15.842620   -5.765600   11.915670
  H     -2.896960    3.257980   -3.119490
  H     -0.764110    5.156480    0.910390
  H     -0.553040    6.325050   -1.262900
  H     -1.615470    5.384980   -3.281110
  H     -1.835660    1.794410    3.364820
  H     -2.583480    0.252930    2.891860
  H     -3.590350    1.614130    3.390500
  H     -3.694430   -1.031570   -1.262910
  H     -7.720730   -5.577070    0.098050
  H    -11.661560  -11.477060   -1.108740
  H    -10.382620  -10.053050   -2.658820
  H    -12.841200   -8.750980    3.990050
  H    -16.143440   -9.772040    9.167090
  H    -17.371510   -7.662930   15.931540
  H    -17.805700   -9.855820   16.997450
  H    -17.383950  -11.942200   15.750700
  H    -16.521450  -11.829200   13.419220
  H    -16.121120   -5.611660   10.876700
  H    -14.809530   -5.445460   12.046250
  H    -16.472390   -5.154770   12.558010

 Total Charge           Charge          ....    0
 Multiplicity           Mult            ....    1
 Number of Electrons    NEL             ....  514
 Basis Dimension        Dim             .... 1114

ORBITAL ENERGIES
----------------

  NO   OCC          E(Eh)            E(eV)
   0   2.0000     -88.993722     -2421.6423
   1   2.0000     -88.985090     -2421.4074
   2   2.0000     -88.985004     -2421.4051
   3   2.0000     -88.980343     -2421.2782
   4   2.0000     -88.980319     -2421.2776
   5   2.0000     -19.304661      -525.3065
   6   2.0000     -19.304646      -525.3061
   7   2.0000     -19.216752      -522.9144
   8   2.0000     -19.216714      -522.9134
   9   2.0000     -19.191686      -522.2323
  10   2.0000     -19.191572      -522.2292
  11   2.0000     -14.441695      -392.9785
  12   2.0000     -14.441560      -392.9748
  13   2.0000     -14.417783      -392.3278
  14   2.0000     -14.417677      -392.3249
  15   2.0000     -14.415771      -392.2731
  16   2.0000     -14.415737      -392.2721
  17   2.0000     -10.373158      -282.2680
  18   2.0000     -10.373029      -282.2645
  19   2.0000     -10.365695      -282.0649
  20   2.0000     -10.365601      -282.0623
  21   2.0000     -10.356763      -281.8219
  22   2.0000     -10.356675      -281.8195
  23   2.0000     -10.356237      -281.8075
  24   2.0000     -10.356229      -281.8073
  25   2.0000     -10.354024      -281.7473
  26   2.0000     -10.354012      -281.7470
  27   2.0000     -10.339865      -281.3620
  28   2.0000     -10.339840      -281.3613
  29   2.0000     -10.332898      -281.1725
  30   2.0000     -10.332633      -281.1653
  31   2.0000     -10.330772      -281.1146
  32   2.0000     -10.330642      -281.1111
  33   2.0000     -10.327520      -281.0261
  34   2.0000     -10.327257      -281.0189
  35   2.0000     -10.326134      -280.9884
  36   2.0000     -10.326109      -280.9877
  37   2.0000     -10.322997      -280.9030
  38   2.0000     -10.322926      -280.9011
  39   2.0000     -10.321220      -280.8547
  40   2.0000     -10.321115      -280.8518
  41   2.0000     -10.317628      -280.7569
  42   2.0000     -10.317523      -280.7541
  43   2.0000     -10.315006      -280.6856
  44   2.0000     -10.314938      -280.6837
  45   2.0000     -10.313497      -280.6445
  46   2.0000     -10.313318      -280.6396
  47   2.0000     -10.299282      -280.2577
  48   2.0000     -10.298585      -280.2387
  49   2.0000     -10.294671      -280.1322
  50   2.0000     -10.294645      -280.1315
  51   2.0000     -10.292557      -280.0747
  52   2.0000     -10.292339      -280.0688
  53   2.0000     -10.291243      -280.0390
  54   2.0000     -10.291232      -280.0387
  55   2.0000     -10.290857      -280.0285
  56   2.0000     -10.290770      -280.0261
  57   2.0000     -10.290608      -280.0217
  58   2.0000     -10.290535      -280.0197
  59   2.0000     -10.290095      -280.0077
  60   2.0000     -10.290062      -280.0068
  61   2.0000     -10.286894      -279.9206
  62   2.0000     -10.286824      -279.9187
  63   2.0000     -10.285622      -279.8860
  64   2.0000     -10.285607      -279.8856
  65   2.0000     -10.284343      -279.8512
  66   2.0000     -10.284327      -279.8508
  67   2.0000     -10.283372      -279.8248
  68   2.0000     -10.283316      -279.8232
  69   2.0000     -10.279601      -279.7222
  70   2.0000     -10.279532      -279.7203
  71   2.0000      -8.088606      -220.1022
  72   2.0000      -8.079980      -219.8674
  73   2.0000      -8.079919      -219.8658
  74   2.0000      -8.074847      -219.7278
  75   2.0000      -8.074826      -219.7272
  76   2.0000      -6.057706      -164.8386
  77   2.0000      -6.053599      -164.7268
  78   2.0000      -6.051181      -164.6610
  79   2.0000      -6.049277      -164.6092
  80   2.0000      -6.049217      -164.6076
  81   2.0000      -6.045151      -164.4969
  82   2.0000      -6.045088      -164.4952
  83   2.0000      -6.044132      -164.4692
  84   2.0000      -6.044108      -164.4686
  85   2.0000      -6.042188      -164.4163
  86   2.0000      -6.042119      -164.4144
  87   2.0000      -6.039910      -164.3543
  88   2.0000      -6.039888      -164.3537
  89   2.0000      -6.037252      -164.2820
  90   2.0000      -6.037225      -164.2812
  91   2.0000      -1.218817       -33.1657
  92   2.0000      -1.218775       -33.1645
  93   2.0000      -1.134184       -30.8627
  94   2.0000      -1.129431       -30.7334
  95   2.0000      -1.112438       -30.2710
  96   2.0000      -1.112348       -30.2685
  97   2.0000      -1.093053       -29.7435
  98   2.0000      -1.035150       -28.1679
  99   2.0000      -1.034821       -28.1589
 100   2.0000      -1.019873       -27.7521
 101   2.0000      -1.010974       -27.5100
 102   2.0000      -1.009110       -27.4593
 103   2.0000      -1.005244       -27.3541
 104   2.0000      -0.993816       -27.0431
 105   2.0000      -0.993604       -27.0374
 106   2.0000      -0.989530       -26.9265
 107   2.0000      -0.981263       -26.7015
 108   2.0000      -0.967644       -26.3309
 109   2.0000      -0.967367       -26.3234
 110   2.0000      -0.952021       -25.9058
 111   2.0000      -0.947822       -25.7916
 112   2.0000      -0.929892       -25.3037
 113   2.0000      -0.924267       -25.1506
 114   2.0000      -0.923966       -25.1424
 115   2.0000      -0.904427       -24.6107
 116   2.0000      -0.894430       -24.3387
 117   2.0000      -0.877509       -23.8782
 118   2.0000      -0.876709       -23.8565
 119   2.0000      -0.870185       -23.6789
 120   2.0000      -0.868524       -23.6338
 121   2.0000      -0.859483       -23.3877
 122   2.0000      -0.858562       -23.3627
 123   2.0000      -0.850805       -23.1516
 124   2.0000      -0.845250       -23.0004
 125   2.0000      -0.843840       -22.9620
 126   2.0000      -0.842261       -22.9191
 127   2.0000      -0.823015       -22.3954
 128   2.0000      -0.819303       -22.2944
 129   2.0000      -0.799367       -21.7519
 130   2.0000      -0.793157       -21.5829
 131   2.0000      -0.784497       -21.3472
 132   2.0000      -0.775545       -21.1036
 133   2.0000      -0.768149       -20.9024
 134   2.0000      -0.766402       -20.8549
 135   2.0000      -0.757517       -20.6131
 136   2.0000      -0.747116       -20.3301
 137   2.0000      -0.732386       -19.9292
 138   2.0000      -0.726890       -19.7797
 139   2.0000      -0.721665       -19.6375
 140   2.0000      -0.714845       -19.4519
 141   2.0000      -0.690317       -18.7845
 142   2.0000      -0.689429       -18.7603
 143   2.0000      -0.687488       -18.7075
 144   2.0000      -0.686372       -18.6771
 145   2.0000      -0.677506       -18.4359
 146   2.0000      -0.676557       -18.4100
 147   2.0000      -0.672192       -18.2913
 148   2.0000      -0.670503       -18.2453
 149   2.0000      -0.661978       -18.0133
 150   2.0000      -0.652490       -17.7552
 151   2.0000      -0.650303       -17.6956
 152   2.0000      -0.647611       -17.6224
 153   2.0000      -0.643379       -17.5072
 154   2.0000      -0.623289       -16.9606
 155   2.0000      -0.613903       -16.7051
 156   2.0000      -0.611730       -16.6460
 157   2.0000      -0.607477       -16.5303
 158   2.0000      -0.607309       -16.5257
 159   2.0000      -0.601785       -16.3754
 160   2.0000      -0.600267       -16.3341
 161   2.0000      -0.595874       -16.2146
 162   2.0000      -0.591275       -16.0894
 163   2.0000      -0.590980       -16.0814
 164   2.0000      -0.588986       -16.0271
 165   2.0000      -0.580273       -15.7900
 166   2.0000      -0.579983       -15.7821
 167   2.0000      -0.567823       -15.4513
 168   2.0000      -0.563085       -15.3223
 169   2.0000      -0.561662       -15.2836
 170   2.0000      -0.554210       -15.0808
 171   2.0000      -0.552178       -15.0255
 172   2.0000      -0.548274       -14.9193
 173   2.0000      -0.541541       -14.7361
 174   2.0000      -0.536850       -14.6084
 175   2.0000      -0.535906       -14.5827
 176   2.0000      -0.533629       -14.5208
 177   2.0000      -0.527044       -14.3416
 178   2.0000      -0.524964       -14.2850
 179   2.0000      -0.522778       -14.2255
 180   2.0000      -0.522382       -14.2147
 181   2.0000      -0.518633       -14.1127
 182   2.0000      -0.514864       -14.0102
 183   2.0000      -0.514538       -14.0013
 184   2.0000      -0.513455       -13.9718
 185   2.0000      -0.511383       -13.9154
 186   2.0000      -0.509979       -13.8772
 187   2.0000      -0.509311       -13.8591
 188   2.0000      -0.508807       -13.8453
 189   2.0000      -0.505367       -13.7517
 190   2.0000      -0.498265       -13.5585
 191   2.0000      -0.497387       -13.5346
 192   2.0000      -0.496777       -13.5180
 193   2.0000      -0.493543       -13.4300
 194   2.0000      -0.491060       -13.3624
 195   2.0000      -0.490423       -13.3451
 196   2.0000      -0.488048       -13.2805
 197   2.0000      -0.487523       -13.2662
 198   2.0000      -0.486145       -13.2287
 199   2.0000      -0.483065       -13.1449
 200   2.0000      -0.481434       -13.1005
 201   2.0000      -0.480458       -13.0739
 202   2.0000      -0.477819       -13.0021
 203   2.0000      -0.474580       -12.9140
 204   2.0000      -0.472556       -12.8589
 205   2.0000      -0.470534       -12.8039
 206   2.0000      -0.466515       -12.6945
 207   2.0000      -0.465066       -12.6551
 208   2.0000      -0.462313       -12.5802
 209   2.0000      -0.461200       -12.5499
 210   2.0000      -0.452196       -12.3049
 211   2.0000      -0.451575       -12.2880
 212   2.0000      -0.451006       -12.2725
 213   2.0000      -0.449353       -12.2275
 214   2.0000      -0.447996       -12.1906
 215   2.0000      -0.447501       -12.1771
 216   2.0000      -0.444425       -12.0934
 217   2.0000      -0.442320       -12.0361
 218   2.0000      -0.441969       -12.0266
 219   2.0000      -0.441583       -12.0161
 220   2.0000      -0.435963       -11.8632
 221   2.0000      -0.433184       -11.7875
 222   2.0000      -0.432015       -11.7557
 223   2.0000      -0.428433       -11.6583
 224   2.0000      -0.428311       -11.6549
 225   2.0000      -0.427340       -11.6285
 226   2.0000      -0.426223       -11.5981
 227   2.0000      -0.426074       -11.5941
 228   2.0000      -0.425517       -11.5789
 229   2.0000      -0.425401       -11.5757
 230   2.0000      -0.412696       -11.2300
 231   2.0000      -0.412359       -11.2209
 232   2.0000      -0.404492       -11.0068
 233   2.0000      -0.399721       -10.8770
 234   2.0000      -0.398926       -10.8553
 235   2.0000      -0.379897       -10.3375
 236   2.0000      -0.371824       -10.1178
 237   2.0000      -0.362864        -9.8740
 238   2.0000      -0.355624        -9.6770
 239   2.0000      -0.353859        -9.6290
 240   2.0000      -0.346486        -9.4284
 241   2.0000      -0.341421        -9.2905
 242   2.0000      -0.341039        -9.2801
 243   2.0000      -0.338418        -9.2088
 244   2.0000      -0.336486        -9.1562
 245   2.0000      -0.335553        -9.1309
 246   2.0000      -0.334350        -9.0981
 247   2.0000      -0.327991        -8.9251
 248   2.0000      -0.325572        -8.8593
 249   2.0000      -0.325227        -8.8499
 250   2.0000      -0.322513        -8.7760
 251   2.0000      -0.313071        -8.5191
 252   2.0000      -0.310782        -8.4568
 253   2.0000      -0.310278        -8.4431
 254   2.0000      -0.293904        -7.9975
 255   2.0000      -0.265975        -7.2375
 256   2.0000      -0.226677        -6.1682
 257   0.0000      -0.105344        -2.8666
 258   0.0000      -0.092042        -2.5046
 259   0.0000      -0.080875        -2.2007
 260   0.0000      -0.076869        -2.0917
 261   0.0000      -0.026603        -0.7239

MULLIKEN ATOMIC CHARGES
-----------------------
   0 C :   -0.001850
   1 C :   -0.059365
   2 C :    0.179129
   3 C :   -0.031947
   4 C :    0.040055
   5 C :    0.037478
   6 O :   -0.202713
   7 C :   -0.052853
   8 C :    0.091538
   9 C :   -0.004703
  10 C :    0.160658
  11 O :   -0.177689
  12 C :   -0.151587
  13 C :    0.017039
  14 C :   -0.000565
  15 C :   -0.102660
  16 S :    0.151723
  17 C :   -0.088938
  18 C :    0.021101
  19 C :    0.305600
  20 C :   -0.295359
  21 C :   -0.196542
  22 N :    0.194474
  23 C :   -0.190787
  24 N :    0.174793
  25 C :   -0.056961
  26 C :   -0.093197
  27 S :    0.164533
  28 C :   -0.107375
  29 C :    0.015963
  30 C :    0.025410
  31 N :    0.063489
  32 C :   -0.117709
  33 C :    0.139021
  34 O :   -0.098690
  35 C :   -0.010366
  36 C :   -0.011541
  37 C :    0.142254
  38 O :   -0.099261
  39 C :   -0.120729
  40 N :    0.062986
  41 C :   -0.113911
  42 S :    0.185964
  43 C :   -0.093742
  44 C :   -0.057693
  45 C :    0.023243
  46 C :   -0.090552
  47 S :    0.164717
  48 C :   -0.103860
  49 C :    0.003767
  50 C :    0.303958
  51 C :   -0.294034
  52 C :   -0.191850
  53 N :    0.179022
  54 C :   -0.198859
  55 N :    0.192851
  56 C :    0.011675
  57 C :   -0.148758
  58 S :    0.150838
  59 C :   -0.006836
  60 C :   -0.053831
  61 O :   -0.202100
  62 C :    0.180423
  63 C :   -0.034600
  64 C :    0.042867
  65 C :    0.036902
  66 C :   -0.003387
  67 C :   -0.060861
  68 C :    0.167100
  69 O :   -0.180288
  70 C :    0.091897
  71 H :    0.003957
  72 H :   -0.015078
  73 H :   -0.001107
  74 H :   -0.005958
  75 H :    0.037693
  76 H :    0.054401
  77 H :    0.052754
  78 H :    0.018995
  79 H :    0.028129
  80 H :    0.018362
  81 H :    0.018685
  82 H :    0.028708
  83 H :    0.020493
  84 H :   -0.014937
  85 H :   -0.001325
  86 H :   -0.006346
  87 H :    0.004164
  88 H :    0.053321
  89 H :    0.053061
  90 H :    0.038110
Sum of atomic charges:   -0.0000000

LOEWDIN ATOMIC CHARGES
----------------------
   0 C :    0.024812
   1 C :   -0.085900
   2 C :    0.062636
   3 C :   -0.039093
   4 C :    0.001742
   5 C :   -0.027921
   6 O :    0.000233
   7 C :    0.083186
   8 C :   -0.062120
   9 C :   -0.137580
  10 C :    0.075402
  11 O :   -0.170209
  12 C :   -0.159401
  13 C :   -0.010707
  14 C :   -0.068452
  15 C :   -0.187941
  16 S :    0.467585
  17 C :   -0.176916
  18 C :   -0.067453
  19 C :    0.078032
  20 C :   -0.093401
  21 C :   -0.022679
  22 N :   -0.018734
  23 C :   -0.016710
  24 N :   -0.028536
  25 C :   -0.007717
  26 C :   -0.187495
  27 S :    0.451576
  28 C :   -0.191490
  29 C :   -0.045590
  30 C :   -0.045651
  31 N :    0.008258
  32 C :   -0.040077
  33 C :    0.054461
  34 O :   -0.092863
  35 C :   -0.012592
  36 C :   -0.012750
  37 C :    0.054657
  38 O :   -0.093154
  39 C :   -0.040075
  40 N :    0.008435
  41 C :   -0.191535
  42 S :    0.478725
  43 C :   -0.187550
  44 C :   -0.007697
  45 C :   -0.067373
  46 C :   -0.176722
  47 S :    0.451441
  48 C :   -0.188292
  49 C :   -0.068323
  50 C :    0.077807
  51 C :   -0.093248
  52 C :   -0.016929
  53 N :   -0.028144
  54 C :   -0.022866
  55 N :   -0.018412
  56 C :   -0.011056
  57 C :   -0.159160
  58 S :    0.467826
  59 C :   -0.137348
  60 C :    0.083086
  61 O :    0.000406
  62 C :    0.062589
  63 C :   -0.039350
  64 C :    0.001897
  65 C :   -0.027800
  66 C :    0.024626
  67 C :   -0.085846
  68 C :    0.075975
  69 O :   -0.170442
  70 C :   -0.062394
  71 H :    0.040416
  72 H :    0.035913
  73 H :    0.034277
  74 H :    0.032353
  75 H :    0.043395
  76 H :    0.042244
  77 H :    0.041879
  78 H :    0.043783
  79 H :    0.044306
  80 H :    0.045588
  81 H :    0.045667
  82 H :    0.044452
  83 H :    0.043822
  84 H :    0.035980
  85 H :    0.034258
  86 H :    0.032275
  87 H :    0.040475
  88 H :    0.041673
  89 H :    0.042004
  90 H :    0.043543

  Mayer bond orders larger than 0.100000
B(  0-C ,  1-C ) :   1.3403 B(  0-C ,  5-C ) :   1.4006 B(  0-C , 71-H ) :   0.9977
B(  1-C ,  2-C ) :   1.3340 B(  1-C , 10-C ) :   0.9809 B(  2-C ,  3-C ) :   1.3514
B(  2-C ,  6-O ) :   1.0759 B(  3-C ,  4-C ) :   1.4156 B(  3-C , 72-H ) :   0.9950
B(  4-C ,  5-C ) :   1.3251 B(  4-C , 73-H ) :   0.9904 B(  5-C , 74-H ) :   0.9947
B(  6-O ,  7-C ) :   1.1522 B(  7-C ,  8-C ) :   1.1122 B(  7-C ,  9-C ) :   1.5585
B(  8-C , 75-H ) :   0.9351 B(  8-C , 76-H ) :   0.9439 B(  8-C , 77-H ) :   0.9381
B(  9-C , 10-C ) :   1.0097 B(  9-C , 12-C ) :   1.0009 B( 10-C , 11-O ) :   2.1782
B( 12-C , 13-C ) :   1.5223 B( 12-C , 16-S ) :   1.1050 B( 13-C , 14-C ) :   1.2664
B( 13-C , 78-H ) :   0.9934 B( 14-C , 15-C ) :   1.4392 B( 14-C , 19-C ) :   0.9946
B( 15-C , 16-S ) :   1.1197 B( 15-C , 17-C ) :   1.1910 B( 17-C , 18-C ) :   1.4294
B( 17-C , 27-S ) :   1.1202 B( 18-C , 19-C ) :   0.9846 B( 18-C , 25-C ) :   1.2714
B( 19-C , 20-C ) :   1.7192 B( 20-C , 21-C ) :   1.1333 B( 20-C , 23-C ) :   1.1344
B( 21-C , 22-N ) :   3.0041 B( 23-C , 24-N ) :   2.9957 B( 25-C , 26-C ) :   1.4565
B( 25-C , 79-H ) :   0.9885 B( 26-C , 27-S ) :   1.0760 B( 26-C , 28-C ) :   1.1886
B( 28-C , 29-C ) :   1.3746 B( 28-C , 41-C ) :   0.1507 B( 28-C , 42-S ) :   1.1454
B( 29-C , 30-C ) :   1.1781 B( 29-C , 40-N ) :   1.4399 B( 30-C , 31-N ) :   1.4396
B( 30-C , 41-C ) :   1.3728 B( 31-N , 32-C ) :   1.7167 B( 32-C , 33-C ) :   0.8920
B( 32-C , 39-C ) :   1.0882 B( 33-C , 34-O ) :   2.2403 B( 33-C , 35-C ) :   1.0233
B( 35-C , 36-C ) :   1.6887 B( 35-C , 80-H ) :   0.9941 B( 36-C , 37-C ) :   1.0236
B( 36-C , 81-H ) :   0.9942 B( 37-C , 38-O ) :   2.2398 B( 37-C , 39-C ) :   0.8902
B( 39-C , 40-N ) :   1.7180 B( 41-C , 42-S ) :   1.1469 B( 41-C , 43-C ) :   1.1916
B( 43-C , 44-C ) :   1.4570 B( 43-C , 47-S ) :   1.0748 B( 44-C , 45-C ) :   1.2711
B( 44-C , 82-H ) :   0.9880 B( 45-C , 46-C ) :   1.4304 B( 45-C , 50-C ) :   0.9840
B( 46-C , 47-S ) :   1.1208 B( 46-C , 48-C ) :   1.1932 B( 48-C , 49-C ) :   1.4368
B( 48-C , 58-S ) :   1.1195 B( 49-C , 50-C ) :   0.9927 B( 49-C , 56-C ) :   1.2648
B( 50-C , 51-C ) :   1.7198 B( 51-C , 52-C ) :   1.1357 B( 51-C , 54-C ) :   1.1323
B( 52-C , 53-N ) :   2.9967 B( 54-C , 55-N ) :   3.0044 B( 56-C , 57-C ) :   1.5218
B( 56-C , 83-H ) :   0.9942 B( 57-C , 58-S ) :   1.1047 B( 57-C , 59-C ) :   1.0017
B( 59-C , 60-C ) :   1.5597 B( 59-C , 68-C ) :   1.0082 B( 60-C , 61-O ) :   1.1518
B( 60-C , 70-C ) :   1.1108 B( 61-O , 62-C ) :   1.0773 B( 62-C , 63-C ) :   1.3502
B( 62-C , 67-C ) :   1.3353 B( 63-C , 64-C ) :   1.4146 B( 63-C , 84-H ) :   0.9954
B( 64-C , 65-C ) :   1.3271 B( 64-C , 85-H ) :   0.9898 B( 65-C , 66-C ) :   1.3998
B( 65-C , 86-H ) :   0.9948 B( 66-C , 67-C ) :   1.3389 B( 66-C , 87-H ) :   0.9981
B( 67-C , 68-C ) :   0.9801 B( 68-C , 69-O ) :   2.1734 B( 70-C , 88-H ) :   0.9443
B( 70-C , 89-H ) :   0.9381 B( 70-C , 90-H ) :   0.9348

-----------------------------------------------------------------------------
         ABSORPTION SPECTRUM VIA TRANSITION ELECTRIC DIPOLE MOMENTS
-----------------------------------------------------------------------------
State   Energy  Wavelength   fosc         T2         TX        TY        TZ
        (cm-1)    (nm)                  (au**2)     (au)      (au)      (au)
-----------------------------------------------------------------------------
   0   10648.7    939.1   0.597406716  18.46918  -2.89282  -2.04240   2.43503
   1   12547.6    797.0   0.035743421   0.93780   0.13038   0.64656   0.70905
   2   14223.6    703.1   0.108131861   2.50277  -1.11026  -0.71660   0.86981
   3   17363.0    575.9   0.126708905   2.40247   0.21761   1.03933   1.12912
   4   20288.7    492.9   0.050376302   0.81742   0.12325   0.60504   0.66043
   5   22615.6    442.2   0.031248048   0.45487  -0.50582  -0.27842   0.34857
   6   24826.6    402.8   0.003729026   0.04945   0.21755  -0.04598   0.00271
   7   25439.8    393.1   0.074218583   0.96045  -0.13114  -0.65188  -0.71994
   8   25857.3    386.7   0.000018262   0.00023   0.00277  -0.00968  -0.01145
   9   26613.5    375.7   0.569500202   7.04478  -1.82513  -1.22854   1.48471
  10   26796.6    373.2   0.567741623   6.97505  -1.66679  -1.33799   1.55134
  11   28318.0    353.1   0.067427675   0.78388   0.67386   0.35000  -0.45530
  12   29001.2    344.8   0.202009584   2.29315  -1.10853  -0.62646   0.81966
  13   29420.4    339.9   0.291876198   3.26607  -0.26279  -1.22593  -1.30158
  14   29805.5    335.5   0.024254449   0.26790  -0.50785   0.09961  -0.00830
  15   30403.1    328.9   0.089683816   0.97112  -0.13354  -0.67087  -0.70938
  16   30864.8    324.0   0.000945175   0.01008   0.01247   0.06585   0.07477
  17   31228.9    320.2   0.067033517   0.70666   0.12682   0.58566   0.58956
  18   31340.8    319.1   0.047725633   0.50132  -0.41592  -0.33557   0.46446
  19   31459.7    317.9   0.161810725   1.69328   0.98097   0.54762  -0.65658
  20   31689.2    315.6   0.231061177   2.40044  -0.22018  -1.05732  -1.11087
  21   31838.8    314.1   0.072209309   0.74664  -0.29798  -0.51546   0.62622
  22   32320.4    309.4   0.022619012   0.23039  -0.41620  -0.15588   0.18130
  23   32417.7    308.5   0.058895490   0.59810  -0.10039  -0.52081  -0.56284
  24   33201.7    301.2   0.145869384   1.44637  -0.15452  -0.80770  -0.87757
  25   33577.4    297.8   0.046752319   0.45839  -0.45069   0.33779  -0.37572
  26   33814.9    295.7   0.349987158   3.40737  -0.23321  -1.26420  -1.32468
  27   34010.3    294.0   0.249471083   2.41482  -0.21097  -1.04939  -1.12654
  28   34048.9    293.7   0.438857790   4.24322   0.28522   1.38521   1.49769
  29   34281.4    291.7   0.048546208   0.46620  -0.61184  -0.11703   0.27957
  30   34549.6    289.4   0.032578249   0.31043  -0.52624  -0.06946   0.16933
  31   34753.0    287.7   0.001149601   0.01089   0.02657   0.07420   0.06840
  32   34811.1    287.3   0.000110900   0.00105  -0.00225  -0.02410   0.02152
  33   35559.8    281.2   0.028453727   0.26342  -0.05829  -0.33735  -0.38239
  34   35840.3    279.0   0.031067044   0.28537   0.23004   0.33955  -0.34228
  35   36111.0    276.9   0.277168646   2.52685   0.97957   0.82828  -0.93875
  36   36364.7    275.0   0.000199446   0.00181   0.00805   0.03070   0.02826
  37   36791.8    271.8   0.080293944   0.71847   0.10303   0.56369   0.62458
  38   36867.9    271.2   0.010711181   0.09565   0.25514   0.15344  -0.08368
  39   37127.5    269.3   0.045798904   0.40610   0.09927   0.43398   0.45597
  40   37407.2    267.3   0.139809681   1.23043  -0.16115  -0.75283  -0.79857
  41   37574.7    266.1   0.181441076   1.58970   0.76828   0.64085  -0.76731
  42   37989.8    263.2   0.053446989   0.46316   0.09955   0.45825   0.49321
  43   38007.1    263.1   0.003431506   0.02972  -0.10368  -0.05285   0.12720
  44   38535.5    259.5   0.054130783   0.46244   0.39958   0.37317  -0.40438
  45   38898.3    257.1   0.001900074   0.01608  -0.02399  -0.08793  -0.08817
  46   38971.0    256.6   0.000773239   0.00653   0.06558  -0.04305   0.01944
  47   39078.7    255.9   0.038676422   0.32582   0.07225   0.38060   0.41922
  48   39163.7    255.3   0.000665903   0.00560  -0.03525  -0.03250  -0.05744
  49   39210.0    255.0   0.024945602   0.20945   0.06049   0.30755   0.33347
  50   39324.4    254.3   0.016751698   0.14024  -0.12197  -0.25828  -0.24219
  51   39338.6    254.2   0.079873363   0.66843   0.07426   0.53998   0.60938
  52   39646.5    252.2   0.003729788   0.03097  -0.02151  -0.11925  -0.12762
  53   39988.3    250.1   0.010892706   0.08968   0.25252   0.08941  -0.13386
  54   40261.7    248.4   0.000310926   0.00254   0.02449  -0.01626  -0.04097
  55   40298.6    248.1   0.006695270   0.05470  -0.03536  -0.15588  -0.17072

FINAL SINGLE POINT ENERGY     -4836.333755100549

DIPOLE MOMENT
-------------
                                X             Y             Z
Electronic contribution:     -3.94120     -19.21151     -20.68502
Nuclear contribution   :      4.83340      23.55891      25.37074
                        -----------------------------------------
Total Dipole Moment    :      0.89220       4.34740       4.68572
                        -----------------------------------------
Magnitude (a.u.)       :      6.45383
Magnitude (Debye)      :     16.40433

Rotational constants in cm-1:     0.001466     0.000271     0.000232
Rotational constants in MHz :    43.950334     8.116238     6.943207

                             ****ORCA TERMINATED NORMALLY****
TOTAL RUN TIME: 0 days 0 hours 8 minutes 41 seconds 465 msec
