                         Program Version 4.2.0 -  RELEASE  -
|  1> # ORCA input file
|  2> # SCF done       -193.167636234548          0.000481294352
|  3> ! CAM-B3LYP def2-SVP def2/J RIJCOSX Grid4 TightSCF
|  4> %maxcore 5000
|  5> %tddft
|  6>     Mode sTDDFT
|  7>     Ethresh 5.0
|  8>     maxcore 5000
|  9> end
| 10>
| 11> %pal
| 12>   nprocs 6
| 13>   end
| 14> * xyz 0 1
| 15>    C       -0.82768         0.93514        -1.40695
| 16>    C       -1.45356         1.14451        -2.60587
| 17>    C       -0.71038         1.50581        -3.73959
| 18>    C        0.64762         1.65361        -3.65923
| 19>    C        1.32420         1.44845        -2.43980
| 20>    C        2.72583         1.61086        -2.34912
| 21>    C        3.34850         1.40585        -1.14778
| 22>    C        2.59135         1.01077        -0.00591
| 23>    C        1.23607         0.85560        -0.06348
| 24>    C        0.56897         1.07790        -1.28921
| 25>    C        3.50166         0.80040         1.13120
| 26>    O        3.22630         0.51500         2.27351
| 27>    C        4.87707         0.94994         0.56440
| 28>    C        4.74947         1.52727        -0.75848
| 29>    C        5.68349         2.28120        -1.42007
| 30>    C        6.96427         2.56893        -0.91100
| 31>    N        8.00817         2.84415        -0.51950
| 32>    C        5.43595         2.93687        -2.64483
| 33>    N        5.28484         3.49509        -3.63569
| 34>    C        5.92873         0.46954         1.28032
| 35>    C        7.23129         0.14726         0.83414
| 36>    C        7.67376        -0.09351        -0.45815
| 37>    C        9.02499        -0.41272        -0.49899
| 38>    C        9.62418        -0.42880         0.77488
| 39>    S        8.51754        -0.06384         2.01449
| 40>    C       10.99663        -0.75473         0.62002
| 41>    C       11.26293        -0.93366        -0.75316
| 42>    C       10.03545        -0.71439        -1.50006
| 43>    C        9.85331        -0.75282        -2.85076
| 44>    C       10.89729        -1.05120        -3.75236
| 45>    N       11.73528        -1.30278        -4.49253
| 46>    C        8.59027        -0.49772        -3.42682
| 47>    N        7.55620        -0.29546        -3.87925
| 48>    C       12.59217        -1.26957        -1.00319
| 49>    C       13.31794        -1.35145         0.16920
| 50>    S       12.37118        -1.00238         1.59629
| 51>    C       14.68829        -1.72207         0.32102
| 52>    N       15.18346        -1.80662         1.56793
| 53>    C       16.39590        -2.27494         1.68788
| 54>    C       17.08947        -2.74709         0.55045
| 55>    N       16.57901        -2.47681        -0.65964
| 56>    N       15.42046        -1.94266        -0.77874
| 57>    C       18.31649        -3.47822         0.60639
| 58>    C       19.08239        -3.88001        -0.47066
| 59>    C       20.18162        -4.63745        -0.06840
| 60>    C       20.24317        -4.80961         1.32706
| 61>    S       18.96397        -4.02828         2.14097
| 62>    C       21.35399        -5.63280         1.63642
| 63>    C       21.99310        -5.98922         0.43136
| 64>    C       21.29709        -5.34997        -0.67426
| 65>    C       21.63155        -5.39429        -1.99440
| 66>    C       22.77078        -6.08351        -2.46576
| 67>    N       23.70037        -6.61858        -2.86960
| 68>    C       20.87988        -4.72624        -2.98587
| 69>    N       20.27832        -4.18625        -3.79833
| 70>    C       23.05699        -6.86452         0.61736
| 71>    C       23.24158        -7.18272         1.95433
| 72>    S       22.09668        -6.33443         2.99630
| 73>    C       24.18902        -8.02785         2.57619
| 74>    C       24.82992        -9.09920         2.02504
| 75>    C       25.86368        -9.88091         2.68019
| 76>    C       26.63091        -9.47537         3.74094
| 77>    C       27.64633       -10.26134         4.32458
| 78>    N       28.47780       -10.85733         4.84512
| 79>    C       26.53687        -8.21331         4.36421
| 80>    N       26.52352        -7.19899         4.90255
| 81>    C       26.00528       -11.13423         1.95201
| 82>    C       25.14071       -11.09848         0.82103
| 83>    C       25.05527       -12.14077        -0.05650
| 84>    C       25.84632       -13.29048         0.16254
| 85>    C       25.80126       -14.39671        -0.70838
| 86>    C       26.57095       -15.50362        -0.47289
| 87>    C       27.42037       -15.55150         0.64257
| 88>    C       27.48851       -14.49312         1.50741
| 89>    C       26.70955       -13.33743         1.29562
| 90>    C       26.77692       -12.24155         2.18652
| 91>    C       24.40868        -9.82201         0.79314
| 92>    O       23.58095        -9.48362        -0.02499
| 93>    H       -1.39473         0.65605        -0.53092
| 94>    H       -2.52433         1.03220        -2.68724
| 95>    H       -1.21983         1.66714        -4.67771
| 96>    H        1.22393         1.93483        -4.52823
| 97>    H        3.27625         1.87974        -3.23714
| 98>    H        0.67893         0.56471         0.81464
| 99>    H        5.70801         0.24264         2.31912
|100>    H        7.02293        -0.07840        -1.31301
|101>    H       13.03433        -1.45460        -1.96505
|102>    H       16.83868        -2.26978         2.67586
|103>    H       18.81799        -3.62543        -1.48064
|104>    H       23.67834        -7.24975        -0.16831
|105>    H       24.37077        -7.81195         3.62281
|106>    H       24.39289       -12.08703        -0.90766
|107>    H       25.14537       -14.35356        -1.56551
|108>    H       26.52920       -16.34804        -1.14442
|109>    H       28.02136       -16.43199         0.81339
|110>    H       28.14226       -14.52504         2.36660
|111>    H       27.43346       -12.30997         3.03949
|112> *
|113>
|114>                          ****END OF INPUT****

CARTESIAN COORDINATES (ANGSTROEM)
---------------------------------
  C     -0.827680    0.935140   -1.406950
  C     -1.453560    1.144510   -2.605870
  C     -0.710380    1.505810   -3.739590
  C      0.647620    1.653610   -3.659230
  C      1.324200    1.448450   -2.439800
  C      2.725830    1.610860   -2.349120
  C      3.348500    1.405850   -1.147780
  C      2.591350    1.010770   -0.005910
  C      1.236070    0.855600   -0.063480
  C      0.568970    1.077900   -1.289210
  C      3.501660    0.800400    1.131200
  O      3.226300    0.515000    2.273510
  C      4.877070    0.949940    0.564400
  C      4.749470    1.527270   -0.758480
  C      5.683490    2.281200   -1.420070
  C      6.964270    2.568930   -0.911000
  N      8.008170    2.844150   -0.519500
  C      5.435950    2.936870   -2.644830
  N      5.284840    3.495090   -3.635690
  C      5.928730    0.469540    1.280320
  C      7.231290    0.147260    0.834140
  C      7.673760   -0.093510   -0.458150
  C      9.024990   -0.412720   -0.498990
  C      9.624180   -0.428800    0.774880
  S      8.517540   -0.063840    2.014490
  C     10.996630   -0.754730    0.620020
  C     11.262930   -0.933660   -0.753160
  C     10.035450   -0.714390   -1.500060
  C      9.853310   -0.752820   -2.850760
  C     10.897290   -1.051200   -3.752360
  N     11.735280   -1.302780   -4.492530
  C      8.590270   -0.497720   -3.426820
  N      7.556200   -0.295460   -3.879250
  C     12.592170   -1.269570   -1.003190
  C     13.317940   -1.351450    0.169200
  S     12.371180   -1.002380    1.596290
  C     14.688290   -1.722070    0.321020
  N     15.183460   -1.806620    1.567930
  C     16.395900   -2.274940    1.687880
  C     17.089470   -2.747090    0.550450
  N     16.579010   -2.476810   -0.659640
  N     15.420460   -1.942660   -0.778740
  C     18.316490   -3.478220    0.606390
  C     19.082390   -3.880010   -0.470660
  C     20.181620   -4.637450   -0.068400
  C     20.243170   -4.809610    1.327060
  S     18.963970   -4.028280    2.140970
  C     21.353990   -5.632800    1.636420
  C     21.993100   -5.989220    0.431360
  C     21.297090   -5.349970   -0.674260
  C     21.631550   -5.394290   -1.994400
  C     22.770780   -6.083510   -2.465760
  N     23.700370   -6.618580   -2.869600
  C     20.879880   -4.726240   -2.985870
  N     20.278320   -4.186250   -3.798330
  C     23.056990   -6.864520    0.617360
  C     23.241580   -7.182720    1.954330
  S     22.096680   -6.334430    2.996300
  C     24.189020   -8.027850    2.576190
  C     24.829920   -9.099200    2.025040
  C     25.863680   -9.880910    2.680190
  C     26.630910   -9.475370    3.740940
  C     27.646330  -10.261340    4.324580
  N     28.477800  -10.857330    4.845120
  C     26.536870   -8.213310    4.364210
  N     26.523520   -7.198990    4.902550
  C     26.005280  -11.134230    1.952010
  C     25.140710  -11.098480    0.821030
  C     25.055270  -12.140770   -0.056500
  C     25.846320  -13.290480    0.162540
  C     25.801260  -14.396710   -0.708380
  C     26.570950  -15.503620   -0.472890
  C     27.420370  -15.551500    0.642570
  C     27.488510  -14.493120    1.507410
  C     26.709550  -13.337430    1.295620
  C     26.776920  -12.241550    2.186520
  C     24.408680   -9.822010    0.793140
  O     23.580950   -9.483620   -0.024990
  H     -1.394730    0.656050   -0.530920
  H     -2.524330    1.032200   -2.687240
  H     -1.219830    1.667140   -4.677710
  H      1.223930    1.934830   -4.528230
  H      3.276250    1.879740   -3.237140
  H      0.678930    0.564710    0.814640
  H      5.708010    0.242640    2.319120
  H      7.022930   -0.078400   -1.313010
  H     13.034330   -1.454600   -1.965050
  H     16.838680   -2.269780    2.675860
  H     18.817990   -3.625430   -1.480640
  H     23.678340   -7.249750   -0.168310
  H     24.370770   -7.811950    3.622810
  H     24.392890  -12.087030   -0.907660
  H     25.145370  -14.353560   -1.565510
  H     26.529200  -16.348040   -1.144420
  H     28.021360  -16.431990    0.813390
  H     28.142260  -14.525040    2.366600
  H     27.433460  -12.309970    3.039490

 Total Charge           Charge          ....    0
 Multiplicity           Mult            ....    1
 Number of Electrons    NEL             ....  542
 Basis Dimension        Dim             .... 1203

ORBITAL ENERGIES
----------------

  NO   OCC          E(Eh)            E(eV)
   0   2.0000     -89.006730     -2421.9963
   1   2.0000     -89.001923     -2421.8654
   2   2.0000     -88.999277     -2421.7934
   3   2.0000     -88.998521     -2421.7729
   4   2.0000     -19.220746      -523.0231
   5   2.0000     -19.216828      -522.9165
   6   2.0000     -14.475258      -393.8918
   7   2.0000     -14.465558      -393.6279
   8   2.0000     -14.454937      -393.3388
   9   2.0000     -14.434679      -392.7876
  10   2.0000     -14.434537      -392.7837
  11   2.0000     -14.434354      -392.7787
  12   2.0000     -14.431490      -392.7008
  13   2.0000     -14.419328      -392.3699
  14   2.0000     -14.418866      -392.3573
  15   2.0000     -14.417229      -392.3127
  16   2.0000     -14.414112      -392.2279
  17   2.0000     -10.373714      -282.2831
  18   2.0000     -10.373541      -282.2784
  19   2.0000     -10.373011      -282.2640
  20   2.0000     -10.369521      -282.1690
  21   2.0000     -10.368109      -282.1306
  22   2.0000     -10.359282      -281.8904
  23   2.0000     -10.357510      -281.8422
  24   2.0000     -10.356365      -281.8110
  25   2.0000     -10.351995      -281.6921
  26   2.0000     -10.350450      -281.6501
  27   2.0000     -10.347402      -281.5671
  28   2.0000     -10.345253      -281.5086
  29   2.0000     -10.345252      -281.5086
  30   2.0000     -10.344924      -281.4997
  31   2.0000     -10.343844      -281.4703
  32   2.0000     -10.343703      -281.4665
  33   2.0000     -10.342013      -281.4205
  34   2.0000     -10.338031      -281.3121
  35   2.0000     -10.334776      -281.2236
  36   2.0000     -10.333689      -281.1940
  37   2.0000     -10.333573      -281.1908
  38   2.0000     -10.333072      -281.1772
  39   2.0000     -10.332118      -281.1512
  40   2.0000     -10.331904      -281.1454
  41   2.0000     -10.330954      -281.1196
  42   2.0000     -10.327499      -281.0255
  43   2.0000     -10.327272      -281.0193
  44   2.0000     -10.321764      -280.8695
  45   2.0000     -10.320452      -280.8338
  46   2.0000     -10.319969      -280.8206
  47   2.0000     -10.318762      -280.7878
  48   2.0000     -10.316394      -280.7233
  49   2.0000     -10.314728      -280.6780
  50   2.0000     -10.314561      -280.6735
  51   2.0000     -10.314121      -280.6615
  52   2.0000     -10.313095      -280.6336
  53   2.0000     -10.312183      -280.6088
  54   2.0000     -10.311688      -280.5953
  55   2.0000     -10.310425      -280.5609
  56   2.0000     -10.306465      -280.4532
  57   2.0000     -10.305486      -280.4265
  58   2.0000     -10.304145      -280.3900
  59   2.0000     -10.303551      -280.3739
  60   2.0000     -10.300131      -280.2808
  61   2.0000     -10.299890      -280.2743
  62   2.0000     -10.299545      -280.2649
  63   2.0000     -10.299145      -280.2540
  64   2.0000     -10.298281      -280.2305
  65   2.0000     -10.298153      -280.2270
  66   2.0000     -10.297874      -280.2194
  67   2.0000     -10.296998      -280.1956
  68   2.0000     -10.291475      -280.0453
  69   2.0000     -10.290541      -280.0199
  70   2.0000     -10.288653      -279.9685
  71   2.0000     -10.288128      -279.9542
  72   2.0000     -10.287912      -279.9483
  73   2.0000     -10.287456      -279.9359
  74   2.0000     -10.286802      -279.9181
  75   2.0000     -10.286323      -279.9051
  76   2.0000     -10.285939      -279.8946
  77   2.0000     -10.285235      -279.8755
  78   2.0000      -8.101262      -220.4465
  79   2.0000      -8.096698      -220.3224
  80   2.0000      -8.094019      -220.2495
  81   2.0000      -8.092664      -220.2126
  82   2.0000      -6.070463      -165.1857
  83   2.0000      -6.066367      -165.0742
  84   2.0000      -6.065840      -165.0599
  85   2.0000      -6.063679      -165.0011
  86   2.0000      -6.063163      -164.9871
  87   2.0000      -6.061816      -164.9504
  88   2.0000      -6.061704      -164.9473
  89   2.0000      -6.059190      -164.8789
  90   2.0000      -6.059010      -164.8740
  91   2.0000      -6.057632      -164.8366
  92   2.0000      -6.056524      -164.8064
  93   2.0000      -6.055235      -164.7713
  94   2.0000      -1.167923       -31.7808
  95   2.0000      -1.136634       -30.9294
  96   2.0000      -1.132274       -30.8107
  97   2.0000      -1.057648       -28.7801
  98   2.0000      -1.056372       -28.7453
  99   2.0000      -1.050536       -28.5865
 100   2.0000      -1.027320       -27.9548
 101   2.0000      -1.025579       -27.9074
 102   2.0000      -1.021608       -27.7994
 103   2.0000      -1.020706       -27.7748
 104   2.0000      -1.014418       -27.6037
 105   2.0000      -1.010937       -27.5090
 106   2.0000      -1.010436       -27.4954
 107   2.0000      -1.006157       -27.3789
 108   2.0000      -1.001328       -27.2475
 109   2.0000      -1.000103       -27.2142
 110   2.0000      -0.996509       -27.1164
 111   2.0000      -0.993828       -27.0434
 112   2.0000      -0.978935       -26.6382
 113   2.0000      -0.974046       -26.5052
 114   2.0000      -0.971945       -26.4480
 115   2.0000      -0.965818       -26.2812
 116   2.0000      -0.953141       -25.9363
 117   2.0000      -0.931539       -25.3485
 118   2.0000      -0.928633       -25.2694
 119   2.0000      -0.922174       -25.0936
 120   2.0000      -0.917746       -24.9731
 121   2.0000      -0.902536       -24.5593
 122   2.0000      -0.899486       -24.4762
 123   2.0000      -0.884692       -24.0737
 124   2.0000      -0.882346       -24.0098
 125   2.0000      -0.882161       -24.0048
 126   2.0000      -0.880198       -23.9514
 127   2.0000      -0.875601       -23.8263
 128   2.0000      -0.868628       -23.6366
 129   2.0000      -0.866078       -23.5672
 130   2.0000      -0.864394       -23.5214
 131   2.0000      -0.841884       -22.9088
 132   2.0000      -0.830746       -22.6058
 133   2.0000      -0.828934       -22.5564
 134   2.0000      -0.818538       -22.2736
 135   2.0000      -0.810519       -22.0554
 136   2.0000      -0.808712       -22.0062
 137   2.0000      -0.785749       -21.3813
 138   2.0000      -0.780237       -21.2313
 139   2.0000      -0.779420       -21.2091
 140   2.0000      -0.767163       -20.8756
 141   2.0000      -0.764618       -20.8063
 142   2.0000      -0.759393       -20.6641
 143   2.0000      -0.734855       -19.9964
 144   2.0000      -0.727972       -19.8091
 145   2.0000      -0.711234       -19.3537
 146   2.0000      -0.711062       -19.3490
 147   2.0000      -0.707841       -19.2613
 148   2.0000      -0.707056       -19.2400
 149   2.0000      -0.702287       -19.1102
 150   2.0000      -0.701819       -19.0975
 151   2.0000      -0.693906       -18.8822
 152   2.0000      -0.690126       -18.7793
 153   2.0000      -0.687922       -18.7193
 154   2.0000      -0.683619       -18.6022
 155   2.0000      -0.677921       -18.4472
 156   2.0000      -0.675325       -18.3765
 157   2.0000      -0.668667       -18.1953
 158   2.0000      -0.655570       -17.8390
 159   2.0000      -0.651473       -17.7275
 160   2.0000      -0.640157       -17.4196
 161   2.0000      -0.637699       -17.3527
 162   2.0000      -0.633315       -17.2334
 163   2.0000      -0.631694       -17.1893
 164   2.0000      -0.627085       -17.0638
 165   2.0000      -0.623707       -16.9719
 166   2.0000      -0.615323       -16.7438
 167   2.0000      -0.610693       -16.6178
 168   2.0000      -0.608499       -16.5581
 169   2.0000      -0.608098       -16.5472
 170   2.0000      -0.600925       -16.3520
 171   2.0000      -0.598910       -16.2972
 172   2.0000      -0.592506       -16.1229
 173   2.0000      -0.583768       -15.8851
 174   2.0000      -0.577919       -15.7260
 175   2.0000      -0.563139       -15.3238
 176   2.0000      -0.562461       -15.3053
 177   2.0000      -0.559823       -15.2336
 178   2.0000      -0.558270       -15.1913
 179   2.0000      -0.553902       -15.0724
 180   2.0000      -0.552961       -15.0468
 181   2.0000      -0.549248       -14.9458
 182   2.0000      -0.548270       -14.9192
 183   2.0000      -0.545916       -14.8551
 184   2.0000      -0.541803       -14.7432
 185   2.0000      -0.540144       -14.6981
 186   2.0000      -0.538492       -14.6531
 187   2.0000      -0.532416       -14.4878
 188   2.0000      -0.530877       -14.4459
 189   2.0000      -0.528461       -14.3802
 190   2.0000      -0.523436       -14.2434
 191   2.0000      -0.521857       -14.2004
 192   2.0000      -0.519786       -14.1441
 193   2.0000      -0.513555       -13.9745
 194   2.0000      -0.513169       -13.9640
 195   2.0000      -0.512443       -13.9443
 196   2.0000      -0.510841       -13.9007
 197   2.0000      -0.510635       -13.8951
 198   2.0000      -0.508883       -13.8474
 199   2.0000      -0.508243       -13.8300
 200   2.0000      -0.507671       -13.8144
 201   2.0000      -0.505362       -13.7516
 202   2.0000      -0.502171       -13.6648
 203   2.0000      -0.499323       -13.5873
 204   2.0000      -0.495259       -13.4767
 205   2.0000      -0.494535       -13.4570
 206   2.0000      -0.490655       -13.3514
 207   2.0000      -0.487060       -13.2536
 208   2.0000      -0.486037       -13.2257
 209   2.0000      -0.482226       -13.1220
 210   2.0000      -0.480840       -13.0843
 211   2.0000      -0.478518       -13.0211
 212   2.0000      -0.468039       -12.7360
 213   2.0000      -0.466361       -12.6903
 214   2.0000      -0.465759       -12.6740
 215   2.0000      -0.464484       -12.6393
 216   2.0000      -0.463472       -12.6117
 217   2.0000      -0.462212       -12.5774
 218   2.0000      -0.460987       -12.5441
 219   2.0000      -0.459877       -12.5139
 220   2.0000      -0.454198       -12.3594
 221   2.0000      -0.453122       -12.3301
 222   2.0000      -0.451711       -12.2917
 223   2.0000      -0.451609       -12.2889
 224   2.0000      -0.450639       -12.2625
 225   2.0000      -0.447038       -12.1645
 226   2.0000      -0.444973       -12.1083
 227   2.0000      -0.444475       -12.0948
 228   2.0000      -0.443416       -12.0660
 229   2.0000      -0.442653       -12.0452
 230   2.0000      -0.442602       -12.0438
 231   2.0000      -0.442189       -12.0326
 232   2.0000      -0.440331       -11.9820
 233   2.0000      -0.439516       -11.9598
 234   2.0000      -0.438031       -11.9194
 235   2.0000      -0.436461       -11.8767
 236   2.0000      -0.435311       -11.8454
 237   2.0000      -0.434734       -11.8297
 238   2.0000      -0.432946       -11.7811
 239   2.0000      -0.430275       -11.7084
 240   2.0000      -0.429800       -11.6954
 241   2.0000      -0.429302       -11.6819
 242   2.0000      -0.427565       -11.6346
 243   2.0000      -0.426949       -11.6179
 244   2.0000      -0.422831       -11.5058
 245   2.0000      -0.419934       -11.4270
 246   2.0000      -0.413471       -11.2511
 247   2.0000      -0.412207       -11.2167
 248   2.0000      -0.410930       -11.1820
 249   2.0000      -0.408248       -11.1090
 250   2.0000      -0.405093       -11.0232
 251   2.0000      -0.403906       -10.9909
 252   2.0000      -0.386145       -10.5076
 253   2.0000      -0.381150       -10.3716
 254   2.0000      -0.375127       -10.2077
 255   2.0000      -0.368373       -10.0239
 256   2.0000      -0.362527        -9.8649
 257   2.0000      -0.354574        -9.6485
 258   2.0000      -0.349704        -9.5159
 259   2.0000      -0.343315        -9.3421
 260   2.0000      -0.337209        -9.1759
 261   2.0000      -0.329970        -8.9789
 262   2.0000      -0.328502        -8.9390
 263   2.0000      -0.324282        -8.8242
 264   2.0000      -0.318785        -8.6746
 265   2.0000      -0.318257        -8.6602
 266   2.0000      -0.316303        -8.6070
 267   2.0000      -0.297836        -8.1045
 268   2.0000      -0.295654        -8.0452
 269   2.0000      -0.282225        -7.6797
 270   2.0000      -0.264581        -7.1996
 271   0.0000      -0.121693        -3.3114
 272   0.0000      -0.113571        -3.0904
 273   0.0000      -0.093237        -2.5371
 274   0.0000      -0.090978        -2.4756
 275   0.0000      -0.067393        -1.8339

MULLIKEN ATOMIC CHARGES
-----------------------
   0 C :   -0.014218
   1 C :    0.033414
   2 C :    0.037646
   3 C :   -0.015897
   4 C :    0.091957
   5 C :   -0.075143
   6 C :    0.026904
   7 C :    0.016859
   8 C :   -0.081231
   9 C :    0.094467
  10 C :    0.136221
  11 O :   -0.142733
  12 C :   -0.138276
  13 C :    0.268432
  14 C :   -0.330103
  15 C :   -0.202092
  16 N :    0.171408
  17 C :   -0.170931
  18 N :    0.160641
  19 C :    0.083440
  20 C :   -0.108947
  21 C :   -0.002882
  22 C :   -0.002904
  23 C :   -0.076884
  24 S :    0.217211
  25 C :   -0.098458
  26 C :    0.020123
  27 C :    0.302758
  28 C :   -0.285185
  29 C :   -0.195292
  30 N :    0.189796
  31 C :   -0.182418
  32 N :    0.169823
  33 C :   -0.045570
  34 C :   -0.043352
  35 S :    0.243219
  36 C :   -0.058888
  37 N :   -0.039939
  38 C :    0.007103
  39 C :    0.011484
  40 N :   -0.040940
  41 N :   -0.033309
  42 C :   -0.042903
  43 C :   -0.046349
  44 C :    0.031682
  45 C :   -0.098133
  46 S :    0.188622
  47 C :   -0.084982
  48 C :   -0.025363
  49 C :    0.298388
  50 C :   -0.285910
  51 C :   -0.186679
  52 N :    0.188066
  53 C :   -0.197774
  54 N :    0.192638
  55 C :    0.059303
  56 C :   -0.115558
  57 S :    0.207784
  58 C :    0.029347
  59 C :   -0.101393
  60 C :    0.296435
  61 C :   -0.335407
  62 C :   -0.182311
  63 N :    0.149305
  64 C :   -0.206299
  65 N :    0.156604
  66 C :    0.054664
  67 C :   -0.009257
  68 C :   -0.077209
  69 C :    0.099475
  70 C :   -0.018096
  71 C :    0.036734
  72 C :    0.036919
  73 C :   -0.020703
  74 C :    0.098218
  75 C :   -0.086658
  76 C :    0.154091
  77 O :   -0.150638
  78 H :   -0.018063
  79 H :   -0.003714
  80 H :   -0.004292
  81 H :   -0.008160
  82 H :    0.000112
  83 H :   -0.011912
  84 H :    0.021079
  85 H :    0.027149
  86 H :    0.029809
  87 H :    0.024083
  88 H :    0.031043
  89 H :    0.028276
  90 H :    0.027494
  91 H :   -0.009961
  92 H :   -0.015265
  93 H :   -0.002981
  94 H :   -0.003810
  95 H :   -0.007978
  96 H :   -0.006876
Sum of atomic charges:   -0.0000000

LOEWDIN ATOMIC CHARGES
----------------------
   0 C :   -0.009294
   1 C :   -0.012673
   2 C :   -0.011884
   3 C :   -0.004984
   4 C :   -0.004728
   5 C :    0.019704
   6 C :   -0.022983
   7 C :   -0.058269
   8 C :    0.033192
   9 C :   -0.008999
  10 C :    0.083709
  11 O :   -0.143534
  12 C :   -0.085767
  13 C :    0.065362
  14 C :   -0.134941
  15 C :   -0.015997
  16 N :   -0.046243
  17 C :   -0.018437
  18 N :   -0.044656
  19 C :    0.040561
  20 C :   -0.177471
  21 C :    0.006798
  22 C :   -0.060371
  23 C :   -0.165347
  24 S :    0.501798
  25 C :   -0.174404
  26 C :   -0.063763
  27 C :    0.079256
  28 C :   -0.093731
  29 C :   -0.020724
  30 N :   -0.019614
  31 C :   -0.012163
  32 N :   -0.031658
  33 C :    0.006337
  34 C :   -0.188777
  35 S :    0.516258
  36 C :   -0.012948
  37 N :   -0.065326
  38 C :    0.031855
  39 C :   -0.055572
  40 N :   -0.008091
  41 N :   -0.043618
  42 C :   -0.176352
  43 C :    0.001127
  44 C :   -0.055895
  45 C :   -0.180146
  46 S :    0.480619
  47 C :   -0.165746
  48 C :   -0.069569
  49 C :    0.073848
  50 C :   -0.087314
  51 C :   -0.017976
  52 N :   -0.018260
  53 C :   -0.020224
  54 N :   -0.017696
  55 C :    0.026320
  56 C :   -0.176085
  57 S :    0.492213
  58 C :    0.042914
  59 C :   -0.089629
  60 C :    0.074858
  61 C :   -0.139439
  62 C :   -0.017809
  63 N :   -0.051795
  64 C :   -0.025091
  65 N :   -0.052567
  66 C :   -0.026376
  67 C :   -0.055608
  68 C :    0.034451
  69 C :   -0.007902
  70 C :   -0.008684
  71 C :   -0.011417
  72 C :   -0.012412
  73 C :   -0.005442
  74 C :   -0.005809
  75 C :    0.019992
  76 C :    0.084605
  77 O :   -0.137996
  78 H :    0.031711
  79 H :    0.033078
  80 H :    0.033451
  81 H :    0.035372
  82 H :    0.040750
  83 H :    0.039324
  84 H :    0.045838
  85 H :    0.042809
  86 H :    0.050403
  87 H :    0.026472
  88 H :    0.050356
  89 H :    0.046126
  90 H :    0.044652
  91 H :    0.040113
  92 H :    0.032636
  93 H :    0.033450
  94 H :    0.033649
  95 H :    0.034997
  96 H :    0.039243

  Mayer bond orders larger than 0.100000
B(  0-C ,  1-C ) :   1.4885 B(  0-C ,  9-C ) :   1.2457 B(  0-C , 78-H ) :   0.9971
B(  1-C ,  2-C ) :   1.2612 B(  1-C , 79-H ) :   0.9891 B(  2-C ,  3-C ) :   1.4899
B(  2-C , 80-H ) :   0.9885 B(  3-C ,  4-C ) :   1.2411 B(  3-C , 81-H ) :   0.9974
B(  4-C ,  5-C ) :   1.2063 B(  4-C ,  9-C ) :   1.2564 B(  5-C ,  6-C ) :   1.4594
B(  5-C , 82-H ) :   0.9938 B(  6-C ,  7-C ) :   1.2148 B(  6-C , 13-C ) :   0.9981
B(  7-C ,  8-C ) :   1.4738 B(  7-C , 10-C ) :   0.9229 B(  8-C ,  9-C ) :   1.1848
B(  8-C , 83-H ) :   1.0155 B( 10-C , 11-O ) :   2.2677 B( 10-C , 12-C ) :   0.9373
B( 12-C , 13-C ) :   1.0296 B( 12-C , 19-C ) :   1.6853 B( 13-C , 14-C ) :   1.6533
B( 14-C , 15-C ) :   1.1723 B( 14-C , 17-C ) :   1.1295 B( 15-C , 16-N ) :   2.9973
B( 17-C , 18-N ) :   2.9931 B( 19-C , 20-C ) :   1.1248 B( 19-C , 84-H ) :   0.9276
B( 20-C , 21-C ) :   1.4035 B( 20-C , 24-S ) :   1.0972 B( 21-C , 22-C ) :   1.3523
B( 21-C , 85-H ) :   0.9793 B( 22-C , 23-C ) :   1.4228 B( 22-C , 27-C ) :   0.9983
B( 23-C , 24-S ) :   1.1495 B( 23-C , 25-C ) :   1.1937 B( 25-C , 26-C ) :   1.4258
B( 25-C , 35-S ) :   1.1334 B( 26-C , 27-C ) :   0.9930 B( 26-C , 33-C ) :   1.2662
B( 27-C , 28-C ) :   1.7239 B( 28-C , 29-C ) :   1.1321 B( 28-C , 31-C ) :   1.1331
B( 29-C , 30-N ) :   3.0024 B( 31-C , 32-N ) :   2.9804 B( 33-C , 34-C ) :   1.4714
B( 33-C , 86-H ) :   1.0101 B( 34-C , 35-S ) :   1.1090 B( 34-C , 36-C ) :   1.0570
B( 36-C , 37-N ) :   1.5219 B( 36-C , 41-N ) :   1.5619 B( 37-N , 38-C ) :   1.6198
B( 38-C , 39-C ) :   1.2430 B( 38-C , 87-H ) :   0.9740 B( 39-C , 40-N ) :   1.5430
B( 39-C , 42-C ) :   1.0798 B( 40-N , 41-N ) :   1.3665 B( 42-C , 43-C ) :   1.4697
B( 42-C , 46-S ) :   1.1133 B( 43-C , 44-C ) :   1.2514 B( 43-C , 88-H ) :   1.0133
B( 44-C , 45-C ) :   1.4328 B( 44-C , 49-C ) :   0.9901 B( 45-C , 46-S ) :   1.1269
B( 45-C , 47-C ) :   1.2006 B( 47-C , 48-C ) :   1.3968 B( 47-C , 57-S ) :   1.1584
B( 48-C , 49-C ) :   0.9956 B( 48-C , 55-C ) :   1.3414 B( 49-C , 50-C ) :   1.7275
B( 50-C , 51-C ) :   1.1343 B( 50-C , 53-C ) :   1.1340 B( 51-C , 52-N ) :   2.9928
B( 53-C , 54-N ) :   3.0010 B( 55-C , 56-C ) :   1.4242 B( 55-C , 89-H ) :   0.9749
B( 56-C , 57-S ) :   1.0783 B( 56-C , 58-C ) :   1.1702 B( 58-C , 59-C ) :   1.6217
B( 58-C , 90-H ) :   0.9316 B( 59-C , 60-C ) :   1.0649 B( 59-C , 76-C ) :   0.9383
B( 60-C , 61-C ) :   1.6418 B( 60-C , 66-C ) :   0.9928 B( 61-C , 62-C ) :   1.1444
B( 61-C , 64-C ) :   1.1361 B( 62-C , 63-N ) :   2.9686 B( 64-C , 65-N ) :   2.9961
B( 66-C , 67-C ) :   1.2109 B( 66-C , 75-C ) :   1.4492 B( 67-C , 68-C ) :   1.4735
B( 67-C , 76-C ) :   0.9477 B( 68-C , 69-C ) :   1.1789 B( 68-C , 91-H ) :   1.0162
B( 69-C , 70-C ) :   1.2440 B( 69-C , 74-C ) :   1.2555 B( 70-C , 71-C ) :   1.4899
B( 70-C , 92-H ) :   0.9979 B( 71-C , 72-C ) :   1.2599 B( 71-C , 93-H ) :   0.9882
B( 72-C , 73-C ) :   1.4901 B( 72-C , 94-H ) :   0.9881 B( 73-C , 74-C ) :   1.2397
B( 73-C , 95-H ) :   0.9975 B( 74-C , 75-C ) :   1.2050 B( 75-C , 96-H ) :   0.9914
B( 76-C , 77-O ) :   2.2043

-----------------------------------------------------------------------------
         ABSORPTION SPECTRUM VIA TRANSITION ELECTRIC DIPOLE MOMENTS
-----------------------------------------------------------------------------
State   Energy  Wavelength   fosc         T2         TX        TY        TZ
        (cm-1)    (nm)                  (au**2)     (au)      (au)      (au)
-----------------------------------------------------------------------------
   0   14659.2    682.2   0.837656987  18.81186  -3.77396   2.07140  -0.52763
   1   15433.5    647.9   0.013248670   0.28261  -0.11895  -0.46623   0.22602
   2   20671.6    483.8   1.821257004  29.00500   4.64876  -2.59581   0.80979
   3   22034.8    453.8   0.238256550   3.55968  -1.06136   1.41275  -0.66131
   4   23178.6    431.4   0.005578089   0.07923  -0.00938  -0.23257   0.15827
   5   23769.0    420.7   0.003823106   0.05295  -0.09986   0.18383   0.09584
   6   24654.1    405.6   0.031899866   0.42597   0.55160   0.14442  -0.31755
   7   25291.6    395.4   0.046918398   0.61072   0.02487   0.75538   0.19877
   8   25471.0    392.6   0.012003637   0.15515   0.04189   0.21471  -0.32755
   9   26743.3    373.9   0.004441677   0.05468   0.23145  -0.00513  -0.03293
  10   26877.0    372.1   0.019033916   0.23314  -0.20091  -0.42313  -0.11719
  11   27341.1    365.7   0.340327079   4.09785   1.87766  -0.75138   0.08749
  12   27933.3    358.0   0.279121243   3.28962   1.71825  -0.49956  -0.29613
  13   28265.4    353.8   0.000987113   0.01150  -0.02489  -0.07513  -0.07234
  14   28497.1    350.9   0.028449753   0.32867   0.55608   0.00268   0.13941
  15   28741.6    347.9   0.009186670   0.10523   0.23690   0.11768  -0.18777
  16   28885.8    346.2   0.063323016   0.72169   0.29969  -0.30882  -0.73247
  17   29444.4    339.6   0.003107545   0.03474  -0.09925   0.13109   0.08781
  18   30009.2    333.2   0.207290754   2.27406  -0.20117   0.21959  -1.47830
  19   30211.5    331.0   0.298696277   3.25486   0.71716   1.43844   0.81941
  20   30433.7    328.6   0.212221231   2.29567  -0.96554  -0.29047   1.13094
  21   30806.9    324.6   0.103064044   1.10137   1.00296   0.30382   0.05603
  22   31067.2    321.9   0.050440690   0.53451   0.26430  -0.63132   0.25708
  23   31284.1    319.7   0.079767104   0.83941   0.14236   0.18867   0.88518
  24   31575.9    316.7   0.256146780   2.67060  -0.37614   0.13353   1.58471
  25   31738.1    315.1   0.052650097   0.54613  -0.73863  -0.00171   0.02342
  26   31881.7    313.7   0.122580087   1.26577   0.65176  -0.60856   0.68603
  27   31986.2    312.6   0.324865549   3.34362  -1.63766   0.53591  -0.61195
  28   32370.2    308.9   0.409406590   4.16375  -0.86326   1.64430   0.84547
  29   32549.5    307.2   0.139293148   1.40884  -0.91003  -0.03679  -0.76114
  30   32648.9    306.3   0.038061231   0.38379   0.11260   0.52650   0.30644
  31   33155.3    301.6   0.055452877   0.55061  -0.73491   0.08179   0.06194
  32   33338.6    300.0   0.100809863   0.99548  -0.40576  -0.02370  -0.91120
  33   33710.5    296.6   0.144602057   1.41216  -1.15067   0.26784  -0.12795
  34   34165.7    292.7   0.155472583   1.49809   0.65375   0.92906   0.45558
  35   34368.5    291.0   0.162972759   1.56110  -1.24707  -0.05795   0.05047
  36   34533.4    289.6   0.007365117   0.07021   0.14772  -0.21873   0.02345
  37   34699.0    288.2   0.549102507   5.20969  -0.08566   1.43441   1.77336
  38   34802.2    287.3   0.149137459   1.41077  -0.46390  -0.29032   1.05417
  39   35103.2    284.9   0.324787745   3.04599   1.57296   0.71759   0.23844
  40   35182.3    284.2   0.116395611   1.08915  -0.60752   0.32408   0.78424
  41   35618.7    280.8   0.006474325   0.05984   0.05319  -0.00830   0.23862
  42   35953.3    278.1   0.207142738   1.89673  -0.15665  -0.13461   1.36164
  43   36595.0    273.3   0.067473277   0.60700   0.72073   0.20477   0.21357
  44   36967.8    270.5   0.006991478   0.06226  -0.19919  -0.04581  -0.14313
  45   37177.9    269.0   0.028774696   0.25480  -0.45762   0.12414  -0.17312
  46   37379.0    267.5   0.004945049   0.04355  -0.08106   0.19128   0.01983
  47   37863.5    264.1   0.027401955   0.23825   0.07266  -0.18891  -0.44417
  48   37952.8    263.5   0.008473809   0.07350  -0.05200  -0.12106   0.23695
  49   38215.8    261.7   0.010325023   0.08895   0.19855  -0.18835  -0.11851
  50   38341.8    260.8   0.021620098   0.18564  -0.40579  -0.13154  -0.06056
  51   38753.5    258.0   0.030697353   0.26077   0.17457  -0.22514  -0.42381
  52   38892.9    257.1   0.082503308   0.69836  -0.32140  -0.38675  -0.66744
  53   39040.6    256.1   0.016722516   0.14101   0.02019   0.10065   0.36121
  54   39180.2    255.2   0.055823540   0.46906  -0.48617  -0.16341  -0.45386
  55   39490.0    253.2   0.009803391   0.08173   0.01874  -0.00735   0.28517
  56   39610.4    252.5   0.068544840   0.56969   0.56444  -0.05455   0.49812
  57   39673.1    252.1   0.055029711   0.45664   0.33574  -0.18575   0.55625
  58   39713.1    251.8   0.079170727   0.65631  -0.22577  -0.17513   0.75807
  59   39902.6    250.6   0.150207856   1.23927   0.71517  -0.43347   0.73478
  60   40148.7    249.1   0.050358299   0.41293  -0.36341   0.50066  -0.17378

FINAL SINGLE POINT ENERGY     -4676.796548549612

DIPOLE MOMENT
-------------
                                X             Y             Z
Electronic contribution:     15.29118      23.73800      12.37058
Nuclear contribution   :    -17.57879     -26.34946     -10.25318
                        -----------------------------------------
Total Dipole Moment    :     -2.28761      -2.61146       2.11739
                        -----------------------------------------
Magnitude (a.u.)       :      4.06648
Magnitude (Debye)      :     10.33616

Rotational constants in cm-1:     0.002261     0.000149     0.000148
Rotational constants in MHz :    67.785983     4.464417     4.430650

                             ****ORCA TERMINATED NORMALLY****
TOTAL RUN TIME: 0 days 0 hours 9 minutes 16 seconds 33 msec
