                         Program Version 4.2.0 -  RELEASE  -
|  1> # ORCA input file
|  2> # SCF done       -197.622209424774          0.000996516900
|  3> ! CAM-B3LYP def2-SVP def2/J RIJCOSX Grid4 TightSCF
|  4> %maxcore 5000
|  5> %tddft
|  6>     Mode sTDDFT
|  7>     Ethresh 5.0
|  8>     maxcore 5000
|  9> end
| 10>
| 11> %pal
| 12>   nprocs 6
| 13>   end
| 14> * xyz 0 1
| 15>    C        0.79421         4.92777         1.06740
| 16>    C        1.50470         3.98367         1.76095
| 17>    C        2.91377         3.90108         1.76643
| 18>    N        4.05410         3.78039         1.81510
| 19>    C        0.95308         2.98093         2.58655
| 20>    N        0.58489         2.14610         3.28382
| 21>    C        1.37180         5.99953         0.26494
| 22>    C        0.32460         6.83337        -0.20549
| 23>    C        0.55138         7.94109        -0.98703
| 24>    C        1.87415         8.23927        -1.32661
| 25>    C        2.91333         7.39824        -0.85893
| 26>    C        2.68392         6.28017        -0.06520
| 27>    S        4.46349         7.95169        -1.40549
| 28>    C        3.72514         9.27642        -2.23607
| 29>    C        2.37978         9.31034        -2.11545
| 30>    C       -0.95998         6.30649         0.27051
| 31>    O       -2.06356         6.78413         0.06567
| 32>    C       -0.65088         5.08533         1.02783
| 33>    C       -1.57224         4.21618         1.54485
| 34>    C       -2.97757         4.28159         1.55684
| 35>    C       -3.75163         3.25049         2.10156
| 36>    C       -5.10663         3.51323         2.03073
| 37>    C       -5.37795         4.76733         1.43530
| 38>    S       -3.97326         5.60067         0.94878
| 39>    C       -6.78382         4.94881         1.41635
| 40>    C       -7.39685         3.81587         1.99539
| 41>    C       -6.36337         2.87774         2.39881
| 42>    C       -6.53339         1.66319         2.99403
| 43>    C       -5.44365         0.83197         3.33201
| 44>    N       -4.56348         0.14756         3.59774
| 45>    C       -7.80895         1.14960         3.31394
| 46>    N       -8.83888         0.72232         3.57957
| 47>    C       -8.78545         3.90712         2.01970
| 48>    C       -9.21878         5.10100         1.46835
| 49>    S       -7.91250         6.12340         0.91086
| 50>    C      -10.55806         5.55530         1.32109
| 51>    N      -10.76360         6.75105         0.79518
| 52>    N      -11.94548         7.26381         0.61479
| 53>    C      -13.06869         6.64032         0.92848
| 54>    C      -12.99399         5.33595         1.50774
| 55>    C      -11.68755         4.77383         1.71751
| 56>    N      -11.85503         3.58761         2.26289
| 57>    O      -13.16777         3.42177         2.38500
| 58>    N      -13.87296         4.45634         1.93938
| 59>    C      -14.30162         7.30163         0.67603
| 60>    C      -15.58315         6.81904         0.87939
| 61>    C      -16.54060         7.75838         0.50737
| 62>    C      -15.97061         8.95717         0.02584
| 63>    S      -14.26641         8.92393         0.02121
| 64>    C      -17.02091         9.84400        -0.32309
| 65>    C      -18.24940         9.20418        -0.06731
| 66>    C      -17.98836         7.87220         0.45344
| 67>    C      -18.91862         6.93151         0.78349
| 68>    C      -18.57019         5.65541         1.27570
| 69>    N      -18.29754         4.61938         1.68276
| 70>    C      -20.29978         7.18719         0.64527
| 71>    N      -21.41881         7.41243         0.53606
| 72>    C      -19.34724         9.98483        -0.40650
| 73>    C      -18.97321        11.21731        -0.92064
| 74>    S      -17.22729        11.41214        -0.95101
| 75>    C      -19.80336        12.28178        -1.34727
| 76>    C      -21.10436        12.23411        -1.73686
| 77>    C      -21.99423        11.15057        -2.10657
| 78>    C      -21.64206         9.96821        -2.70360
| 79>    C      -22.57305         9.02021        -3.17911
| 80>    N      -23.28531         8.22004        -3.58977
| 81>    C      -20.31697         9.60175        -3.00861
| 82>    N      -19.25759         9.26815        -3.30027
| 83>    C      -23.35685        11.65553        -1.99172
| 84>    C      -23.30976        13.06182        -1.80186
| 85>    C      -21.90547        13.49592        -1.72752
| 86>    O      -21.46983        14.61937        -1.62872
| 87>    C      -24.44670        13.82733        -1.69695
| 88>    C      -25.68181        13.17638        -1.77140
| 89>    C      -25.71623        11.77038        -1.94364
| 90>    C      -24.56805        10.99528        -2.05736
| 91>    S      -27.34682        11.18276        -1.99412
| 92>    C      -27.95753        12.78824        -1.79491
| 93>    C      -26.99163        13.72733        -1.69143
| 94>    H       -0.26758         8.55634        -1.32603
| 95>    H        3.50985         5.67153         0.26254
| 96>    H        4.35461         9.95939        -2.77275
| 97>    H        1.75361        10.06040        -2.56349
| 98>    H       -1.19095         3.31853         2.01688
| 99>    H       -3.31098         2.36390         2.52227
|100>    H       -9.46418         3.16892         2.40819
|101>    H      -15.77659         5.83804         1.27550
|102>    H      -20.37268         9.70050        -0.25546
|103>    H      -19.37378        13.27789        -1.30009
|104>    H      -24.38417        14.89587        -1.56140
|105>    H      -24.63974         9.92672        -2.17627
|106>    H      -29.02014        12.93235        -1.76618
|107>    H      -27.18348        14.77707        -1.56235
|108> *
|109>
|110>                          ****END OF INPUT****

CARTESIAN COORDINATES (ANGSTROEM)
---------------------------------
  C      0.794210    4.927770    1.067400
  C      1.504700    3.983670    1.760950
  C      2.913770    3.901080    1.766430
  N      4.054100    3.780390    1.815100
  C      0.953080    2.980930    2.586550
  N      0.584890    2.146100    3.283820
  C      1.371800    5.999530    0.264940
  C      0.324600    6.833370   -0.205490
  C      0.551380    7.941090   -0.987030
  C      1.874150    8.239270   -1.326610
  C      2.913330    7.398240   -0.858930
  C      2.683920    6.280170   -0.065200
  S      4.463490    7.951690   -1.405490
  C      3.725140    9.276420   -2.236070
  C      2.379780    9.310340   -2.115450
  C     -0.959980    6.306490    0.270510
  O     -2.063560    6.784130    0.065670
  C     -0.650880    5.085330    1.027830
  C     -1.572240    4.216180    1.544850
  C     -2.977570    4.281590    1.556840
  C     -3.751630    3.250490    2.101560
  C     -5.106630    3.513230    2.030730
  C     -5.377950    4.767330    1.435300
  S     -3.973260    5.600670    0.948780
  C     -6.783820    4.948810    1.416350
  C     -7.396850    3.815870    1.995390
  C     -6.363370    2.877740    2.398810
  C     -6.533390    1.663190    2.994030
  C     -5.443650    0.831970    3.332010
  N     -4.563480    0.147560    3.597740
  C     -7.808950    1.149600    3.313940
  N     -8.838880    0.722320    3.579570
  C     -8.785450    3.907120    2.019700
  C     -9.218780    5.101000    1.468350
  S     -7.912500    6.123400    0.910860
  C    -10.558060    5.555300    1.321090
  N    -10.763600    6.751050    0.795180
  N    -11.945480    7.263810    0.614790
  C    -13.068690    6.640320    0.928480
  C    -12.993990    5.335950    1.507740
  C    -11.687550    4.773830    1.717510
  N    -11.855030    3.587610    2.262890
  O    -13.167770    3.421770    2.385000
  N    -13.872960    4.456340    1.939380
  C    -14.301620    7.301630    0.676030
  C    -15.583150    6.819040    0.879390
  C    -16.540600    7.758380    0.507370
  C    -15.970610    8.957170    0.025840
  S    -14.266410    8.923930    0.021210
  C    -17.020910    9.844000   -0.323090
  C    -18.249400    9.204180   -0.067310
  C    -17.988360    7.872200    0.453440
  C    -18.918620    6.931510    0.783490
  C    -18.570190    5.655410    1.275700
  N    -18.297540    4.619380    1.682760
  C    -20.299780    7.187190    0.645270
  N    -21.418810    7.412430    0.536060
  C    -19.347240    9.984830   -0.406500
  C    -18.973210   11.217310   -0.920640
  S    -17.227290   11.412140   -0.951010
  C    -19.803360   12.281780   -1.347270
  C    -21.104360   12.234110   -1.736860
  C    -21.994230   11.150570   -2.106570
  C    -21.642060    9.968210   -2.703600
  C    -22.573050    9.020210   -3.179110
  N    -23.285310    8.220040   -3.589770
  C    -20.316970    9.601750   -3.008610
  N    -19.257590    9.268150   -3.300270
  C    -23.356850   11.655530   -1.991720
  C    -23.309760   13.061820   -1.801860
  C    -21.905470   13.495920   -1.727520
  O    -21.469830   14.619370   -1.628720
  C    -24.446700   13.827330   -1.696950
  C    -25.681810   13.176380   -1.771400
  C    -25.716230   11.770380   -1.943640
  C    -24.568050   10.995280   -2.057360
  S    -27.346820   11.182760   -1.994120
  C    -27.957530   12.788240   -1.794910
  C    -26.991630   13.727330   -1.691430
  H     -0.267580    8.556340   -1.326030
  H      3.509850    5.671530    0.262540
  H      4.354610    9.959390   -2.772750
  H      1.753610   10.060400   -2.563490
  H     -1.190950    3.318530    2.016880
  H     -3.310980    2.363900    2.522270
  H     -9.464180    3.168920    2.408190
  H    -15.776590    5.838040    1.275500
  H    -20.372680    9.700500   -0.255460
  H    -19.373780   13.277890   -1.300090
  H    -24.384170   14.895870   -1.561400
  H    -24.639740    9.926720   -2.176270
  H    -29.020140   12.932350   -1.766180
  H    -27.183480   14.777070   -1.562350

 Total Charge           Charge          ....    0
 Multiplicity           Mult            ....    1
 Number of Electrons    NEL             ....  566
 Basis Dimension        Dim             .... 1200

ORBITAL ENERGIES
----------------

  NO   OCC          E(Eh)            E(eV)
   0   2.0000     -89.001690     -2421.8591
   1   2.0000     -89.000164     -2421.8176
   2   2.0000     -88.999009     -2421.7862
   3   2.0000     -88.995425     -2421.6886
   4   2.0000     -88.972173     -2421.0559
   5   2.0000     -88.969395     -2420.9803
   6   2.0000     -19.389969      -527.6279
   7   2.0000     -19.230931      -523.3002
   8   2.0000     -19.220184      -523.0078
   9   2.0000     -14.516848      -395.0235
  10   2.0000     -14.516671      -395.0187
  11   2.0000     -14.467785      -393.6884
  12   2.0000     -14.467263      -393.6742
  13   2.0000     -14.437084      -392.8530
  14   2.0000     -14.434309      -392.7775
  15   2.0000     -14.433139      -392.7457
  16   2.0000     -14.432793      -392.7363
  17   2.0000     -14.421853      -392.4386
  18   2.0000     -14.421197      -392.4207
  19   2.0000     -14.418709      -392.3530
  20   2.0000     -14.417723      -392.3262
  21   2.0000     -10.378381      -282.4101
  22   2.0000     -10.372174      -282.2412
  23   2.0000     -10.371438      -282.2212
  24   2.0000     -10.369927      -282.1801
  25   2.0000     -10.366740      -282.0933
  26   2.0000     -10.366268      -282.0805
  27   2.0000     -10.360160      -281.9143
  28   2.0000     -10.359906      -281.9074
  29   2.0000     -10.359149      -281.8868
  30   2.0000     -10.357579      -281.8441
  31   2.0000     -10.348682      -281.6020
  32   2.0000     -10.347722      -281.5758
  33   2.0000     -10.347693      -281.5750
  34   2.0000     -10.346987      -281.5558
  35   2.0000     -10.346744      -281.5492
  36   2.0000     -10.345842      -281.5247
  37   2.0000     -10.343394      -281.4580
  38   2.0000     -10.338026      -281.3120
  39   2.0000     -10.337209      -281.2898
  40   2.0000     -10.335307      -281.2380
  41   2.0000     -10.335007      -281.2298
  42   2.0000     -10.334528      -281.2168
  43   2.0000     -10.333708      -281.1945
  44   2.0000     -10.333483      -281.1884
  45   2.0000     -10.332755      -281.1685
  46   2.0000     -10.332417      -281.1594
  47   2.0000     -10.332328      -281.1569
  48   2.0000     -10.329677      -281.0848
  49   2.0000     -10.326303      -280.9930
  50   2.0000     -10.324168      -280.9349
  51   2.0000     -10.323451      -280.9154
  52   2.0000     -10.323318      -280.9118
  53   2.0000     -10.321480      -280.8617
  54   2.0000     -10.319956      -280.8203
  55   2.0000     -10.319367      -280.8043
  56   2.0000     -10.317368      -280.7499
  57   2.0000     -10.316781      -280.7339
  58   2.0000     -10.316654      -280.7304
  59   2.0000     -10.316000      -280.7126
  60   2.0000     -10.315561      -280.7007
  61   2.0000     -10.315114      -280.6885
  62   2.0000     -10.314903      -280.6828
  63   2.0000     -10.314767      -280.6791
  64   2.0000     -10.312372      -280.6139
  65   2.0000     -10.311835      -280.5993
  66   2.0000     -10.311111      -280.5796
  67   2.0000     -10.308690      -280.5137
  68   2.0000     -10.307502      -280.4814
  69   2.0000     -10.307086      -280.4701
  70   2.0000     -10.306910      -280.4653
  71   2.0000     -10.306282      -280.4482
  72   2.0000     -10.305929      -280.4386
  73   2.0000     -10.305228      -280.4195
  74   2.0000     -10.303328      -280.3678
  75   2.0000     -10.297354      -280.2053
  76   2.0000     -10.295447      -280.1533
  77   2.0000     -10.294372      -280.1241
  78   2.0000     -10.291788      -280.0538
  79   2.0000      -8.096403      -220.3143
  80   2.0000      -8.094105      -220.2518
  81   2.0000      -8.093048      -220.2230
  82   2.0000      -8.087729      -220.0783
  83   2.0000      -8.068363      -219.5513
  84   2.0000      -8.065741      -219.4800
  85   2.0000      -6.065576      -165.0527
  86   2.0000      -6.063370      -164.9927
  87   2.0000      -6.062298      -164.9635
  88   2.0000      -6.061359      -164.9380
  89   2.0000      -6.059028      -164.8745
  90   2.0000      -6.058917      -164.8715
  91   2.0000      -6.057943      -164.8450
  92   2.0000      -6.057153      -164.8235
  93   2.0000      -6.056620      -164.8090
  94   2.0000      -6.055553      -164.7800
  95   2.0000      -6.052358      -164.6930
  96   2.0000      -6.050303      -164.6371
  97   2.0000      -6.037856      -164.2984
  98   2.0000      -6.035248      -164.2275
  99   2.0000      -6.033558      -164.1815
 100   2.0000      -6.030933      -164.1100
 101   2.0000      -6.030083      -164.0869
 102   2.0000      -6.027396      -164.0138
 103   2.0000      -1.344536       -36.5867
 104   2.0000      -1.149256       -31.2728
 105   2.0000      -1.146207       -31.1899
 106   2.0000      -1.135715       -30.9044
 107   2.0000      -1.056349       -28.7447
 108   2.0000      -1.053164       -28.6580
 109   2.0000      -1.047493       -28.5037
 110   2.0000      -1.028343       -27.9826
 111   2.0000      -1.026001       -27.9189
 112   2.0000      -1.025594       -27.9078
 113   2.0000      -1.025380       -27.9020
 114   2.0000      -1.014688       -27.6111
 115   2.0000      -1.013790       -27.5866
 116   2.0000      -1.012524       -27.5522
 117   2.0000      -1.011811       -27.5328
 118   2.0000      -1.011048       -27.5120
 119   2.0000      -1.009660       -27.4742
 120   2.0000      -1.003282       -27.3007
 121   2.0000      -0.998504       -27.1707
 122   2.0000      -0.997639       -27.1471
 123   2.0000      -0.991544       -26.9813
 124   2.0000      -0.989680       -26.9306
 125   2.0000      -0.979142       -26.6438
 126   2.0000      -0.967170       -26.3180
 127   2.0000      -0.954081       -25.9619
 128   2.0000      -0.937897       -25.5215
 129   2.0000      -0.936842       -25.4928
 130   2.0000      -0.925344       -25.1799
 131   2.0000      -0.920105       -25.0373
 132   2.0000      -0.905646       -24.6439
 133   2.0000      -0.901646       -24.5350
 134   2.0000      -0.887161       -24.1409
 135   2.0000      -0.885126       -24.0855
 136   2.0000      -0.883278       -24.0352
 137   2.0000      -0.882118       -24.0036
 138   2.0000      -0.879586       -23.9348
 139   2.0000      -0.869184       -23.6517
 140   2.0000      -0.866857       -23.5884
 141   2.0000      -0.864685       -23.5293
 142   2.0000      -0.853961       -23.2375
 143   2.0000      -0.829089       -22.5607
 144   2.0000      -0.826773       -22.4976
 145   2.0000      -0.818316       -22.2675
 146   2.0000      -0.812900       -22.1201
 147   2.0000      -0.802020       -21.8241
 148   2.0000      -0.793080       -21.5808
 149   2.0000      -0.785474       -21.3738
 150   2.0000      -0.781859       -21.2755
 151   2.0000      -0.776325       -21.1249
 152   2.0000      -0.765668       -20.8349
 153   2.0000      -0.762395       -20.7458
 154   2.0000      -0.749884       -20.4054
 155   2.0000      -0.735544       -20.0152
 156   2.0000      -0.723031       -19.6747
 157   2.0000      -0.711759       -19.3679
 158   2.0000      -0.706250       -19.2180
 159   2.0000      -0.701869       -19.0988
 160   2.0000      -0.697900       -18.9908
 161   2.0000      -0.697126       -18.9698
 162   2.0000      -0.693435       -18.8693
 163   2.0000      -0.690839       -18.7987
 164   2.0000      -0.687564       -18.7096
 165   2.0000      -0.685715       -18.6593
 166   2.0000      -0.675537       -18.3823
 167   2.0000      -0.667411       -18.1612
 168   2.0000      -0.666400       -18.1337
 169   2.0000      -0.662380       -18.0243
 170   2.0000      -0.660746       -17.9798
 171   2.0000      -0.650533       -17.7019
 172   2.0000      -0.649586       -17.6761
 173   2.0000      -0.640946       -17.4410
 174   2.0000      -0.636143       -17.3103
 175   2.0000      -0.632388       -17.2082
 176   2.0000      -0.629177       -17.1208
 177   2.0000      -0.626133       -17.0380
 178   2.0000      -0.624109       -16.9829
 179   2.0000      -0.622190       -16.9307
 180   2.0000      -0.615388       -16.7456
 181   2.0000      -0.606039       -16.4912
 182   2.0000      -0.601128       -16.3575
 183   2.0000      -0.598942       -16.2980
 184   2.0000      -0.593343       -16.1457
 185   2.0000      -0.582958       -15.8631
 186   2.0000      -0.577016       -15.7014
 187   2.0000      -0.572962       -15.5911
 188   2.0000      -0.563311       -15.3285
 189   2.0000      -0.562861       -15.3162
 190   2.0000      -0.557312       -15.1652
 191   2.0000      -0.556976       -15.1561
 192   2.0000      -0.551672       -15.0118
 193   2.0000      -0.550993       -14.9933
 194   2.0000      -0.548921       -14.9369
 195   2.0000      -0.546688       -14.8761
 196   2.0000      -0.544176       -14.8078
 197   2.0000      -0.542966       -14.7748
 198   2.0000      -0.540200       -14.6996
 199   2.0000      -0.536713       -14.6047
 200   2.0000      -0.533980       -14.5303
 201   2.0000      -0.528356       -14.3773
 202   2.0000      -0.525493       -14.2994
 203   2.0000      -0.522378       -14.2146
 204   2.0000      -0.519334       -14.1318
 205   2.0000      -0.515967       -14.0402
 206   2.0000      -0.513263       -13.9666
 207   2.0000      -0.511308       -13.9134
 208   2.0000      -0.510371       -13.8879
 209   2.0000      -0.509040       -13.8517
 210   2.0000      -0.505768       -13.7626
 211   2.0000      -0.503581       -13.7031
 212   2.0000      -0.502992       -13.6871
 213   2.0000      -0.501586       -13.6488
 214   2.0000      -0.501106       -13.6358
 215   2.0000      -0.497572       -13.5396
 216   2.0000      -0.496439       -13.5088
 217   2.0000      -0.494532       -13.4569
 218   2.0000      -0.492047       -13.3893
 219   2.0000      -0.486227       -13.2309
 220   2.0000      -0.485494       -13.2110
 221   2.0000      -0.484209       -13.1760
 222   2.0000      -0.477932       -13.0052
 223   2.0000      -0.472430       -12.8555
 224   2.0000      -0.466881       -12.7045
 225   2.0000      -0.464928       -12.6513
 226   2.0000      -0.463555       -12.6140
 227   2.0000      -0.462655       -12.5895
 228   2.0000      -0.462348       -12.5811
 229   2.0000      -0.461345       -12.5538
 230   2.0000      -0.460170       -12.5219
 231   2.0000      -0.456926       -12.4336
 232   2.0000      -0.456333       -12.4175
 233   2.0000      -0.453836       -12.3495
 234   2.0000      -0.452673       -12.3179
 235   2.0000      -0.452458       -12.3120
 236   2.0000      -0.447319       -12.1722
 237   2.0000      -0.446008       -12.1365
 238   2.0000      -0.445362       -12.1189
 239   2.0000      -0.445062       -12.1108
 240   2.0000      -0.443570       -12.0701
 241   2.0000      -0.442937       -12.0529
 242   2.0000      -0.442592       -12.0435
 243   2.0000      -0.441555       -12.0153
 244   2.0000      -0.440044       -11.9742
 245   2.0000      -0.438240       -11.9251
 246   2.0000      -0.437130       -11.8949
 247   2.0000      -0.435729       -11.8568
 248   2.0000      -0.433353       -11.7921
 249   2.0000      -0.432378       -11.7656
 250   2.0000      -0.431146       -11.7321
 251   2.0000      -0.430480       -11.7140
 252   2.0000      -0.430020       -11.7014
 253   2.0000      -0.428350       -11.6560
 254   2.0000      -0.426803       -11.6139
 255   2.0000      -0.425583       -11.5807
 256   2.0000      -0.423905       -11.5350
 257   2.0000      -0.423642       -11.5279
 258   2.0000      -0.421122       -11.4593
 259   2.0000      -0.414201       -11.2710
 260   2.0000      -0.411716       -11.2034
 261   2.0000      -0.409715       -11.1489
 262   2.0000      -0.407779       -11.0962
 263   2.0000      -0.395789       -10.7700
 264   2.0000      -0.389138       -10.5890
 265   2.0000      -0.383414       -10.4332
 266   2.0000      -0.377263       -10.2659
 267   2.0000      -0.368261       -10.0209
 268   2.0000      -0.357387        -9.7250
 269   2.0000      -0.356618        -9.7041
 270   2.0000      -0.349580        -9.5126
 271   2.0000      -0.346811        -9.4372
 272   2.0000      -0.340515        -9.2659
 273   2.0000      -0.332497        -9.0477
 274   2.0000      -0.331551        -9.0220
 275   2.0000      -0.328049        -8.9267
 276   2.0000      -0.321052        -8.7363
 277   2.0000      -0.320002        -8.7077
 278   2.0000      -0.317058        -8.6276
 279   2.0000      -0.300719        -8.1830
 280   2.0000      -0.298660        -8.1269
 281   2.0000      -0.284548        -7.7429
 282   2.0000      -0.263638        -7.1740
 283   0.0000      -0.127266        -3.4631
 284   0.0000      -0.114344        -3.1115
 285   0.0000      -0.098770        -2.6877
 286   0.0000      -0.091515        -2.4903
 287   0.0000      -0.088539        -2.4093

MULLIKEN ATOMIC CHARGES
-----------------------
   0 C :    0.318895
   1 C :   -0.347227
   2 C :   -0.185510
   3 N :    0.154849
   4 C :   -0.194424
   5 N :    0.155993
   6 C :    0.013144
   7 C :   -0.015173
   8 C :   -0.063634
   9 C :    0.114289
  10 C :   -0.099464
  11 C :   -0.018592
  12 S :    0.146408
  13 C :   -0.047271
  14 C :    0.024924
  15 C :    0.168451
  16 O :   -0.191907
  17 C :   -0.083939
  18 C :   -0.034879
  19 C :   -0.048373
  20 C :   -0.064933
  21 C :    0.050899
  22 C :   -0.078569
  23 S :    0.248930
  24 C :   -0.088296
  25 C :    0.008946
  26 C :    0.310464
  27 C :   -0.295657
  28 C :   -0.195664
  29 N :    0.184292
  30 C :   -0.191265
  31 N :    0.187492
  32 C :   -0.055482
  33 C :   -0.125390
  34 S :    0.258421
  35 C :    0.012733
  36 N :   -0.055501
  37 N :   -0.058953
  38 C :    0.014661
  39 C :   -0.025401
  40 C :   -0.026649
  41 N :    0.084075
  42 O :   -0.067315
  43 N :    0.081177
  44 C :   -0.124619
  45 C :   -0.053432
  46 C :    0.012701
  47 C :   -0.087431
  48 S :    0.256812
  49 C :   -0.080661
  50 C :    0.004181
  51 C :    0.308393
  52 C :   -0.286774
  53 C :   -0.191658
  54 N :    0.190934
  55 C :   -0.185741
  56 N :    0.168687
  57 C :   -0.005492
  58 C :   -0.111328
  59 S :    0.223473
  60 C :    0.074043
  61 C :   -0.125992
  62 C :    0.265474
  63 C :   -0.329330
  64 C :   -0.176184
  65 N :    0.162668
  66 C :   -0.196682
  67 N :    0.166941
  68 C :   -0.002975
  69 C :    0.003467
  70 C :    0.130012
  71 O :   -0.142430
  72 C :   -0.065453
  73 C :    0.106055
  74 C :   -0.091722
  75 C :   -0.016715
  76 S :    0.145370
  77 C :   -0.051470
  78 C :    0.028163
  79 H :   -0.011485
  80 H :   -0.005871
  81 H :    0.040902
  82 H :   -0.005297
  83 H :    0.021263
  84 H :    0.028793
  85 H :    0.025168
  86 H :    0.024627
  87 H :    0.025555
  88 H :    0.024617
  89 H :   -0.008773
  90 H :    0.003259
  91 H :    0.041528
  92 H :   -0.005145
Sum of atomic charges:   -0.0000000

LOEWDIN ATOMIC CHARGES
----------------------
   0 C :    0.075948
   1 C :   -0.137991
   2 C :   -0.018130
   3 N :   -0.049852
   4 C :   -0.023850
   5 N :   -0.045236
   6 C :   -0.021247
   7 C :   -0.054895
   8 C :    0.025045
   9 C :   -0.034988
  10 C :   -0.144717
  11 C :   -0.006993
  12 S :    0.434766
  13 C :   -0.147855
  14 C :   -0.057458
  15 C :    0.087170
  16 O :   -0.174431
  17 C :   -0.104335
  18 C :    0.054926
  19 C :   -0.179705
  20 C :    0.008991
  21 C :   -0.071168
  22 C :   -0.173961
  23 S :    0.552217
  24 C :   -0.171851
  25 C :   -0.062331
  26 C :    0.074730
  27 C :   -0.096491
  28 C :   -0.019631
  29 N :   -0.022827
  30 C :   -0.020529
  31 N :   -0.021991
  32 C :   -0.008835
  33 C :   -0.178888
  34 S :    0.527046
  35 C :   -0.023346
  36 N :   -0.060843
  37 N :   -0.063429
  38 C :   -0.021223
  39 C :   -0.059728
  40 C :   -0.059629
  41 N :    0.003080
  42 O :    0.100691
  43 N :    0.002927
  44 C :   -0.181898
  45 C :   -0.005241
  46 C :   -0.065328
  47 C :   -0.167600
  48 S :    0.527180
  49 C :   -0.167091
  50 C :   -0.057845
  51 C :    0.079109
  52 C :   -0.094040
  53 C :   -0.020864
  54 N :   -0.019349
  55 C :   -0.012683
  56 N :   -0.031323
  57 C :    0.003468
  58 C :   -0.175601
  59 S :    0.505839
  60 C :    0.039036
  61 C :   -0.082550
  62 C :    0.065711
  63 C :   -0.134986
  64 C :   -0.019636
  65 N :   -0.043505
  66 C :   -0.015866
  67 N :   -0.047473
  68 C :   -0.019581
  69 C :   -0.056579
  70 C :    0.083879
  71 O :   -0.142072
  72 C :    0.025092
  73 C :   -0.034815
  74 C :   -0.143659
  75 C :   -0.007211
  76 S :    0.434450
  77 C :   -0.148340
  78 C :   -0.057414
  79 H :    0.040673
  80 H :    0.041379
  81 H :    0.030326
  82 H :    0.035802
  83 H :    0.054247
  84 H :    0.048275
  85 H :    0.044411
  86 H :    0.044735
  87 H :    0.042722
  88 H :    0.046731
  89 H :    0.041382
  90 H :    0.042885
  91 H :    0.030281
  92 H :    0.035784

  Mayer bond orders larger than 0.100000
B(  0-C ,  1-C ) :   1.6341 B(  0-C ,  6-C ) :   1.0021 B(  0-C , 17-C ) :   1.0683
B(  1-C ,  2-C ) :   1.1436 B(  1-C ,  4-C ) :   1.1416 B(  2-C ,  3-N ) :   2.9700
B(  4-C ,  5-N ) :   2.9678 B(  6-C ,  7-C ) :   1.2663 B(  6-C , 11-C ) :   1.4164
B(  7-C ,  8-C ) :   1.4211 B(  7-C , 15-C ) :   0.9681 B(  8-C ,  9-C ) :   1.2455
B(  8-C , 79-H ) :   1.0165 B(  9-C , 10-C ) :   1.2999 B(  9-C , 14-C ) :   1.1732
B( 10-C , 11-C ) :   1.3209 B( 10-C , 12-S ) :   1.1034 B( 11-C , 80-H ) :   0.9817
B( 12-S , 13-C ) :   1.1272 B( 13-C , 14-C ) :   1.6285 B( 13-C , 81-H ) :   0.9681
B( 14-C , 82-H ) :   0.9990 B( 15-C , 16-O ) :   2.1076 B( 15-C , 17-C ) :   0.9769
B( 17-C , 18-C ) :   1.5165 B( 18-C , 19-C ) :   1.2490 B( 18-C , 83-H ) :   0.9408
B( 19-C , 20-C ) :   1.3370 B( 19-C , 23-S ) :   1.0813 B( 20-C , 21-C ) :   1.3249
B( 20-C , 84-H ) :   1.0080 B( 21-C , 22-C ) :   1.3664 B( 21-C , 26-C ) :   0.9842
B( 22-C , 23-S ) :   1.1202 B( 22-C , 24-C ) :   1.2023 B( 24-C , 25-C ) :   1.4218
B( 24-C , 34-S ) :   1.1273 B( 25-C , 26-C ) :   0.9966 B( 25-C , 32-C ) :   1.2797
B( 26-C , 27-C ) :   1.7182 B( 27-C , 28-C ) :   1.1363 B( 27-C , 30-C ) :   1.1339
B( 28-C , 29-N ) :   2.9924 B( 30-C , 31-N ) :   2.9935 B( 32-C , 33-C ) :   1.4760
B( 32-C , 85-H ) :   0.9809 B( 33-C , 34-S ) :   1.0889 B( 33-C , 35-C ) :   1.1781
B( 35-C , 36-N ) :   1.7407 B( 35-C , 38-C ) :   0.1125 B( 35-C , 40-C ) :   1.0758
B( 36-N , 37-N ) :   1.2074 B( 37-N , 38-C ) :   1.7372 B( 38-C , 39-C ) :   1.0761
B( 38-C , 44-C ) :   1.1787 B( 39-C , 40-C ) :   1.1707 B( 39-C , 43-N ) :   1.6199
B( 40-C , 41-N ) :   1.6215 B( 41-N , 42-O ) :   1.0755 B( 41-N , 43-N ) :   0.1792
B( 42-O , 43-N ) :   1.0757 B( 44-C , 45-C ) :   1.4766 B( 44-C , 48-S ) :   1.0851
B( 45-C , 46-C ) :   1.2838 B( 45-C , 86-H ) :   0.9807 B( 46-C , 47-C ) :   1.4244
B( 46-C , 51-C ) :   0.9930 B( 47-C , 48-S ) :   1.1312 B( 47-C , 49-C ) :   1.1965
B( 49-C , 50-C ) :   1.4234 B( 49-C , 59-S ) :   1.1472 B( 50-C , 51-C ) :   0.9943
B( 50-C , 57-C ) :   1.3476 B( 51-C , 52-C ) :   1.7209 B( 52-C , 53-C ) :   1.1340
B( 52-C , 55-C ) :   1.1335 B( 53-C , 54-N ) :   2.9961 B( 55-C , 56-N ) :   2.9811
B( 57-C , 58-C ) :   1.4092 B( 57-C , 87-H ) :   0.9828 B( 58-C , 59-S ) :   1.1013
B( 58-C , 60-C ) :   1.1097 B( 60-C , 61-C ) :   1.6991 B( 60-C , 88-H ) :   0.9299
B( 61-C , 62-C ) :   1.0277 B( 61-C , 70-C ) :   0.9360 B( 62-C , 63-C ) :   1.6539
B( 62-C , 68-C ) :   1.0150 B( 63-C , 64-C ) :   1.1272 B( 63-C , 66-C ) :   1.1697
B( 64-C , 65-N ) :   2.9953 B( 66-C , 67-N ) :   2.9981 B( 68-C , 69-C ) :   1.2660
B( 68-C , 75-C ) :   1.4179 B( 69-C , 70-C ) :   0.9273 B( 69-C , 72-C ) :   1.4241
B( 70-C , 71-O ) :   2.2670 B( 72-C , 73-C ) :   1.2555 B( 72-C , 89-H ) :   1.0157
B( 73-C , 74-C ) :   1.2981 B( 73-C , 78-C ) :   1.1750 B( 74-C , 75-C ) :   1.3230
B( 74-C , 76-S ) :   1.0998 B( 75-C , 90-H ) :   0.9855 B( 76-S , 77-C ) :   1.1281
B( 77-C , 78-C ) :   1.6265 B( 77-C , 91-H ) :   0.9688 B( 78-C , 92-H ) :   0.9996

-----------------------------------------------------------------------------
         ABSORPTION SPECTRUM VIA TRANSITION ELECTRIC DIPOLE MOMENTS
-----------------------------------------------------------------------------
State   Energy  Wavelength   fosc         T2         TX        TY        TZ
        (cm-1)    (nm)                  (au**2)     (au)      (au)      (au)
-----------------------------------------------------------------------------
   0   13891.7    719.9   1.269478791  30.08467   5.18509  -1.63006   0.73652
   1   15532.1    643.8   0.133246366   2.82423  -1.62248  -0.29758   0.32130
   2   18452.2    541.9   0.978599545  17.45951  -3.92629   1.29125  -0.61356
   3   21052.2    475.0   0.000075736   0.00118   0.03237   0.00684  -0.00947
   4   21632.4    462.3   0.147759782   2.24867  -0.47820  -0.92942   1.07525
   5   22391.7    446.6   0.032563735   0.47876  -0.48805   0.07253  -0.48509
   6   23666.0    422.5   0.411136555   5.71922   2.26334   0.74337  -0.20960
   7   24749.0    404.1   0.017755851   0.23619  -0.03795   0.34626   0.33890
   8   25385.1    393.9   0.052020305   0.67464   0.70123  -0.41686   0.09561
   9   25895.1    386.2   0.062894635   0.79960   0.55196   0.54452  -0.44547
  10   27282.5    366.5   0.039124765   0.47211  -0.21170  -0.57414   0.31250
  11   27686.1    361.2   0.006959701   0.08276  -0.24937  -0.02527  -0.14119
  12   28118.4    355.6   0.137311457   1.60765  -1.00445  -0.65712   0.40858
  13   28315.4    353.2   0.079284614   0.92181  -0.46592  -0.69068   0.47717
  14   28577.1    349.9   0.006283377   0.07239   0.00943   0.26424  -0.04972
  15   28964.8    345.2   0.055833760   0.63460   0.79413  -0.00335  -0.06284
  16   29005.0    344.8   0.030111609   0.34177  -0.31115  -0.25877   0.42189
  17   29175.6    342.8   0.226504141   2.55583  -0.36970  -1.47732   0.48650
  18   29426.7    339.8   0.014943347   0.16718  -0.04827  -0.26288   0.30942
  19   29974.8    333.6   0.044443960   0.48813   0.28541   0.61850  -0.15532
  20   30399.0    329.0   0.533295442   5.77542  -2.15427   1.05790   0.12410
  21   30447.6    328.4   0.006539521   0.07071  -0.17218   0.14263   0.14394
  22   31005.2    322.5   0.059388454   0.63058   0.20028   0.41737  -0.64519
  23   31423.4    318.2   0.111674613   1.16998  -0.35424   0.85222  -0.56411
  24   31556.6    316.9   0.063449650   0.66193  -0.62389   0.51983   0.04969
  25   31927.2    313.2   0.068633954   0.70771  -0.73038   0.22976  -0.34852
  26   32068.3    311.8   0.508846379   5.22380   0.01694  -1.95526   1.18341
  27   32387.5    308.8   0.120194399   1.22175  -0.89640  -0.51072   0.39670
  28   32415.4    308.5   0.333383400   3.38585   1.53789   0.78549  -0.63540
  29   32617.7    306.6   0.051877221   0.52360   0.17016  -0.69199   0.12565
  30   32814.1    304.7   0.036204254   0.36322  -0.50063  -0.32450   0.08538
  31   32912.7    303.8   0.199382268   1.99434   1.11320   0.73308  -0.46659
  32   33117.5    302.0   0.301056815   2.99272   1.72957   0.03556  -0.00727
  33   33356.8    299.8   0.009169983   0.09050   0.25264  -0.04199   0.15784
  34   33478.6    298.7   0.098373012   0.96735   0.71551  -0.63436  -0.23019
  35   33520.8    298.3   0.194259878   1.90785   0.62272  -1.15331   0.43582
  36   34023.0    293.9   0.125076560   1.21026   0.42740   0.95464  -0.34095
  37   34448.5    290.3   0.338969638   3.23941  -1.41397   1.03986   0.39850
  38   35101.5    284.9   0.047171427   0.44241   0.22830   0.61282  -0.12141
  39   35284.8    283.4   0.508331921   4.74280   0.41732   1.84800  -1.07404
  40   35424.8    282.3   0.062938456   0.58490  -0.71182   0.26669  -0.08423
  41   35751.2    279.7   0.035596291   0.32779  -0.53960  -0.16830  -0.09106
  42   35921.2    278.4   0.001818160   0.01666  -0.12407  -0.02635   0.02401
  43   36144.3    276.7   0.260086787   2.36894  -1.13751   0.99519  -0.29085
  44   36208.8    276.2   0.082903283   0.75376   0.08795   0.65311  -0.56522
  45   36316.2    275.4   0.113215964   1.02632   0.90987  -0.27097   0.35361
  46   36607.2    273.2   0.069783519   0.62757  -0.72622  -0.30779   0.07377
  47   36844.7    271.4   0.013981581   0.12493   0.19492  -0.28239   0.08480
  48   37117.8    269.4   0.036658616   0.32514  -0.49864   0.26491   0.07950
  49   37303.9    268.1   0.036844648   0.32516  -0.47147   0.30133  -0.10987
  50   37371.7    267.6   0.027328458   0.24074   0.47646  -0.06784  -0.09549
  51   37800.5    264.5   0.098066897   0.85408   0.86410  -0.31509   0.09016
  52   37920.5    263.7   0.033951937   0.29476   0.53180  -0.09352   0.05655
  53   38064.8    262.7   0.024424064   0.21124  -0.42018   0.15824  -0.09820
  54   38140.7    262.2   0.011083972   0.09567  -0.28081   0.11823  -0.05328
  55   38344.1    260.8   0.040384940   0.34673  -0.54895  -0.20565   0.05559
  56   38378.4    260.6   0.020037841   0.17189  -0.24843  -0.29490   0.15232
  57   38696.8    258.4   0.011697750   0.09952  -0.28169   0.08053   0.11698
  58   38822.9    257.6   0.032251464   0.27349  -0.03771   0.52100  -0.02501
  59   39143.8    255.5   0.004945746   0.04160   0.00704   0.10518   0.17460
  60   39459.8    253.4   0.136479790   1.13865  -0.47343  -0.93038  -0.22113
  61   39584.8    252.6   0.045051371   0.37468   0.45020  -0.40695   0.07993
  62   40065.5    249.6   0.010085118   0.08287   0.04417  -0.03884  -0.28179
  63   40186.7    248.8   0.033244675   0.27234   0.37795  -0.35803   0.03619

FINAL SINGLE POINT ENERGY     -5485.499928049829

DIPOLE MOMENT
-------------
                                X             Y             Z
Electronic contribution:      3.75546     -15.20819       7.11116
Nuclear contribution   :     -4.37380      20.45601      -8.51521
                        -----------------------------------------
Total Dipole Moment    :     -0.61834       5.24782      -1.40405
                        -----------------------------------------
Magnitude (a.u.)       :      5.46748
Magnitude (Debye)      :     13.89722

Rotational constants in cm-1:     0.001692     0.000153     0.000142
Rotational constants in MHz :    50.711856     4.592963     4.254169

                             ****ORCA TERMINATED NORMALLY****
TOTAL RUN TIME: 0 days 0 hours 9 minutes 7 seconds 222 msec
