                         Program Version 4.2.0 -  RELEASE  -
|  1> # ORCA input file
|  2> # SCF done       -217.095931400261          0.000837737271
|  3> ! CAM-B3LYP def2-SVP def2/J RIJCOSX Grid4 TightSCF
|  4> %maxcore 5000
|  5> %tddft
|  6>     Mode sTDDFT
|  7>     Ethresh 5.0
|  8>     maxcore 5000
|  9> end
| 10>
| 11> %pal
| 12>   nprocs 6
| 13>   end
| 14> * xyz 0 1
| 15>    C       -0.68566         1.10519        -5.10946
| 16>    C        0.54084         1.59876        -5.45523
| 17>    F        0.65274         2.83796        -5.95141
| 18>    C        1.70089         0.81456        -5.29471
| 19>    F        2.89035         1.32443        -5.64221
| 20>    C        1.61834        -0.45259        -4.78929
| 21>    C        0.36899        -0.98906        -4.42194
| 22>    C       -0.80502        -0.19801        -4.58594
| 23>    C       -2.07041        -0.71591        -4.22703
| 24>    C       -2.15739        -1.98409        -3.71585
| 25>    C       -0.97985        -2.76145        -3.54449
| 26>    C        0.25495        -2.29204        -3.88845
| 27>    C       -1.33007        -4.06880        -2.95337
| 28>    O       -0.55162        -4.97028        -2.72544
| 29>    C       -2.78855        -4.01181        -2.69618
| 30>    C       -3.29845        -2.77456        -3.26534
| 31>    C       -4.61269        -2.42733        -3.43983
| 32>    C       -5.73023        -3.22580        -3.11381
| 33>    N       -6.69355        -3.81351        -2.90010
| 34>    C       -5.03335        -1.21801        -4.03340
| 35>    N       -5.43908        -0.25022        -4.49846
| 36>    C       -3.55333        -4.86625        -1.94761
| 37>    C       -3.25480        -6.10632        -1.35202
| 38>    C       -2.16829        -6.96228        -1.43048
| 39>    C       -2.33836        -8.12140        -0.68533
| 40>   Cl       -1.15303        -9.35418        -0.61241
| 41>    C       -3.55590        -8.20404        -0.00012
| 42>    S       -4.49800        -6.78675        -0.32286
| 43>    C       -4.01508        -9.24225         0.83951
| 44>    C       -5.21279        -9.29589         1.55295
| 45>   Cl       -6.38331        -8.04624         1.51782
| 46>    C       -5.38098       -10.45371         2.30189
| 47>    C       -4.32032       -11.33391         2.18179
| 48>    S       -3.09792       -10.69822         1.11960
| 49>    C       -4.14240       -12.61089         2.78403
| 50>    C       -5.03803       -13.19699         3.71847
| 51>    C       -4.81301       -14.50391         4.27765
| 52>    N       -5.69577       -15.00424         5.16685
| 53>    C       -6.73518       -14.29426         5.50136
| 54>    C       -6.95693       -13.01671         4.95202
| 55>    N       -6.12922       -12.49665         4.09139
| 56>    C       -3.68805       -15.29442         3.91952
| 57>    C       -2.79813       -14.69989         3.00421
| 58>    C       -3.01504       -13.38894         2.45722
| 59>    N       -2.03835       -13.03828         1.61696
| 60>    S       -0.96598       -14.22619         1.52531
| 61>    N       -1.67404       -15.24856         2.53708
| 62>    C       -3.42992       -16.60626         4.40632
| 63>    C       -4.15212       -17.35792         5.31613
| 64>    C       -3.60695       -18.61722         5.53208
| 65>   Cl       -4.30216       -19.74943         6.61395
| 66>    C       -2.45073       -18.87662         4.79759
| 67>    S       -2.04513       -17.48679         3.82785
| 68>    C       -1.68186       -20.06032         4.78433
| 69>    C       -0.51226       -20.32623         4.07277
| 70>   Cl        0.23892       -19.17273         3.05697
| 71>    C       -0.01628       -21.61416         4.24914
| 72>    C       -0.76656       -22.37200         5.12938
| 73>    S       -2.13705       -21.46021         5.70460
| 74>    C       -0.56108       -23.73524         5.44166
| 75>    C       -1.10934       -24.47864         6.44192
| 76>    C       -1.18433       -25.95915         6.30049
| 77>    O       -0.58153       -26.64469         5.50852
| 78>    C       -2.20177       -26.38541         7.28458
| 79>    C       -2.74681       -27.62251         7.47437
| 80>    C       -3.73798       -27.79155         8.46738
| 81>    C       -4.14922       -26.66986         9.24493
| 82>    C       -5.14220       -26.84552        10.22953
| 83>    C       -5.69895       -28.07655        10.43471
| 84>    C       -5.29139       -29.18515         9.66572
| 85>    C       -4.33150       -29.04714         8.70267
| 86>    F       -5.85610       -30.37987         9.88701
| 87>    F       -6.64164       -28.24156        11.37184
| 88>    C       -3.56210       -25.40180         9.03086
| 89>    C       -2.59881       -25.26398         8.06832
| 90>    C       -1.80436       -24.11027         7.65700
| 91>    C       -1.54582       -23.01027         8.43119
| 92>    C       -0.53606       -22.07442         8.12345
| 93>    N        0.31248       -21.32717         7.92681
| 94>    C       -2.18783       -22.74877         9.65786
| 95>    N       -2.69722       -22.48839        10.65274
| 96>    H       -1.56393         1.71787        -5.24040
| 97>    H        2.51564        -1.03979        -4.67202
| 98>    H       -2.93832        -0.09065        -4.35918
| 99>    H        1.13244        -2.90539        -3.75099
|100>    H       -4.56788        -4.54122        -1.74563
|101>    H       -1.28650        -6.74433        -2.00458
|102>    H       -6.23842       -10.65946         2.91314
|103>    H       -7.41332       -14.73298         6.22043
|104>    H       -7.81640       -12.41901         5.22309
|105>    H       -5.04009       -16.99186         5.79447
|106>    H        0.87659       -21.97451         3.77221
|107>    H        0.04203       -24.29070         4.72956
|108>    H       -2.42709       -28.46156         6.87540
|109>    H       -5.46286       -26.00807        10.82925
|110>    H       -4.03077       -29.90561         8.12276
|111>    H       -3.89575       -24.56624         9.62552
|112> *
|113>
|114>                          ****END OF INPUT****

CARTESIAN COORDINATES (ANGSTROEM)
---------------------------------
  C     -0.685660    1.105190   -5.109460
  C      0.540840    1.598760   -5.455230
  F      0.652740    2.837960   -5.951410
  C      1.700890    0.814560   -5.294710
  F      2.890350    1.324430   -5.642210
  C      1.618340   -0.452590   -4.789290
  C      0.368990   -0.989060   -4.421940
  C     -0.805020   -0.198010   -4.585940
  C     -2.070410   -0.715910   -4.227030
  C     -2.157390   -1.984090   -3.715850
  C     -0.979850   -2.761450   -3.544490
  C      0.254950   -2.292040   -3.888450
  C     -1.330070   -4.068800   -2.953370
  O     -0.551620   -4.970280   -2.725440
  C     -2.788550   -4.011810   -2.696180
  C     -3.298450   -2.774560   -3.265340
  C     -4.612690   -2.427330   -3.439830
  C     -5.730230   -3.225800   -3.113810
  N     -6.693550   -3.813510   -2.900100
  C     -5.033350   -1.218010   -4.033400
  N     -5.439080   -0.250220   -4.498460
  C     -3.553330   -4.866250   -1.947610
  C     -3.254800   -6.106320   -1.352020
  C     -2.168290   -6.962280   -1.430480
  C     -2.338360   -8.121400   -0.685330
  Cl    -1.153030   -9.354180   -0.612410
  C     -3.555900   -8.204040   -0.000120
  S     -4.498000   -6.786750   -0.322860
  C     -4.015080   -9.242250    0.839510
  C     -5.212790   -9.295890    1.552950
  Cl    -6.383310   -8.046240    1.517820
  C     -5.380980  -10.453710    2.301890
  C     -4.320320  -11.333910    2.181790
  S     -3.097920  -10.698220    1.119600
  C     -4.142400  -12.610890    2.784030
  C     -5.038030  -13.196990    3.718470
  C     -4.813010  -14.503910    4.277650
  N     -5.695770  -15.004240    5.166850
  C     -6.735180  -14.294260    5.501360
  C     -6.956930  -13.016710    4.952020
  N     -6.129220  -12.496650    4.091390
  C     -3.688050  -15.294420    3.919520
  C     -2.798130  -14.699890    3.004210
  C     -3.015040  -13.388940    2.457220
  N     -2.038350  -13.038280    1.616960
  S     -0.965980  -14.226190    1.525310
  N     -1.674040  -15.248560    2.537080
  C     -3.429920  -16.606260    4.406320
  C     -4.152120  -17.357920    5.316130
  C     -3.606950  -18.617220    5.532080
  Cl    -4.302160  -19.749430    6.613950
  C     -2.450730  -18.876620    4.797590
  S     -2.045130  -17.486790    3.827850
  C     -1.681860  -20.060320    4.784330
  C     -0.512260  -20.326230    4.072770
  Cl     0.238920  -19.172730    3.056970
  C     -0.016280  -21.614160    4.249140
  C     -0.766560  -22.372000    5.129380
  S     -2.137050  -21.460210    5.704600
  C     -0.561080  -23.735240    5.441660
  C     -1.109340  -24.478640    6.441920
  C     -1.184330  -25.959150    6.300490
  O     -0.581530  -26.644690    5.508520
  C     -2.201770  -26.385410    7.284580
  C     -2.746810  -27.622510    7.474370
  C     -3.737980  -27.791550    8.467380
  C     -4.149220  -26.669860    9.244930
  C     -5.142200  -26.845520   10.229530
  C     -5.698950  -28.076550   10.434710
  C     -5.291390  -29.185150    9.665720
  C     -4.331500  -29.047140    8.702670
  F     -5.856100  -30.379870    9.887010
  F     -6.641640  -28.241560   11.371840
  C     -3.562100  -25.401800    9.030860
  C     -2.598810  -25.263980    8.068320
  C     -1.804360  -24.110270    7.657000
  C     -1.545820  -23.010270    8.431190
  C     -0.536060  -22.074420    8.123450
  N      0.312480  -21.327170    7.926810
  C     -2.187830  -22.748770    9.657860
  N     -2.697220  -22.488390   10.652740
  H     -1.563930    1.717870   -5.240400
  H      2.515640   -1.039790   -4.672020
  H     -2.938320   -0.090650   -4.359180
  H      1.132440   -2.905390   -3.750990
  H     -4.567880   -4.541220   -1.745630
  H     -1.286500   -6.744330   -2.004580
  H     -6.238420  -10.659460    2.913140
  H     -7.413320  -14.732980    6.220430
  H     -7.816400  -12.419010    5.223090
  H     -5.040090  -16.991860    5.794470
  H      0.876590  -21.974510    3.772210
  H      0.042030  -24.290700    4.729560
  H     -2.427090  -28.461560    6.875400
  H     -5.462860  -26.008070   10.829250
  H     -4.030770  -29.905610    8.122760
  H     -3.895750  -24.566240    9.625520

 Total Charge           Charge          ....    0
 Multiplicity           Mult            ....    1
 Number of Electrons    NEL             ....  620
 Basis Dimension        Dim             .... 1250

ORBITAL ENERGIES
----------------

  NO   OCC          E(Eh)            E(eV)
   0   2.0000    -101.604270     -2764.7928
   1   2.0000    -101.603382     -2764.7686
   2   2.0000    -101.603165     -2764.7627
   3   2.0000    -101.602301     -2764.7392
   4   2.0000     -89.054179     -2423.2874
   5   2.0000     -88.975225     -2421.1390
   6   2.0000     -88.975210     -2421.1386
   7   2.0000     -88.967894     -2420.9395
   8   2.0000     -88.967222     -2420.9212
   9   2.0000     -24.798389      -674.7985
  10   2.0000     -24.797956      -674.7867
  11   2.0000     -24.797886      -674.7848
  12   2.0000     -24.797074      -674.7627
  13   2.0000     -19.220660      -523.0207
  14   2.0000     -19.216082      -522.8962
  15   2.0000     -14.461051      -393.5052
  16   2.0000     -14.460772      -393.4976
  17   2.0000     -14.446036      -393.0966
  18   2.0000     -14.445896      -393.0928
  19   2.0000     -14.417109      -392.3095
  20   2.0000     -14.416006      -392.2795
  21   2.0000     -14.414430      -392.2366
  22   2.0000     -14.413114      -392.2008
  23   2.0000     -10.381406      -282.4924
  24   2.0000     -10.381112      -282.4844
  25   2.0000     -10.381063      -282.4831
  26   2.0000     -10.380273      -282.4616
  27   2.0000     -10.371987      -282.2361
  28   2.0000     -10.368125      -282.1310
  29   2.0000     -10.345954      -281.5277
  30   2.0000     -10.345677      -281.5202
  31   2.0000     -10.345203      -281.5073
  32   2.0000     -10.344922      -281.4996
  33   2.0000     -10.344512      -281.4885
  34   2.0000     -10.342648      -281.4377
  35   2.0000     -10.342304      -281.4284
  36   2.0000     -10.342073      -281.4221
  37   2.0000     -10.341964      -281.4192
  38   2.0000     -10.341841      -281.4158
  39   2.0000     -10.341417      -281.4043
  40   2.0000     -10.340397      -281.3765
  41   2.0000     -10.338871      -281.3350
  42   2.0000     -10.338317      -281.3199
  43   2.0000     -10.337774      -281.3051
  44   2.0000     -10.337201      -281.2895
  45   2.0000     -10.326329      -280.9937
  46   2.0000     -10.324240      -280.9369
  47   2.0000     -10.323158      -280.9074
  48   2.0000     -10.323085      -280.9054
  49   2.0000     -10.322070      -280.8778
  50   2.0000     -10.321529      -280.8631
  51   2.0000     -10.319592      -280.8104
  52   2.0000     -10.319529      -280.8087
  53   2.0000     -10.319431      -280.8060
  54   2.0000     -10.319245      -280.8009
  55   2.0000     -10.318877      -280.7909
  56   2.0000     -10.317850      -280.7630
  57   2.0000     -10.317605      -280.7563
  58   2.0000     -10.315078      -280.6875
  59   2.0000     -10.310957      -280.5754
  60   2.0000     -10.310510      -280.5632
  61   2.0000     -10.310069      -280.5512
  62   2.0000     -10.309735      -280.5422
  63   2.0000     -10.308396      -280.5057
  64   2.0000     -10.306690      -280.4593
  65   2.0000     -10.304192      -280.3913
  66   2.0000     -10.303089      -280.3613
  67   2.0000     -10.302506      -280.3454
  68   2.0000     -10.301938      -280.3300
  69   2.0000     -10.301657      -280.3223
  70   2.0000     -10.301385      -280.3149
  71   2.0000     -10.301263      -280.3116
  72   2.0000     -10.300777      -280.2984
  73   2.0000     -10.300545      -280.2921
  74   2.0000     -10.299842      -280.2729
  75   2.0000     -10.299067      -280.2519
  76   2.0000     -10.294431      -280.1257
  77   2.0000     -10.294390      -280.1246
  78   2.0000     -10.292781      -280.0808
  79   2.0000     -10.285308      -279.8775
  80   2.0000     -10.285179      -279.8739
  81   2.0000      -9.559049      -260.1149
  82   2.0000      -9.558155      -260.0906
  83   2.0000      -9.557961      -260.0853
  84   2.0000      -9.557097      -260.0618
  85   2.0000      -8.144870      -221.6332
  86   2.0000      -8.070079      -219.5980
  87   2.0000      -8.069702      -219.5878
  88   2.0000      -8.061532      -219.3654
  89   2.0000      -8.061066      -219.3528
  90   2.0000      -7.329196      -199.4376
  91   2.0000      -7.328167      -199.4095
  92   2.0000      -7.327930      -199.4031
  93   2.0000      -7.327197      -199.3832
  94   2.0000      -7.319122      -199.1634
  95   2.0000      -7.319008      -199.1603
  96   2.0000      -7.318283      -199.1406
  97   2.0000      -7.318198      -199.1383
  98   2.0000      -7.318127      -199.1364
  99   2.0000      -7.318007      -199.1331
 100   2.0000      -7.317207      -199.1113
 101   2.0000      -7.317064      -199.1074
 102   2.0000      -6.115885      -166.4217
 103   2.0000      -6.108246      -166.2138
 104   2.0000      -6.107762      -166.2007
 105   2.0000      -6.039443      -164.3416
 106   2.0000      -6.039217      -164.3354
 107   2.0000      -6.035173      -164.2254
 108   2.0000      -6.034850      -164.2166
 109   2.0000      -6.032032      -164.1399
 110   2.0000      -6.031442      -164.1239
 111   2.0000      -6.031184      -164.1169
 112   2.0000      -6.030713      -164.1040
 113   2.0000      -6.026518      -163.9899
 114   2.0000      -6.026037      -163.9768
 115   2.0000      -6.023271      -163.9015
 116   2.0000      -6.022763      -163.8877
 117   2.0000      -1.321052       -35.9477
 118   2.0000      -1.320396       -35.9298
 119   2.0000      -1.306197       -35.5434
 120   2.0000      -1.305542       -35.5256
 121   2.0000      -1.150270       -31.3004
 122   2.0000      -1.135847       -30.9080
 123   2.0000      -1.131811       -30.7981
 124   2.0000      -1.103524       -30.0284
 125   2.0000      -1.033959       -28.1355
 126   2.0000      -1.031556       -28.0701
 127   2.0000      -1.027051       -27.9475
 128   2.0000      -1.020125       -27.7590
 129   2.0000      -1.019825       -27.7509
 130   2.0000      -1.010709       -27.5028
 131   2.0000      -1.007936       -27.4273
 132   2.0000      -1.004110       -27.3232
 133   2.0000      -1.003914       -27.3179
 134   2.0000      -1.000687       -27.2301
 135   2.0000      -0.993936       -27.0464
 136   2.0000      -0.993648       -27.0385
 137   2.0000      -0.982078       -26.7237
 138   2.0000      -0.981641       -26.7118
 139   2.0000      -0.981307       -26.7027
 140   2.0000      -0.965120       -26.2623
 141   2.0000      -0.963429       -26.2162
 142   2.0000      -0.954562       -25.9750
 143   2.0000      -0.948451       -25.8087
 144   2.0000      -0.931724       -25.3535
 145   2.0000      -0.931668       -25.3520
 146   2.0000      -0.909850       -24.7583
 147   2.0000      -0.907137       -24.6844
 148   2.0000      -0.898941       -24.4614
 149   2.0000      -0.894085       -24.3293
 150   2.0000      -0.892212       -24.2783
 151   2.0000      -0.890291       -24.2260
 152   2.0000      -0.887956       -24.1625
 153   2.0000      -0.881533       -23.9877
 154   2.0000      -0.865717       -23.5574
 155   2.0000      -0.856896       -23.3173
 156   2.0000      -0.840891       -22.8818
 157   2.0000      -0.840135       -22.8612
 158   2.0000      -0.833499       -22.6807
 159   2.0000      -0.830726       -22.6052
 160   2.0000      -0.826479       -22.4896
 161   2.0000      -0.826185       -22.4816
 162   2.0000      -0.822881       -22.3917
 163   2.0000      -0.807457       -21.9720
 164   2.0000      -0.805984       -21.9319
 165   2.0000      -0.785382       -21.3713
 166   2.0000      -0.775721       -21.1084
 167   2.0000      -0.767559       -20.8863
 168   2.0000      -0.765803       -20.8385
 169   2.0000      -0.762538       -20.7497
 170   2.0000      -0.747989       -20.3538
 171   2.0000      -0.740034       -20.1374
 172   2.0000      -0.734079       -19.9753
 173   2.0000      -0.719877       -19.5888
 174   2.0000      -0.719600       -19.5813
 175   2.0000      -0.717012       -19.5109
 176   2.0000      -0.713044       -19.4029
 177   2.0000      -0.709580       -19.3086
 178   2.0000      -0.698953       -19.0195
 179   2.0000      -0.689321       -18.7574
 180   2.0000      -0.684609       -18.6291
 181   2.0000      -0.680552       -18.5188
 182   2.0000      -0.673509       -18.3271
 183   2.0000      -0.668067       -18.1790
 184   2.0000      -0.665601       -18.1119
 185   2.0000      -0.658375       -17.9153
 186   2.0000      -0.655996       -17.8506
 187   2.0000      -0.651367       -17.7246
 188   2.0000      -0.650125       -17.6908
 189   2.0000      -0.644952       -17.5500
 190   2.0000      -0.641873       -17.4663
 191   2.0000      -0.641605       -17.4590
 192   2.0000      -0.633568       -17.2403
 193   2.0000      -0.628907       -17.1134
 194   2.0000      -0.622877       -16.9494
 195   2.0000      -0.621934       -16.9237
 196   2.0000      -0.616630       -16.7793
 197   2.0000      -0.613145       -16.6845
 198   2.0000      -0.608645       -16.5621
 199   2.0000      -0.604557       -16.4508
 200   2.0000      -0.592360       -16.1189
 201   2.0000      -0.591346       -16.0913
 202   2.0000      -0.585606       -15.9352
 203   2.0000      -0.585493       -15.9321
 204   2.0000      -0.584947       -15.9172
 205   2.0000      -0.580884       -15.8067
 206   2.0000      -0.580150       -15.7867
 207   2.0000      -0.578172       -15.7329
 208   2.0000      -0.576622       -15.6907
 209   2.0000      -0.574010       -15.6196
 210   2.0000      -0.570531       -15.5249
 211   2.0000      -0.561537       -15.2802
 212   2.0000      -0.558143       -15.1878
 213   2.0000      -0.554575       -15.0907
 214   2.0000      -0.552634       -15.0379
 215   2.0000      -0.551210       -14.9992
 216   2.0000      -0.547266       -14.8919
 217   2.0000      -0.546592       -14.8735
 218   2.0000      -0.543393       -14.7865
 219   2.0000      -0.540317       -14.7028
 220   2.0000      -0.539870       -14.6906
 221   2.0000      -0.537558       -14.6277
 222   2.0000      -0.535261       -14.5652
 223   2.0000      -0.533030       -14.5045
 224   2.0000      -0.531035       -14.4502
 225   2.0000      -0.530834       -14.4447
 226   2.0000      -0.529012       -14.3952
 227   2.0000      -0.528530       -14.3820
 228   2.0000      -0.526827       -14.3357
 229   2.0000      -0.524371       -14.2689
 230   2.0000      -0.522702       -14.2234
 231   2.0000      -0.518582       -14.1113
 232   2.0000      -0.516539       -14.0557
 233   2.0000      -0.513654       -13.9772
 234   2.0000      -0.512602       -13.9486
 235   2.0000      -0.511103       -13.9078
 236   2.0000      -0.507990       -13.8231
 237   2.0000      -0.505359       -13.7515
 238   2.0000      -0.502994       -13.6872
 239   2.0000      -0.500752       -13.6262
 240   2.0000      -0.498062       -13.5530
 241   2.0000      -0.496929       -13.5221
 242   2.0000      -0.495995       -13.4967
 243   2.0000      -0.493666       -13.4333
 244   2.0000      -0.492283       -13.3957
 245   2.0000      -0.487963       -13.2782
 246   2.0000      -0.486768       -13.2456
 247   2.0000      -0.484899       -13.1948
 248   2.0000      -0.482849       -13.1390
 249   2.0000      -0.472445       -12.8559
 250   2.0000      -0.469151       -12.7662
 251   2.0000      -0.465831       -12.6759
 252   2.0000      -0.465090       -12.6557
 253   2.0000      -0.463913       -12.6237
 254   2.0000      -0.463226       -12.6050
 255   2.0000      -0.460859       -12.5406
 256   2.0000      -0.460659       -12.5352
 257   2.0000      -0.459775       -12.5111
 258   2.0000      -0.452821       -12.3219
 259   2.0000      -0.452165       -12.3040
 260   2.0000      -0.450759       -12.2658
 261   2.0000      -0.448951       -12.2166
 262   2.0000      -0.447324       -12.1723
 263   2.0000      -0.446200       -12.1417
 264   2.0000      -0.445907       -12.1337
 265   2.0000      -0.444271       -12.0892
 266   2.0000      -0.443246       -12.0613
 267   2.0000      -0.441980       -12.0269
 268   2.0000      -0.440375       -11.9832
 269   2.0000      -0.430662       -11.7189
 270   2.0000      -0.429643       -11.6912
 271   2.0000      -0.427298       -11.6274
 272   2.0000      -0.426959       -11.6181
 273   2.0000      -0.425900       -11.5893
 274   2.0000      -0.423533       -11.5249
 275   2.0000      -0.420738       -11.4489
 276   2.0000      -0.416461       -11.3325
 277   2.0000      -0.415738       -11.3128
 278   2.0000      -0.412911       -11.2359
 279   2.0000      -0.409322       -11.1382
 280   2.0000      -0.408850       -11.1254
 281   2.0000      -0.402767       -10.9598
 282   2.0000      -0.401887       -10.9359
 283   2.0000      -0.399252       -10.8642
 284   2.0000      -0.397895       -10.8273
 285   2.0000      -0.388298       -10.5661
 286   2.0000      -0.387498       -10.5443
 287   2.0000      -0.386424       -10.5151
 288   2.0000      -0.382516       -10.4088
 289   2.0000      -0.376278       -10.2390
 290   2.0000      -0.371891       -10.1197
 291   2.0000      -0.365752        -9.9526
 292   2.0000      -0.355412        -9.6713
 293   2.0000      -0.354227        -9.6390
 294   2.0000      -0.350278        -9.5316
 295   2.0000      -0.343063        -9.3352
 296   2.0000      -0.340247        -9.2586
 297   2.0000      -0.339316        -9.2333
 298   2.0000      -0.332500        -9.0478
 299   2.0000      -0.329880        -8.9765
 300   2.0000      -0.328387        -8.9359
 301   2.0000      -0.319778        -8.7016
 302   2.0000      -0.318988        -8.6801
 303   2.0000      -0.317465        -8.6387
 304   2.0000      -0.316779        -8.6200
 305   2.0000      -0.306033        -8.3276
 306   2.0000      -0.300932        -8.1888
 307   2.0000      -0.296013        -8.0549
 308   2.0000      -0.271965        -7.4006
 309   2.0000      -0.241730        -6.5778
 310   0.0000      -0.127038        -3.4569
 311   0.0000      -0.097046        -2.6408
 312   0.0000      -0.092975        -2.5300
 313   0.0000      -0.060939        -1.6582
 314   0.0000      -0.058232        -1.5846

MULLIKEN ATOMIC CHARGES
-----------------------
   0 C :   -0.109930
   1 C :    0.244190
   2 F :   -0.170706
   3 C :    0.239169
   4 F :   -0.172349
   5 C :   -0.108710
   6 C :    0.119030
   7 C :    0.115385
   8 C :   -0.085604
   9 C :    0.049707
  10 C :   -0.000338
  11 C :   -0.085683
  12 C :    0.159909
  13 O :   -0.155232
  14 C :   -0.094156
  15 C :    0.307331
  16 C :   -0.352341
  17 C :   -0.201864
  18 N :    0.159494
  19 C :   -0.183919
  20 N :    0.148993
  21 C :    0.053724
  22 C :   -0.101078
  23 C :    0.034165
  24 C :    0.052312
  25 Cl:   -0.055055
  26 C :   -0.081347
  27 S :    0.170502
  28 C :   -0.071222
  29 C :    0.085214
  30 Cl:   -0.055215
  31 C :    0.001779
  32 C :   -0.159131
  33 S :    0.176797
  34 C :    0.202995
  35 C :   -0.070543
  36 C :   -0.074787
  37 N :   -0.031570
  38 C :    0.039817
  39 C :    0.039496
  40 N :   -0.029793
  41 C :    0.206068
  42 C :   -0.013864
  43 C :   -0.012528
  44 N :   -0.324364
  45 S :    0.568990
  46 N :   -0.325235
  47 C :   -0.155612
  48 C :    0.002153
  49 C :    0.083805
  50 Cl:   -0.059915
  51 C :   -0.065091
  52 S :    0.173968
  53 C :   -0.079570
  54 C :    0.070862
  55 Cl:   -0.058058
  56 C :    0.049918
  57 C :   -0.076746
  58 S :    0.166138
  59 C :    0.059410
  60 C :   -0.136491
  61 C :    0.141495
  62 O :   -0.140985
  63 C :    0.012505
  64 C :   -0.079760
  65 C :    0.109205
  66 C :    0.109747
  67 C :   -0.105727
  68 C :    0.240465
  69 C :    0.238293
  70 C :   -0.100767
  71 F :   -0.172018
  72 F :   -0.171828
  73 C :   -0.078981
  74 C :    0.039223
  75 C :    0.247333
  76 C :   -0.312346
  77 C :   -0.212866
  78 N :    0.174849
  79 C :   -0.173375
  80 N :    0.152705
  81 H :    0.007055
  82 H :   -0.000740
  83 H :   -0.005280
  84 H :   -0.011064
  85 H :    0.015284
  86 H :    0.013550
  87 H :   -0.006666
  88 H :    0.021834
  89 H :    0.020867
  90 H :   -0.007170
  91 H :   -0.005183
  92 H :    0.026755
  93 H :   -0.009459
  94 H :    0.004729
  95 H :   -0.000607
  96 H :   -0.004351
Sum of atomic charges:   -0.0000000

LOEWDIN ATOMIC CHARGES
----------------------
   0 C :   -0.029368
   1 C :    0.066171
   2 F :   -0.049058
   3 C :    0.067365
   4 F :   -0.049785
   5 C :   -0.033772
   6 C :   -0.008823
   7 C :   -0.006613
   8 C :    0.016888
   9 C :   -0.022714
  10 C :   -0.051356
  11 C :    0.028502
  12 C :    0.087085
  13 O :   -0.142433
  14 C :   -0.098407
  15 C :    0.075690
  16 C :   -0.142117
  17 C :   -0.026428
  18 N :   -0.050325
  19 C :   -0.017431
  20 N :   -0.055170
  21 C :    0.049341
  22 C :   -0.186800
  23 C :   -0.021603
  24 C :   -0.176248
  25 Cl:    0.164349
  26 C :   -0.182310
  27 S :    0.471833
  28 C :   -0.218814
  29 C :   -0.163938
  30 Cl:    0.165250
  31 C :   -0.054637
  32 C :   -0.161613
  33 S :    0.490069
  34 C :   -0.040471
  35 C :   -0.004519
  36 C :   -0.005331
  37 N :   -0.023097
  38 C :    0.016458
  39 C :    0.016870
  40 N :   -0.023269
  41 C :   -0.038412
  42 C :   -0.047965
  43 C :   -0.047546
  44 N :   -0.298077
  45 S :    0.688055
  46 N :   -0.297733
  47 C :   -0.162201
  48 C :   -0.052742
  49 C :   -0.164873
  50 Cl:    0.162772
  51 C :   -0.215056
  52 S :    0.490392
  53 C :   -0.178478
  54 C :   -0.174242
  55 Cl:    0.164538
  56 C :   -0.024749
  57 C :   -0.186519
  58 S :    0.483846
  59 C :    0.054205
  60 C :   -0.099130
  61 C :    0.082913
  62 O :   -0.142864
  63 C :   -0.053320
  64 C :    0.030092
  65 C :   -0.009817
  66 C :   -0.005695
  67 C :   -0.030696
  68 C :    0.066834
  69 C :    0.066278
  70 C :   -0.032729
  71 F :   -0.049803
  72 F :   -0.049137
  73 C :    0.012848
  74 C :   -0.018768
  75 C :    0.059163
  76 C :   -0.140112
  77 C :   -0.037054
  78 N :   -0.045121
  79 C :   -0.018959
  80 N :   -0.051847
  81 H :    0.047653
  82 H :    0.044623
  83 H :    0.039941
  84 H :    0.039671
  85 H :    0.043638
  86 H :    0.038201
  87 H :    0.031794
  88 H :    0.030484
  89 H :    0.030355
  90 H :    0.031907
  91 H :    0.039955
  92 H :    0.052291
  93 H :    0.040579
  94 H :    0.046954
  95 H :    0.044786
  96 H :    0.039453

  Mayer bond orders larger than 0.100000
B(  0-C ,  1-C ) :   1.4393 B(  0-C ,  5-C ) :   0.1092 B(  0-C ,  7-C ) :   1.1876
B(  0-C , 81-H ) :   1.0075 B(  1-C ,  2-F ) :   1.1357 B(  1-C ,  3-C ) :   1.1921
B(  3-C ,  4-F ) :   1.1325 B(  3-C ,  5-C ) :   1.4420 B(  5-C ,  6-C ) :   1.1908
B(  5-C , 82-H ) :   1.0078 B(  6-C ,  7-C ) :   1.2591 B(  6-C , 11-C ) :   1.1865
B(  7-C ,  8-C ) :   1.2139 B(  8-C ,  9-C ) :   1.4497 B(  8-C , 83-H ) :   0.9909
B(  9-C , 10-C ) :   1.2253 B(  9-C , 15-C ) :   0.9792 B( 10-C , 11-C ) :   1.4697
B( 10-C , 12-C ) :   0.9481 B( 11-C , 84-H ) :   1.0169 B( 12-C , 13-O ) :   2.1767
B( 12-C , 14-C ) :   0.9439 B( 14-C , 15-C ) :   1.0799 B( 14-C , 21-C ) :   1.5743
B( 15-C , 16-C ) :   1.6265 B( 16-C , 17-C ) :   1.1382 B( 16-C , 19-C ) :   1.1487
B( 17-C , 18-N ) :   2.9890 B( 19-C , 20-N ) :   2.9664 B( 21-C , 22-C ) :   1.2273
B( 21-C , 85-H ) :   0.9169 B( 22-C , 23-C ) :   1.3980 B( 22-C , 27-S ) :   1.0769
B( 23-C , 24-C ) :   1.3051 B( 23-C , 86-H ) :   0.9867 B( 24-C , 25-Cl) :   1.0490
B( 24-C , 26-C ) :   1.3969 B( 26-C , 27-S ) :   1.1690 B( 26-C , 28-C ) :   1.2026
B( 28-C , 29-C ) :   1.4192 B( 28-C , 33-S ) :   1.0933 B( 29-C , 30-Cl) :   1.0401
B( 29-C , 31-C ) :   1.2681 B( 31-C , 32-C ) :   1.4199 B( 31-C , 87-H ) :   0.9936
B( 32-C , 33-S ) :   1.1160 B( 32-C , 34-C ) :   1.1819 B( 34-C , 35-C ) :   1.2715
B( 34-C , 41-C ) :   0.1341 B( 34-C , 43-C ) :   1.2010 B( 35-C , 36-C ) :   1.1165
B( 35-C , 40-N ) :   1.4591 B( 36-C , 37-N ) :   1.4615 B( 36-C , 41-C ) :   1.2686
B( 37-N , 38-C ) :   1.6761 B( 38-C , 39-C ) :   1.1861 B( 38-C , 88-H ) :   0.9741
B( 39-C , 40-N ) :   1.6796 B( 39-C , 89-H ) :   0.9743 B( 41-C , 42-C ) :   1.2017
B( 41-C , 47-C ) :   1.1840 B( 42-C , 43-C ) :   1.1223 B( 42-C , 46-N ) :   1.4596
B( 43-C , 44-N ) :   1.4605 B( 44-N , 45-S ) :   1.2844 B( 44-N , 46-N ) :   0.1576
B( 45-S , 46-N ) :   1.2841 B( 47-C , 48-C ) :   1.4185 B( 47-C , 52-S ) :   1.1142
B( 48-C , 49-C ) :   1.2652 B( 48-C , 90-H ) :   0.9950 B( 49-C , 50-Cl) :   1.0350
B( 49-C , 51-C ) :   1.4206 B( 51-C , 52-S ) :   1.0925 B( 51-C , 53-C ) :   1.2127
B( 53-C , 54-C ) :   1.4138 B( 53-C , 58-S ) :   1.1568 B( 54-C , 55-Cl) :   1.0380
B( 54-C , 56-C ) :   1.3034 B( 56-C , 57-C ) :   1.4029 B( 56-C , 91-H ) :   1.0098
B( 57-C , 58-S ) :   1.0868 B( 57-C , 59-C ) :   1.1520 B( 59-C , 60-C ) :   1.6290
B( 59-C , 92-H ) :   0.9478 B( 60-C , 61-C ) :   0.9432 B( 60-C , 75-C ) :   1.0361
B( 61-C , 62-O ) :   2.2738 B( 61-C , 63-C ) :   0.9161 B( 63-C , 64-C ) :   1.4764
B( 63-C , 74-C ) :   1.2220 B( 64-C , 65-C ) :   1.1944 B( 64-C , 93-H ) :   1.0158
B( 65-C , 66-C ) :   1.2572 B( 65-C , 70-C ) :   1.1938 B( 66-C , 67-C ) :   1.1898
B( 66-C , 73-C ) :   1.2145 B( 67-C , 68-C ) :   1.4423 B( 67-C , 70-C ) :   0.1087
B( 67-C , 94-H ) :   1.0066 B( 68-C , 69-C ) :   1.1918 B( 68-C , 72-F ) :   1.1334
B( 69-C , 70-C ) :   1.4432 B( 69-C , 71-F ) :   1.1334 B( 70-C , 95-H ) :   1.0065
B( 73-C , 74-C ) :   1.4587 B( 73-C , 96-H ) :   0.9941 B( 74-C , 75-C ) :   1.0007
B( 75-C , 76-C ) :   1.6577 B( 76-C , 77-C ) :   1.1490 B( 76-C , 79-C ) :   1.1370
B( 77-C , 78-N ) :   3.0296 B( 79-C , 80-N ) :   2.9869

-----------------------------------------------------------------------------
         ABSORPTION SPECTRUM VIA TRANSITION ELECTRIC DIPOLE MOMENTS
-----------------------------------------------------------------------------
State   Energy  Wavelength   fosc         T2         TX        TY        TZ
        (cm-1)    (nm)                  (au**2)     (au)      (au)      (au)
-----------------------------------------------------------------------------
   0   10227.9    977.7   1.256100837  40.43076  -0.47120   5.74313  -2.68797
   1   17553.5    569.7   0.062581965   1.17371   0.86933  -0.64634  -0.01506
   2   18375.4    544.2   0.532773716   9.54512   0.20333   2.52247  -1.77226
   3   19228.0    520.1   0.596297314  10.20948  -0.43052  -2.67811   1.68875
   4   23686.4    422.2   0.002191599   0.03046  -0.12838  -0.11084  -0.04114
   5   24167.1    413.8   0.023848255   0.32487   0.00274  -0.18113   0.54042
   6   24980.6    400.3   0.024711351   0.32566   0.03317  -0.42669   0.37749
   7   25123.7    398.0   0.012130305   0.15895  -0.25460   0.29527  -0.08335
   8   26126.5    382.8   0.083909411   1.05732   0.14606  -0.96081  -0.33590
   9   26161.6    382.2   0.034256863   0.43108   0.54953  -0.21815  -0.28549
  10   26537.9    376.8   0.018086660   0.22437  -0.19477   0.37465   0.21465
  11   26840.1    372.6   0.076348103   0.93646  -0.94106  -0.13134   0.18334
  12   27630.9    361.9   0.312577033   3.72423   0.28445   1.84866  -0.47515
  13   27868.4    358.8   0.119891733   1.41629  -0.85842  -0.63345   0.52739
  14   28281.2    353.6   0.000217203   0.00253  -0.00916   0.00826   0.04875
  15   28374.9    352.4   0.053392144   0.61947   0.01363  -0.77884  -0.11268
  16   28510.1    350.8   0.009272201   0.10707  -0.10385   0.24811   0.18634
  17   28684.1    348.6   0.030725197   0.35264   0.44744   0.27850  -0.27363
  18   29289.0    341.4   0.013253656   0.14897  -0.37964  -0.00442  -0.06947
  19   29525.2    338.7   0.099112238   1.10512   0.66834   0.71223  -0.38880
  20   29672.0    337.0   0.048727330   0.54063   0.27866   0.49647  -0.46530
  21   30057.1    332.7   0.203778810   2.23197   0.35554   1.24742  -0.74128
  22   30233.7    330.8   0.103569929   1.12776  -0.34013   0.98532  -0.20303
  23   30741.2    325.3   0.171546044   1.83711   0.49148  -1.21592   0.34218
  24   31038.4    322.2   0.008552504   0.09071   0.03195   0.08654   0.28671
  25   31637.9    316.1   0.160618254   1.67133   1.18809   0.48904  -0.14357
  26   32173.4    310.8   0.083934907   0.85886  -0.77837   0.16090   0.47657
  27   32240.8    310.2   0.030172504   0.30809   0.47202   0.27434  -0.10014
  28   32637.5    306.4   0.074314619   0.74961  -0.76598   0.25402   0.31361
  29   32779.3    305.1   0.116417732   1.16922   0.55541  -0.22189  -0.90083
  30   33273.7    300.5   0.379349769   3.75330  -1.47661  -1.06356   0.66466
  31   33446.3    299.0   0.006741821   0.06636  -0.04917  -0.19016  -0.16668
  32   33746.2    296.3   0.037232450   0.36322   0.56980  -0.12973  -0.14738
  33   33805.4    295.8   0.206451715   2.01052  -0.80608  -1.06223   0.48210
  34   33953.7    294.5   0.066984359   0.64947   0.20208   0.77522  -0.08763
  35   34140.6    292.9   0.016581075   0.15989   0.13114   0.36459  -0.09883
  36   34294.7    291.6   0.071740939   0.68868  -0.05221  -0.73961  -0.37273
  37   34724.4    288.0   0.096556731   0.91543  -0.87529  -0.18273   0.34044
  38   35061.5    285.2   0.264930320   2.48758  -1.31955  -0.81043   0.29930
  39   35317.2    283.1   0.011648315   0.10858   0.28917   0.13398  -0.08374
  40   35542.0    281.4   0.156796426   1.45235   0.41586   1.12200  -0.14322
  41   35790.0    279.4   0.181837365   1.67262  -0.85215  -0.87797   0.41906
  42   36014.7    277.7   0.147619152   1.34939  -1.11063  -0.33269   0.07222
  43   36148.1    276.6   0.066517157   0.60579  -0.27518  -0.66819   0.28912
  44   36452.7    274.3   0.389000203   3.51315  -1.30738   0.92342   0.97530
  45   36710.1    272.4   0.426193749   3.82206  -1.70632  -0.81667   0.49356
  46   37964.9    263.4   0.042234443   0.36623   0.41962   0.43519  -0.02760
  47   38097.7    262.5   0.015874580   0.13718  -0.16109   0.33078  -0.04258
  48   38215.1    261.7   0.019297444   0.16624  -0.26348   0.18742   0.24839
  49   38329.2    260.9   0.045711677   0.39262  -0.56309  -0.05253   0.26980
  50   38708.7    258.3   0.146453400   1.24557   0.93750  -0.13544  -0.59019
  51   38793.9    257.8   0.046825643   0.39737  -0.51344  -0.13720   0.33901
  52   38815.6    257.6   0.053581958   0.45445  -0.48817   0.39765  -0.24086
  53   39083.2    255.9   0.004558364   0.03840   0.15363  -0.04464  -0.11315
  54   39298.2    254.5   0.008892702   0.07450  -0.18968  -0.09602   0.17117
  55   39477.4    253.3   0.028401655   0.23685   0.07232  -0.30271  -0.37414
  56   39713.1    251.8   0.020755186   0.17206   0.14465  -0.31127   0.23291
  57   39915.0    250.5   0.040759161   0.33617  -0.28097   0.48725  -0.14080
  58   40090.9    249.4   0.034092568   0.27996  -0.18298   0.03392   0.49530
  59   40171.6    248.9   0.012976966   0.10635  -0.01485  -0.14811  -0.29016
  60   40297.7    248.2   0.009611880   0.07852   0.08239  -0.10114  -0.24801

FINAL SINGLE POINT ENERGY     -7034.182944700387

DIPOLE MOMENT
-------------
                                X             Y             Z
Electronic contribution:      4.96627       0.07429      -1.51957
Nuclear contribution   :     -4.88691      -1.37556       1.53507
                        -----------------------------------------
Total Dipole Moment    :      0.07936      -1.30127       0.01550
                        -----------------------------------------
Magnitude (a.u.)       :      1.30378
Magnitude (Debye)      :      3.31395

Rotational constants in cm-1:     0.002196     0.000127     0.000121
Rotational constants in MHz :    65.830704     3.793524     3.637917

                             ****ORCA TERMINATED NORMALLY****
TOTAL RUN TIME: 0 days 0 hours 10 minutes 15 seconds 14 msec
