                         Program Version 4.2.0 -  RELEASE  -
|  1> # ORCA input file
|  2> # SCF done       -203.178846860185          0.000482194080
|  3> ! CAM-B3LYP def2-SVP def2/J RIJCOSX Grid4 TightSCF
|  4> %maxcore 5000
|  5> %tddft
|  6>     Mode sTDDFT
|  7>     Ethresh 5.0
|  8>     maxcore 5000
|  9> end
| 10>
| 11> %pal
| 12>   nprocs 6
| 13>   end
| 14> * xyz 0 1
| 15>    C        0.31027       -10.67062        -8.96358
| 16>    C        1.66093       -10.85675        -9.06151
| 17>    F        2.18686       -11.40233       -10.16655
| 18>    C        2.51547       -10.47925        -8.00680
| 19>    F        3.83573       -10.67489        -8.12983
| 20>    C        2.00737        -9.91785        -6.86883
| 21>    C        0.62074        -9.70986        -6.73958
| 22>    C       -0.24539       -10.09472        -7.80373
| 23>    C       -1.64274        -9.90153        -7.69514
| 24>    C       -2.15707        -9.33461        -6.55943
| 25>    C       -1.28072        -8.94358        -5.50847
| 26>    C        0.06983        -9.12302        -5.57835
| 27>    C       -2.07350        -8.35120        -4.41862
| 28>    O       -1.64313        -7.87100        -3.38659
| 29>    C       -3.47515        -8.42338        -4.84543
| 30>    C       -3.52972        -9.01925        -6.16258
| 31>    C       -4.64725        -9.26379        -6.92109
| 32>    C       -5.97514        -8.97374        -6.54565
| 33>    N       -7.08255        -8.77114        -6.31639
| 34>    C       -4.61685        -9.84922        -8.20383
| 35>    N       -4.66297       -10.31739        -9.25120
| 36>    C       -4.53831        -7.96115        -4.10674
| 37>    C       -4.55277        -7.39935        -2.82626
| 38>    C       -5.73533        -6.95279        -2.22198
| 39>    S       -7.37449        -6.92025        -2.75719
| 40>    C       -7.86943        -6.18474        -1.24237
| 41>    C       -9.30205        -5.86246        -1.03136
| 42>    C       -6.83162        -5.98125        -0.39118
| 43>    C       -5.59377        -6.41477        -0.93140
| 44>    C       -4.25799        -6.46663        -0.50654
| 45>    S       -3.20716        -7.14956        -1.72607
| 46>    C       -3.70780        -6.02116         0.69672
| 47>    C       -2.37799        -6.21861         1.10990
| 48>    C       -2.08351        -5.56855         2.34838
| 49>    N       -0.87510        -5.62048         2.89766
| 50>    C        0.03780        -6.33189         2.26871
| 51>    C        1.38904        -6.37677         2.87830
| 52>    O        1.70312        -5.67690         3.82078
| 53>    C        2.32010        -7.32150         2.24647
| 54>    C        2.02575        -8.01206         1.14001
| 55>    C        0.73894        -7.91917         0.42316
| 56>    O        0.52714        -8.53838        -0.59585
| 57>    C       -0.27076        -7.03339         1.06046
| 58>    N       -1.45826        -6.95853         0.49348
| 59>    C       -3.18057        -4.90249         2.91479
| 60>    S       -4.57166        -5.08359         1.89432
| 61>    C       -3.09986        -4.23601         4.13956
| 62>    C       -4.05937        -3.63603         4.94187
| 63>    S       -5.76212        -3.40198         4.78316
| 64>    C       -5.81082        -2.60752         6.35257
| 65>    C       -7.11069        -2.11001         6.86450
| 66>    C       -4.59365        -2.53724         6.94514
| 67>    C       -3.56311        -3.11602         6.16008
| 68>    C       -2.18949        -3.32764         6.31205
| 69>    S       -1.53548        -4.13711         4.90546
| 70>    C       -1.36079        -2.88984         7.35982
| 71>    C       -0.06182        -3.24847         7.58678
| 72>    C        0.84165        -2.33304         8.33308
| 73>    O        0.51762        -1.41346         9.04912
| 74>    C        2.20652        -2.74404         7.93697
| 75>    C        3.40107        -2.13726         8.19862
| 76>    C        4.58339        -2.68711         7.65223
| 77>    C        4.50446        -3.85131         6.83275
| 78>    C        5.68742        -4.37857         6.27738
| 79>    C        6.89193        -3.78336         6.52630
| 80>    C        6.96931        -2.63480         7.33852
| 81>    C        5.84032        -2.09721         7.89004
| 82>    F        8.16420        -2.06971         7.56506
| 83>    F        8.01572        -4.28862         5.99722
| 84>    C        3.25524        -4.46523         6.58612
| 85>    C        2.12936        -3.92340         7.14186
| 86>    C        0.73546        -4.34484         7.07706
| 87>    C        0.31062        -5.62787         6.85646
| 88>    C       -1.02292        -6.03824         7.06128
| 89>    N       -2.09162        -6.40688         7.26278
| 90>    C        1.15747        -6.68728         6.47653
| 91>    N        1.78942        -7.59472         6.16841
| 92>    H       -0.32930       -10.96669        -9.78043
| 93>    H        2.67351        -9.63386        -6.06931
| 94>    H       -2.26840       -10.20828        -8.51747
| 95>    H        0.70409        -8.82327        -4.75812
| 96>    H       -5.52321        -8.02557        -4.55546
| 97>    H       -9.64427        -5.14179        -1.77362
| 98>    H       -9.45075        -5.44487        -0.03887
| 99>    H       -9.91384        -6.75778        -1.13574
|100>    H       -6.94334        -5.54259         0.58364
|101>    H        3.27898        -7.42196         2.73594
|102>    H        2.74117        -8.69271         0.69831
|103>    H       -7.54538        -1.39167         6.16996
|104>    H       -6.97454        -1.63077         7.83044
|105>    H       -7.81689        -2.93257         6.97454
|106>    H       -4.43051        -2.09137         7.90913
|107>    H       -1.75328        -2.10322         7.99601
|108>    H        3.44613        -1.24726         8.80776
|109>    H        5.64399        -5.25897         5.65586
|110>    H        5.91705        -1.21637         8.50813
|111>    H        3.20280        -5.32668         5.94015
|112> *
|113>
|114>                          ****END OF INPUT****

CARTESIAN COORDINATES (ANGSTROEM)
---------------------------------
  C      0.310270  -10.670620   -8.963580
  C      1.660930  -10.856750   -9.061510
  F      2.186860  -11.402330  -10.166550
  C      2.515470  -10.479250   -8.006800
  F      3.835730  -10.674890   -8.129830
  C      2.007370   -9.917850   -6.868830
  C      0.620740   -9.709860   -6.739580
  C     -0.245390  -10.094720   -7.803730
  C     -1.642740   -9.901530   -7.695140
  C     -2.157070   -9.334610   -6.559430
  C     -1.280720   -8.943580   -5.508470
  C      0.069830   -9.123020   -5.578350
  C     -2.073500   -8.351200   -4.418620
  O     -1.643130   -7.871000   -3.386590
  C     -3.475150   -8.423380   -4.845430
  C     -3.529720   -9.019250   -6.162580
  C     -4.647250   -9.263790   -6.921090
  C     -5.975140   -8.973740   -6.545650
  N     -7.082550   -8.771140   -6.316390
  C     -4.616850   -9.849220   -8.203830
  N     -4.662970  -10.317390   -9.251200
  C     -4.538310   -7.961150   -4.106740
  C     -4.552770   -7.399350   -2.826260
  C     -5.735330   -6.952790   -2.221980
  S     -7.374490   -6.920250   -2.757190
  C     -7.869430   -6.184740   -1.242370
  C     -9.302050   -5.862460   -1.031360
  C     -6.831620   -5.981250   -0.391180
  C     -5.593770   -6.414770   -0.931400
  C     -4.257990   -6.466630   -0.506540
  S     -3.207160   -7.149560   -1.726070
  C     -3.707800   -6.021160    0.696720
  C     -2.377990   -6.218610    1.109900
  C     -2.083510   -5.568550    2.348380
  N     -0.875100   -5.620480    2.897660
  C      0.037800   -6.331890    2.268710
  C      1.389040   -6.376770    2.878300
  O      1.703120   -5.676900    3.820780
  C      2.320100   -7.321500    2.246470
  C      2.025750   -8.012060    1.140010
  C      0.738940   -7.919170    0.423160
  O      0.527140   -8.538380   -0.595850
  C     -0.270760   -7.033390    1.060460
  N     -1.458260   -6.958530    0.493480
  C     -3.180570   -4.902490    2.914790
  S     -4.571660   -5.083590    1.894320
  C     -3.099860   -4.236010    4.139560
  C     -4.059370   -3.636030    4.941870
  S     -5.762120   -3.401980    4.783160
  C     -5.810820   -2.607520    6.352570
  C     -7.110690   -2.110010    6.864500
  C     -4.593650   -2.537240    6.945140
  C     -3.563110   -3.116020    6.160080
  C     -2.189490   -3.327640    6.312050
  S     -1.535480   -4.137110    4.905460
  C     -1.360790   -2.889840    7.359820
  C     -0.061820   -3.248470    7.586780
  C      0.841650   -2.333040    8.333080
  O      0.517620   -1.413460    9.049120
  C      2.206520   -2.744040    7.936970
  C      3.401070   -2.137260    8.198620
  C      4.583390   -2.687110    7.652230
  C      4.504460   -3.851310    6.832750
  C      5.687420   -4.378570    6.277380
  C      6.891930   -3.783360    6.526300
  C      6.969310   -2.634800    7.338520
  C      5.840320   -2.097210    7.890040
  F      8.164200   -2.069710    7.565060
  F      8.015720   -4.288620    5.997220
  C      3.255240   -4.465230    6.586120
  C      2.129360   -3.923400    7.141860
  C      0.735460   -4.344840    7.077060
  C      0.310620   -5.627870    6.856460
  C     -1.022920   -6.038240    7.061280
  N     -2.091620   -6.406880    7.262780
  C      1.157470   -6.687280    6.476530
  N      1.789420   -7.594720    6.168410
  H     -0.329300  -10.966690   -9.780430
  H      2.673510   -9.633860   -6.069310
  H     -2.268400  -10.208280   -8.517470
  H      0.704090   -8.823270   -4.758120
  H     -5.523210   -8.025570   -4.555460
  H     -9.644270   -5.141790   -1.773620
  H     -9.450750   -5.444870   -0.038870
  H     -9.913840   -6.757780   -1.135740
  H     -6.943340   -5.542590    0.583640
  H      3.278980   -7.421960    2.735940
  H      2.741170   -8.692710    0.698310
  H     -7.545380   -1.391670    6.169960
  H     -6.974540   -1.630770    7.830440
  H     -7.816890   -2.932570    6.974540
  H     -4.430510   -2.091370    7.909130
  H     -1.753280   -2.103220    7.996010
  H      3.446130   -1.247260    8.807760
  H      5.643990   -5.258970    5.655860
  H      5.917050   -1.216370    8.508130
  H      3.202800   -5.326680    5.940150

 Total Charge           Charge          ....    0
 Multiplicity           Mult            ....    1
 Number of Electrons    NEL             ....  558
 Basis Dimension        Dim             .... 1198

ORBITAL ENERGIES
----------------

  NO   OCC          E(Eh)            E(eV)
   0   2.0000     -89.010253     -2422.0921
   1   2.0000     -88.970240     -2421.0033
   2   2.0000     -88.969242     -2420.9762
   3   2.0000     -88.969092     -2420.9721
   4   2.0000     -88.965901     -2420.8852
   5   2.0000     -24.795469      -674.7190
   6   2.0000     -24.794294      -674.6870
   7   2.0000     -24.793760      -674.6725
   8   2.0000     -24.793540      -674.6665
   9   2.0000     -19.238598      -523.5089
  10   2.0000     -19.232185      -523.3343
  11   2.0000     -19.218045      -522.9496
  12   2.0000     -19.209882      -522.7275
  13   2.0000     -14.460216      -393.4825
  14   2.0000     -14.457818      -393.4172
  15   2.0000     -14.414775      -392.2460
  16   2.0000     -14.411286      -392.1510
  17   2.0000     -14.408505      -392.0754
  18   2.0000     -14.407552      -392.0494
  19   2.0000     -10.386224      -282.6235
  20   2.0000     -10.381530      -282.4958
  21   2.0000     -10.378191      -282.4049
  22   2.0000     -10.377307      -282.3809
  23   2.0000     -10.376091      -282.3478
  24   2.0000     -10.375769      -282.3390
  25   2.0000     -10.365530      -282.0604
  26   2.0000     -10.362422      -281.9758
  27   2.0000     -10.352675      -281.7106
  28   2.0000     -10.351038      -281.6661
  29   2.0000     -10.345077      -281.5039
  30   2.0000     -10.344142      -281.4784
  31   2.0000     -10.343275      -281.4548
  32   2.0000     -10.342663      -281.4382
  33   2.0000     -10.338788      -281.3327
  34   2.0000     -10.338031      -281.3121
  35   2.0000     -10.337815      -281.3062
  36   2.0000     -10.335068      -281.2315
  37   2.0000     -10.333715      -281.1947
  38   2.0000     -10.328051      -281.0406
  39   2.0000     -10.326966      -281.0110
  40   2.0000     -10.321955      -280.8747
  41   2.0000     -10.321780      -280.8699
  42   2.0000     -10.320393      -280.8322
  43   2.0000     -10.319935      -280.8197
  44   2.0000     -10.318575      -280.7827
  45   2.0000     -10.317754      -280.7604
  46   2.0000     -10.317134      -280.7435
  47   2.0000     -10.314798      -280.6799
  48   2.0000     -10.314597      -280.6744
  49   2.0000     -10.314570      -280.6737
  50   2.0000     -10.313640      -280.6484
  51   2.0000     -10.312090      -280.6062
  52   2.0000     -10.309962      -280.5483
  53   2.0000     -10.306779      -280.4617
  54   2.0000     -10.306516      -280.4546
  55   2.0000     -10.304472      -280.3990
  56   2.0000     -10.304210      -280.3918
  57   2.0000     -10.304113      -280.3892
  58   2.0000     -10.303654      -280.3767
  59   2.0000     -10.299495      -280.2635
  60   2.0000     -10.298572      -280.2384
  61   2.0000     -10.298336      -280.2320
  62   2.0000     -10.298124      -280.2262
  63   2.0000     -10.297840      -280.2185
  64   2.0000     -10.297076      -280.1977
  65   2.0000     -10.296546      -280.1833
  66   2.0000     -10.296162      -280.1728
  67   2.0000     -10.295336      -280.1503
  68   2.0000     -10.295174      -280.1459
  69   2.0000     -10.293329      -280.0957
  70   2.0000     -10.292805      -280.0815
  71   2.0000     -10.292348      -280.0690
  72   2.0000     -10.289836      -280.0007
  73   2.0000     -10.289137      -279.9816
  74   2.0000     -10.288803      -279.9726
  75   2.0000     -10.288766      -279.9716
  76   2.0000     -10.288038      -279.9518
  77   2.0000      -8.103869      -220.5175
  78   2.0000      -8.066254      -219.4939
  79   2.0000      -8.062488      -219.3915
  80   2.0000      -8.061741      -219.3711
  81   2.0000      -8.060944      -219.3494
  82   2.0000      -6.073018      -165.2552
  83   2.0000      -6.068869      -165.1423
  84   2.0000      -6.066554      -165.0793
  85   2.0000      -6.035987      -164.2475
  86   2.0000      -6.032165      -164.1435
  87   2.0000      -6.031696      -164.1308
  88   2.0000      -6.031361      -164.1217
  89   2.0000      -6.030667      -164.1028
  90   2.0000      -6.027570      -164.0185
  91   2.0000      -6.027515      -164.0170
  92   2.0000      -6.027045      -164.0042
  93   2.0000      -6.025872      -163.9723
  94   2.0000      -6.024177      -163.9262
  95   2.0000      -6.023222      -163.9002
  96   2.0000      -6.022723      -163.8866
  97   2.0000      -1.317675       -35.8558
  98   2.0000      -1.316088       -35.8126
  99   2.0000      -1.302831       -35.4518
 100   2.0000      -1.301329       -35.4110
 101   2.0000      -1.153028       -31.3755
 102   2.0000      -1.146549       -31.1992
 103   2.0000      -1.134798       -30.8794
 104   2.0000      -1.125190       -30.6180
 105   2.0000      -1.112478       -30.2721
 106   2.0000      -1.041352       -28.3366
 107   2.0000      -1.029483       -28.0137
 108   2.0000      -1.021379       -27.7931
 109   2.0000      -1.016665       -27.6649
 110   2.0000      -1.012593       -27.5540
 111   2.0000      -1.006414       -27.3859
 112   2.0000      -1.001474       -27.2515
 113   2.0000      -0.997259       -27.1368
 114   2.0000      -0.991664       -26.9845
 115   2.0000      -0.986706       -26.8496
 116   2.0000      -0.978515       -26.6267
 117   2.0000      -0.976240       -26.5648
 118   2.0000      -0.963493       -26.2180
 119   2.0000      -0.957994       -26.0683
 120   2.0000      -0.946607       -25.7585
 121   2.0000      -0.931232       -25.3401
 122   2.0000      -0.926914       -25.2226
 123   2.0000      -0.916407       -24.9367
 124   2.0000      -0.905350       -24.6358
 125   2.0000      -0.894293       -24.3349
 126   2.0000      -0.889733       -24.2109
 127   2.0000      -0.887137       -24.1402
 128   2.0000      -0.884864       -24.0784
 129   2.0000      -0.881984       -24.0000
 130   2.0000      -0.872579       -23.7441
 131   2.0000      -0.864117       -23.5138
 132   2.0000      -0.856251       -23.2998
 133   2.0000      -0.850611       -23.1463
 134   2.0000      -0.847719       -23.0676
 135   2.0000      -0.836994       -22.7758
 136   2.0000      -0.834416       -22.7056
 137   2.0000      -0.819287       -22.2939
 138   2.0000      -0.813412       -22.1341
 139   2.0000      -0.805010       -21.9054
 140   2.0000      -0.800044       -21.7703
 141   2.0000      -0.791599       -21.5405
 142   2.0000      -0.790016       -21.4974
 143   2.0000      -0.785476       -21.3739
 144   2.0000      -0.768553       -20.9134
 145   2.0000      -0.764826       -20.8120
 146   2.0000      -0.759656       -20.6713
 147   2.0000      -0.749776       -20.4024
 148   2.0000      -0.744627       -20.2623
 149   2.0000      -0.727018       -19.7832
 150   2.0000      -0.721437       -19.6313
 151   2.0000      -0.712628       -19.3916
 152   2.0000      -0.710772       -19.3411
 153   2.0000      -0.699204       -19.0263
 154   2.0000      -0.697268       -18.9736
 155   2.0000      -0.686951       -18.6929
 156   2.0000      -0.682045       -18.5594
 157   2.0000      -0.677212       -18.4279
 158   2.0000      -0.673834       -18.3360
 159   2.0000      -0.669638       -18.2218
 160   2.0000      -0.658312       -17.9136
 161   2.0000      -0.654074       -17.7983
 162   2.0000      -0.650876       -17.7112
 163   2.0000      -0.647277       -17.6133
 164   2.0000      -0.646063       -17.5803
 165   2.0000      -0.642904       -17.4943
 166   2.0000      -0.638183       -17.3658
 167   2.0000      -0.637622       -17.3506
 168   2.0000      -0.635238       -17.2857
 169   2.0000      -0.627004       -17.0616
 170   2.0000      -0.624709       -16.9992
 171   2.0000      -0.618387       -16.8272
 172   2.0000      -0.611813       -16.6483
 173   2.0000      -0.610483       -16.6121
 174   2.0000      -0.607820       -16.5396
 175   2.0000      -0.594867       -16.1871
 176   2.0000      -0.587529       -15.9875
 177   2.0000      -0.583892       -15.8885
 178   2.0000      -0.582241       -15.8436
 179   2.0000      -0.580824       -15.8050
 180   2.0000      -0.580156       -15.7869
 181   2.0000      -0.578258       -15.7352
 182   2.0000      -0.573138       -15.5959
 183   2.0000      -0.572299       -15.5731
 184   2.0000      -0.568471       -15.4689
 185   2.0000      -0.565524       -15.3887
 186   2.0000      -0.564648       -15.3649
 187   2.0000      -0.551469       -15.0062
 188   2.0000      -0.550366       -14.9762
 189   2.0000      -0.548845       -14.9348
 190   2.0000      -0.545460       -14.8427
 191   2.0000      -0.543959       -14.8019
 192   2.0000      -0.542722       -14.7682
 193   2.0000      -0.542331       -14.7576
 194   2.0000      -0.540516       -14.7082
 195   2.0000      -0.538910       -14.6645
 196   2.0000      -0.537611       -14.6291
 197   2.0000      -0.534278       -14.5384
 198   2.0000      -0.532269       -14.4838
 199   2.0000      -0.529068       -14.3967
 200   2.0000      -0.527318       -14.3490
 201   2.0000      -0.526714       -14.3326
 202   2.0000      -0.524324       -14.2676
 203   2.0000      -0.523059       -14.2332
 204   2.0000      -0.519855       -14.1460
 205   2.0000      -0.518295       -14.1035
 206   2.0000      -0.516933       -14.0665
 207   2.0000      -0.514506       -14.0004
 208   2.0000      -0.512961       -13.9584
 209   2.0000      -0.510737       -13.8979
 210   2.0000      -0.509585       -13.8665
 211   2.0000      -0.507861       -13.8196
 212   2.0000      -0.504719       -13.7341
 213   2.0000      -0.503195       -13.6926
 214   2.0000      -0.501762       -13.6536
 215   2.0000      -0.498121       -13.5546
 216   2.0000      -0.496510       -13.5107
 217   2.0000      -0.494870       -13.4661
 218   2.0000      -0.493579       -13.4310
 219   2.0000      -0.488234       -13.2855
 220   2.0000      -0.487021       -13.2525
 221   2.0000      -0.483436       -13.1550
 222   2.0000      -0.479889       -13.0584
 223   2.0000      -0.477725       -12.9996
 224   2.0000      -0.474490       -12.9115
 225   2.0000      -0.472493       -12.8572
 226   2.0000      -0.469678       -12.7806
 227   2.0000      -0.466349       -12.6900
 228   2.0000      -0.465811       -12.6754
 229   2.0000      -0.461577       -12.5601
 230   2.0000      -0.460496       -12.5307
 231   2.0000      -0.457676       -12.4540
 232   2.0000      -0.456056       -12.4099
 233   2.0000      -0.452573       -12.3151
 234   2.0000      -0.447996       -12.1906
 235   2.0000      -0.446184       -12.1413
 236   2.0000      -0.444094       -12.0844
 237   2.0000      -0.443821       -12.0770
 238   2.0000      -0.441142       -12.0041
 239   2.0000      -0.439944       -11.9715
 240   2.0000      -0.437073       -11.8933
 241   2.0000      -0.434785       -11.8311
 242   2.0000      -0.432059       -11.7569
 243   2.0000      -0.431780       -11.7493
 244   2.0000      -0.428773       -11.6675
 245   2.0000      -0.426541       -11.6068
 246   2.0000      -0.423426       -11.5220
 247   2.0000      -0.422598       -11.4995
 248   2.0000      -0.420675       -11.4471
 249   2.0000      -0.418921       -11.3994
 250   2.0000      -0.415124       -11.2961
 251   2.0000      -0.413759       -11.2590
 252   2.0000      -0.410515       -11.1707
 253   2.0000      -0.405632       -11.0378
 254   2.0000      -0.401240       -10.9183
 255   2.0000      -0.395101       -10.7512
 256   2.0000      -0.387104       -10.5336
 257   2.0000      -0.385823       -10.4988
 258   2.0000      -0.382677       -10.4132
 259   2.0000      -0.377953       -10.2846
 260   2.0000      -0.374286       -10.1848
 261   2.0000      -0.372782       -10.1439
 262   2.0000      -0.366477        -9.9723
 263   2.0000      -0.359133        -9.7725
 264   2.0000      -0.354750        -9.6533
 265   2.0000      -0.343128        -9.3370
 266   2.0000      -0.340425        -9.2634
 267   2.0000      -0.334231        -9.0949
 268   2.0000      -0.330757        -9.0004
 269   2.0000      -0.327619        -8.9150
 270   2.0000      -0.323978        -8.8159
 271   2.0000      -0.316169        -8.6034
 272   2.0000      -0.311530        -8.4772
 273   2.0000      -0.309193        -8.4136
 274   2.0000      -0.306257        -8.3337
 275   2.0000      -0.297736        -8.1018
 276   2.0000      -0.293869        -7.9966
 277   2.0000      -0.277018        -7.5381
 278   2.0000      -0.237101        -6.4518
 279   0.0000      -0.127844        -3.4788
 280   0.0000      -0.101390        -2.7590
 281   0.0000      -0.080786        -2.1983
 282   0.0000      -0.079143        -2.1536
 283   0.0000      -0.056628        -1.5409

MULLIKEN ATOMIC CHARGES
-----------------------
   0 C :   -0.109152
   1 C :    0.241480
   2 F :   -0.173045
   3 C :    0.238530
   4 F :   -0.173512
   5 C :   -0.105695
   6 C :    0.116145
   7 C :    0.114874
   8 C :   -0.087234
   9 C :    0.045779
  10 C :   -0.000927
  11 C :   -0.081895
  12 C :    0.169718
  13 O :   -0.170308
  14 C :   -0.098105
  15 C :    0.336357
  16 C :   -0.359998
  17 C :   -0.186451
  18 N :    0.139495
  19 C :   -0.185195
  20 N :    0.147013
  21 C :   -0.061549
  22 C :   -0.082940
  23 C :   -0.053114
  24 S :    0.150424
  25 C :   -0.203527
  26 C :    0.116707
  27 C :   -0.006371
  28 C :    0.096760
  29 C :   -0.082789
  30 S :    0.253100
  31 C :   -0.166098
  32 C :    0.039912
  33 C :    0.023081
  34 N :    0.029567
  35 C :   -0.106251
  36 C :    0.168027
  37 O :   -0.122882
  38 C :   -0.009262
  39 C :   -0.014486
  40 C :    0.138661
  41 O :   -0.091337
  42 C :   -0.115589
  43 N :    0.068763
  44 C :   -0.110375
  45 S :    0.210580
  46 C :   -0.122133
  47 C :   -0.062238
  48 S :    0.116737
  49 C :   -0.199148
  50 C :    0.115243
  51 C :    0.006351
  52 C :    0.165477
  53 C :   -0.113598
  54 S :    0.187191
  55 C :    0.035243
  56 C :   -0.139757
  57 C :    0.140201
  58 O :   -0.147399
  59 C :    0.014006
  60 C :   -0.086220
  61 C :    0.109735
  62 C :    0.115514
  63 C :   -0.107549
  64 C :    0.240162
  65 C :    0.236711
  66 C :   -0.104394
  67 F :   -0.174966
  68 F :   -0.175041
  69 C :   -0.065006
  70 C :    0.027091
  71 C :    0.247977
  72 C :   -0.305341
  73 C :   -0.211711
  74 N :    0.164129
  75 C :   -0.169678
  76 N :    0.145290
  77 H :    0.007220
  78 H :   -0.002363
  79 H :   -0.007980
  80 H :   -0.005894
  81 H :    0.007579
  82 H :    0.044448
  83 H :    0.023931
  84 H :    0.043743
  85 H :   -0.019823
  86 H :    0.019556
  87 H :    0.020510
  88 H :    0.041393
  89 H :    0.029935
  90 H :    0.045036
  91 H :   -0.012872
  92 H :    0.014765
  93 H :   -0.011613
  94 H :   -0.000489
  95 H :   -0.002050
  96 H :   -0.004798
Sum of atomic charges:   -0.0000000

LOEWDIN ATOMIC CHARGES
----------------------
   0 C :   -0.029700
   1 C :    0.065549
   2 F :   -0.050409
   3 C :    0.066531
   4 F :   -0.050881
   5 C :   -0.033603
   6 C :   -0.009302
   7 C :   -0.007079
   8 C :    0.015884
   9 C :   -0.021224
  10 C :   -0.050331
  11 C :    0.030048
  12 C :    0.082918
  13 O :   -0.155731
  14 C :   -0.107039
  15 C :    0.074967
  16 C :   -0.146177
  17 C :   -0.021006
  18 N :   -0.057635
  19 C :   -0.017897
  20 N :   -0.058383
  21 C :    0.046702
  22 C :   -0.200948
  23 C :   -0.164865
  24 S :    0.427152
  25 C :   -0.136668
  26 C :   -0.058150
  27 C :   -0.082703
  28 C :   -0.080785
  29 C :   -0.174345
  30 S :    0.556412
  31 C :   -0.186962
  32 C :   -0.041990
  33 C :   -0.046060
  34 N :   -0.010597
  35 C :   -0.032082
  36 C :    0.068486
  37 O :   -0.104724
  38 C :   -0.009428
  39 C :   -0.007536
  40 C :    0.055690
  41 O :   -0.088568
  42 C :   -0.034075
  43 N :    0.003403
  44 C :   -0.193892
  45 S :    0.515083
  46 C :   -0.179208
  47 C :   -0.193792
  48 S :    0.388240
  49 C :   -0.129347
  50 C :   -0.058067
  51 C :   -0.064405
  52 C :   -0.039103
  53 C :   -0.182389
  54 S :    0.537476
  55 C :    0.043638
  56 C :   -0.094766
  57 C :    0.081825
  58 O :   -0.148750
  59 C :   -0.052437
  60 C :    0.025860
  61 C :   -0.010394
  62 C :   -0.005945
  63 C :   -0.031361
  64 C :    0.064888
  65 C :    0.064509
  66 C :   -0.033790
  67 F :   -0.052527
  68 F :   -0.052526
  69 C :    0.019311
  70 C :   -0.015646
  71 C :    0.059456
  72 C :   -0.140326
  73 C :   -0.036018
  74 N :   -0.055451
  75 C :   -0.014597
  76 N :   -0.066560
  77 H :    0.047519
  78 H :    0.044312
  79 H :    0.039551
  80 H :    0.042105
  81 H :    0.044283
  82 H :    0.043043
  83 H :    0.039963
  84 H :    0.042849
  85 H :    0.020089
  86 H :    0.047501
  87 H :    0.046845
  88 H :    0.041793
  89 H :    0.042813
  90 H :    0.043388
  91 H :    0.034410
  92 H :    0.047660
  93 H :    0.039195
  94 H :    0.045085
  95 H :    0.043902
  96 H :    0.037845

  Mayer bond orders larger than 0.100000
B(  0-C ,  1-C ) :   1.4379 B(  0-C ,  5-C ) :   0.1089 B(  0-C ,  7-C ) :   1.1905
B(  0-C , 77-H ) :   1.0064 B(  1-C ,  2-F ) :   1.1315 B(  1-C ,  3-C ) :   1.1958
B(  3-C ,  4-F ) :   1.1318 B(  3-C ,  5-C ) :   1.4388 B(  5-C ,  6-C ) :   1.1943
B(  5-C , 78-H ) :   1.0072 B(  6-C ,  7-C ) :   1.2591 B(  6-C , 11-C ) :   1.1798
B(  7-C ,  8-C ) :   1.2099 B(  8-C ,  9-C ) :   1.4579 B(  8-C , 79-H ) :   0.9891
B(  9-C , 10-C ) :   1.2214 B(  9-C , 15-C ) :   0.9768 B( 10-C , 11-C ) :   1.4768
B( 10-C , 12-C ) :   0.9522 B( 11-C , 80-H ) :   1.0168 B( 12-C , 13-O ) :   2.1234
B( 12-C , 14-C ) :   0.9831 B( 14-C , 15-C ) :   1.0918 B( 14-C , 21-C ) :   1.4764
B( 15-C , 16-C ) :   1.6092 B( 16-C , 17-C ) :   1.1485 B( 16-C , 19-C ) :   1.1511
B( 17-C , 18-N ) :   2.9529 B( 19-C , 20-N ) :   2.9582 B( 21-C , 22-C ) :   1.2969
B( 21-C , 81-H ) :   0.9430 B( 22-C , 23-C ) :   1.3507 B( 22-C , 30-S ) :   1.0699
B( 23-C , 24-S ) :   1.0941 B( 23-C , 28-C ) :   1.3120 B( 24-S , 25-C ) :   1.0906
B( 25-C , 26-C ) :   1.0692 B( 25-C , 27-C ) :   1.6694 B( 26-C , 82-H ) :   0.9475
B( 26-C , 83-H ) :   0.9565 B( 26-C , 84-H ) :   0.9477 B( 27-C , 28-C ) :   1.1482
B( 27-C , 85-H ) :   0.9850 B( 28-C , 29-C ) :   1.2723 B( 29-C , 30-S ) :   1.1211
B( 29-C , 31-C ) :   1.3038 B( 31-C , 32-C ) :   1.2779 B( 31-C , 44-C ) :   0.1112
B( 31-C , 45-S ) :   1.1485 B( 32-C , 33-C ) :   1.2060 B( 32-C , 43-N ) :   1.4486
B( 33-C , 34-N ) :   1.4169 B( 33-C , 44-C ) :   1.2854 B( 34-N , 35-C ) :   1.6910
B( 35-C , 36-C ) :   0.9074 B( 35-C , 42-C ) :   1.1206 B( 36-C , 37-O ) :   2.1597
B( 36-C , 38-C ) :   1.0305 B( 38-C , 39-C ) :   1.6756 B( 38-C , 86-H ) :   0.9992
B( 39-C , 40-C ) :   1.0198 B( 39-C , 87-H ) :   0.9966 B( 40-C , 41-O ) :   2.2554
B( 40-C , 42-C ) :   0.8930 B( 42-C , 43-N ) :   1.6916 B( 44-C , 45-S ) :   1.1408
B( 44-C , 46-C ) :   1.2788 B( 46-C , 47-C ) :   1.4224 B( 46-C , 54-S ) :   1.1627
B( 47-C , 48-S ) :   1.0480 B( 47-C , 52-C ) :   1.2766 B( 48-S , 49-C ) :   1.0755
B( 49-C , 50-C ) :   1.0723 B( 49-C , 51-C ) :   1.6641 B( 50-C , 88-H ) :   0.9477
B( 50-C , 89-H ) :   0.9559 B( 50-C , 90-H ) :   0.9468 B( 51-C , 52-C ) :   1.1601
B( 51-C , 91-H ) :   0.9915 B( 52-C , 53-C ) :   1.3277 B( 53-C , 54-S ) :   1.0693
B( 53-C , 55-C ) :   1.1924 B( 55-C , 56-C ) :   1.6023 B( 55-C , 92-H ) :   0.9504
B( 56-C , 57-C ) :   0.9490 B( 56-C , 71-C ) :   1.0383 B( 57-C , 58-O ) :   2.2667
B( 57-C , 59-C ) :   0.9159 B( 59-C , 60-C ) :   1.4780 B( 59-C , 70-C ) :   1.2176
B( 60-C , 61-C ) :   1.1946 B( 60-C , 93-H ) :   1.0156 B( 61-C , 62-C ) :   1.2566
B( 61-C , 66-C ) :   1.1954 B( 62-C , 63-C ) :   1.1909 B( 62-C , 69-C ) :   1.2040
B( 63-C , 64-C ) :   1.4400 B( 63-C , 66-C ) :   0.1092 B( 63-C , 94-H ) :   1.0075
B( 64-C , 65-C ) :   1.1934 B( 64-C , 68-F ) :   1.1305 B( 65-C , 66-C ) :   1.4426
B( 65-C , 67-F ) :   1.1300 B( 66-C , 95-H ) :   1.0065 B( 69-C , 70-C ) :   1.4756
B( 69-C , 96-H ) :   0.9897 B( 70-C , 71-C ) :   0.9989 B( 71-C , 72-C ) :   1.6572
B( 72-C , 73-C ) :   1.1499 B( 72-C , 75-C ) :   1.1501 B( 73-C , 74-N ) :   3.0253
B( 75-C , 76-N ) :   2.9749

-----------------------------------------------------------------------------
         ABSORPTION SPECTRUM VIA TRANSITION ELECTRIC DIPOLE MOMENTS
-----------------------------------------------------------------------------
State   Energy  Wavelength   fosc         T2         TX        TY        TZ
        (cm-1)    (nm)                  (au**2)     (au)      (au)      (au)
-----------------------------------------------------------------------------
   0    8746.1   1143.4   0.742775316  27.95876   1.41606   1.82185   4.75756
   1   14226.2    702.9   0.045930275   1.06288  -0.29897  -0.32006  -0.93331
   2   17413.7    574.3   0.024693745   0.46684  -0.24889   0.42112   0.47703
   3   17965.0    556.6   0.337420375   6.18329   1.26769   0.38384   2.10450
   4   19623.4    509.6   0.380664978   6.38622  -1.55539   1.21588   1.57754
   5   21122.3    473.4   0.025162259   0.39218   0.50165   0.21157  -0.30945
   6   22330.1    447.8   0.023508693   0.34659   0.35253  -0.43106  -0.19105
   7   22885.6    437.0   0.017809463   0.25619  -0.29123   0.08577   0.40499
   8   23397.6    427.4   0.044654992   0.62831   0.68467  -0.35124  -0.19017
   9   23575.6    424.2   0.013910611   0.19425  -0.40617   0.16295  -0.05219
  10   24137.3    414.3   0.015923354   0.21718  -0.34996   0.22441   0.21059
  11   24854.1    402.3   0.004557197   0.06036  -0.18541   0.15815   0.03123
  12   25010.4    399.8   0.079086937   1.04102  -0.91757   0.31780   0.31319
  13   25239.5    396.2   0.007316048   0.09543  -0.03421   0.30333   0.04740
  14   25444.2    393.0   0.000778858   0.01008  -0.00798  -0.07144   0.07007
  15   25911.9    385.9   0.163598900   2.07853   0.93642   0.74950   0.79993
  16   26563.6    376.5   0.012378309   0.15341  -0.30397  -0.18383  -0.16497
  17   26961.4    370.9   0.013055431   0.15941  -0.33488   0.16336   0.14348
  18   27180.9    367.9   0.022128200   0.26801  -0.41947   0.19272   0.23435
  19   27571.6    362.7   0.068094578   0.81307   0.83709   0.14629   0.30156
  20   27777.4    360.0   0.010372126   0.12293   0.24528  -0.24316  -0.06032
  21   28082.6    356.1   0.091313683   1.07047   0.11831  -0.85634  -0.56847
  22   28888.4    346.2   0.048717990   0.55519  -0.41810  -0.19481  -0.58518
  23   29234.7    342.1   0.041431239   0.46656  -0.65567  -0.00660  -0.19135
  24   29826.3    335.3   0.071951678   0.79418  -0.76180   0.37397   0.27201
  25   29933.8    334.1   0.015573331   0.17128  -0.40975  -0.00047   0.05814
  26   30196.3    331.2   0.095997320   1.04660  -0.96435   0.12684  -0.31709
  27   30323.4    329.8   0.347882661   3.77685   1.55997  -0.58467  -1.00075
  28   30505.4    327.8   0.060901846   0.65725   0.72999   0.00975   0.35253
  29   30919.9    323.4   0.119934152   1.27697   1.05976   0.38077   0.09431
  30   31225.0    320.3   0.041145429   0.43381   0.65861  -0.00486  -0.00391
  31   31553.8    316.9   0.040941601   0.42716   0.54633   0.35512  -0.05069
  32   31694.3    315.5   0.150022789   1.55830  -1.19155   0.35906   0.09787
  33   31787.3    314.6   0.026170324   0.27104   0.27445  -0.24648  -0.36738
  34   31927.2    313.2   0.142811074   1.47257   1.15151  -0.15487  -0.35017
  35   32117.0    311.4   0.036044019   0.36947   0.56771   0.18196  -0.11859
  36   32199.2    310.6   0.031361273   0.32064   0.55254  -0.05817  -0.10935
  37   32482.4    307.9   0.023324286   0.23639  -0.45346   0.08681   0.15242
  38   32560.2    307.1   0.017151088   0.17341   0.40109   0.03396  -0.10671
  39   32970.7    303.3   0.075014584   0.74902   0.84469  -0.18832   0.00716
  40   33083.4    302.3   0.023109334   0.22996  -0.42694  -0.07261   0.20595
  41   33449.7    299.0   0.205783954   2.02533   1.38892  -0.29839  -0.08475
  42   33936.5    294.7   0.190054975   1.84369   1.31366  -0.34339  -0.00863
  43   34037.3    293.8   0.017502504   0.16929   0.23393  -0.33123  -0.06964
  44   34390.1    290.8   0.206617526   1.97792  -0.99977  -0.92203  -0.35812
  45   34692.9    288.2   0.007699067   0.07306  -0.08060   0.08844   0.24237
  46   34909.4    286.5   0.009990164   0.09421   0.11630  -0.27457   0.07280
  47   35234.1    283.8   0.176350744   1.64774  -1.27215   0.13689  -0.10310
  48   35270.7    283.5   0.350257466   3.26925  -1.75256  -0.42615  -0.12725
  49   35579.0    281.1   0.054402106   0.50338   0.53692   0.40678   0.22277
  50   35827.5    279.1   0.031622048   0.29057   0.42684   0.29179   0.15243
  51   36074.9    277.2   0.035734930   0.32611   0.06662   0.52840   0.20606
  52   36150.9    276.6   0.020679844   0.18832  -0.30279  -0.27242   0.14977
  53   36413.5    274.6   0.203942662   1.84383  -1.32352  -0.28608  -0.10139
  54   36532.2    273.7   0.274731361   2.47576  -1.55556  -0.22607  -0.06987
  55   36592.6    273.3   0.060924661   0.54812  -0.52926   0.18226  -0.48455
  56   36761.1    272.0   0.088692371   0.79428  -0.43302  -0.55541  -0.54616
  57   36920.4    270.9   0.142705227   1.27247  -0.55545   0.80439   0.56295
  58   37135.9    269.3   0.264004032   2.34041   1.47788  -0.39508  -0.01402
  59   37264.0    268.4   0.173510837   1.53290  -1.16282   0.37927   0.19208
  60   37452.6    267.0   0.035279898   0.31011  -0.23477   0.08941   0.49699
  61   37650.5    265.6   0.044143730   0.38599  -0.45270   0.22537   0.36092
  62   37775.9    264.7   0.000414808   0.00361  -0.03657  -0.03735   0.02971
  63   37857.6    264.1   0.178690624   1.55391  -1.16585   0.42357   0.12364
  64   37941.7    263.6   0.021893473   0.18996  -0.37241   0.20614   0.09370
  65   38033.5    262.9   0.005116525   0.04429   0.12969  -0.11809   0.11629
  66   38431.1    260.2   0.006749070   0.05781  -0.14141   0.10132   0.16599
  67   38652.2    258.7   0.011670796   0.09940  -0.08670   0.28116   0.11330
  68   38860.0    257.3   0.030337898   0.25701   0.49004  -0.04168   0.12302
  69   39010.7    256.3   0.013196402   0.11136   0.15232   0.03919  -0.29432
  70   39296.9    254.5   0.092838051   0.77776   0.14912   0.53513   0.68495
  71   39489.0    253.2   0.011201664   0.09339  -0.28621   0.06117   0.08790
  72   39564.4    252.8   0.009257973   0.07703   0.08578   0.20295   0.16879
  73   39827.3    251.1   0.132922922   1.09874   0.84726  -0.28998  -0.54479
  74   40051.2    249.7   0.012748330   0.10479  -0.24636  -0.14856  -0.14841

FINAL SINGLE POINT ENERGY     -5237.249370112469

DIPOLE MOMENT
-------------
                                X             Y             Z
Electronic contribution:     43.97358     -13.93292     -19.91940
Nuclear contribution   :    -45.08697      16.30277      21.31675
                        -----------------------------------------
Total Dipole Moment    :     -1.11339       2.36985       1.39736
                        -----------------------------------------
Magnitude (a.u.)       :      2.96790
Magnitude (Debye)      :      7.54381

Rotational constants in cm-1:     0.001000     0.000372     0.000279
Rotational constants in MHz :    29.971378    11.165868     8.351306

                             ****ORCA TERMINATED NORMALLY****
TOTAL RUN TIME: 0 days 0 hours 11 minutes 7 seconds 752 msec
