                         Program Version 4.2.0 -  RELEASE  -
|  1> # ORCA input file
|  2> # SCF done       -205.085823171025          0.000815089069
|  3> ! CAM-B3LYP def2-SVP def2/J RIJCOSX Grid4 TightSCF
|  4> %maxcore 5000
|  5> %tddft
|  6>     Mode sTDDFT
|  7>     Ethresh 5.0
|  8>     maxcore 5000
|  9> end
| 10>
| 11> %pal
| 12>   nprocs 6
| 13>   end
| 14> * xyz 0 1
| 15>    C        2.61332        -9.06048        -6.87494
| 16>    O        1.89752        -9.77032        -6.19218
| 17>    C        3.45486        -9.49535        -8.00529
| 18>    C        4.11890        -8.38049        -8.54775
| 19>    C        4.97965        -8.55740        -9.62191
| 20>    C        5.15898        -9.83449       -10.13189
| 21>    C        4.48918       -10.91990        -9.58129
| 22>    C        3.62335       -10.76954        -8.50601
| 23>   Br        4.76708       -12.64857       -10.31512
| 24>    C        3.72725        -7.18713        -7.79919
| 25>    C        4.13786        -5.91092        -8.07814
| 26>    C        5.02155        -5.57682        -9.12767
| 27>    N        5.73579        -5.23896        -9.95993
| 28>    C        3.74181        -4.74676        -7.38467
| 29>    N        3.46411        -3.75352        -6.88019
| 30>    C        2.82445        -7.61478        -6.74390
| 31>    C        2.29937        -6.82027        -5.75728
| 32>    C        1.45633        -7.14316        -4.68214
| 33>    C        1.09439        -6.18597        -3.72392
| 34>    C        0.29077        -6.71002        -2.73180
| 35>    C        0.01237        -8.08531        -2.93631
| 36>    S        0.75192        -8.72181        -4.33148
| 37>    C       -0.78597        -8.53951        -1.86081
| 38>    C       -1.00485        -7.46070        -0.97348
| 39>    C       -0.34576        -6.27625        -1.49841
| 40>    C       -0.32412        -5.03145        -0.94230
| 41>    C       -0.97830        -4.74892         0.27564
| 42>    N       -1.50753        -4.52534         1.26783
| 43>    C        0.35371        -3.94836        -1.54174
| 44>    N        0.90435        -3.06518        -2.02144
| 45>    C       -1.74770        -7.82270         0.14101
| 46>    C       -2.09772        -9.16800         0.10276
| 47>    S       -1.51466        -9.99343        -1.33504
| 48>    C       -2.79960        -9.90689         1.06908
| 49>    C       -3.12722       -11.26376         0.95861
| 50>    C       -3.79657       -11.78892         2.11383
| 51>    N       -4.22024       -13.05491         2.13510
| 52>    C       -3.97271       -13.78677         1.07112
| 53>    C       -4.51124       -15.17400         1.07105
| 54>    O       -5.25561       -15.58198         1.93351
| 55>    C       -4.09511       -16.00050        -0.07699
| 56>    C       -3.38381       -15.53348        -1.10813
| 57>    C       -2.91909       -14.13955        -1.21678
| 58>    O       -2.30697       -13.72794        -2.17841
| 59>    C       -3.24868       -13.27712        -0.05251
| 60>    N       -2.84617       -12.02544        -0.09762
| 61>    C       -3.96057       -10.82901         3.12477
| 62>    S       -3.33319        -9.29255         2.60004
| 63>    C       -4.49980       -11.04699         4.40555
| 64>    C       -4.81013       -12.28799         4.95597
| 65>    C       -5.26355       -12.16822         6.26110
| 66>    C       -5.33213       -10.82952         6.70557
| 67>    S       -4.80103        -9.72089         5.51934
| 68>    C       -5.82208       -10.81898         8.02838
| 69>    C       -6.05272       -12.15155         8.43694
| 70>    C       -5.68583       -13.04123         7.34805
| 71>    C       -5.66167       -14.40340         7.36791
| 72>    C       -6.07908       -15.14142         8.49740
| 73>    N       -6.41140       -15.73988         9.41669
| 74>    C       -5.15560       -15.17566         6.29821
| 75>    N       -4.69957       -15.81866         5.46682
| 76>    C       -6.50172       -12.24013         9.74798
| 77>    C       -6.65978       -10.99366        10.33938
| 78>    S       -6.18636        -9.69006         9.24937
| 79>    C       -7.02707       -10.77042        11.68469
| 80>    C       -7.43757        -9.62905        12.30286
| 81>    C       -7.28247        -9.50659        13.77936
| 82>    O       -7.04461       -10.39454        14.56148
| 83>    C       -7.41888        -8.05834        14.05522
| 84>    C       -7.77573        -7.38433        12.87212
| 85>    C       -7.94333        -8.36761        11.80508
| 86>    C       -8.69960        -8.19065        10.67652
| 87>    C       -9.26333        -6.95602        10.29514
| 88>    N       -9.72798        -5.96986         9.93722
| 89>    C       -9.07682        -9.25270         9.82869
| 90>    N       -9.43183       -10.10315         9.14459
| 91>    C       -7.93591        -6.00695        12.88417
| 92>    C       -7.74137        -5.32515        14.07562
| 93>    C       -7.39999        -6.00973        15.23570
| 94>    C       -7.23135        -7.38849        15.24653
| 95>   Br       -7.15156        -5.03264        16.84452
| 96>    H        5.51202        -7.73251       -10.06547
| 97>    H        5.82668        -9.98830       -10.96563
| 98>    H        3.10053       -11.60775        -8.07221
| 99>    H        2.58117        -5.77422        -5.77028
|100>    H        1.43128        -5.16567        -3.77790
|101>    H       -2.02752        -7.17225         0.95036
|102>    H       -4.42878       -17.02876        -0.04272
|103>    H       -3.11591       -16.16951        -1.94104
|104>    H       -4.69776       -13.20072         4.39852
|105>    H       -6.73514       -13.15455        10.26299
|106>    H       -6.87391       -11.61827        12.34687
|107>    H       -8.19480        -5.46068        11.99158
|108>    H       -7.85640        -4.25255        14.10505
|109>    H       -6.96567        -7.92264        16.14551
|110> *
|111>
|112>                          ****END OF INPUT****

CARTESIAN COORDINATES (ANGSTROEM)
---------------------------------
  C      2.613320   -9.060480   -6.874940
  O      1.897520   -9.770320   -6.192180
  C      3.454860   -9.495350   -8.005290
  C      4.118900   -8.380490   -8.547750
  C      4.979650   -8.557400   -9.621910
  C      5.158980   -9.834490  -10.131890
  C      4.489180  -10.919900   -9.581290
  C      3.623350  -10.769540   -8.506010
  Br     4.767080  -12.648570  -10.315120
  C      3.727250   -7.187130   -7.799190
  C      4.137860   -5.910920   -8.078140
  C      5.021550   -5.576820   -9.127670
  N      5.735790   -5.238960   -9.959930
  C      3.741810   -4.746760   -7.384670
  N      3.464110   -3.753520   -6.880190
  C      2.824450   -7.614780   -6.743900
  C      2.299370   -6.820270   -5.757280
  C      1.456330   -7.143160   -4.682140
  C      1.094390   -6.185970   -3.723920
  C      0.290770   -6.710020   -2.731800
  C      0.012370   -8.085310   -2.936310
  S      0.751920   -8.721810   -4.331480
  C     -0.785970   -8.539510   -1.860810
  C     -1.004850   -7.460700   -0.973480
  C     -0.345760   -6.276250   -1.498410
  C     -0.324120   -5.031450   -0.942300
  C     -0.978300   -4.748920    0.275640
  N     -1.507530   -4.525340    1.267830
  C      0.353710   -3.948360   -1.541740
  N      0.904350   -3.065180   -2.021440
  C     -1.747700   -7.822700    0.141010
  C     -2.097720   -9.168000    0.102760
  S     -1.514660   -9.993430   -1.335040
  C     -2.799600   -9.906890    1.069080
  C     -3.127220  -11.263760    0.958610
  C     -3.796570  -11.788920    2.113830
  N     -4.220240  -13.054910    2.135100
  C     -3.972710  -13.786770    1.071120
  C     -4.511240  -15.174000    1.071050
  O     -5.255610  -15.581980    1.933510
  C     -4.095110  -16.000500   -0.076990
  C     -3.383810  -15.533480   -1.108130
  C     -2.919090  -14.139550   -1.216780
  O     -2.306970  -13.727940   -2.178410
  C     -3.248680  -13.277120   -0.052510
  N     -2.846170  -12.025440   -0.097620
  C     -3.960570  -10.829010    3.124770
  S     -3.333190   -9.292550    2.600040
  C     -4.499800  -11.046990    4.405550
  C     -4.810130  -12.287990    4.955970
  C     -5.263550  -12.168220    6.261100
  C     -5.332130  -10.829520    6.705570
  S     -4.801030   -9.720890    5.519340
  C     -5.822080  -10.818980    8.028380
  C     -6.052720  -12.151550    8.436940
  C     -5.685830  -13.041230    7.348050
  C     -5.661670  -14.403400    7.367910
  C     -6.079080  -15.141420    8.497400
  N     -6.411400  -15.739880    9.416690
  C     -5.155600  -15.175660    6.298210
  N     -4.699570  -15.818660    5.466820
  C     -6.501720  -12.240130    9.747980
  C     -6.659780  -10.993660   10.339380
  S     -6.186360   -9.690060    9.249370
  C     -7.027070  -10.770420   11.684690
  C     -7.437570   -9.629050   12.302860
  C     -7.282470   -9.506590   13.779360
  O     -7.044610  -10.394540   14.561480
  C     -7.418880   -8.058340   14.055220
  C     -7.775730   -7.384330   12.872120
  C     -7.943330   -8.367610   11.805080
  C     -8.699600   -8.190650   10.676520
  C     -9.263330   -6.956020   10.295140
  N     -9.727980   -5.969860    9.937220
  C     -9.076820   -9.252700    9.828690
  N     -9.431830  -10.103150    9.144590
  C     -7.935910   -6.006950   12.884170
  C     -7.741370   -5.325150   14.075620
  C     -7.399990   -6.009730   15.235700
  C     -7.231350   -7.388490   15.246530
  Br    -7.151560   -5.032640   16.844520
  H      5.512020   -7.732510  -10.065470
  H      5.826680   -9.988300  -10.965630
  H      3.100530  -11.607750   -8.072210
  H      2.581170   -5.774220   -5.770280
  H      1.431280   -5.165670   -3.777900
  H     -2.027520   -7.172250    0.950360
  H     -4.428780  -17.028760   -0.042720
  H     -3.115910  -16.169510   -1.941040
  H     -4.697760  -13.200720    4.398520
  H     -6.735140  -13.154550   10.262990
  H     -6.873910  -11.618270   12.346870
  H     -8.194800   -5.460680   11.991580
  H     -7.856400   -4.252550   14.105050
  H     -6.965670   -7.922640   16.145510

 Total Charge           Charge          ....    0
 Multiplicity           Mult            ....    1
 Number of Electrons    NEL             ....  626
 Basis Dimension        Dim             .... 1260

ORBITAL ENERGIES
----------------

  NO   OCC          E(Eh)            E(eV)
   0   2.0000    -482.877510    -13139.7650
   1   2.0000    -482.877277    -13139.7587
   2   2.0000     -89.017517     -2422.2898
   3   2.0000     -89.007047     -2422.0049
   4   2.0000     -89.003694     -2421.9136
   5   2.0000     -88.998640     -2421.7761
   6   2.0000     -88.996499     -2421.7179
   7   2.0000     -62.555228     -1702.2143
   8   2.0000     -62.554985     -1702.2077
   9   2.0000     -56.389069     -1534.4246
  10   2.0000     -56.388832     -1534.4181
  11   2.0000     -56.386539     -1534.3557
  12   2.0000     -56.386524     -1534.3553
  13   2.0000     -56.386293     -1534.3490
  14   2.0000     -56.386282     -1534.3487
  15   2.0000     -19.240097      -523.5497
  16   2.0000     -19.237792      -523.4869
  17   2.0000     -19.235470      -523.4237
  18   2.0000     -19.226405      -523.1771
  19   2.0000     -14.468382      -393.7047
  20   2.0000     -14.465040      -393.6137
  21   2.0000     -14.438913      -392.9028
  22   2.0000     -14.438777      -392.8991
  23   2.0000     -14.436124      -392.8269
  24   2.0000     -14.435491      -392.8097
  25   2.0000     -14.425007      -392.5244
  26   2.0000     -14.424564      -392.5123
  27   2.0000     -14.424356      -392.5067
  28   2.0000     -14.421217      -392.4213
  29   2.0000     -10.389767      -282.7199
  30   2.0000     -10.386542      -282.6322
  31   2.0000     -10.382698      -282.5276
  32   2.0000     -10.377744      -282.3928
  33   2.0000     -10.376017      -282.3458
  34   2.0000     -10.372831      -282.2591
  35   2.0000     -10.361663      -281.9552
  36   2.0000     -10.361294      -281.9452
  37   2.0000     -10.358793      -281.8771
  38   2.0000     -10.356817      -281.8233
  39   2.0000     -10.354868      -281.7703
  40   2.0000     -10.354262      -281.7538
  41   2.0000     -10.353489      -281.7328
  42   2.0000     -10.353220      -281.7254
  43   2.0000     -10.352507      -281.7061
  44   2.0000     -10.351916      -281.6899
  45   2.0000     -10.351531      -281.6795
  46   2.0000     -10.351256      -281.6720
  47   2.0000     -10.350972      -281.6643
  48   2.0000     -10.350273      -281.6452
  49   2.0000     -10.350240      -281.6443
  50   2.0000     -10.348729      -281.6032
  51   2.0000     -10.347233      -281.5625
  52   2.0000     -10.346187      -281.5341
  53   2.0000     -10.341281      -281.4006
  54   2.0000     -10.339355      -281.3481
  55   2.0000     -10.338290      -281.3192
  56   2.0000     -10.338085      -281.3136
  57   2.0000     -10.336934      -281.2823
  58   2.0000     -10.335831      -281.2523
  59   2.0000     -10.334794      -281.2240
  60   2.0000     -10.334292      -281.2104
  61   2.0000     -10.334102      -281.2052
  62   2.0000     -10.333442      -281.1873
  63   2.0000     -10.327126      -281.0154
  64   2.0000     -10.326658      -281.0027
  65   2.0000     -10.325955      -280.9835
  66   2.0000     -10.323908      -280.9278
  67   2.0000     -10.321673      -280.8670
  68   2.0000     -10.320924      -280.8466
  69   2.0000     -10.320173      -280.8262
  70   2.0000     -10.319900      -280.8187
  71   2.0000     -10.319110      -280.7973
  72   2.0000     -10.319036      -280.7952
  73   2.0000     -10.318605      -280.7835
  74   2.0000     -10.317951      -280.7657
  75   2.0000     -10.317485      -280.7530
  76   2.0000     -10.317098      -280.7425
  77   2.0000     -10.313078      -280.6331
  78   2.0000     -10.312716      -280.6233
  79   2.0000     -10.311512      -280.5905
  80   2.0000     -10.311350      -280.5861
  81   2.0000     -10.310959      -280.5754
  82   2.0000     -10.310329      -280.5583
  83   2.0000     -10.309870      -280.5458
  84   2.0000     -10.308616      -280.5117
  85   2.0000     -10.308000      -280.4949
  86   2.0000     -10.307514      -280.4817
  87   2.0000     -10.307411      -280.4789
  88   2.0000     -10.306654      -280.4583
  89   2.0000      -8.784522      -239.0390
  90   2.0000      -8.784273      -239.0322
  91   2.0000      -8.111754      -220.7321
  92   2.0000      -8.101858      -220.4628
  93   2.0000      -8.098012      -220.3581
  94   2.0000      -8.091827      -220.1898
  95   2.0000      -8.088868      -220.1093
  96   2.0000      -6.620396      -180.1501
  97   2.0000      -6.620167      -180.1439
  98   2.0000      -6.606616      -179.7752
  99   2.0000      -6.606369      -179.7684
 100   2.0000      -6.606189      -179.7635
 101   2.0000      -6.605905      -179.7558
 102   2.0000      -6.080848      -165.4683
 103   2.0000      -6.076719      -165.3559
 104   2.0000      -6.074458      -165.2944
 105   2.0000      -6.071159      -165.2046
 106   2.0000      -6.067278      -165.0990
 107   2.0000      -6.066989      -165.0912
 108   2.0000      -6.064048      -165.0111
 109   2.0000      -6.063062      -164.9843
 110   2.0000      -6.061207      -164.9338
 111   2.0000      -6.060350      -164.9105
 112   2.0000      -6.058269      -164.8539
 113   2.0000      -6.056727      -164.8119
 114   2.0000      -6.054170      -164.7423
 115   2.0000      -6.053505      -164.7242
 116   2.0000      -6.051442      -164.6681
 117   2.0000      -2.736328       -74.4593
 118   2.0000      -2.736061       -74.4520
 119   2.0000      -2.732563       -74.3568
 120   2.0000      -2.732304       -74.3498
 121   2.0000      -2.732209       -74.3472
 122   2.0000      -2.732014       -74.3419
 123   2.0000      -2.721286       -74.0499
 124   2.0000      -2.721269       -74.0495
 125   2.0000      -2.721013       -74.0425
 126   2.0000      -2.721002       -74.0422
 127   2.0000      -1.157421       -31.4950
 128   2.0000      -1.152005       -31.3476
 129   2.0000      -1.151309       -31.3287
 130   2.0000      -1.142381       -31.0858
 131   2.0000      -1.118249       -30.4291
 132   2.0000      -1.059392       -28.8275
 133   2.0000      -1.054880       -28.7047
 134   2.0000      -1.045582       -28.4517
 135   2.0000      -1.032157       -28.0864
 136   2.0000      -1.030988       -28.0546
 137   2.0000      -1.029439       -28.0124
 138   2.0000      -1.027895       -27.9705
 139   2.0000      -1.026442       -27.9309
 140   2.0000      -1.015231       -27.6259
 141   2.0000      -1.014211       -27.5981
 142   2.0000      -1.011063       -27.5124
 143   2.0000      -1.009703       -27.4754
 144   2.0000      -1.009615       -27.4730
 145   2.0000      -1.003680       -27.3115
 146   2.0000      -1.001479       -27.2516
 147   2.0000      -1.000723       -27.2311
 148   2.0000      -0.975723       -26.5508
 149   2.0000      -0.973054       -26.4781
 150   2.0000      -0.968422       -26.3521
 151   2.0000      -0.965690       -26.2778
 152   2.0000      -0.951674       -25.8964
 153   2.0000      -0.934563       -25.4308
 154   2.0000      -0.928918       -25.2771
 155   2.0000      -0.918770       -25.0010
 156   2.0000      -0.917807       -24.9748
 157   2.0000      -0.911304       -24.7978
 158   2.0000      -0.905383       -24.6367
 159   2.0000      -0.893615       -24.3165
 160   2.0000      -0.891534       -24.2599
 161   2.0000      -0.887112       -24.1395
 162   2.0000      -0.884467       -24.0676
 163   2.0000      -0.877720       -23.8840
 164   2.0000      -0.871256       -23.7081
 165   2.0000      -0.868872       -23.6432
 166   2.0000      -0.866041       -23.5662
 167   2.0000      -0.860728       -23.4216
 168   2.0000      -0.856136       -23.2966
 169   2.0000      -0.827800       -22.5256
 170   2.0000      -0.818852       -22.2821
 171   2.0000      -0.808116       -21.9900
 172   2.0000      -0.805028       -21.9059
 173   2.0000      -0.797117       -21.6907
 174   2.0000      -0.789265       -21.4770
 175   2.0000      -0.784791       -21.3552
 176   2.0000      -0.778023       -21.1711
 177   2.0000      -0.775919       -21.1138
 178   2.0000      -0.773286       -21.0422
 179   2.0000      -0.754874       -20.5412
 180   2.0000      -0.748448       -20.3663
 181   2.0000      -0.720459       -19.6047
 182   2.0000      -0.716962       -19.5095
 183   2.0000      -0.711558       -19.3625
 184   2.0000      -0.707521       -19.2526
 185   2.0000      -0.705723       -19.2037
 186   2.0000      -0.702488       -19.1157
 187   2.0000      -0.697894       -18.9907
 188   2.0000      -0.695498       -18.9255
 189   2.0000      -0.693279       -18.8651
 190   2.0000      -0.691730       -18.8229
 191   2.0000      -0.688948       -18.7472
 192   2.0000      -0.681835       -18.5537
 193   2.0000      -0.676528       -18.4093
 194   2.0000      -0.662566       -18.0293
 195   2.0000      -0.658839       -17.9279
 196   2.0000      -0.647267       -17.6130
 197   2.0000      -0.644273       -17.5316
 198   2.0000      -0.634791       -17.2735
 199   2.0000      -0.632480       -17.2106
 200   2.0000      -0.632098       -17.2003
 201   2.0000      -0.630302       -17.1514
 202   2.0000      -0.624064       -16.9816
 203   2.0000      -0.623158       -16.9570
 204   2.0000      -0.621860       -16.9217
 205   2.0000      -0.617388       -16.8000
 206   2.0000      -0.610958       -16.6250
 207   2.0000      -0.595304       -16.1990
 208   2.0000      -0.592842       -16.1320
 209   2.0000      -0.592100       -16.1119
 210   2.0000      -0.586415       -15.9571
 211   2.0000      -0.584321       -15.9002
 212   2.0000      -0.575560       -15.6618
 213   2.0000      -0.571583       -15.5536
 214   2.0000      -0.568398       -15.4669
 215   2.0000      -0.566384       -15.4121
 216   2.0000      -0.560990       -15.2653
 217   2.0000      -0.558129       -15.1875
 218   2.0000      -0.557045       -15.1580
 219   2.0000      -0.551751       -15.0139
 220   2.0000      -0.550592       -14.9824
 221   2.0000      -0.550280       -14.9739
 222   2.0000      -0.548217       -14.9177
 223   2.0000      -0.547487       -14.8979
 224   2.0000      -0.545186       -14.8353
 225   2.0000      -0.542588       -14.7646
 226   2.0000      -0.538449       -14.6519
 227   2.0000      -0.536787       -14.6067
 228   2.0000      -0.535772       -14.5791
 229   2.0000      -0.530269       -14.4294
 230   2.0000      -0.526913       -14.3380
 231   2.0000      -0.522249       -14.2111
 232   2.0000      -0.520137       -14.1537
 233   2.0000      -0.517663       -14.0863
 234   2.0000      -0.515565       -14.0292
 235   2.0000      -0.514470       -13.9994
 236   2.0000      -0.511905       -13.9297
 237   2.0000      -0.510857       -13.9011
 238   2.0000      -0.509755       -13.8711
 239   2.0000      -0.506484       -13.7821
 240   2.0000      -0.505689       -13.7605
 241   2.0000      -0.504633       -13.7318
 242   2.0000      -0.503275       -13.6948
 243   2.0000      -0.501605       -13.6494
 244   2.0000      -0.498891       -13.5755
 245   2.0000      -0.495665       -13.4877
 246   2.0000      -0.494350       -13.4520
 247   2.0000      -0.490711       -13.3529
 248   2.0000      -0.485045       -13.1987
 249   2.0000      -0.483346       -13.1525
 250   2.0000      -0.482670       -13.1341
 251   2.0000      -0.478443       -13.0191
 252   2.0000      -0.472640       -12.8612
 253   2.0000      -0.471971       -12.8430
 254   2.0000      -0.469975       -12.7887
 255   2.0000      -0.468876       -12.7588
 256   2.0000      -0.467469       -12.7205
 257   2.0000      -0.465458       -12.6658
 258   2.0000      -0.463891       -12.6231
 259   2.0000      -0.463021       -12.5994
 260   2.0000      -0.461416       -12.5558
 261   2.0000      -0.460110       -12.5202
 262   2.0000      -0.459388       -12.5006
 263   2.0000      -0.457091       -12.4381
 264   2.0000      -0.456065       -12.4101
 265   2.0000      -0.455253       -12.3881
 266   2.0000      -0.452582       -12.3154
 267   2.0000      -0.450191       -12.2503
 268   2.0000      -0.449724       -12.2376
 269   2.0000      -0.447741       -12.1836
 270   2.0000      -0.446712       -12.1556
 271   2.0000      -0.446342       -12.1456
 272   2.0000      -0.445658       -12.1270
 273   2.0000      -0.441640       -12.0176
 274   2.0000      -0.439911       -11.9706
 275   2.0000      -0.437156       -11.8956
 276   2.0000      -0.436931       -11.8895
 277   2.0000      -0.434860       -11.8331
 278   2.0000      -0.434505       -11.8235
 279   2.0000      -0.432879       -11.7792
 280   2.0000      -0.432050       -11.7567
 281   2.0000      -0.425599       -11.5811
 282   2.0000      -0.425400       -11.5757
 283   2.0000      -0.423830       -11.5330
 284   2.0000      -0.415679       -11.3112
 285   2.0000      -0.415159       -11.2971
 286   2.0000      -0.413837       -11.2611
 287   2.0000      -0.406872       -11.0715
 288   2.0000      -0.404897       -11.0178
 289   2.0000      -0.391490       -10.6530
 290   2.0000      -0.383955       -10.4479
 291   2.0000      -0.380982       -10.3670
 292   2.0000      -0.377683       -10.2773
 293   2.0000      -0.372150       -10.1267
 294   2.0000      -0.372059       -10.1242
 295   2.0000      -0.368275       -10.0213
 296   2.0000      -0.365956        -9.9582
 297   2.0000      -0.361632        -9.8405
 298   2.0000      -0.360131        -9.7997
 299   2.0000      -0.358582        -9.7575
 300   2.0000      -0.358301        -9.7499
 301   2.0000      -0.355549        -9.6750
 302   2.0000      -0.351282        -9.5589
 303   2.0000      -0.351110        -9.5542
 304   2.0000      -0.349190        -9.5020
 305   2.0000      -0.343402        -9.3444
 306   2.0000      -0.333182        -9.0663
 307   2.0000      -0.330321        -8.9885
 308   2.0000      -0.319643        -8.6979
 309   2.0000      -0.316340        -8.6081
 310   2.0000      -0.310214        -8.4413
 311   2.0000      -0.285141        -7.7591
 312   2.0000      -0.250194        -6.8081
 313   0.0000      -0.134656        -3.6642
 314   0.0000      -0.117431        -3.1955
 315   0.0000      -0.103174        -2.8075
 316   0.0000      -0.098490        -2.6801
 317   0.0000      -0.093647        -2.5483

MULLIKEN ATOMIC CHARGES
-----------------------
   0 C :    0.169093
   1 O :   -0.180039
   2 C :   -0.025245
   3 C :    0.029856
   4 C :   -0.024574
   5 C :    0.048655
   6 C :   -0.004256
   7 C :   -0.009544
   8 Br:   -0.015744
   9 C :    0.321194
  10 C :   -0.344332
  11 C :   -0.189358
  12 N :    0.155750
  13 C :   -0.190892
  14 N :    0.157924
  15 C :   -0.093512
  16 C :   -0.027278
  17 C :   -0.054922
  18 C :   -0.059139
  19 C :    0.046048
  20 C :   -0.070414
  21 S :    0.251352
  22 C :   -0.090729
  23 C :    0.035936
  24 C :    0.303815
  25 C :   -0.295113
  26 C :   -0.190450
  27 N :    0.171931
  28 C :   -0.194524
  29 N :    0.188183
  30 C :   -0.084823
  31 C :   -0.069227
  32 S :    0.253586
  33 C :   -0.114942
  34 C :    0.014234
  35 C :    0.041061
  36 N :    0.066840
  37 C :   -0.117107
  38 C :    0.143655
  39 O :   -0.090365
  40 C :   -0.011720
  41 C :   -0.017943
  42 C :    0.140835
  43 O :   -0.103616
  44 C :   -0.111481
  45 N :    0.033396
  46 C :   -0.125685
  47 S :    0.228466
  48 C :   -0.082938
  49 C :   -0.062089
  50 C :    0.035254
  51 C :   -0.097241
  52 S :    0.198084
  53 C :   -0.080424
  54 C :    0.026979
  55 C :    0.301850
  56 C :   -0.286522
  57 C :   -0.189921
  58 N :    0.178858
  59 C :   -0.191695
  60 N :    0.195339
  61 C :    0.000139
  62 C :   -0.084783
  63 S :    0.209775
  64 C :    0.037340
  65 C :   -0.133407
  66 C :    0.140316
  67 O :   -0.133783
  68 C :   -0.004586
  69 C :    0.020329
  70 C :    0.242435
  71 C :   -0.319875
  72 C :   -0.175114
  73 N :    0.161176
  74 C :   -0.210994
  75 N :    0.176136
  76 C :   -0.022130
  77 C :    0.047555
  78 C :   -0.006372
  79 C :   -0.009904
  80 Br:   -0.014681
  81 H :    0.009819
  82 H :    0.008064
  83 H :    0.003697
  84 H :    0.016598
  85 H :    0.029085
  86 H :    0.010186
  87 H :    0.025279
  88 H :    0.021930
  89 H :    0.031727
  90 H :    0.021098
  91 H :    0.036361
  92 H :    0.010815
  93 H :    0.009246
  94 H :    0.006154
Sum of atomic charges:   -0.0000000

LOEWDIN ATOMIC CHARGES
----------------------
   0 C :    0.086443
   1 O :   -0.165600
   2 C :   -0.038791
   3 C :   -0.014395
   4 C :    0.009300
   5 C :   -0.011429
   6 C :   -0.098553
   7 C :    0.000933
   8 Br:    0.118676
   9 C :    0.074996
  10 C :   -0.135160
  11 C :   -0.018762
  12 N :   -0.047499
  13 C :   -0.023259
  14 N :   -0.042996
  15 C :   -0.112469
  16 C :    0.056672
  17 C :   -0.183389
  18 C :    0.012836
  19 C :   -0.076419
  20 C :   -0.164989
  21 S :    0.552570
  22 C :   -0.186955
  23 C :   -0.056127
  24 C :    0.077696
  25 C :   -0.101173
  26 C :   -0.015463
  27 N :   -0.034201
  28 C :   -0.021003
  29 N :   -0.022232
  30 C :   -0.030946
  31 C :   -0.173484
  32 S :    0.538001
  33 C :   -0.191149
  34 C :   -0.052075
  35 C :   -0.039834
  36 N :    0.010929
  37 C :   -0.035299
  38 C :    0.055427
  39 O :   -0.084724
  40 C :   -0.007100
  41 C :   -0.014277
  42 C :    0.056155
  43 O :   -0.099866
  44 C :   -0.034338
  45 N :   -0.011441
  46 C :   -0.190237
  47 S :    0.512819
  48 C :   -0.176420
  49 C :   -0.007715
  50 C :   -0.050689
  51 C :   -0.183985
  52 S :    0.472517
  53 C :   -0.152778
  54 C :   -0.069243
  55 C :    0.075071
  56 C :   -0.087478
  57 C :   -0.016183
  58 N :   -0.024218
  59 C :   -0.022264
  60 N :   -0.012567
  61 C :    0.015400
  62 C :   -0.176931
  63 S :    0.508492
  64 C :    0.051697
  65 C :   -0.102651
  66 C :    0.084740
  67 O :   -0.132571
  68 C :   -0.039190
  69 C :   -0.013871
  70 C :    0.059509
  71 C :   -0.141129
  72 C :   -0.021813
  73 N :   -0.044972
  74 C :   -0.037359
  75 N :   -0.044133
  76 C :    0.006209
  77 C :   -0.010982
  78 C :   -0.098366
  79 C :    0.002062
  80 Br:    0.119388
  81 H :    0.043702
  82 H :    0.041292
  83 H :    0.044357
  84 H :    0.053906
  85 H :    0.048462
  86 H :    0.037717
  87 H :    0.048681
  88 H :    0.047334
  89 H :    0.045015
  90 H :    0.048148
  91 H :    0.056369
  92 H :    0.042989
  93 H :    0.041341
  94 H :    0.045289

  Mayer bond orders larger than 0.100000
B(  0-C ,  1-O ) :   2.1215 B(  0-C ,  2-C ) :   0.9595 B(  0-C , 15-C ) :   0.9856
B(  2-C ,  3-C ) :   1.3326 B(  2-C ,  7-C ) :   1.3794 B(  3-C ,  4-C ) :   1.3654
B(  3-C ,  9-C ) :   0.9899 B(  4-C ,  5-C ) :   1.3823 B(  4-C , 81-H ) :   0.9837
B(  5-C ,  6-C ) :   1.3887 B(  5-C , 82-H ) :   0.9848 B(  6-C ,  7-C ) :   1.3335
B(  6-C ,  8-Br) :   0.9946 B(  7-C , 83-H ) :   1.0081 B(  9-C , 10-C ) :   1.6349
B(  9-C , 15-C ) :   1.0777 B( 10-C , 11-C ) :   1.1430 B( 10-C , 13-C ) :   1.1408
B( 11-C , 12-N ) :   2.9733 B( 13-C , 14-N ) :   2.9634 B( 15-C , 16-C ) :   1.4915
B( 16-C , 17-C ) :   1.2714 B( 16-C , 84-H ) :   0.9399 B( 17-C , 18-C ) :   1.3226
B( 17-C , 21-S ) :   1.0698 B( 18-C , 19-C ) :   1.3374 B( 18-C , 85-H ) :   1.0082
B( 19-C , 20-C ) :   1.3471 B( 19-C , 24-C ) :   0.9861 B( 20-C , 21-S ) :   1.1307
B( 20-C , 22-C ) :   1.2140 B( 22-C , 23-C ) :   1.3958 B( 22-C , 32-S ) :   1.0948
B( 23-C , 24-C ) :   0.9941 B( 23-C , 30-C ) :   1.3301 B( 24-C , 25-C ) :   1.7178
B( 25-C , 26-C ) :   1.1353 B( 25-C , 28-C ) :   1.1325 B( 26-C , 27-N ) :   2.9906
B( 28-C , 29-N ) :   2.9967 B( 30-C , 31-C ) :   1.3802 B( 30-C , 86-H ) :   0.9941
B( 31-C , 32-S ) :   1.1244 B( 31-C , 33-C ) :   1.2403 B( 33-C , 34-C ) :   1.3142
B( 33-C , 46-C ) :   0.1335 B( 33-C , 47-S ) :   1.1599 B( 34-C , 35-C ) :   1.1924
B( 34-C , 45-N ) :   1.4187 B( 35-C , 36-N ) :   1.4363 B( 35-C , 46-C ) :   1.3600
B( 36-N , 37-C ) :   1.7170 B( 37-C , 38-C ) :   0.8891 B( 37-C , 44-C ) :   1.1009
B( 38-C , 39-O ) :   2.2459 B( 38-C , 40-C ) :   1.0200 B( 40-C , 41-C ) :   1.6846
B( 40-C , 87-H ) :   0.9960 B( 41-C , 42-C ) :   1.0256 B( 41-C , 88-H ) :   0.9965
B( 42-C , 43-O ) :   2.2497 B( 42-C , 44-C ) :   0.8910 B( 44-C , 45-N ) :   1.6992
B( 46-C , 47-S ) :   1.1551 B( 46-C , 48-C ) :   1.1944 B( 48-C , 49-C ) :   1.4378
B( 48-C , 52-S ) :   1.0938 B( 49-C , 50-C ) :   1.2849 B( 49-C , 89-H ) :   0.9867
B( 50-C , 51-C ) :   1.4103 B( 50-C , 55-C ) :   0.9900 B( 51-C , 52-S ) :   1.1133
B( 51-C , 53-C ) :   1.2287 B( 53-C , 54-C ) :   1.3863 B( 53-C , 63-S ) :   1.1556
B( 54-C , 55-C ) :   0.9949 B( 54-C , 61-C ) :   1.3091 B( 55-C , 56-C ) :   1.7220
B( 56-C , 57-C ) :   1.1337 B( 56-C , 59-C ) :   1.1330 B( 57-C , 58-N ) :   2.9916
B( 59-C , 60-N ) :   2.9982 B( 61-C , 62-C ) :   1.3902 B( 61-C , 90-H ) :   1.0015
B( 62-C , 63-S ) :   1.0812 B( 62-C , 64-C ) :   1.1560 B( 64-C , 65-C ) :   1.6283
B( 64-C , 91-H ) :   0.9460 B( 65-C , 66-C ) :   0.9436 B( 65-C , 70-C ) :   1.0390
B( 66-C , 67-O ) :   2.2723 B( 66-C , 68-C ) :   0.9195 B( 68-C , 69-C ) :   1.3332
B( 68-C , 79-C ) :   1.3841 B( 69-C , 70-C ) :   1.0086 B( 69-C , 76-C ) :   1.3688
B( 70-C , 71-C ) :   1.6577 B( 71-C , 72-C ) :   1.1280 B( 71-C , 74-C ) :   1.1535
B( 72-C , 73-N ) :   2.9981 B( 74-C , 75-N ) :   3.0228 B( 76-C , 77-C ) :   1.3806
B( 76-C , 92-H ) :   0.9871 B( 77-C , 78-C ) :   1.3896 B( 77-C , 93-H ) :   0.9855
B( 78-C , 79-C ) :   1.3409 B( 78-C , 80-Br) :   0.9961 B( 79-C , 94-H ) :   1.0071

-----------------------------------------------------------------------------
         ABSORPTION SPECTRUM VIA TRANSITION ELECTRIC DIPOLE MOMENTS
-----------------------------------------------------------------------------
State   Energy  Wavelength   fosc         T2         TX        TY        TZ
        (cm-1)    (nm)                  (au**2)     (au)      (au)      (au)
-----------------------------------------------------------------------------
   0   10132.9    986.9   1.069069952  34.73354   2.86830   0.95926  -5.05828
   1   12990.7    769.8   0.051026425   1.29311   0.53500   0.99361  -0.14012
   2   14851.8    673.3   0.072721768   1.61199  -0.58709  -0.47715   1.01963
   3   17868.7    559.6   0.157313676   2.89833   0.06577   1.43477   0.91402
   4   19208.7    520.6   0.063772272   1.09298   0.43267   0.92498  -0.22401
   5   20012.2    499.7   0.645581658  10.62017  -1.76620   0.89825   2.58725
   6   21078.7    474.4   0.495070405   7.73211  -1.42615  -0.79076   2.25231
   7   22517.7    444.1   0.104426831   1.52673  -0.91308   0.28320   0.78282
   8   24478.8    408.5   0.002233754   0.03004   0.12570  -0.09342   0.07425
   9   24927.4    401.2   0.040019189   0.52853  -0.50794  -0.06962   0.51544
  10   25406.1    393.6   0.179504161   2.32601  -0.38531   0.20955   1.46070
  11   25736.5    388.6   0.009083497   0.11619   0.20923   0.26540  -0.04446
  12   25778.9    387.9   0.018185193   0.23224   0.31114   0.35175  -0.10817
  13   26558.9    376.5   0.001812369   0.02247   0.08638  -0.12093  -0.01945
  14   26700.5    374.5   0.028884508   0.35614   0.00430   0.13083   0.58224
  15   27220.6    367.4   0.219254039   2.65171  -0.05424  -0.16534   1.61908
  16   27546.4    363.0   0.034639422   0.41398   0.43842   0.27413  -0.38291
  17   28021.1    356.9   0.002611320   0.03068   0.06834  -0.04130  -0.15590
  18   28261.0    353.8   0.017828662   0.20769  -0.10270   0.21020   0.39110
  19   28484.9    351.1   0.168041091   1.94212  -0.17957   1.16629   0.74139
  20   29075.9    343.9   0.249308444   2.82279  -0.21361   1.66332   0.10268
  21   29115.6    343.5   0.007043381   0.07964   0.18679  -0.18473   0.10306
  22   29689.1    336.8   0.294131026   3.26151  -0.25331   1.55508   0.88266
  23   29845.8    335.1   0.055716942   0.61458  -0.29123   0.70585   0.17760
  24   30241.9    330.7   0.057878660   0.63006  -0.25240   0.70833   0.25422
  25   30450.8    328.4   0.000714932   0.00773  -0.05927   0.03346   0.05565
  26   30770.2    325.0   0.484228677   5.18078   0.80253   1.75526  -1.20657
  27   31538.5    317.1   0.408700341   4.26618  -0.56269   1.02644   1.70176
  28   31685.3    315.6   0.019112169   0.19858   0.28779   0.33957   0.02116
  29   32452.9    308.1   0.368064054   3.73375   0.21372  -1.51908  -1.17494
  30   32590.3    306.8   0.022043843   0.22268  -0.25202  -0.35378  -0.18440
  31   32904.8    303.9   0.037624859   0.37644   0.18706  -0.35639   0.46307
  32   33110.8    302.0   0.099335764   0.98767  -0.18232  -0.65435  -0.72544
  33   33172.5    301.5   0.138695205   1.37644  -0.54487  -0.75383  -0.71506
  34   33330.0    300.0   0.075227514   0.74305   0.44325   0.49991   0.54467
  35   33462.3    298.8   0.004432727   0.04361   0.01053  -0.02909  -0.20653
  36   33546.3    298.1   0.032724446   0.32115  -0.18820   0.15202   0.51246
  37   33846.8    295.4   0.052579304   0.51141   0.05356   0.71306  -0.00951
  38   34077.7    293.4   0.179069690   1.72993  -0.14060   1.30539   0.07821
  39   34146.1    292.9   0.130797672   1.26106   0.41175  -0.45951  -0.93828
  40   34252.0    292.0   0.025423171   0.24435   0.08590   0.48052   0.07797
  41   34298.7    291.6   0.375126739   3.60061  -0.01057   1.81193   0.56338
  42   34446.4    290.3   0.029644000   0.28331   0.13628  -0.49439  -0.14257
  43   34786.5    287.5   0.057995799   0.54886  -0.05579  -0.62931   0.38693
  44   34826.8    287.1   0.173166197   1.63691   0.46631   0.76938   0.90968
  45   34966.5    286.0   0.068346434   0.64349   0.27184   0.31768   0.68459
  46   35148.8    284.5   0.080070947   0.74996  -0.02526  -0.79432  -0.34406
  47   35170.3    284.3   0.079599533   0.74509  -0.13170  -0.24719   0.81648
  48   35196.8    284.1   0.092503534   0.86523   0.00931  -0.39372  -0.84269
  49   35356.1    282.8   0.163520967   1.52259   0.02381   1.09609   0.56623
  50   35452.5    282.1   0.320124803   2.97268   0.12622  -1.71949   0.01051
  51   36122.7    276.8   0.097955823   0.89274   0.27352   0.57763   0.69589
  52   36207.1    276.2   0.020248948   0.18411   0.02896   0.23603  -0.35716
  53   36310.1    275.4   0.067093596   0.60832  -0.09850   0.40685   0.65809
  54   36551.9    273.6   0.149593555   1.34734  -0.52995  -1.02956  -0.08063
  55   36567.2    273.5   0.173872677   1.56536   0.22475   1.09411   0.56371
  56   36687.4    272.6   0.125048660   1.12211  -0.09319   0.18902  -1.03812
  57   36796.2    271.8   0.060662130   0.54274   0.02635  -0.72263  -0.14087
  58   36822.5    271.6   0.021545631   0.19263   0.14139  -0.38681  -0.15171
  59   37104.5    269.5   0.058118633   0.51566  -0.36260   0.46901   0.40524
  60   37329.2    267.9   0.045962439   0.40535  -0.18296   0.38610  -0.47202
  61   37762.1    264.8   0.014496993   0.12639  -0.00880   0.30225  -0.18695
  62   37888.0    263.9   0.016350846   0.14207   0.00984  -0.20768  -0.31440
  63   37919.1    263.7   0.041794492   0.36286   0.26951   0.11181  -0.52699
  64   38106.2    262.4   0.021756749   0.18796  -0.04517   0.10043   0.41933
  65   38216.1    261.7   0.001695731   0.01461  -0.00723   0.09919  -0.06867
  66   38337.0    260.8   0.000567081   0.00487   0.05976  -0.02663   0.02427
  67   38549.7    259.4   0.001627373   0.01390  -0.04311   0.07657   0.07859
  68   38724.7    258.2   0.021600890   0.18364  -0.00396  -0.24774  -0.34964
  69   38977.0    256.6   0.015136670   0.12785   0.16956  -0.23338  -0.21126
  70   39261.2    254.7   0.003368908   0.02825  -0.01695  -0.16722  -0.00039
  71   39378.6    253.9   0.009126039   0.07630  -0.01349  -0.25536  -0.10443
  72   39432.8    253.6   0.004356390   0.03637  -0.09515  -0.14339   0.08220
  73   39689.3    252.0   0.035937332   0.29809   0.12527  -0.44497  -0.29052
  74   39895.4    250.7   0.018863219   0.15566  -0.12379   0.03176   0.37326
  75   40001.3    250.0   0.052881150   0.43521   0.19687   0.62494  -0.07689
  76   40155.5    249.0   0.001344198   0.01102  -0.05929  -0.03285  -0.08016
  77   40183.9    248.9   0.005097943   0.04177   0.11090  -0.01315  -0.17115

FINAL SINGLE POINT ENERGY    -10277.325333035236

DIPOLE MOMENT
-------------
                                X             Y             Z
Electronic contribution:     22.86605      13.77906      20.48179
Nuclear contribution   :    -22.22323     -15.47248     -20.33271
                        -----------------------------------------
Total Dipole Moment    :      0.64282      -1.69342       0.14908
                        -----------------------------------------
Magnitude (a.u.)       :      1.81744
Magnitude (Debye)      :      4.61957

Rotational constants in cm-1:     0.001084     0.000153     0.000137
Rotational constants in MHz :    32.498506     4.579149     4.098068

                             ****ORCA TERMINATED NORMALLY****
TOTAL RUN TIME: 0 days 0 hours 11 minutes 16 seconds 112 msec
