                         Program Version 4.2.0 -  RELEASE  -
|  1> # ORCA input file
|  2> # SCF done       -172.754042122909          0.000636626132
|  3> ! CAM-B3LYP def2-SVP def2/J RIJCOSX Grid4 TightSCF
|  4> %maxcore 5000
|  5> %tddft
|  6>     Mode sTDDFT
|  7>     Ethresh 5.0
|  8>     maxcore 5000
|  9> end
| 10>
| 11> %pal
| 12>   nprocs 6
| 13>   end
| 14> * xyz 0 1
| 15>    C        3.15060         4.62280         4.68769
| 16>    C        2.38929         5.70102         5.12175
| 17>    C        2.57690         6.99168         4.40796
| 18>    O        2.90969         7.07484         3.25449
| 19>    O        2.34767         8.05947         5.17720
| 20>    C        1.46993         5.56232         6.18118
| 21>    C        0.73369         6.66091         6.67121
| 22>    N        0.12205         7.52458         7.11546
| 23>    C        1.27603         4.30740         6.77006
| 24>    C        2.04190         3.24941         6.33362
| 25>    C        3.01437         3.39377         5.31901
| 26>    C        3.72065         2.13543         5.13268
| 27>    C        4.82838         1.99994         4.31472
| 28>    C        5.38738         3.02906         3.53180
| 29>    N        5.91744         3.79999         2.86512
| 30>    C        5.58717         0.83413         4.18271
| 31>    N        6.22402        -0.12042         4.06434
| 32>    C        3.08222         1.15634         5.98628
| 33>    C        2.03034         1.84567         6.78022
| 34>    O        1.29920         1.33570         7.60442
| 35>    C        3.14926        -0.19539         6.18043
| 36>    N        3.91404        -1.14322         5.61419
| 37>    C        3.73437        -2.49493         5.79049
| 38>    S        5.15766        -3.48874         5.86521
| 39>    C        4.15989        -4.87348         6.15852
| 40>    N        4.77663        -6.12328         6.30465
| 41>    O        4.05896        -7.08523         6.50895
| 42>    O        5.99150        -6.15215         6.21612
| 43>    C        2.82350        -4.57783         6.19489
| 44>    C        2.55064        -3.21552         5.95833
| 45>    C        1.18883        -2.74177         5.81944
| 46>    C        0.79804        -1.68370         5.09186
| 47>    C       -0.56738        -1.25395         4.99333
| 48>    C       -0.97756        -0.06207         4.53468
| 49>    C       -0.06537         1.02098         4.05271
| 50>    C       -2.44805         0.29190         4.57411
| 51>    N       -2.93364         0.82117         3.32128
| 52>    C       -2.95120         2.13172         2.98853
| 53>    C       -2.77170         3.18808         3.83070
| 54>    C       -2.82822         4.52427         3.40545
| 55>    C       -2.72482         5.60460         4.24696
| 56>    C       -2.77210         6.97263         3.89909
| 57>    C       -2.72356         7.82402         4.96405
| 58>    C       -2.63705         7.17733         6.21279
| 59>    S       -2.57412         5.44691         5.99617
| 60>    C       -2.63482         7.76575         7.46894
| 61>    C       -2.67566         9.14324         7.76273
| 62>    C       -2.70492         9.42850         9.09571
| 63>    C       -2.68913         8.29215         9.93482
| 64>    S       -2.60608         6.83827         8.94198
| 65>    C       -2.71022         8.17519        11.30488
| 66>    C       -2.90182         9.17745        12.27772
| 67>    C       -2.73416         8.89832        13.68511
| 68>    C       -3.00371        10.03655        14.40841
| 69>    C       -2.98367        10.29355        15.80033
| 70>    C       -3.32831        11.54657        16.21908
| 71>    C       -3.41554        12.12810        17.52494
| 72>    C       -3.81877        13.44206        17.40160
| 73>    C       -3.99630        13.72495        16.00600
| 74>    C       -3.70383        12.58792        15.27391
| 75>    C       -3.72091        12.33803        13.89057
| 76>    C       -3.37263        11.07763        13.46166
| 77>    C       -3.29523        10.51281        12.16473
| 78>    C       -4.02223        14.35603        18.49908
| 79>    C       -4.41946        15.62120        18.39021
| 80>    H        3.83449         4.78252         3.86970
| 81>    H        2.48057         8.87770         4.67282
| 82>    H        0.54799         4.17479         7.55649
| 83>    H        2.42335        -0.56839         6.89765
| 84>    H        4.75099        -0.87610         5.09681
| 85>    H        2.06950        -5.32769         6.35359
| 86>    H        0.44457        -3.34760         6.31869
| 87>    H        1.53461        -1.10332         4.55821
| 88>    H       -1.30566        -1.94657         5.37760
| 89>    H        0.15393         1.70105         4.87750
| 90>    H       -0.53001         1.60653         3.26234
| 91>    H        0.87556         0.62766         3.68003
| 92>    H       -2.61934         1.03695         5.35463
| 93>    H       -3.03574        -0.59656         4.82103
| 94>    H       -2.97552         0.15536         2.56540
| 95>    H       -3.17552         2.32637         1.94735
| 96>    H       -2.57353         3.02848         4.88040
| 97>    H       -2.96845         4.72721         2.35174
| 98>    H       -2.84943         7.28609         2.87275
| 99>    H       -2.75725         8.89502         4.88131
|100>    H       -2.67033         9.88917         6.98881
|101>    H       -2.70027        10.42725         9.48861
|102>    H       -2.57234         7.17422        11.69551
|103>    H       -2.43355         7.94406        14.08000
|104>    H       -2.70633         9.51285        16.49489
|105>    H       -3.19980        11.61345        18.44343
|106>    H       -4.30685        14.67003        15.59993
|107>    H       -3.99929        13.11713        13.19496
|108>    H       -3.55112        11.03871        11.26598
|109>    H       -3.82499        13.94050        19.47977
|110>    H       -4.62681        16.07914        17.43838
|111>    H       -4.54978        16.24680        19.25621
|112> *
|113>
|114>                          ****END OF INPUT****

CARTESIAN COORDINATES (ANGSTROEM)
---------------------------------
  C      3.150600    4.622800    4.687690
  C      2.389290    5.701020    5.121750
  C      2.576900    6.991680    4.407960
  O      2.909690    7.074840    3.254490
  O      2.347670    8.059470    5.177200
  C      1.469930    5.562320    6.181180
  C      0.733690    6.660910    6.671210
  N      0.122050    7.524580    7.115460
  C      1.276030    4.307400    6.770060
  C      2.041900    3.249410    6.333620
  C      3.014370    3.393770    5.319010
  C      3.720650    2.135430    5.132680
  C      4.828380    1.999940    4.314720
  C      5.387380    3.029060    3.531800
  N      5.917440    3.799990    2.865120
  C      5.587170    0.834130    4.182710
  N      6.224020   -0.120420    4.064340
  C      3.082220    1.156340    5.986280
  C      2.030340    1.845670    6.780220
  O      1.299200    1.335700    7.604420
  C      3.149260   -0.195390    6.180430
  N      3.914040   -1.143220    5.614190
  C      3.734370   -2.494930    5.790490
  S      5.157660   -3.488740    5.865210
  C      4.159890   -4.873480    6.158520
  N      4.776630   -6.123280    6.304650
  O      4.058960   -7.085230    6.508950
  O      5.991500   -6.152150    6.216120
  C      2.823500   -4.577830    6.194890
  C      2.550640   -3.215520    5.958330
  C      1.188830   -2.741770    5.819440
  C      0.798040   -1.683700    5.091860
  C     -0.567380   -1.253950    4.993330
  C     -0.977560   -0.062070    4.534680
  C     -0.065370    1.020980    4.052710
  C     -2.448050    0.291900    4.574110
  N     -2.933640    0.821170    3.321280
  C     -2.951200    2.131720    2.988530
  C     -2.771700    3.188080    3.830700
  C     -2.828220    4.524270    3.405450
  C     -2.724820    5.604600    4.246960
  C     -2.772100    6.972630    3.899090
  C     -2.723560    7.824020    4.964050
  C     -2.637050    7.177330    6.212790
  S     -2.574120    5.446910    5.996170
  C     -2.634820    7.765750    7.468940
  C     -2.675660    9.143240    7.762730
  C     -2.704920    9.428500    9.095710
  C     -2.689130    8.292150    9.934820
  S     -2.606080    6.838270    8.941980
  C     -2.710220    8.175190   11.304880
  C     -2.901820    9.177450   12.277720
  C     -2.734160    8.898320   13.685110
  C     -3.003710   10.036550   14.408410
  C     -2.983670   10.293550   15.800330
  C     -3.328310   11.546570   16.219080
  C     -3.415540   12.128100   17.524940
  C     -3.818770   13.442060   17.401600
  C     -3.996300   13.724950   16.006000
  C     -3.703830   12.587920   15.273910
  C     -3.720910   12.338030   13.890570
  C     -3.372630   11.077630   13.461660
  C     -3.295230   10.512810   12.164730
  C     -4.022230   14.356030   18.499080
  C     -4.419460   15.621200   18.390210
  H      3.834490    4.782520    3.869700
  H      2.480570    8.877700    4.672820
  H      0.547990    4.174790    7.556490
  H      2.423350   -0.568390    6.897650
  H      4.750990   -0.876100    5.096810
  H      2.069500   -5.327690    6.353590
  H      0.444570   -3.347600    6.318690
  H      1.534610   -1.103320    4.558210
  H     -1.305660   -1.946570    5.377600
  H      0.153930    1.701050    4.877500
  H     -0.530010    1.606530    3.262340
  H      0.875560    0.627660    3.680030
  H     -2.619340    1.036950    5.354630
  H     -3.035740   -0.596560    4.821030
  H     -2.975520    0.155360    2.565400
  H     -3.175520    2.326370    1.947350
  H     -2.573530    3.028480    4.880400
  H     -2.968450    4.727210    2.351740
  H     -2.849430    7.286090    2.872750
  H     -2.757250    8.895020    4.881310
  H     -2.670330    9.889170    6.988810
  H     -2.700270   10.427250    9.488610
  H     -2.572340    7.174220   11.695510
  H     -2.433550    7.944060   14.080000
  H     -2.706330    9.512850   16.494890
  H     -3.199800   11.613450   18.443430
  H     -4.306850   14.670030   15.599930
  H     -3.999290   13.117130   13.194960
  H     -3.551120   11.038710   11.265980
  H     -3.824990   13.940500   19.479770
  H     -4.626810   16.079140   17.438380
  H     -4.549780   16.246800   19.256210

 Total Charge           Charge          ....    0
 Multiplicity           Mult            ....    1
 Number of Electrons    NEL             ....  468
 Basis Dimension        Dim             .... 1082

ORBITAL ENERGIES
----------------

  NO   OCC          E(Eh)            E(eV)
   0   2.0000     -88.996675     -2421.7226
   1   2.0000     -88.932130     -2419.9663
   2   2.0000     -88.922439     -2419.7026
   3   2.0000     -19.277519      -524.5680
   4   2.0000     -19.246823      -523.7327
   5   2.0000     -19.246099      -523.7130
   6   2.0000     -19.232981      -523.3560
   7   2.0000     -19.221344      -523.0394
   8   2.0000     -14.658128      -398.8679
   9   2.0000     -14.505949      -394.7270
  10   2.0000     -14.447518      -393.1369
  11   2.0000     -14.447093      -393.1254
  12   2.0000     -14.429343      -392.6424
  13   2.0000     -14.411668      -392.1614
  14   2.0000     -10.423596      -283.6405
  15   2.0000     -10.384986      -282.5898
  16   2.0000     -10.378137      -282.4035
  17   2.0000     -10.377519      -282.3866
  18   2.0000     -10.367833      -282.1231
  19   2.0000     -10.362495      -281.9778
  20   2.0000     -10.355713      -281.7933
  21   2.0000     -10.353362      -281.7293
  22   2.0000     -10.348106      -281.5863
  23   2.0000     -10.331882      -281.1448
  24   2.0000     -10.331475      -281.1337
  25   2.0000     -10.331032      -281.1217
  26   2.0000     -10.323766      -280.9240
  27   2.0000     -10.322988      -280.9028
  28   2.0000     -10.321800      -280.8704
  29   2.0000     -10.321099      -280.8514
  30   2.0000     -10.318033      -280.7680
  31   2.0000     -10.318004      -280.7672
  32   2.0000     -10.316669      -280.7308
  33   2.0000     -10.312442      -280.6158
  34   2.0000     -10.310227      -280.5555
  35   2.0000     -10.297670      -280.2138
  36   2.0000     -10.296276      -280.1759
  37   2.0000     -10.294275      -280.1215
  38   2.0000     -10.293169      -280.0914
  39   2.0000     -10.287436      -279.9354
  40   2.0000     -10.286807      -279.9183
  41   2.0000     -10.286618      -279.9131
  42   2.0000     -10.286274      -279.9037
  43   2.0000     -10.282568      -279.8029
  44   2.0000     -10.281603      -279.7766
  45   2.0000     -10.278034      -279.6795
  46   2.0000     -10.274886      -279.5939
  47   2.0000     -10.271089      -279.4905
  48   2.0000     -10.270938      -279.4864
  49   2.0000     -10.270649      -279.4786
  50   2.0000     -10.269804      -279.4556
  51   2.0000     -10.269072      -279.4357
  52   2.0000     -10.262478      -279.2562
  53   2.0000     -10.260597      -279.2050
  54   2.0000     -10.260014      -279.1892
  55   2.0000     -10.259917      -279.1865
  56   2.0000     -10.258601      -279.1507
  57   2.0000     -10.258158      -279.1387
  58   2.0000     -10.257153      -279.1113
  59   2.0000     -10.254139      -279.0293
  60   2.0000     -10.253830      -279.0209
  61   2.0000     -10.252947      -278.9969
  62   2.0000     -10.252597      -278.9874
  63   2.0000     -10.251405      -278.9549
  64   2.0000     -10.249414      -278.9007
  65   2.0000      -8.092211      -220.2002
  66   2.0000      -8.027882      -218.4498
  67   2.0000      -8.018952      -218.2068
  68   2.0000      -6.061746      -164.9485
  69   2.0000      -6.057322      -164.8281
  70   2.0000      -6.053894      -164.7348
  71   2.0000      -5.997530      -163.2011
  72   2.0000      -5.993740      -163.0980
  73   2.0000      -5.988922      -162.9669
  74   2.0000      -5.988691      -162.9606
  75   2.0000      -5.984784      -162.8543
  76   2.0000      -5.979753      -162.7174
  77   2.0000      -1.327413       -36.1208
  78   2.0000      -1.207280       -32.8518
  79   2.0000      -1.147578       -31.2272
  80   2.0000      -1.146388       -31.1948
  81   2.0000      -1.111307       -30.2402
  82   2.0000      -1.110997       -30.2318
  83   2.0000      -1.046155       -28.4673
  84   2.0000      -1.043709       -28.4008
  85   2.0000      -1.026536       -27.9335
  86   2.0000      -1.017497       -27.6875
  87   2.0000      -1.012335       -27.5470
  88   2.0000      -0.998281       -27.1646
  89   2.0000      -0.977222       -26.5916
  90   2.0000      -0.973125       -26.4801
  91   2.0000      -0.971052       -26.4237
  92   2.0000      -0.955483       -26.0000
  93   2.0000      -0.945969       -25.7411
  94   2.0000      -0.938265       -25.5315
  95   2.0000      -0.926821       -25.2201
  96   2.0000      -0.917582       -24.9687
  97   2.0000      -0.906842       -24.6764
  98   2.0000      -0.893963       -24.3260
  99   2.0000      -0.891653       -24.2631
 100   2.0000      -0.884547       -24.0697
 101   2.0000      -0.879536       -23.9334
 102   2.0000      -0.861534       -23.4435
 103   2.0000      -0.856030       -23.2938
 104   2.0000      -0.850093       -23.1322
 105   2.0000      -0.838937       -22.8286
 106   2.0000      -0.828635       -22.5483
 107   2.0000      -0.826932       -22.5020
 108   2.0000      -0.823163       -22.3994
 109   2.0000      -0.809111       -22.0170
 110   2.0000      -0.804127       -21.8814
 111   2.0000      -0.798757       -21.7353
 112   2.0000      -0.797575       -21.7031
 113   2.0000      -0.784934       -21.3592
 114   2.0000      -0.775559       -21.1040
 115   2.0000      -0.770381       -20.9631
 116   2.0000      -0.754187       -20.5225
 117   2.0000      -0.752553       -20.4780
 118   2.0000      -0.744189       -20.2504
 119   2.0000      -0.733541       -19.9607
 120   2.0000      -0.722557       -19.6618
 121   2.0000      -0.714159       -19.4333
 122   2.0000      -0.712387       -19.3850
 123   2.0000      -0.702533       -19.1169
 124   2.0000      -0.689522       -18.7629
 125   2.0000      -0.685403       -18.6508
 126   2.0000      -0.680743       -18.5240
 127   2.0000      -0.672526       -18.3004
 128   2.0000      -0.656919       -17.8757
 129   2.0000      -0.656637       -17.8680
 130   2.0000      -0.651784       -17.7359
 131   2.0000      -0.647469       -17.6185
 132   2.0000      -0.643070       -17.4988
 133   2.0000      -0.639043       -17.3892
 134   2.0000      -0.635520       -17.2934
 135   2.0000      -0.632995       -17.2247
 136   2.0000      -0.632755       -17.2181
 137   2.0000      -0.624694       -16.9988
 138   2.0000      -0.619038       -16.8449
 139   2.0000      -0.613703       -16.6997
 140   2.0000      -0.611832       -16.6488
 141   2.0000      -0.607638       -16.5347
 142   2.0000      -0.603902       -16.4330
 143   2.0000      -0.600193       -16.3321
 144   2.0000      -0.592570       -16.1246
 145   2.0000      -0.591614       -16.0986
 146   2.0000      -0.588407       -16.0114
 147   2.0000      -0.582085       -15.8393
 148   2.0000      -0.574149       -15.6234
 149   2.0000      -0.569131       -15.4868
 150   2.0000      -0.567237       -15.4353
 151   2.0000      -0.564938       -15.3728
 152   2.0000      -0.563170       -15.3246
 153   2.0000      -0.561055       -15.2671
 154   2.0000      -0.560341       -15.2477
 155   2.0000      -0.555710       -15.1216
 156   2.0000      -0.553060       -15.0495
 157   2.0000      -0.546765       -14.8782
 158   2.0000      -0.541657       -14.7392
 159   2.0000      -0.540658       -14.7121
 160   2.0000      -0.534728       -14.5507
 161   2.0000      -0.529547       -14.4097
 162   2.0000      -0.526904       -14.3378
 163   2.0000      -0.524707       -14.2780
 164   2.0000      -0.522440       -14.2163
 165   2.0000      -0.521282       -14.1848
 166   2.0000      -0.514416       -13.9980
 167   2.0000      -0.509832       -13.8732
 168   2.0000      -0.507644       -13.8137
 169   2.0000      -0.504468       -13.7273
 170   2.0000      -0.501310       -13.6413
 171   2.0000      -0.498958       -13.5773
 172   2.0000      -0.493321       -13.4240
 173   2.0000      -0.491991       -13.3878
 174   2.0000      -0.488283       -13.2869
 175   2.0000      -0.485530       -13.2119
 176   2.0000      -0.483629       -13.1602
 177   2.0000      -0.480591       -13.0776
 178   2.0000      -0.480273       -13.0689
 179   2.0000      -0.479391       -13.0449
 180   2.0000      -0.478367       -13.0170
 181   2.0000      -0.474239       -12.9047
 182   2.0000      -0.473531       -12.8854
 183   2.0000      -0.469794       -12.7837
 184   2.0000      -0.466536       -12.6951
 185   2.0000      -0.464866       -12.6496
 186   2.0000      -0.461483       -12.5576
 187   2.0000      -0.458847       -12.4859
 188   2.0000      -0.458484       -12.4760
 189   2.0000      -0.456607       -12.4249
 190   2.0000      -0.455012       -12.3815
 191   2.0000      -0.452375       -12.3098
 192   2.0000      -0.451848       -12.2954
 193   2.0000      -0.446020       -12.1368
 194   2.0000      -0.444884       -12.1059
 195   2.0000      -0.443550       -12.0696
 196   2.0000      -0.442309       -12.0358
 197   2.0000      -0.438813       -11.9407
 198   2.0000      -0.435535       -11.8515
 199   2.0000      -0.430540       -11.7156
 200   2.0000      -0.426701       -11.6111
 201   2.0000      -0.422591       -11.4993
 202   2.0000      -0.420270       -11.4361
 203   2.0000      -0.419211       -11.4073
 204   2.0000      -0.419137       -11.4053
 205   2.0000      -0.413763       -11.2591
 206   2.0000      -0.410099       -11.1594
 207   2.0000      -0.409313       -11.1380
 208   2.0000      -0.405379       -11.0309
 209   2.0000      -0.401275       -10.9193
 210   2.0000      -0.393722       -10.7137
 211   2.0000      -0.390985       -10.6392
 212   2.0000      -0.385971       -10.5028
 213   2.0000      -0.383991       -10.4489
 214   2.0000      -0.382937       -10.4202
 215   2.0000      -0.378959       -10.3120
 216   2.0000      -0.374431       -10.1888
 217   2.0000      -0.368598       -10.0301
 218   2.0000      -0.364597        -9.9212
 219   2.0000      -0.361640        -9.8407
 220   2.0000      -0.359998        -9.7960
 221   2.0000      -0.356388        -9.6978
 222   2.0000      -0.354007        -9.6330
 223   2.0000      -0.338562        -9.2127
 224   2.0000      -0.334473        -9.1015
 225   2.0000      -0.320857        -8.7310
 226   2.0000      -0.311314        -8.4713
 227   2.0000      -0.307244        -8.3605
 228   2.0000      -0.302254        -8.2247
 229   2.0000      -0.283448        -7.7130
 230   2.0000      -0.267354        -7.2751
 231   2.0000      -0.257213        -6.9991
 232   2.0000      -0.233590        -6.3563
 233   2.0000      -0.182673        -4.9708
 234   0.0000      -0.108119        -2.9421
 235   0.0000      -0.084827        -2.3082
 236   0.0000      -0.082929        -2.2566
 237   0.0000      -0.056347        -1.5333
 238   0.0000      -0.050536        -1.3751

MULLIKEN ATOMIC CHARGES
-----------------------
   0 C :   -0.071032
   1 C :    0.060037
   2 C :    0.124891
   3 O :   -0.174989
   4 O :   -0.154717
   5 C :   -0.072907
   6 C :   -0.139729
   7 N :    0.151364
   8 C :   -0.032734
   9 C :    0.016064
  10 C :    0.021548
  11 C :    0.356513
  12 C :   -0.347518
  13 C :   -0.177327
  14 N :    0.170719
  15 C :   -0.144845
  16 N :    0.075688
  17 C :   -0.146359
  18 C :    0.124424
  19 O :   -0.146476
  20 C :    0.024522
  21 N :   -0.013851
  22 C :   -0.133853
  23 S :    0.217225
  24 C :   -0.001586
  25 N :    0.276717
  26 O :   -0.243798
  27 O :   -0.254088
  28 C :   -0.006903
  29 C :    0.134648
  30 C :   -0.050434
  31 C :    0.018813
  32 C :   -0.000971
  33 C :   -0.192480
  34 C :    0.099474
  35 C :    0.210235
  36 N :   -0.154326
  37 C :    0.046651
  38 C :   -0.054758
  39 C :   -0.006547
  40 C :   -0.043031
  41 C :    0.033256
  42 C :    0.017665
  43 C :   -0.044356
  44 S :    0.029339
  45 C :   -0.006621
  46 C :    0.028279
  47 C :    0.020278
  48 C :   -0.044947
  49 S :    0.061715
  50 C :    0.014887
  51 C :    0.081233
  52 C :   -0.040573
  53 C :    0.058678
  54 C :   -0.005453
  55 C :    0.061530
  56 C :   -0.036601
  57 C :    0.067475
  58 C :   -0.030959
  59 C :    0.054761
  60 C :   -0.013739
  61 C :    0.065157
  62 C :   -0.062695
  63 C :    0.011277
  64 C :   -0.028640
  65 H :    0.024449
  66 H :    0.201977
  67 H :    0.012760
  68 H :    0.061984
  69 H :    0.149282
  70 H :    0.014520
  71 H :   -0.005244
  72 H :    0.005749
  73 H :   -0.025526
  74 H :    0.037125
  75 H :    0.029329
  76 H :    0.012945
  77 H :    0.045399
  78 H :    0.009038
  79 H :    0.124516
  80 H :    0.004045
  81 H :   -0.008979
  82 H :   -0.024226
  83 H :   -0.022720
  84 H :   -0.022372
  85 H :   -0.023603
  86 H :   -0.024862
  87 H :   -0.033315
  88 H :   -0.027108
  89 H :   -0.031328
  90 H :   -0.034491
  91 H :   -0.029880
  92 H :   -0.033723
  93 H :   -0.041827
  94 H :   -0.022399
  95 H :    0.006305
  96 H :    0.016955
Sum of atomic charges:   -0.0000000

LOEWDIN ATOMIC CHARGES
----------------------
   0 C :    0.035442
   1 C :   -0.027020
   2 C :    0.082934
   3 O :   -0.159913
   4 O :   -0.010704
   5 C :   -0.024829
   6 C :   -0.036500
   7 N :   -0.020870
   8 C :    0.047240
   9 C :   -0.036040
  10 C :   -0.008080
  11 C :    0.079646
  12 C :   -0.150751
  13 C :   -0.025973
  14 N :   -0.034982
  15 C :    0.007344
  16 N :   -0.068472
  17 C :   -0.155771
  18 C :    0.081955
  19 O :   -0.145168
  20 C :    0.124646
  21 N :    0.057312
  22 C :   -0.122246
  23 S :    0.487981
  24 C :   -0.200951
  25 N :    0.274373
  26 O :   -0.209899
  27 O :   -0.220223
  28 C :   -0.000234
  29 C :   -0.079936
  30 C :   -0.036912
  31 C :   -0.014074
  32 C :   -0.050939
  33 C :   -0.023228
  34 C :   -0.053539
  35 C :    0.046244
  36 N :   -0.001404
  37 C :    0.036693
  38 C :   -0.130286
  39 C :   -0.040940
  40 C :   -0.175424
  41 C :   -0.038107
  42 C :   -0.046083
  43 C :   -0.173964
  44 S :    0.348953
  45 C :   -0.181743
  46 C :   -0.016059
  47 C :   -0.047465
  48 C :   -0.137185
  49 S :    0.360390
  50 C :   -0.069251
  51 C :   -0.051486
  52 C :    0.039046
  53 C :   -0.062778
  54 C :    0.061924
  55 C :   -0.055393
  56 C :    0.002266
  57 C :   -0.057133
  58 C :    0.032805
  59 C :   -0.056169
  60 C :    0.049740
  61 C :   -0.046936
  62 C :   -0.024677
  63 C :   -0.019857
  64 C :   -0.059510
  65 H :    0.048962
  66 H :    0.109814
  67 H :    0.051106
  68 H :    0.052178
  69 H :    0.079308
  70 H :    0.047286
  71 H :    0.032493
  72 H :    0.023896
  73 H :    0.026261
  74 H :    0.040897
  75 H :    0.036383
  76 H :    0.026513
  77 H :    0.040203
  78 H :    0.030784
  79 H :    0.080055
  80 H :    0.028683
  81 H :    0.014096
  82 H :    0.028984
  83 H :    0.029473
  84 H :    0.028479
  85 H :    0.028720
  86 H :    0.028227
  87 H :    0.024180
  88 H :    0.023344
  89 H :    0.032376
  90 H :    0.021363
  91 H :    0.022447
  92 H :    0.031120
  93 H :    0.016654
  94 H :    0.028114
  95 H :    0.017017
  96 H :    0.022751

  Mayer bond orders larger than 0.100000
B(  0-C ,  1-C ) :   1.3762 B(  0-C , 10-C ) :   1.3298 B(  0-C , 65-H ) :   0.9849
B(  1-C ,  2-C ) :   0.8719 B(  1-C ,  5-C ) :   1.3640 B(  2-C ,  3-O ) :   2.1676
B(  2-C ,  4-O ) :   1.2857 B(  4-O , 66-H ) :   0.9361 B(  5-C ,  6-C ) :   1.0855
B(  5-C ,  8-C ) :   1.3497 B(  6-C ,  7-N ) :   2.9854 B(  8-C ,  9-C ) :   1.3635
B(  8-C , 67-H ) :   1.0169 B(  9-C , 10-C ) :   1.3177 B(  9-C , 18-C ) :   0.9170
B( 10-C , 11-C ) :   1.0070 B( 11-C , 12-C ) :   1.5950 B( 11-C , 17-C ) :   1.0289
B( 12-C , 13-C ) :   1.1254 B( 12-C , 15-C ) :   1.1908 B( 13-C , 14-N ) :   2.9703
B( 15-C , 16-N ) :   2.8264 B( 16-N , 69-H ) :   0.1014 B( 17-C , 18-C ) :   0.9747
B( 17-C , 20-C ) :   1.5782 B( 18-C , 19-O ) :   2.2294 B( 20-C , 21-N ) :   1.3197
B( 20-C , 68-H ) :   0.8954 B( 21-N , 22-C ) :   1.1014 B( 21-N , 69-H ) :   0.8533
B( 22-C , 23-S ) :   1.1579 B( 22-C , 29-C ) :   1.4313 B( 23-S , 24-C ) :   1.1054
B( 24-C , 25-N ) :   0.9579 B( 24-C , 28-C ) :   1.4885 B( 25-N , 26-O ) :   1.5406
B( 25-N , 27-O ) :   1.5191 B( 26-O , 27-O ) :   0.2668 B( 28-C , 29-C ) :   1.2184
B( 28-C , 70-H ) :   1.0063 B( 29-C , 30-C ) :   1.0328 B( 30-C , 31-C ) :   1.7596
B( 30-C , 71-H ) :   0.9751 B( 31-C , 32-C ) :   1.1047 B( 31-C , 72-H ) :   0.9473
B( 32-C , 33-C ) :   1.7735 B( 32-C , 73-H ) :   0.9751 B( 33-C , 34-C ) :   1.0834
B( 33-C , 35-C ) :   1.0465 B( 34-C , 74-H ) :   0.9380 B( 34-C , 75-H ) :   0.9365
B( 34-C , 76-H ) :   0.9425 B( 35-C , 36-N ) :   0.9878 B( 35-C , 77-H ) :   0.9226
B( 35-C , 78-H ) :   0.9369 B( 36-N , 37-C ) :   1.2144 B( 36-N , 79-H ) :   0.9415
B( 37-C , 38-C ) :   1.6090 B( 37-C , 80-H ) :   0.9666 B( 38-C , 39-C ) :   1.1621
B( 38-C , 81-H ) :   0.9587 B( 39-C , 40-C ) :   1.5777 B( 39-C , 82-H ) :   0.9827
B( 40-C , 41-C ) :   1.1501 B( 40-C , 44-S ) :   1.0061 B( 41-C , 42-C ) :   1.5737
B( 41-C , 83-H ) :   0.9984 B( 42-C , 43-C ) :   1.2042 B( 42-C , 84-H ) :   0.9937
B( 43-C , 44-S ) :   1.0394 B( 43-C , 45-C ) :   1.4763 B( 45-C , 46-C ) :   1.2064
B( 45-C , 49-S ) :   1.0437 B( 46-C , 47-C ) :   1.5834 B( 46-C , 85-H ) :   0.9909
B( 47-C , 48-C ) :   1.1605 B( 47-C , 86-H ) :   0.9927 B( 48-C , 49-S ) :   1.0344
B( 48-C , 50-C ) :   1.5548 B( 50-C , 51-C ) :   1.1664 B( 50-C , 87-H ) :   0.9500
B( 51-C , 52-C ) :   1.1076 B( 51-C , 62-C ) :   1.4588 B( 52-C , 53-C ) :   1.4581
B( 52-C , 88-H ) :   1.0151 B( 53-C , 54-C ) :   1.1090 B( 53-C , 61-C ) :   1.1188
B( 54-C , 55-C ) :   1.4881 B( 54-C , 89-H ) :   1.0038 B( 55-C , 56-C ) :   1.0735
B( 55-C , 59-C ) :   1.1210 B( 56-C , 57-C ) :   1.5245 B( 56-C , 90-H ) :   1.0172
B( 57-C , 58-C ) :   1.1266 B( 57-C , 63-C ) :   1.0873 B( 58-C , 59-C ) :   1.4631
B( 58-C , 91-H ) :   1.0070 B( 59-C , 60-C ) :   1.1212 B( 60-C , 61-C ) :   1.4564
B( 60-C , 92-H ) :   1.0028 B( 61-C , 62-C ) :   1.1155 B( 62-C , 93-H ) :   1.0100
B( 63-C , 64-C ) :   1.9289 B( 63-C , 94-H ) :   0.9668 B( 64-C , 95-H ) :   0.9524
B( 64-C , 96-H ) :   0.9498

-----------------------------------------------------------------------------
         ABSORPTION SPECTRUM VIA TRANSITION ELECTRIC DIPOLE MOMENTS
-----------------------------------------------------------------------------
State   Energy  Wavelength   fosc         T2         TX        TY        TZ
        (cm-1)    (nm)                  (au**2)     (au)      (au)      (au)
-----------------------------------------------------------------------------
   0    3924.0   2548.4   0.050425244   4.23047   1.49580  -1.15941  -0.80549
   1    6176.9   1618.9   0.072569178   3.86773   0.08939  -1.18791  -1.56480
   2    9270.9   1078.6   0.001523592   0.05410  -0.06293  -0.22385  -0.00562
   3   14485.5    690.3   0.822040184  18.68251  -0.36801   2.81851   3.25624
   4   15599.9    641.0   1.023165750  21.59240   0.21459  -2.70198  -3.77434
   5   16734.2    597.6   0.034558270   0.67987  -0.01108   0.59608   0.56959
   6   17949.8    557.1   0.025531150   0.46826  -0.05242  -0.30083  -0.61239
   7   20265.4    493.5   0.122360826   1.98775   0.47283   1.32808   0.01936
   8   21053.4    475.0   0.055918765   0.87440   0.14450   0.40964  -0.82808
   9   22133.1    451.8   0.010619279   0.15795  -0.35900   0.15999  -0.05897
  10   22427.7    445.9   0.193271993   2.83700   0.23289  -1.00873  -1.32862
  11   22615.0    442.2   0.032793284   0.47738   0.32922   0.25957   0.54920
  12   23857.6    419.2   0.014739486   0.20339   0.29944   0.30127  -0.15153
  13   24454.5    408.9   0.002367743   0.03188   0.06983  -0.05249   0.15570
  14   25035.6    399.4   0.007912350   0.10405   0.22013   0.18772  -0.14265
  15   25449.0    392.9   0.103746118   1.34207   0.01456   1.07359   0.43503
  16   26420.2    378.5   0.164939063   2.05524   0.33759   1.37642  -0.21622
  17   26482.2    377.6   0.159908642   1.98790  -0.25957  -1.01417   0.94444
  18   27540.1    363.1   0.106929042   1.27822  -0.51270  -0.11934   1.00056
  19   28553.6    350.2   0.139632148   1.60990   0.64999  -0.30197  -1.04701
  20   29097.3    343.7   0.030884556   0.34943   0.14204  -0.53990   0.19433
  21   29250.0    341.9   0.002323833   0.02616  -0.11794   0.11065   0.00051
  22   29903.1    334.4   0.032585602   0.35874   0.13064  -0.05181   0.58223
  23   30020.3    333.1   0.010725167   0.11762  -0.13275   0.31389   0.03833
  24   30317.7    329.8   0.001376900   0.01495   0.03704  -0.10122  -0.05775
  25   30573.6    327.1   0.022130322   0.23830   0.11013  -0.42125  -0.22071
  26   30796.0    324.7   0.023051125   0.24642  -0.05604   0.15310  -0.46887
  27   31028.4    322.3   0.005730346   0.06080   0.12650   0.03043  -0.20945
  28   31054.0    322.0   0.105016731   1.11331   0.25181  -1.01822   0.11457
  29   31571.9    316.7   0.131803477   1.37436  -0.62750   0.98698  -0.08046
  30   31924.4    313.2   0.031612702   0.32600   0.02527  -0.36158  -0.44115
  31   31945.4    313.0   0.020443412   0.21068  -0.04355   0.34765   0.29652
  32   32401.3    308.6   0.283642787   2.88194   0.98329  -1.20869  -0.67390
  33   32662.2    306.2   0.016105683   0.16233   0.37073  -0.12076   0.10154
  34   33045.5    302.6   0.241002784   2.40096   1.01553  -0.97409  -0.64870
  35   33428.5    299.1   0.004784124   0.04712   0.09444  -0.01826   0.19459
  36   33493.4    298.6   0.126738092   1.24573   0.79417  -0.64371  -0.44795
  37   33742.9    296.4   0.151072061   1.47393   0.70219  -0.95370  -0.26705
  38   33977.1    294.3   0.152132282   1.47405   0.54297  -1.06991  -0.18579
  39   34804.4    287.3   0.593184040   5.61089   0.62866  -2.22514  -0.51422
  40   35102.5    284.9   0.036383216   0.34122  -0.28985   0.49079   0.12782
  41   35123.4    284.7   0.016487281   0.15454  -0.06693   0.38431   0.04863
  42   35766.1    279.6   0.014223306   0.13092  -0.00780  -0.34741  -0.10081
  43   35857.2    278.9   0.036670753   0.33668  -0.23477  -0.42507  -0.31762
  44   36646.8    272.9   0.012652011   0.11366  -0.06648   0.33048   0.00433
  45   36945.9    270.7   0.121368779   1.08147   0.00789   0.81426  -0.64683
  46   37044.2    269.9   0.008260068   0.07341  -0.17595   0.10968  -0.17440
  47   37494.0    266.7   0.024349995   0.21380   0.23806   0.34337  -0.19805
  48   37851.7    264.2   0.052440593   0.45610  -0.62223   0.25545  -0.06061
  49   38051.1    262.8   0.163593515   1.41538   0.93597  -0.72179   0.13552
  50   38244.0    261.5   0.015304625   0.13175   0.03039   0.35561   0.06606
  51   38338.9    260.8   0.135897375   1.16693   0.50264  -0.89465  -0.33747
  52   38582.2    259.2   0.273612075   2.33466   0.29414  -1.28783  -0.76789
  53   38668.6    258.6   0.083841548   0.71380  -0.63089   0.46519  -0.31523
  54   38707.1    258.4   0.243070150   2.06736   1.05941  -0.59926   0.76544
  55   39042.8    256.1   0.048900070   0.41233  -0.55204   0.12859   0.30173
  56   39126.0    255.6   0.052617552   0.44273   0.15030   0.53149  -0.37103
  57   39171.0    255.3   0.012426608   0.10444  -0.24622   0.06627   0.19855
  58   39437.2    253.6   0.010826873   0.09038   0.16520  -0.19455   0.15887
  59   39486.5    253.3   0.037591956   0.31342   0.00005   0.55460  -0.07640
  60   39715.3    251.8   0.007734539   0.06411   0.16995   0.18225   0.04488
  61   39942.7    250.4   0.011227904   0.09254   0.02418  -0.06154  -0.29693
  62   40011.0    249.9   0.205051946   1.68718  -0.04747   1.19700   0.50211

FINAL SINGLE POINT ENERGY     -3857.870972616841

DIPOLE MOMENT
-------------
                                X             Y             Z
Electronic contribution:     47.09774     -36.31150     -21.12503
Nuclear contribution   :    -48.85608      36.05918      19.86792
                        -----------------------------------------
Total Dipole Moment    :     -1.75833      -0.25232      -1.25711
                        -----------------------------------------
Magnitude (a.u.)       :      2.17617
Magnitude (Debye)      :      5.53139

Rotational constants in cm-1:     0.001616     0.000353     0.000333
Rotational constants in MHz :    48.441050    10.574730     9.996444

                             ****ORCA TERMINATED NORMALLY****
TOTAL RUN TIME: 0 days 0 hours 12 minutes 24 seconds 726 msec
