                         Program Version 4.2.0 -  RELEASE  -
|  1> # ORCA input file
|  2> # SCF done       -205.652620298125          0.000988030818
|  3> ! CAM-B3LYP def2-SVP def2/J RIJCOSX Grid4 TightSCF
|  4> %maxcore 5000
|  5> %tddft
|  6>     Mode sTDDFT
|  7>     Ethresh 5.0
|  8>     maxcore 5000
|  9> end
| 10>
| 11> %pal
| 12>   nprocs 6
| 13>   end
| 14> * xyz 0 1
| 15>    C       15.49182       -16.31657         4.59044
| 16>    C       15.29689       -15.16647         3.93020
| 17>    C       16.17968       -14.52810         2.99698
| 18>    C       15.70691       -13.36907         2.48649
| 19>    C       14.42169       -12.99721         2.97042
| 20>    S       13.83136       -14.18688         4.10671
| 21>    C       13.69806       -11.87543         2.62627
| 22>    C       14.07979       -10.84006         1.74044
| 23>    C       13.14179        -9.86719         1.58274
| 24>    C       11.95687       -10.06739         2.32938
| 25>    S       12.10939       -11.54313         3.27578
| 26>    C       10.81397        -9.31533         2.48543
| 27>    C       10.32798        -8.19156         1.78882
| 28>    C       10.68737        -7.75482         0.48307
| 29>    C       10.12585        -6.55432        -0.10173
| 30>    N       10.48126        -6.20490        -1.35315
| 31>    C       11.31875        -6.95140        -2.02583
| 32>    C       11.84583        -8.15388        -1.45866
| 33>    N       11.51503        -8.51329        -0.23709
| 34>    C       12.73311        -8.97514        -2.19069
| 35>    N       13.47182        -9.61462        -2.79129
| 36>    C       11.69371        -6.56430        -3.33670
| 37>    N       12.03304        -6.28163        -4.39428
| 38>    C        9.18097        -5.75120         0.56543
| 39>    C        8.73776        -6.24087         1.81050
| 40>    C        9.29526        -7.43265         2.40361
| 41>    N        8.76064        -7.69489         3.59328
| 42>    S        7.66827        -6.56586         3.93994
| 43>    N        7.82084        -5.68202         2.60609
| 44>    C        8.69527        -4.49525         0.02023
| 45>    C        7.36537        -4.10602         0.24200
| 46>    C        6.91990        -2.90296        -0.24626
| 47>    C        7.77779        -2.08257        -1.00271
| 48>    C        9.09661        -2.45633        -1.22257
| 49>    C        9.54771        -3.65056        -0.70256
| 50>    C        7.03490        -0.93385        -1.46052
| 51>    C        5.71410        -1.03472        -0.98756
| 52>    C        5.55271        -2.26850        -0.12248
| 53>    C        4.43605        -3.19102        -0.63130
| 54>    C        4.63228        -3.58579        -2.09072
| 55>    C        5.28257        -1.78332         1.32140
| 56>    C        5.25440        -2.86625         2.39263
| 57>    C        4.78893        -0.07251        -1.30301
| 58>    C        5.15694         1.02058        -2.11049
| 59>    C        6.48194         1.10177        -2.57200
| 60>    C        7.41556         0.14061        -2.25482
| 61>    C        4.16118         2.00565        -2.42741
| 62>    C        4.35009         3.11230        -3.18834
| 63>    C        3.35447         4.08117        -3.45265
| 64>    S        1.85613         3.99749        -2.57869
| 65>    C        1.26129         5.48811        -3.23567
| 66>    C        2.20457         6.03081        -4.13526
| 67>    C        3.37631         5.21733        -4.28715
| 68>    C        4.35631         5.62444        -5.23481
| 69>    C        5.54438         4.79293        -5.61413
| 70>    F        5.23509         3.51421        -5.89602
| 71>    F        6.16355         5.25464        -6.71268
| 72>    F        6.50829         4.75223        -4.66644
| 73>    C        4.20078         6.81848        -5.89597
| 74>    C        3.09240         7.64047        -5.69381
| 75>    C        2.07855         7.25657        -4.84427
| 76>    O        0.95554         7.98369        -4.63960
| 77>    C        0.79573         9.20249        -5.33005
| 78>    C        0.01053         5.98738        -2.85519
| 79>    C       -0.84729         5.36096        -1.98475
| 80>    C       -2.08589         5.88956        -1.62431
| 81>    C       -2.98006         5.28851        -0.76599
| 82>    C       -4.24160         5.79044        -0.37189
| 83>    C       -4.92517         4.98374         0.48647
| 84>    C       -4.23986         3.79268         0.82063
| 85>    S       -2.68992         3.73850         0.00405
| 86>    C       -4.66496         2.78031         1.65251
| 87>    C       -5.89406         2.70778         2.36249
| 88>    C       -6.04465         1.58765         3.10523
| 89>    C       -4.93594         0.68079         3.03975
| 90>    S       -3.69709         1.35540         1.96872
| 91>    C       -4.80063        -0.49864         3.66261
| 92>    H       16.39631       -16.88220         4.45229
| 93>    H       14.75941       -16.70864         5.27197
| 94>    H       17.12937       -14.96816         2.75012
| 95>    H       16.23343       -12.76188         1.77209
| 96>    H       15.03396       -10.83575         1.24532
| 97>    H       13.28008        -9.00271         0.96360
| 98>    H       10.16902        -9.61288         3.30458
| 99>    H        6.70545        -4.77528         0.76840
|100>    H        9.76193        -1.82178        -1.78842
|101>    H       10.57774        -3.93594        -0.84380
|102>    H        3.47690        -2.68124        -0.51703
|103>    H        4.41340        -4.09339        -0.01917
|104>    H        4.63354        -2.70673        -2.73136
|105>    H        3.82971        -4.24556        -2.41297
|106>    H        5.57904        -4.10526        -2.22190
|107>    H        4.32546        -1.25604         1.32029
|108>    H        6.05786        -1.05653         1.57864
|109>    H        4.48774        -3.60813         2.18531
|110>    H        5.02868        -2.41080         3.35483
|111>    H        6.21577        -3.36559         2.47140
|112>    H        3.77119        -0.14205        -0.94539
|113>    H        6.78218         1.93110        -3.19218
|114>    H        8.42781         0.22007        -2.62174
|115>    H        3.17472         1.82658        -2.01541
|116>    H        5.32822         3.28697        -3.59390
|117>    H        4.94586         7.13706        -6.60758
|118>    H        3.04172         8.56683        -6.23992
|119>    H       -0.16981         9.59281        -5.01182
|120>    H        0.78519         9.05091        -6.41330
|121>    H        1.57933         9.91863        -5.06619
|122>    H       -0.28981         6.92941        -3.28505
|123>    H       -0.56059         4.40957        -1.55298
|124>    H       -2.37717         6.84378        -2.04501
|125>    H       -4.60535         6.73523        -0.73654
|126>    H       -5.89726         5.21174         0.88526
|127>    H       -6.62652         3.49250         2.29563
|128>    H       -6.90634         1.35881         3.70671
|129>    H       -5.57844        -0.87217         4.30477
|130>    H       -3.92085        -1.10357         3.54307
|131> *
|132>
|133>                          ****END OF INPUT****

CARTESIAN COORDINATES (ANGSTROEM)
---------------------------------
  C     15.491820  -16.316570    4.590440
  C     15.296890  -15.166470    3.930200
  C     16.179680  -14.528100    2.996980
  C     15.706910  -13.369070    2.486490
  C     14.421690  -12.997210    2.970420
  S     13.831360  -14.186880    4.106710
  C     13.698060  -11.875430    2.626270
  C     14.079790  -10.840060    1.740440
  C     13.141790   -9.867190    1.582740
  C     11.956870  -10.067390    2.329380
  S     12.109390  -11.543130    3.275780
  C     10.813970   -9.315330    2.485430
  C     10.327980   -8.191560    1.788820
  C     10.687370   -7.754820    0.483070
  C     10.125850   -6.554320   -0.101730
  N     10.481260   -6.204900   -1.353150
  C     11.318750   -6.951400   -2.025830
  C     11.845830   -8.153880   -1.458660
  N     11.515030   -8.513290   -0.237090
  C     12.733110   -8.975140   -2.190690
  N     13.471820   -9.614620   -2.791290
  C     11.693710   -6.564300   -3.336700
  N     12.033040   -6.281630   -4.394280
  C      9.180970   -5.751200    0.565430
  C      8.737760   -6.240870    1.810500
  C      9.295260   -7.432650    2.403610
  N      8.760640   -7.694890    3.593280
  S      7.668270   -6.565860    3.939940
  N      7.820840   -5.682020    2.606090
  C      8.695270   -4.495250    0.020230
  C      7.365370   -4.106020    0.242000
  C      6.919900   -2.902960   -0.246260
  C      7.777790   -2.082570   -1.002710
  C      9.096610   -2.456330   -1.222570
  C      9.547710   -3.650560   -0.702560
  C      7.034900   -0.933850   -1.460520
  C      5.714100   -1.034720   -0.987560
  C      5.552710   -2.268500   -0.122480
  C      4.436050   -3.191020   -0.631300
  C      4.632280   -3.585790   -2.090720
  C      5.282570   -1.783320    1.321400
  C      5.254400   -2.866250    2.392630
  C      4.788930   -0.072510   -1.303010
  C      5.156940    1.020580   -2.110490
  C      6.481940    1.101770   -2.572000
  C      7.415560    0.140610   -2.254820
  C      4.161180    2.005650   -2.427410
  C      4.350090    3.112300   -3.188340
  C      3.354470    4.081170   -3.452650
  S      1.856130    3.997490   -2.578690
  C      1.261290    5.488110   -3.235670
  C      2.204570    6.030810   -4.135260
  C      3.376310    5.217330   -4.287150
  C      4.356310    5.624440   -5.234810
  C      5.544380    4.792930   -5.614130
  F      5.235090    3.514210   -5.896020
  F      6.163550    5.254640   -6.712680
  F      6.508290    4.752230   -4.666440
  C      4.200780    6.818480   -5.895970
  C      3.092400    7.640470   -5.693810
  C      2.078550    7.256570   -4.844270
  O      0.955540    7.983690   -4.639600
  C      0.795730    9.202490   -5.330050
  C      0.010530    5.987380   -2.855190
  C     -0.847290    5.360960   -1.984750
  C     -2.085890    5.889560   -1.624310
  C     -2.980060    5.288510   -0.765990
  C     -4.241600    5.790440   -0.371890
  C     -4.925170    4.983740    0.486470
  C     -4.239860    3.792680    0.820630
  S     -2.689920    3.738500    0.004050
  C     -4.664960    2.780310    1.652510
  C     -5.894060    2.707780    2.362490
  C     -6.044650    1.587650    3.105230
  C     -4.935940    0.680790    3.039750
  S     -3.697090    1.355400    1.968720
  C     -4.800630   -0.498640    3.662610
  H     16.396310  -16.882200    4.452290
  H     14.759410  -16.708640    5.271970
  H     17.129370  -14.968160    2.750120
  H     16.233430  -12.761880    1.772090
  H     15.033960  -10.835750    1.245320
  H     13.280080   -9.002710    0.963600
  H     10.169020   -9.612880    3.304580
  H      6.705450   -4.775280    0.768400
  H      9.761930   -1.821780   -1.788420
  H     10.577740   -3.935940   -0.843800
  H      3.476900   -2.681240   -0.517030
  H      4.413400   -4.093390   -0.019170
  H      4.633540   -2.706730   -2.731360
  H      3.829710   -4.245560   -2.412970
  H      5.579040   -4.105260   -2.221900
  H      4.325460   -1.256040    1.320290
  H      6.057860   -1.056530    1.578640
  H      4.487740   -3.608130    2.185310
  H      5.028680   -2.410800    3.354830
  H      6.215770   -3.365590    2.471400
  H      3.771190   -0.142050   -0.945390
  H      6.782180    1.931100   -3.192180
  H      8.427810    0.220070   -2.621740
  H      3.174720    1.826580   -2.015410
  H      5.328220    3.286970   -3.593900
  H      4.945860    7.137060   -6.607580
  H      3.041720    8.566830   -6.239920
  H     -0.169810    9.592810   -5.011820
  H      0.785190    9.050910   -6.413300
  H      1.579330    9.918630   -5.066190
  H     -0.289810    6.929410   -3.285050
  H     -0.560590    4.409570   -1.552980
  H     -2.377170    6.843780   -2.045010
  H     -4.605350    6.735230   -0.736540
  H     -5.897260    5.211740    0.885260
  H     -6.626520    3.492500    2.295630
  H     -6.906340    1.358810    3.706710
  H     -5.578440   -0.872170    4.304770
  H     -3.920850   -1.103570    3.543070

 Total Charge           Charge          ....    0
 Multiplicity           Mult            ....    1
 Number of Electrons    NEL             ....  578
 Basis Dimension        Dim             .... 1297

ORBITAL ENERGIES
----------------

  NO   OCC          E(Eh)            E(eV)
   0   2.0000     -89.032238     -2422.6904
   1   2.0000     -88.952895     -2420.5313
   2   2.0000     -88.951039     -2420.4808
   3   2.0000     -88.950653     -2420.4703
   4   2.0000     -88.936506     -2420.0854
   5   2.0000     -88.932943     -2419.9884
   6   2.0000     -24.786566      -674.4767
   7   2.0000     -24.785898      -674.4586
   8   2.0000     -24.784461      -674.4195
   9   2.0000     -19.261436      -524.1303
  10   2.0000     -14.448783      -393.1714
  11   2.0000     -14.444814      -393.0634
  12   2.0000     -14.444064      -393.0430
  13   2.0000     -14.440623      -392.9493
  14   2.0000     -14.418345      -392.3431
  15   2.0000     -14.418281      -392.3414
  16   2.0000     -10.504349      -285.8379
  17   2.0000     -10.367475      -282.1133
  18   2.0000     -10.363938      -282.0171
  19   2.0000     -10.347315      -281.5648
  20   2.0000     -10.334468      -281.2152
  21   2.0000     -10.333115      -281.1784
  22   2.0000     -10.332987      -281.1749
  23   2.0000     -10.330262      -281.1007
  24   2.0000     -10.329790      -281.0879
  25   2.0000     -10.325617      -280.9743
  26   2.0000     -10.320902      -280.8460
  27   2.0000     -10.317577      -280.7555
  28   2.0000     -10.315461      -280.6980
  29   2.0000     -10.313100      -280.6337
  30   2.0000     -10.311847      -280.5996
  31   2.0000     -10.308405      -280.5060
  32   2.0000     -10.303610      -280.3755
  33   2.0000     -10.302955      -280.3577
  34   2.0000     -10.301292      -280.3124
  35   2.0000     -10.301143      -280.3084
  36   2.0000     -10.298866      -280.2464
  37   2.0000     -10.298857      -280.2462
  38   2.0000     -10.298115      -280.2259
  39   2.0000     -10.296970      -280.1948
  40   2.0000     -10.294958      -280.1400
  41   2.0000     -10.294363      -280.1239
  42   2.0000     -10.289523      -279.9922
  43   2.0000     -10.284327      -279.8508
  44   2.0000     -10.284190      -279.8470
  45   2.0000     -10.283592      -279.8308
  46   2.0000     -10.283462      -279.8272
  47   2.0000     -10.283183      -279.8196
  48   2.0000     -10.282859      -279.8108
  49   2.0000     -10.282611      -279.8041
  50   2.0000     -10.281289      -279.7681
  51   2.0000     -10.278754      -279.6991
  52   2.0000     -10.278239      -279.6851
  53   2.0000     -10.271853      -279.5113
  54   2.0000     -10.271397      -279.4989
  55   2.0000     -10.269876      -279.4575
  56   2.0000     -10.269321      -279.4424
  57   2.0000     -10.268809      -279.4285
  58   2.0000     -10.266607      -279.3686
  59   2.0000     -10.266290      -279.3600
  60   2.0000     -10.264959      -279.3237
  61   2.0000     -10.264476      -279.3106
  62   2.0000     -10.262596      -279.2594
  63   2.0000     -10.260002      -279.1889
  64   2.0000     -10.258630      -279.1515
  65   2.0000     -10.258500      -279.1480
  66   2.0000     -10.256968      -279.1063
  67   2.0000     -10.256635      -279.0972
  68   2.0000     -10.256579      -279.0957
  69   2.0000     -10.256534      -279.0945
  70   2.0000     -10.255637      -279.0701
  71   2.0000     -10.255344      -279.0621
  72   2.0000     -10.254622      -279.0424
  73   2.0000     -10.251946      -278.9696
  74   2.0000     -10.251822      -278.9663
  75   2.0000     -10.238834      -278.6128
  76   2.0000     -10.235410      -278.5197
  77   2.0000      -8.123755      -221.0586
  78   2.0000      -8.048245      -219.0039
  79   2.0000      -8.047725      -218.9897
  80   2.0000      -8.047130      -218.9735
  81   2.0000      -8.032866      -218.5854
  82   2.0000      -8.029664      -218.4983
  83   2.0000      -6.094882      -165.8502
  84   2.0000      -6.087058      -165.6373
  85   2.0000      -6.086442      -165.6205
  86   2.0000      -6.017497      -163.7444
  87   2.0000      -6.017154      -163.7351
  88   2.0000      -6.016817      -163.7259
  89   2.0000      -6.013580      -163.6378
  90   2.0000      -6.013243      -163.6287
  91   2.0000      -6.012804      -163.6167
  92   2.0000      -6.010905      -163.5650
  93   2.0000      -6.008340      -163.4952
  94   2.0000      -6.008077      -163.4881
  95   2.0000      -6.002565      -163.3381
  96   2.0000      -5.999474      -163.2540
  97   2.0000      -5.998681      -163.2324
  98   2.0000      -5.995575      -163.1479
  99   2.0000      -5.993691      -163.0966
 100   2.0000      -5.990206      -163.0018
 101   2.0000      -1.375768       -37.4366
 102   2.0000      -1.276985       -34.7485
 103   2.0000      -1.275927       -34.7197
 104   2.0000      -1.165621       -31.7182
 105   2.0000      -1.129520       -30.7358
 106   2.0000      -1.106175       -30.1006
 107   2.0000      -1.032902       -28.1067
 108   2.0000      -1.002746       -27.2861
 109   2.0000      -1.001305       -27.2469
 110   2.0000      -0.992823       -27.0161
 111   2.0000      -0.991264       -26.9737
 112   2.0000      -0.986274       -26.8379
 113   2.0000      -0.985496       -26.8167
 114   2.0000      -0.978653       -26.6305
 115   2.0000      -0.974513       -26.5179
 116   2.0000      -0.963795       -26.2262
 117   2.0000      -0.963565       -26.2199
 118   2.0000      -0.937052       -25.4985
 119   2.0000      -0.931336       -25.3429
 120   2.0000      -0.911470       -24.8024
 121   2.0000      -0.903555       -24.5870
 122   2.0000      -0.898340       -24.4451
 123   2.0000      -0.893348       -24.3092
 124   2.0000      -0.887713       -24.1559
 125   2.0000      -0.879941       -23.9444
 126   2.0000      -0.870651       -23.6916
 127   2.0000      -0.867182       -23.5972
 128   2.0000      -0.855357       -23.2754
 129   2.0000      -0.852931       -23.2094
 130   2.0000      -0.844200       -22.9719
 131   2.0000      -0.838961       -22.8293
 132   2.0000      -0.837900       -22.8004
 133   2.0000      -0.830354       -22.5951
 134   2.0000      -0.825105       -22.4522
 135   2.0000      -0.824336       -22.4313
 136   2.0000      -0.820728       -22.3331
 137   2.0000      -0.820219       -22.3193
 138   2.0000      -0.819340       -22.2954
 139   2.0000      -0.813419       -22.1343
 140   2.0000      -0.806312       -21.9409
 141   2.0000      -0.802901       -21.8480
 142   2.0000      -0.797462       -21.7000
 143   2.0000      -0.784976       -21.3603
 144   2.0000      -0.771127       -20.9834
 145   2.0000      -0.761323       -20.7167
 146   2.0000      -0.753976       -20.5167
 147   2.0000      -0.751884       -20.4598
 148   2.0000      -0.739674       -20.1276
 149   2.0000      -0.726701       -19.7745
 150   2.0000      -0.721803       -19.6413
 151   2.0000      -0.714442       -19.4409
 152   2.0000      -0.704456       -19.1692
 153   2.0000      -0.699337       -19.0299
 154   2.0000      -0.692912       -18.8551
 155   2.0000      -0.691865       -18.8266
 156   2.0000      -0.686259       -18.6740
 157   2.0000      -0.685658       -18.6577
 158   2.0000      -0.679251       -18.4834
 159   2.0000      -0.676265       -18.4021
 160   2.0000      -0.673067       -18.3151
 161   2.0000      -0.667819       -18.1723
 162   2.0000      -0.659918       -17.9573
 163   2.0000      -0.658556       -17.9202
 164   2.0000      -0.655490       -17.8368
 165   2.0000      -0.652063       -17.7435
 166   2.0000      -0.645132       -17.5549
 167   2.0000      -0.641365       -17.4524
 168   2.0000      -0.635971       -17.3056
 169   2.0000      -0.633201       -17.2303
 170   2.0000      -0.628886       -17.1129
 171   2.0000      -0.627929       -17.0868
 172   2.0000      -0.623966       -16.9790
 173   2.0000      -0.621167       -16.9028
 174   2.0000      -0.612509       -16.6672
 175   2.0000      -0.608734       -16.5645
 176   2.0000      -0.607152       -16.5215
 177   2.0000      -0.604026       -16.4364
 178   2.0000      -0.594267       -16.1708
 179   2.0000      -0.592689       -16.1279
 180   2.0000      -0.589167       -16.0321
 181   2.0000      -0.582655       -15.8549
 182   2.0000      -0.580639       -15.8000
 183   2.0000      -0.576547       -15.6887
 184   2.0000      -0.569864       -15.5068
 185   2.0000      -0.566412       -15.4129
 186   2.0000      -0.565996       -15.4015
 187   2.0000      -0.559588       -15.2272
 188   2.0000      -0.557782       -15.1780
 189   2.0000      -0.550218       -14.9722
 190   2.0000      -0.545675       -14.8486
 191   2.0000      -0.542877       -14.7724
 192   2.0000      -0.538577       -14.6554
 193   2.0000      -0.537118       -14.6157
 194   2.0000      -0.535641       -14.5755
 195   2.0000      -0.533201       -14.5091
 196   2.0000      -0.527483       -14.3535
 197   2.0000      -0.523437       -14.2434
 198   2.0000      -0.522603       -14.2208
 199   2.0000      -0.521041       -14.1782
 200   2.0000      -0.518570       -14.1110
 201   2.0000      -0.515471       -14.0267
 202   2.0000      -0.512754       -13.9528
 203   2.0000      -0.510035       -13.8788
 204   2.0000      -0.509507       -13.8644
 205   2.0000      -0.506838       -13.7918
 206   2.0000      -0.504665       -13.7326
 207   2.0000      -0.503431       -13.6991
 208   2.0000      -0.503118       -13.6905
 209   2.0000      -0.501667       -13.6510
 210   2.0000      -0.496914       -13.5217
 211   2.0000      -0.496299       -13.5050
 212   2.0000      -0.495867       -13.4932
 213   2.0000      -0.489589       -13.3224
 214   2.0000      -0.488257       -13.2862
 215   2.0000      -0.487906       -13.2766
 216   2.0000      -0.486129       -13.2282
 217   2.0000      -0.484267       -13.1776
 218   2.0000      -0.481143       -13.0926
 219   2.0000      -0.478767       -13.0279
 220   2.0000      -0.476040       -12.9537
 221   2.0000      -0.474544       -12.9130
 222   2.0000      -0.473021       -12.8715
 223   2.0000      -0.472602       -12.8602
 224   2.0000      -0.468951       -12.7608
 225   2.0000      -0.467304       -12.7160
 226   2.0000      -0.466818       -12.7028
 227   2.0000      -0.464097       -12.6287
 228   2.0000      -0.460292       -12.5252
 229   2.0000      -0.459548       -12.5049
 230   2.0000      -0.457127       -12.4391
 231   2.0000      -0.456879       -12.4323
 232   2.0000      -0.456354       -12.4180
 233   2.0000      -0.448102       -12.1935
 234   2.0000      -0.446416       -12.1476
 235   2.0000      -0.445440       -12.1210
 236   2.0000      -0.444332       -12.0909
 237   2.0000      -0.443728       -12.0744
 238   2.0000      -0.442558       -12.0426
 239   2.0000      -0.438270       -11.9259
 240   2.0000      -0.437585       -11.9073
 241   2.0000      -0.435416       -11.8483
 242   2.0000      -0.434464       -11.8224
 243   2.0000      -0.432338       -11.7645
 244   2.0000      -0.431076       -11.7302
 245   2.0000      -0.429035       -11.6746
 246   2.0000      -0.426971       -11.6185
 247   2.0000      -0.424027       -11.5384
 248   2.0000      -0.422962       -11.5094
 249   2.0000      -0.422315       -11.4918
 250   2.0000      -0.418786       -11.3957
 251   2.0000      -0.418135       -11.3780
 252   2.0000      -0.414749       -11.2859
 253   2.0000      -0.412136       -11.2148
 254   2.0000      -0.409371       -11.1396
 255   2.0000      -0.408064       -11.1040
 256   2.0000      -0.405576       -11.0363
 257   2.0000      -0.402091       -10.9415
 258   2.0000      -0.400233       -10.8909
 259   2.0000      -0.399022       -10.8579
 260   2.0000      -0.397569       -10.8184
 261   2.0000      -0.395800       -10.7703
 262   2.0000      -0.394725       -10.7410
 263   2.0000      -0.387815       -10.5530
 264   2.0000      -0.387574       -10.5464
 265   2.0000      -0.384588       -10.4652
 266   2.0000      -0.380542       -10.3551
 267   2.0000      -0.374091       -10.1795
 268   2.0000      -0.370379       -10.0785
 269   2.0000      -0.367024        -9.9872
 270   2.0000      -0.360665        -9.8142
 271   2.0000      -0.347599        -9.4587
 272   2.0000      -0.346260        -9.4222
 273   2.0000      -0.341376        -9.2893
 274   2.0000      -0.339441        -9.2367
 275   2.0000      -0.337109        -9.1732
 276   2.0000      -0.331368        -9.0170
 277   2.0000      -0.326908        -8.8956
 278   2.0000      -0.319566        -8.6958
 279   2.0000      -0.317310        -8.6345
 280   2.0000      -0.312185        -8.4950
 281   2.0000      -0.306340        -8.3359
 282   2.0000      -0.300006        -8.1636
 283   2.0000      -0.297686        -8.1005
 284   2.0000      -0.287182        -7.8146
 285   2.0000      -0.265109        -7.2140
 286   2.0000      -0.237756        -6.4697
 287   2.0000      -0.218557        -5.9472
 288   2.0000      -0.194590        -5.2951
 289   0.0000      -0.113422        -3.0864
 290   0.0000      -0.078589        -2.1385
 291   0.0000      -0.062743        -1.7073
 292   0.0000      -0.038528        -1.0484
 293   0.0000      -0.033460        -0.9105

MULLIKEN ATOMIC CHARGES
-----------------------
   0 C :   -0.018204
   1 C :   -0.072027
   2 C :    0.065258
   3 C :    0.025913
   4 C :   -0.050456
   5 S :    0.098637
   6 C :   -0.052166
   7 C :    0.017787
   8 C :    0.077253
   9 C :   -0.038984
  10 S :    0.102937
  11 C :   -0.060079
  12 C :    0.110470
  13 C :   -0.076522
  14 C :   -0.056276
  15 N :    0.048949
  16 C :   -0.136700
  17 C :   -0.144148
  18 N :    0.023024
  19 C :   -0.220740
  20 N :    0.228929
  21 C :   -0.211776
  22 N :    0.234782
  23 C :    0.098423
  24 C :   -0.000865
  25 C :   -0.014922
  26 N :   -0.274380
  27 S :    0.527471
  28 N :   -0.283256
  29 C :    0.009121
  30 C :   -0.067810
  31 C :    0.008057
  32 C :    0.116171
  33 C :   -0.072263
  34 C :    0.035400
  35 C :    0.095487
  36 C :    0.026872
  37 C :   -0.122042
  38 C :    0.052995
  39 C :    0.024651
  40 C :    0.078317
  41 C :    0.026322
  42 C :   -0.115866
  43 C :    0.134888
  44 C :   -0.014996
  45 C :   -0.042862
  46 C :   -0.033054
  47 C :    0.003059
  48 C :   -0.114538
  49 S :    0.117792
  50 C :   -0.108390
  51 C :    0.103137
  52 C :    0.147593
  53 C :   -0.147308
  54 C :    0.513257
  55 F :   -0.165679
  56 F :   -0.159698
  57 F :   -0.173869
  58 C :    0.001246
  59 C :   -0.124834
  60 C :    0.206313
  61 O :   -0.309268
  62 C :    0.181313
  63 C :   -0.014599
  64 C :    0.005837
  65 C :   -0.016256
  66 C :   -0.018595
  67 C :    0.035834
  68 C :    0.022163
  69 C :   -0.044256
  70 S :    0.073124
  71 C :   -0.071051
  72 C :    0.028422
  73 C :    0.050252
  74 C :   -0.064016
  75 S :    0.078272
  76 C :   -0.032340
  77 H :    0.028165
  78 H :    0.029878
  79 H :   -0.004220
  80 H :   -0.000578
  81 H :   -0.006553
  82 H :   -0.011371
  83 H :    0.005008
  84 H :   -0.026708
  85 H :   -0.034301
  86 H :   -0.028890
  87 H :   -0.004872
  88 H :    0.003543
  89 H :    0.023468
  90 H :    0.005772
  91 H :    0.020344
  92 H :   -0.007038
  93 H :    0.002621
  94 H :   -0.002349
  95 H :    0.003479
  96 H :    0.025877
  97 H :   -0.043831
  98 H :   -0.028905
  99 H :   -0.037656
 100 H :   -0.021791
 101 H :    0.000336
 102 H :   -0.003420
 103 H :   -0.031278
 104 H :    0.038278
 105 H :    0.032194
 106 H :    0.031463
 107 H :   -0.004638
 108 H :    0.003209
 109 H :   -0.022867
 110 H :   -0.017748
 111 H :   -0.017387
 112 H :   -0.012863
 113 H :   -0.013569
 114 H :    0.018250
 115 H :    0.020308
Sum of atomic charges:   -0.0000000

LOEWDIN ATOMIC CHARGES
----------------------
   0 C :   -0.056773
   1 C :   -0.141150
   2 C :   -0.018119
   3 C :   -0.025509
   4 C :   -0.158126
   5 S :    0.367983
   6 C :   -0.188377
   7 C :   -0.014573
   8 C :   -0.031214
   9 C :   -0.109152
  10 S :    0.390882
  11 C :   -0.060892
  12 C :   -0.018888
  13 C :   -0.020316
  14 C :   -0.007147
  15 N :    0.005215
  16 C :   -0.031938
  17 C :   -0.047978
  18 N :    0.006539
  19 C :   -0.039297
  20 N :   -0.022602
  21 C :   -0.034682
  22 N :   -0.012376
  23 C :   -0.027528
  24 C :   -0.039169
  25 C :   -0.044139
  26 N :   -0.280206
  27 S :    0.660314
  28 N :   -0.281889
  29 C :   -0.024732
  30 C :   -0.006636
  31 C :   -0.003226
  32 C :   -0.006216
  33 C :   -0.026880
  34 C :    0.001657
  35 C :   -0.021168
  36 C :    0.006314
  37 C :   -0.033655
  38 C :   -0.015663
  39 C :   -0.056728
  40 C :   -0.009508
  41 C :   -0.062808
  42 C :   -0.023185
  43 C :   -0.020714
  44 C :   -0.013389
  45 C :   -0.014564
  46 C :   -0.026441
  47 C :   -0.046167
  48 C :   -0.169251
  49 S :    0.479033
  50 C :   -0.158159
  51 C :   -0.060915
  52 C :   -0.031623
  53 C :   -0.104105
  54 C :    0.174013
  55 F :   -0.059373
  56 F :   -0.058042
  57 F :   -0.071566
  58 C :    0.009748
  59 C :   -0.101558
  60 C :    0.083680
  61 O :   -0.083160
  62 C :    0.081040
  63 C :   -0.044025
  64 C :   -0.037074
  65 C :   -0.056531
  66 C :   -0.148758
  67 C :   -0.036105
  68 C :   -0.035278
  69 C :   -0.179542
  70 S :    0.367039
  71 C :   -0.180443
  72 C :   -0.027053
  73 C :   -0.035166
  74 C :   -0.139043
  75 S :    0.350844
  76 C :   -0.080504
  77 H :    0.032374
  78 H :    0.029871
  79 H :    0.036794
  80 H :    0.036412
  81 H :    0.035370
  82 H :    0.030651
  83 H :    0.036426
  84 H :    0.023585
  85 H :    0.027059
  86 H :    0.023900
  87 H :    0.019088
  88 H :    0.018862
  89 H :    0.025971
  90 H :    0.022474
  91 H :    0.025637
  92 H :    0.018302
  93 H :    0.025994
  94 H :    0.017811
  95 H :    0.024187
  96 H :    0.024411
  97 H :    0.022414
  98 H :    0.027015
  99 H :    0.026997
 100 H :    0.015654
 101 H :    0.022176
 102 H :    0.034430
 103 H :    0.028563
 104 H :    0.029472
 105 H :    0.019746
 106 H :    0.019493
 107 H :    0.031175
 108 H :    0.014258
 109 H :    0.031140
 110 H :    0.031722
 111 H :    0.029981
 112 H :    0.031595
 113 H :    0.032448
 114 H :    0.027795
 115 H :    0.025438

  Mayer bond orders larger than 0.100000
B(  0-C ,  1-C ) :   1.8606 B(  0-C , 77-H ) :   0.9512 B(  0-C , 78-H ) :   0.9424
B(  1-C ,  2-C ) :   1.0800 B(  1-C ,  5-S ) :   1.0060 B(  2-C ,  3-C ) :   1.6566
B(  2-C , 79-H ) :   0.9934 B(  3-C ,  4-C ) :   1.1578 B(  3-C , 80-H ) :   0.9928
B(  4-C ,  5-S ) :   1.0645 B(  4-C ,  6-C ) :   1.5178 B(  6-C ,  7-C ) :   1.1869
B(  6-C , 10-S ) :   1.0436 B(  7-C ,  8-C ) :   1.5872 B(  7-C , 81-H ) :   0.9931
B(  8-C ,  9-C ) :   1.1812 B(  8-C , 82-H ) :   0.9826 B(  9-C , 10-S ) :   1.0752
B(  9-C , 11-C ) :   1.4584 B( 11-C , 12-C ) :   1.3147 B( 11-C , 83-H ) :   0.9301
B( 12-C , 13-C ) :   1.1873 B( 12-C , 23-C ) :   0.1172 B( 12-C , 25-C ) :   1.1668
B( 13-C , 14-C ) :   1.0781 B( 13-C , 18-N ) :   1.4721 B( 14-C , 15-N ) :   1.4154
B( 14-C , 23-C ) :   1.3180 B( 15-N , 16-C ) :   1.7511 B( 16-C , 17-C ) :   1.2071
B( 16-C , 21-C ) :   1.1522 B( 17-C , 18-N ) :   1.6839 B( 17-C , 19-C ) :   1.1586
B( 19-C , 20-N ) :   3.0434 B( 21-C , 22-N ) :   3.0514 B( 23-C , 24-C ) :   1.2298
B( 23-C , 29-C ) :   1.0064 B( 24-C , 25-C ) :   1.0972 B( 24-C , 28-N ) :   1.5103
B( 25-C , 26-N ) :   1.5575 B( 26-N , 27-S ) :   1.2730 B( 26-N , 28-N ) :   0.1500
B( 27-S , 28-N ) :   1.2661 B( 29-C , 30-C ) :   1.3056 B( 29-C , 34-C ) :   1.3557
B( 30-C , 31-C ) :   1.4018 B( 30-C , 84-H ) :   0.9955 B( 31-C , 32-C ) :   1.3691
B( 31-C , 37-C ) :   0.9170 B( 32-C , 33-C ) :   1.3281 B( 32-C , 35-C ) :   1.0031
B( 33-C , 34-C ) :   1.3949 B( 33-C , 85-H ) :   0.9921 B( 34-C , 86-H ) :   0.9783
B( 35-C , 36-C ) :   1.3758 B( 35-C , 45-C ) :   1.3180 B( 36-C , 37-C ) :   0.9218
B( 36-C , 42-C ) :   1.3781 B( 37-C , 38-C ) :   1.0311 B( 37-C , 40-C ) :   1.0156
B( 38-C , 39-C ) :   1.1040 B( 38-C , 87-H ) :   0.9395 B( 38-C , 88-H ) :   0.9382
B( 39-C , 89-H ) :   0.9635 B( 39-C , 90-H ) :   0.9645 B( 39-C , 91-H ) :   0.9649
B( 40-C , 41-C ) :   1.1141 B( 40-C , 92-H ) :   0.9375 B( 40-C , 93-H ) :   0.9381
B( 41-C , 94-H ) :   0.9613 B( 41-C , 95-H ) :   0.9572 B( 41-C , 96-H ) :   0.9574
B( 42-C , 43-C ) :   1.2797 B( 42-C , 97-H ) :   1.0109 B( 43-C , 44-C ) :   1.3305
B( 43-C , 46-C ) :   1.0894 B( 44-C , 45-C ) :   1.4126 B( 44-C , 98-H ) :   0.9845
B( 45-C , 99-H ) :   0.9892 B( 46-C , 47-C ) :   1.6452 B( 46-C ,100-H ) :   0.9804
B( 47-C , 48-C ) :   1.1712 B( 47-C ,101-H ) :   0.9487 B( 48-C , 49-S ) :   1.1226
B( 48-C , 52-C ) :   1.3570 B( 49-S , 50-C ) :   1.1312 B( 50-C , 51-C ) :   1.3103
B( 50-C , 63-C ) :   1.2180 B( 51-C , 52-C ) :   1.2287 B( 51-C , 60-C ) :   1.1869
B( 52-C , 53-C ) :   1.1849 B( 53-C , 54-C ) :   0.9631 B( 53-C , 58-C ) :   1.5524
B( 54-C , 55-F ) :   1.1509 B( 54-C , 56-F ) :   1.1560 B( 54-C , 57-F ) :   1.0955
B( 58-C , 59-C ) :   1.2018 B( 58-C ,102-H ) :   0.9889 B( 59-C , 60-C ) :   1.4205
B( 59-C ,103-H ) :   0.9959 B( 60-C , 61-O ) :   1.1783 B( 61-O , 62-C ) :   0.9499
B( 62-C ,104-H ) :   0.9782 B( 62-C ,105-H ) :   0.9696 B( 62-C ,106-H ) :   0.9697
B( 63-C , 64-C ) :   1.5299 B( 63-C ,107-H ) :   0.9742 B( 64-C , 65-C ) :   1.2013
B( 64-C ,108-H ) :   0.9689 B( 65-C , 66-C ) :   1.5227 B( 65-C ,109-H ) :   0.9851
B( 66-C , 67-C ) :   1.1540 B( 66-C , 70-S ) :   1.0341 B( 67-C , 68-C ) :   1.5840
B( 67-C ,110-H ) :   0.9995 B( 68-C , 69-C ) :   1.1860 B( 68-C ,111-H ) :   0.9928
B( 69-C , 70-S ) :   1.0406 B( 69-C , 71-C ) :   1.5363 B( 71-C , 72-C ) :   1.1616
B( 71-C , 75-S ) :   1.0453 B( 72-C , 73-C ) :   1.6540 B( 72-C ,112-H ) :   0.9912
B( 73-C , 74-C ) :   1.0829 B( 73-C ,113-H ) :   0.9927 B( 74-C , 75-S ) :   1.0089
B( 74-C , 76-C ) :   1.8585 B( 76-C ,114-H ) :   0.9507 B( 76-C ,115-H ) :   0.9418

-----------------------------------------------------------------------------
         ABSORPTION SPECTRUM VIA TRANSITION ELECTRIC DIPOLE MOMENTS
-----------------------------------------------------------------------------
State   Energy  Wavelength   fosc         T2         TX        TY        TZ
        (cm-1)    (nm)                  (au**2)     (au)      (au)      (au)
-----------------------------------------------------------------------------
   0    7932.2   1260.7   0.750560419  31.15056   3.30057  -4.26413   1.44013
   1   10890.7    918.2   0.095552989   2.88845   1.28471   0.37533  -1.04743
   2   12561.5    796.1   0.903358865  23.67527  -4.23228  -0.35873   2.37368
   3   17167.5    582.5   0.024069491   0.46157   0.13035   0.59976  -0.29132
   4   19251.9    519.4   0.660257722  11.29056   1.64580  -2.62788   1.29467
   5   19416.2    515.0   0.010012497   0.16977  -0.35251   0.12137   0.17543
   6   21450.4    466.2   0.133713107   2.05217   0.43873  -1.22552   0.59815
   7   22140.4    451.7   1.374637712  20.43987   0.70831  -3.99345   1.99764
   8   22947.3    435.8   0.017140109   0.24590  -0.43538   0.20042   0.12720
   9   23298.2    429.2   0.144391794   2.04031  -0.83696  -0.30924   1.11542
  10   23541.4    424.8   0.005780421   0.08084  -0.08112   0.20475   0.17981
  11   24465.1    408.7   0.172966587   2.32750   0.37840  -1.36386   0.56937
  12   24593.1    406.6   0.002674700   0.03580  -0.15853   0.10092  -0.02212
  13   25486.6    392.4   0.114593055   1.48021   0.67015  -0.98964   0.22744
  14   26580.4    376.2   0.044587382   0.55224   0.12961  -0.59425   0.42697
  15   26768.3    373.6   0.038441262   0.47277  -0.21007   0.49754  -0.42556
  16   28089.7    356.0   0.089631895   1.05049   0.43130  -0.87754   0.30723
  17   28873.4    346.3   0.112631237   1.28421  -0.36200   0.92944  -0.53788
  18   29219.0    342.2   0.062015945   0.69874   0.39069  -0.72429   0.14662
  19   29396.4    340.2   0.000882410   0.00988  -0.08464  -0.00897  -0.05136
  20   29600.8    337.8   0.073618614   0.81877   0.16903  -0.69959   0.54842
  21   30084.7    332.4   0.011373422   0.12446  -0.05475   0.29087  -0.19197
  22   30227.9    330.8   0.005082815   0.05536   0.00638   0.23519   0.00066
  23   30488.7    328.0   0.007188040   0.07762  -0.14348   0.23569   0.03844
  24   31381.1    318.7   0.352065927   3.69344   1.13478  -0.61928  -1.42205
  25   31438.8    318.1   0.088655002   0.92835  -0.46638   0.05066   0.84159
  26   31993.9    312.6   0.100871003   1.03794  -0.66412   0.21744   0.74135
  27   32165.7    310.9   0.052955935   0.54200   0.56525  -0.47164   0.00712
  28   32627.2    306.5   0.017591710   0.17750  -0.14036   0.25947   0.30079
  29   33095.4    302.2   0.010507177   0.10452  -0.28949   0.08573  -0.11560
  30   33378.7    299.6   0.196704158   1.94008   0.87930  -0.70494  -0.81852
  31   33487.5    298.6   0.019424174   0.19096   0.25071  -0.32760   0.14415
  32   33554.8    298.0   0.000758056   0.00744  -0.05970   0.05873  -0.02060
  33   33924.4    294.8   0.032416083   0.31457   0.44641   0.01169  -0.33934
  34   34183.1    292.5   0.005814823   0.05600   0.10657   0.02091  -0.21025
  35   34300.5    291.5   0.000807815   0.00775   0.07231   0.00426   0.05006
  36   34695.8    288.2   0.024076455   0.22845  -0.44349   0.10384   0.14485
  37   35096.9    284.9   0.013205982   0.12387   0.13789  -0.32378  -0.00513
  38   35321.7    283.1   0.023279142   0.21697  -0.37275   0.18573   0.20865
  39   35418.9    282.3   0.119237857   1.10829   0.70281   0.32622  -0.71269
  40   35531.2    281.4   0.027618321   0.25590   0.29467  -0.16117  -0.37827
  41   35735.2    279.8   0.061236115   0.56414   0.32081  -0.56775   0.37267
  42   36414.5    274.6   0.110982808   1.00336  -0.59474   0.80523   0.03538
  43   36573.0    273.4   0.006463357   0.05818   0.04258  -0.16957   0.16618
  44   36747.9    272.1   0.149834649   1.34232  -0.04543  -0.82493   0.81225
  45   37064.0    269.8   0.001427468   0.01268  -0.08804   0.00080   0.07019
  46   37375.0    267.6   0.045053527   0.39685   0.48999   0.14627  -0.36792
  47   37491.3    266.7   0.086062610   0.75572  -0.12332  -0.37520   0.77442
  48   37707.2    265.2   0.034148340   0.29814  -0.30393  -0.30236   0.33814
  49   37757.2    264.9   0.071549709   0.62386   0.07038  -0.76924   0.16484
  50   38020.4    263.0   0.307710649   2.66441  -1.02068   0.00943   1.27379
  51   38376.8    260.6   0.005807562   0.04982   0.06019  -0.19182   0.09697
  52   38514.9    259.6   0.003978575   0.03401  -0.12327   0.13400  -0.02925
  53   38722.5    258.2   0.093732708   0.79690   0.47713  -0.68887  -0.30774
  54   38975.1    256.6   0.074543101   0.62965  -0.06358   0.56399  -0.55455
  55   39233.7    254.9   0.051497851   0.43212   0.04741  -0.28576   0.59010
  56   39358.1    254.1   0.033252518   0.27814  -0.12349  -0.34250   0.38156
  57   39805.4    251.2   0.030029776   0.24836   0.19225   0.32946  -0.32072
  58   39883.0    250.7   0.025710928   0.21223  -0.27082  -0.16606   0.33363
  59   40054.0    249.7   0.063716312   0.52370  -0.41330   0.19487   0.56116

FINAL SINGLE POINT ENERGY     -5435.700589730772

DIPOLE MOMENT
-------------
                                X             Y             Z
Electronic contribution:     45.31690     -17.13619     -15.33981
Nuclear contribution   :    -46.83423      17.89618      17.89539
                        -----------------------------------------
Total Dipole Moment    :     -1.51733       0.75999       2.55558
                        -----------------------------------------
Magnitude (a.u.)       :      3.06772
Magnitude (Debye)      :      7.79751

Rotational constants in cm-1:     0.001085     0.000192     0.000166
Rotational constants in MHz :    32.525825     5.762857     4.968183

                             ****ORCA TERMINATED NORMALLY****
TOTAL RUN TIME: 0 days 0 hours 12 minutes 10 seconds 265 msec
