                         Program Version 4.2.0 -  RELEASE  -
|  1> # ORCA input file
|  2> # SCF done       -164.170949753842          0.000824950192
|  3> ! CAM-B3LYP def2-SVP def2/J RIJCOSX Grid4 TightSCF
|  4> %maxcore 5000
|  5> %tddft
|  6>     Mode sTDDFT
|  7>     Ethresh 5.0
|  8>     maxcore 5000
|  9> end
| 10>
| 11> %pal
| 12>   nprocs 6
| 13>   end
| 14> * xyz 0 1
| 15>    C       -1.85766         0.56908         3.40919
| 16>    C       -3.12468         0.04590         3.18133
| 17>    C       -3.35231        -1.06759         2.28364
| 18>    N       -4.59794        -1.53629         2.12142
| 19>    C       -5.59046        -0.97786         2.76817
| 20>    C       -5.36496         0.13817         3.64659
| 21>    N       -4.16564         0.61314         3.83147
| 22>    C       -6.46499         0.72873         4.32227
| 23>    N       -7.37938         1.17293         4.84891
| 24>    C       -6.89824        -1.49251         2.59130
| 25>    N       -7.96485        -1.89143         2.46564
| 26>    C       -2.27835        -1.67649         1.58347
| 27>    C       -1.00252        -1.13279         1.84027
| 28>    C       -0.79402        -0.02130         2.74104
| 29>    N        0.50166         0.31456         2.81402
| 30>    S        1.34737        -0.65205         1.86584
| 31>    N        0.14496        -1.55192         1.30284
| 32>    C       -2.42344        -2.76506         0.67601
| 33>    C       -3.58496        -3.38649         0.24815
| 34>    C       -3.32586        -4.41768        -0.64609
| 35>    C       -1.95921        -4.60402        -0.91051
| 36>    S       -0.98563        -3.47359        -0.04955
| 37>    C       -1.74312        -5.65104        -1.80904
| 38>    C       -2.93712        -6.25130        -2.23000
| 39>    S       -4.34773        -5.53229        -1.51249
| 40>    C       -2.75148        -7.30353        -3.13085
| 41>    C       -1.41787        -7.51400        -3.40133
| 42>    S       -0.37108        -6.40642        -2.52978
| 43>    C       -0.84575        -8.51269        -4.25315
| 44>    C       -1.44220        -9.16541        -5.31402
| 45>    C       -2.78122        -8.75550        -5.82381
| 46>    O       -3.73284        -9.47923        -5.89725
| 47>    O       -2.86471        -7.46963        -6.20960
| 48>    C       -0.60379       -10.17565        -5.87995
| 49>    C        0.61122       -10.22725        -5.23974
| 50>    S        0.75556        -9.11935        -3.95201
| 51>    C       -0.90854       -11.02848        -7.00281
| 52>    C       -2.12792       -11.39870        -7.51326
| 53>    C       -1.99418       -12.26592        -8.60237
| 54>    C       -0.66630       -12.56868        -8.92874
| 55>    S        0.43172       -11.76639        -7.87092
| 56>    C       -0.56333       -13.43944       -10.01443
| 57>    C       -1.82656       -13.79468       -10.51661
| 58>    S       -3.14205       -13.05431        -9.64262
| 59>    C       -1.76912       -14.65995       -11.59980
| 60>    C       -0.46257       -14.98000       -11.93728
| 61>    S        0.71395       -14.19649       -10.89663
| 62>    C       -0.03979       -15.83530       -12.98810
| 63>    C        1.33724       -16.08366       -13.20794
| 64>    C        1.80783       -16.94755       -14.26523
| 65>    N        3.13631       -17.14492       -14.42240
| 66>    C        3.96447       -16.54841       -13.61065
| 67>    C        3.49638       -15.68813       -12.55624
| 68>    N        2.21155       -15.48692       -12.39344
| 69>    C        4.41535       -15.05536       -11.68629
| 70>    N        5.18627       -14.55512       -11.00185
| 71>    C        5.36086       -16.75323       -13.76830
| 72>    N        6.49323       -16.88916       -13.86820
| 73>    C        0.92223       -17.58070       -15.12528
| 74>    C       -0.43559       -17.35209       -14.92930
| 75>    C       -0.92669       -16.48860       -13.87200
| 76>    N       -2.26000       -16.42071       -13.87741
| 77>    S       -2.82820       -17.33258       -15.06824
| 78>    N       -1.43953       -17.86807       -15.64968
| 79>    H       -1.72254         1.39869         4.08116
| 80>    H       -4.56187        -3.09182         0.58054
| 81>    H       -3.54961        -7.89545        -3.53879
| 82>    H       -2.03404        -6.98652        -6.10839
| 83>    H        1.42745       -10.88386        -5.46807
| 84>    H       -3.07090       -11.07925        -7.11218
| 85>    H       -2.61596       -15.05133       -12.13141
| 86>    H        1.28037       -18.22249       -15.91124
| 87> *
| 88>
| 89>                          ****END OF INPUT****

CARTESIAN COORDINATES (ANGSTROEM)
---------------------------------
  C     -1.857660    0.569080    3.409190
  C     -3.124680    0.045900    3.181330
  C     -3.352310   -1.067590    2.283640
  N     -4.597940   -1.536290    2.121420
  C     -5.590460   -0.977860    2.768170
  C     -5.364960    0.138170    3.646590
  N     -4.165640    0.613140    3.831470
  C     -6.464990    0.728730    4.322270
  N     -7.379380    1.172930    4.848910
  C     -6.898240   -1.492510    2.591300
  N     -7.964850   -1.891430    2.465640
  C     -2.278350   -1.676490    1.583470
  C     -1.002520   -1.132790    1.840270
  C     -0.794020   -0.021300    2.741040
  N      0.501660    0.314560    2.814020
  S      1.347370   -0.652050    1.865840
  N      0.144960   -1.551920    1.302840
  C     -2.423440   -2.765060    0.676010
  C     -3.584960   -3.386490    0.248150
  C     -3.325860   -4.417680   -0.646090
  C     -1.959210   -4.604020   -0.910510
  S     -0.985630   -3.473590   -0.049550
  C     -1.743120   -5.651040   -1.809040
  C     -2.937120   -6.251300   -2.230000
  S     -4.347730   -5.532290   -1.512490
  C     -2.751480   -7.303530   -3.130850
  C     -1.417870   -7.514000   -3.401330
  S     -0.371080   -6.406420   -2.529780
  C     -0.845750   -8.512690   -4.253150
  C     -1.442200   -9.165410   -5.314020
  C     -2.781220   -8.755500   -5.823810
  O     -3.732840   -9.479230   -5.897250
  O     -2.864710   -7.469630   -6.209600
  C     -0.603790  -10.175650   -5.879950
  C      0.611220  -10.227250   -5.239740
  S      0.755560   -9.119350   -3.952010
  C     -0.908540  -11.028480   -7.002810
  C     -2.127920  -11.398700   -7.513260
  C     -1.994180  -12.265920   -8.602370
  C     -0.666300  -12.568680   -8.928740
  S      0.431720  -11.766390   -7.870920
  C     -0.563330  -13.439440  -10.014430
  C     -1.826560  -13.794680  -10.516610
  S     -3.142050  -13.054310   -9.642620
  C     -1.769120  -14.659950  -11.599800
  C     -0.462570  -14.980000  -11.937280
  S      0.713950  -14.196490  -10.896630
  C     -0.039790  -15.835300  -12.988100
  C      1.337240  -16.083660  -13.207940
  C      1.807830  -16.947550  -14.265230
  N      3.136310  -17.144920  -14.422400
  C      3.964470  -16.548410  -13.610650
  C      3.496380  -15.688130  -12.556240
  N      2.211550  -15.486920  -12.393440
  C      4.415350  -15.055360  -11.686290
  N      5.186270  -14.555120  -11.001850
  C      5.360860  -16.753230  -13.768300
  N      6.493230  -16.889160  -13.868200
  C      0.922230  -17.580700  -15.125280
  C     -0.435590  -17.352090  -14.929300
  C     -0.926690  -16.488600  -13.872000
  N     -2.260000  -16.420710  -13.877410
  S     -2.828200  -17.332580  -15.068240
  N     -1.439530  -17.868070  -15.649680
  H     -1.722540    1.398690    4.081160
  H     -4.561870   -3.091820    0.580540
  H     -3.549610   -7.895450   -3.538790
  H     -2.034040   -6.986520   -6.108390
  H      1.427450  -10.883860   -5.468070
  H     -3.070900  -11.079250   -7.112180
  H     -2.615960  -15.051330  -12.131410
  H      1.280370  -18.222490  -15.911240

 Total Charge           Charge          ....    0
 Multiplicity           Mult            ....    1
 Number of Electrons    NEL             ....  498
 Basis Dimension        Dim             ....  972

ORBITAL ENERGIES
----------------

  NO   OCC          E(Eh)            E(eV)
   0   2.0000     -89.056573     -2423.3525
   1   2.0000     -89.048894     -2423.1436
   2   2.0000     -88.984019     -2421.3783
   3   2.0000     -88.980971     -2421.2953
   4   2.0000     -88.971014     -2421.0244
   5   2.0000     -88.970059     -2420.9984
   6   2.0000     -88.966318     -2420.8966
   7   2.0000     -88.963257     -2420.8133
   8   2.0000     -88.961185     -2420.7569
   9   2.0000     -19.272437      -524.4297
  10   2.0000     -19.218628      -522.9654
  11   2.0000     -14.468885      -393.7184
  12   2.0000     -14.468363      -393.7042
  13   2.0000     -14.464998      -393.6126
  14   2.0000     -14.464334      -393.5945
  15   2.0000     -14.460742      -393.4968
  16   2.0000     -14.459862      -393.4729
  17   2.0000     -14.458448      -393.4344
  18   2.0000     -14.453272      -393.2935
  19   2.0000     -14.433802      -392.7637
  20   2.0000     -14.433212      -392.7477
  21   2.0000     -14.430322      -392.6690
  22   2.0000     -14.429792      -392.6546
  23   2.0000     -10.422621      -283.6139
  24   2.0000     -10.387001      -282.6447
  25   2.0000     -10.385966      -282.6165
  26   2.0000     -10.383892      -282.5601
  27   2.0000     -10.382516      -282.5226
  28   2.0000     -10.354915      -281.7715
  29   2.0000     -10.352758      -281.7129
  30   2.0000     -10.350945      -281.6635
  31   2.0000     -10.349093      -281.6131
  32   2.0000     -10.347605      -281.5727
  33   2.0000     -10.347345      -281.5656
  34   2.0000     -10.346817      -281.5512
  35   2.0000     -10.343766      -281.4682
  36   2.0000     -10.337984      -281.3108
  37   2.0000     -10.336372      -281.2670
  38   2.0000     -10.333658      -281.1931
  39   2.0000     -10.330724      -281.1133
  40   2.0000     -10.327133      -281.0156
  41   2.0000     -10.326019      -280.9853
  42   2.0000     -10.324607      -280.9468
  43   2.0000     -10.324309      -280.9387
  44   2.0000     -10.323054      -280.9046
  45   2.0000     -10.322760      -280.8966
  46   2.0000     -10.320226      -280.8276
  47   2.0000     -10.318827      -280.7896
  48   2.0000     -10.318624      -280.7840
  49   2.0000     -10.316140      -280.7164
  50   2.0000     -10.315400      -280.6963
  51   2.0000     -10.314503      -280.6719
  52   2.0000     -10.313502      -280.6447
  53   2.0000     -10.310724      -280.5691
  54   2.0000     -10.310381      -280.5597
  55   2.0000     -10.308770      -280.5159
  56   2.0000     -10.308096      -280.4975
  57   2.0000     -10.306431      -280.4522
  58   2.0000     -10.305168      -280.4179
  59   2.0000     -10.303657      -280.3768
  60   2.0000     -10.299229      -280.2563
  61   2.0000     -10.296797      -280.1901
  62   2.0000     -10.293285      -280.0945
  63   2.0000     -10.284045      -279.8431
  64   2.0000      -8.147641      -221.7086
  65   2.0000      -8.140243      -221.5073
  66   2.0000      -8.079908      -219.8655
  67   2.0000      -8.076114      -219.7622
  68   2.0000      -8.065163      -219.4642
  69   2.0000      -8.064841      -219.4555
  70   2.0000      -8.061449      -219.3632
  71   2.0000      -8.056338      -219.2241
  72   2.0000      -8.056303      -219.2232
  73   2.0000      -6.118545      -166.4941
  74   2.0000      -6.111184      -166.2938
  75   2.0000      -6.110799      -166.2833
  76   2.0000      -6.110773      -166.2826
  77   2.0000      -6.103369      -166.0811
  78   2.0000      -6.103328      -166.0800
  79   2.0000      -6.049132      -164.6052
  80   2.0000      -6.045663      -164.5109
  81   2.0000      -6.044813      -164.4877
  82   2.0000      -6.042272      -164.4186
  83   2.0000      -6.041596      -164.4002
  84   2.0000      -6.037684      -164.2937
  85   2.0000      -6.034883      -164.2175
  86   2.0000      -6.034596      -164.2097
  87   2.0000      -6.031046      -164.1131
  88   2.0000      -6.031026      -164.1125
  89   2.0000      -6.030145      -164.0886
  90   2.0000      -6.026902      -164.0003
  91   2.0000      -6.026362      -163.9856
  92   2.0000      -6.026250      -163.9826
  93   2.0000      -6.026153      -163.9800
  94   2.0000      -6.026050      -163.9771
  95   2.0000      -6.023002      -163.8942
  96   2.0000      -6.022180      -163.8718
  97   2.0000      -6.021484      -163.8529
  98   2.0000      -6.017864      -163.7544
  99   2.0000      -6.017338      -163.7401
 100   2.0000      -1.198165       -32.6037
 101   2.0000      -1.151942       -31.3459
 102   2.0000      -1.144683       -31.1484
 103   2.0000      -1.124964       -30.6118
 104   2.0000      -1.122928       -30.5564
 105   2.0000      -1.114729       -30.3333
 106   2.0000      -1.052108       -28.6293
 107   2.0000      -1.050715       -28.5914
 108   2.0000      -1.034788       -28.1580
 109   2.0000      -1.023970       -27.8636
 110   2.0000      -1.018527       -27.7155
 111   2.0000      -1.015877       -27.6434
 112   2.0000      -1.014023       -27.5930
 113   2.0000      -1.008678       -27.4475
 114   2.0000      -1.006040       -27.3757
 115   2.0000      -1.004568       -27.3357
 116   2.0000      -0.998527       -27.1713
 117   2.0000      -0.991454       -26.9788
 118   2.0000      -0.985121       -26.8065
 119   2.0000      -0.977977       -26.6121
 120   2.0000      -0.970585       -26.4110
 121   2.0000      -0.939478       -25.5645
 122   2.0000      -0.929448       -25.2916
 123   2.0000      -0.912646       -24.8344
 124   2.0000      -0.908479       -24.7210
 125   2.0000      -0.894403       -24.3379
 126   2.0000      -0.887555       -24.1516
 127   2.0000      -0.885225       -24.0882
 128   2.0000      -0.880620       -23.9629
 129   2.0000      -0.859583       -23.3904
 130   2.0000      -0.853593       -23.2275
 131   2.0000      -0.847309       -23.0565
 132   2.0000      -0.840034       -22.8585
 133   2.0000      -0.837554       -22.7910
 134   2.0000      -0.835168       -22.7261
 135   2.0000      -0.814122       -22.1534
 136   2.0000      -0.808531       -22.0013
 137   2.0000      -0.799879       -21.7658
 138   2.0000      -0.793763       -21.5994
 139   2.0000      -0.790438       -21.5089
 140   2.0000      -0.776127       -21.1195
 141   2.0000      -0.755913       -20.5694
 142   2.0000      -0.745295       -20.2805
 143   2.0000      -0.739118       -20.1124
 144   2.0000      -0.728265       -19.8171
 145   2.0000      -0.725870       -19.7519
 146   2.0000      -0.710045       -19.3213
 147   2.0000      -0.704480       -19.1699
 148   2.0000      -0.702432       -19.1141
 149   2.0000      -0.697110       -18.9693
 150   2.0000      -0.692250       -18.8371
 151   2.0000      -0.686554       -18.6821
 152   2.0000      -0.675724       -18.3874
 153   2.0000      -0.664454       -18.0807
 154   2.0000      -0.660557       -17.9747
 155   2.0000      -0.656908       -17.8754
 156   2.0000      -0.650631       -17.7046
 157   2.0000      -0.646885       -17.6026
 158   2.0000      -0.643225       -17.5030
 159   2.0000      -0.638871       -17.3846
 160   2.0000      -0.632544       -17.2124
 161   2.0000      -0.627487       -17.0748
 162   2.0000      -0.625397       -17.0179
 163   2.0000      -0.621639       -16.9157
 164   2.0000      -0.608420       -16.5560
 165   2.0000      -0.597818       -16.2674
 166   2.0000      -0.585018       -15.9192
 167   2.0000      -0.581346       -15.8192
 168   2.0000      -0.580963       -15.8088
 169   2.0000      -0.574995       -15.6464
 170   2.0000      -0.568801       -15.4779
 171   2.0000      -0.565980       -15.4011
 172   2.0000      -0.564553       -15.3623
 173   2.0000      -0.559052       -15.2126
 174   2.0000      -0.555282       -15.1100
 175   2.0000      -0.550729       -14.9861
 176   2.0000      -0.548037       -14.9129
 177   2.0000      -0.541346       -14.7308
 178   2.0000      -0.537010       -14.6128
 179   2.0000      -0.535108       -14.5610
 180   2.0000      -0.533147       -14.5077
 181   2.0000      -0.532031       -14.4773
 182   2.0000      -0.530568       -14.4375
 183   2.0000      -0.522429       -14.2160
 184   2.0000      -0.521869       -14.2008
 185   2.0000      -0.513105       -13.9623
 186   2.0000      -0.511375       -13.9152
 187   2.0000      -0.498857       -13.5746
 188   2.0000      -0.496578       -13.5126
 189   2.0000      -0.493616       -13.4320
 190   2.0000      -0.492025       -13.3887
 191   2.0000      -0.491183       -13.3658
 192   2.0000      -0.488824       -13.3016
 193   2.0000      -0.485921       -13.2226
 194   2.0000      -0.484695       -13.1892
 195   2.0000      -0.484229       -13.1765
 196   2.0000      -0.480698       -13.0805
 197   2.0000      -0.478952       -13.0329
 198   2.0000      -0.472742       -12.8640
 199   2.0000      -0.470746       -12.8097
 200   2.0000      -0.465159       -12.6576
 201   2.0000      -0.462921       -12.5967
 202   2.0000      -0.462435       -12.5835
 203   2.0000      -0.460182       -12.5222
 204   2.0000      -0.458786       -12.4842
 205   2.0000      -0.457140       -12.4394
 206   2.0000      -0.455595       -12.3974
 207   2.0000      -0.454477       -12.3669
 208   2.0000      -0.454151       -12.3581
 209   2.0000      -0.448321       -12.1994
 210   2.0000      -0.447112       -12.1665
 211   2.0000      -0.444644       -12.0994
 212   2.0000      -0.443850       -12.0778
 213   2.0000      -0.443379       -12.0650
 214   2.0000      -0.439171       -11.9504
 215   2.0000      -0.439055       -11.9473
 216   2.0000      -0.428259       -11.6535
 217   2.0000      -0.427569       -11.6347
 218   2.0000      -0.426083       -11.5943
 219   2.0000      -0.421055       -11.4575
 220   2.0000      -0.419827       -11.4241
 221   2.0000      -0.417920       -11.3722
 222   2.0000      -0.416698       -11.3389
 223   2.0000      -0.415235       -11.2991
 224   2.0000      -0.414675       -11.2839
 225   2.0000      -0.413416       -11.2496
 226   2.0000      -0.409367       -11.1394
 227   2.0000      -0.406036       -11.0488
 228   2.0000      -0.400376       -10.8948
 229   2.0000      -0.395379       -10.7588
 230   2.0000      -0.384818       -10.4714
 231   2.0000      -0.384411       -10.4604
 232   2.0000      -0.377761       -10.2794
 233   2.0000      -0.376233       -10.2378
 234   2.0000      -0.370089       -10.0706
 235   2.0000      -0.364104        -9.9078
 236   2.0000      -0.354299        -9.6410
 237   2.0000      -0.351070        -9.5531
 238   2.0000      -0.349568        -9.5122
 239   2.0000      -0.347456        -9.4548
 240   2.0000      -0.347029        -9.4431
 241   2.0000      -0.344957        -9.3868
 242   2.0000      -0.335982        -9.1425
 243   2.0000      -0.314421        -8.5558
 244   2.0000      -0.301063        -8.1923
 245   2.0000      -0.296080        -8.0567
 246   2.0000      -0.286815        -7.8046
 247   2.0000      -0.260292        -7.0829
 248   2.0000      -0.248564        -6.7638
 249   0.0000      -0.126891        -3.4529
 250   0.0000      -0.122178        -3.3246
 251   0.0000      -0.060212        -1.6385
 252   0.0000      -0.052703        -1.4341
 253   0.0000      -0.049897        -1.3578

MULLIKEN ATOMIC CHARGES
-----------------------
   0 C :   -0.088924
   1 C :    0.016830
   2 C :   -0.080358
   3 N :    0.041608
   4 C :   -0.121941
   5 C :   -0.147495
   6 N :    0.057271
   7 C :   -0.206130
   8 N :    0.242396
   9 C :   -0.220480
  10 N :    0.240969
  11 C :    0.242248
  12 C :   -0.058552
  13 C :    0.118788
  14 N :   -0.265514
  15 S :    0.561181
  16 N :   -0.324473
  17 C :   -0.179741
  18 C :   -0.029994
  19 C :   -0.015972
  20 C :   -0.038334
  21 S :    0.170515
  22 C :   -0.085586
  23 C :   -0.026100
  24 S :    0.179640
  25 C :   -0.028910
  26 C :   -0.135155
  27 S :    0.160059
  28 C :   -0.116083
  29 C :   -0.031138
  30 C :    0.144733
  31 O :   -0.177648
  32 O :   -0.149549
  33 C :    0.133583
  34 C :   -0.143683
  35 S :    0.171081
  36 C :   -0.096052
  37 C :   -0.046485
  38 C :   -0.024313
  39 C :   -0.085551
  40 S :    0.137959
  41 C :   -0.029080
  42 C :   -0.015669
  43 S :    0.164500
  44 C :   -0.037934
  45 C :   -0.174632
  46 S :    0.169703
  47 C :    0.222180
  48 C :   -0.064658
  49 C :    0.028224
  50 N :    0.059885
  51 C :   -0.151251
  52 C :   -0.100978
  53 N :   -0.002341
  54 C :   -0.230342
  55 N :    0.241627
  56 C :   -0.209057
  57 N :    0.234418
  58 C :   -0.089814
  59 C :    0.100967
  60 C :   -0.046764
  61 N :   -0.289384
  62 S :    0.547892
  63 N :   -0.267428
  64 H :   -0.016376
  65 H :    0.006677
  66 H :    0.022402
  67 H :    0.196214
  68 H :    0.041980
  69 H :    0.012354
  70 H :    0.002579
  71 H :   -0.020594
Sum of atomic charges:   -0.0000000

LOEWDIN ATOMIC CHARGES
----------------------
   0 C :   -0.016939
   1 C :   -0.005668
   2 C :   -0.015998
   3 N :    0.008087
   4 C :   -0.031559
   5 C :   -0.025260
   6 N :    0.001991
   7 C :   -0.035298
   8 N :   -0.000222
   9 C :   -0.040409
  10 N :   -0.004690
  11 C :   -0.014718
  12 C :   -0.051962
  13 C :   -0.044691
  14 N :   -0.282761
  15 S :    0.693504
  16 N :   -0.301879
  17 C :   -0.166878
  18 C :   -0.031524
  19 C :   -0.193928
  20 C :   -0.209190
  21 S :    0.463385
  22 C :   -0.217676
  23 C :   -0.183880
  24 S :    0.421016
  25 C :   -0.053721
  26 C :   -0.195678
  27 S :    0.425044
  28 C :   -0.186422
  29 C :   -0.103715
  30 C :    0.086549
  31 O :   -0.143196
  32 O :   -0.021783
  33 C :   -0.060468
  34 C :   -0.188963
  35 S :    0.469154
  36 C :   -0.154367
  37 C :   -0.059435
  38 C :   -0.181677
  39 C :   -0.220693
  40 S :    0.426583
  41 C :   -0.205021
  42 C :   -0.198210
  43 S :    0.411222
  44 C :   -0.028131
  45 C :   -0.172372
  46 S :    0.461397
  47 C :   -0.011429
  48 C :   -0.024538
  49 C :   -0.006753
  50 N :   -0.000140
  51 C :   -0.023656
  52 C :   -0.032655
  53 N :   -0.011903
  54 C :   -0.039157
  55 N :   -0.007401
  56 C :   -0.034384
  57 N :   -0.003276
  58 C :   -0.024964
  59 C :   -0.043149
  60 C :   -0.044535
  61 N :   -0.282111
  62 S :    0.684059
  63 N :   -0.285195
  64 H :    0.048415
  65 H :    0.035327
  66 H :    0.043435
  67 H :    0.101299
  68 H :    0.024622
  69 H :    0.037563
  70 H :    0.034438
  71 H :    0.047141

  Mayer bond orders larger than 0.100000
B(  0-C ,  1-C ) :   1.3133 B(  0-C , 11-C ) :   0.1283 B(  0-C , 13-C ) :   1.1774
B(  0-C , 64-H ) :   1.0599 B(  1-C ,  2-C ) :   1.1198 B(  1-C ,  6-N ) :   1.3343
B(  2-C ,  3-N ) :   1.4390 B(  2-C , 11-C ) :   1.2526 B(  3-N ,  4-C ) :   1.7373
B(  4-C ,  5-C ) :   1.1874 B(  4-C ,  9-C ) :   1.1480 B(  5-C ,  6-N ) :   1.7889
B(  5-C ,  7-C ) :   1.1564 B(  7-C ,  8-N ) :   3.0534 B(  9-C , 10-N ) :   3.0466
B( 11-C , 12-C ) :   1.2041 B( 11-C , 17-C ) :   1.1949 B( 12-C , 13-C ) :   1.1296
B( 12-C , 16-N ) :   1.4665 B( 13-C , 14-N ) :   1.4544 B( 14-N , 15-S ) :   1.3156
B( 14-N , 16-N ) :   0.1586 B( 15-S , 16-N ) :   1.2806 B( 17-C , 18-C ) :   1.4566
B( 17-C , 21-S ) :   1.0837 B( 18-C , 19-C ) :   1.2708 B( 18-C , 65-H ) :   0.9909
B( 19-C , 20-C ) :   1.4192 B( 19-C , 24-S ) :   1.0442 B( 20-C , 21-S ) :   1.0527
B( 20-C , 22-C ) :   1.3131 B( 22-C , 23-C ) :   1.4512 B( 22-C , 27-S ) :   1.0655
B( 23-C , 24-S ) :   1.0607 B( 23-C , 25-C ) :   1.2630 B( 25-C , 26-C ) :   1.5385
B( 25-C , 66-H ) :   0.9851 B( 26-C , 27-S ) :   1.0932 B( 26-C , 28-C ) :   1.0824
B( 28-C , 29-C ) :   1.5498 B( 28-C , 35-S ) :   1.1645 B( 29-C , 30-C ) :   0.8788
B( 29-C , 33-C ) :   1.2798 B( 30-C , 31-O ) :   2.0994 B( 30-C , 32-O ) :   1.2484
B( 32-O , 67-H ) :   0.9470 B( 33-C , 34-C ) :   1.5277 B( 33-C , 36-C ) :   1.0772
B( 34-C , 35-S ) :   1.1544 B( 34-C , 68-H ) :   0.9605 B( 36-C , 37-C ) :   1.5495
B( 36-C , 40-S ) :   1.0929 B( 37-C , 38-C ) :   1.2330 B( 37-C , 69-H ) :   0.9875
B( 38-C , 39-C ) :   1.4493 B( 38-C , 43-S ) :   1.0607 B( 39-C , 40-S ) :   1.0630
B( 39-C , 41-C ) :   1.3230 B( 41-C , 42-C ) :   1.4129 B( 41-C , 46-S ) :   1.0334
B( 42-C , 43-S ) :   1.0393 B( 42-C , 44-C ) :   1.2835 B( 44-C , 45-C ) :   1.4478
B( 44-C , 70-H ) :   0.9878 B( 45-C , 46-S ) :   1.0722 B( 45-C , 47-C ) :   1.2237
B( 47-C , 48-C ) :   1.2363 B( 47-C , 58-C ) :   0.1240 B( 47-C , 60-C ) :   1.2096
B( 48-C , 49-C ) :   1.1235 B( 48-C , 53-N ) :   1.4037 B( 49-C , 50-N ) :   1.3313
B( 49-C , 58-C ) :   1.3243 B( 50-N , 51-C ) :   1.7884 B( 51-C , 52-C ) :   1.1905
B( 51-C , 56-C ) :   1.1584 B( 52-C , 53-N ) :   1.7003 B( 52-C , 54-C ) :   1.1580
B( 54-C , 55-N ) :   3.0383 B( 56-C , 57-N ) :   3.0526 B( 58-C , 59-C ) :   1.1739
B( 58-C , 71-H ) :   1.0580 B( 59-C , 60-C ) :   1.1210 B( 59-C , 63-N ) :   1.4637
B( 60-C , 61-N ) :   1.5047 B( 61-N , 62-S ) :   1.2815 B( 61-N , 63-N ) :   0.1559
B( 62-S , 63-N ) :   1.3061

-----------------------------------------------------------------------------
         ABSORPTION SPECTRUM VIA TRANSITION ELECTRIC DIPOLE MOMENTS
-----------------------------------------------------------------------------
State   Energy  Wavelength   fosc         T2         TX        TY        TZ
        (cm-1)    (nm)                  (au**2)     (au)      (au)      (au)
-----------------------------------------------------------------------------
   0   12293.9    813.4   0.817316891  21.88648  -1.18122   3.02023   3.37185
   1   13203.9    757.4   0.283117276   7.05894  -0.06939  -2.10308  -1.62209
   2   18830.9    531.0   0.013573448   0.23730  -0.41768   0.16102   0.19212
   3   19752.0    506.3   0.002020139   0.03367   0.01895   0.15166   0.10154
   4   20191.2    495.3   0.012185757   0.19869  -0.41961   0.10687   0.10579
   5   22057.9    453.4   0.016975557   0.25336  -0.22986  -0.27230  -0.35549
   6   25065.4    399.0   0.196669990   2.58309   0.28605  -1.10658  -1.12993
   7   25293.0    395.4   0.017059192   0.22204  -0.18623  -0.22292  -0.37103
   8   25433.4    393.2   0.002936603   0.03801  -0.02120  -0.19381   0.00018
   9   26414.1    378.6   0.268789481   3.35005   0.54270  -1.21530  -1.25642
  10   26471.9    377.8   0.003291249   0.04093   0.01608  -0.12442   0.15872
  11   26744.2    373.9   0.210265098   2.58829  -0.25923   1.21941   1.01692
  12   27887.1    358.6   0.009315096   0.10997  -0.06046   0.24341   0.21694
  13   28089.2    356.0   0.159592786   1.87046   0.12820  -0.88716  -1.03295
  14   28289.1    353.5   0.338261938   3.93650  -0.45285   1.47101   1.25203
  15   29428.4    339.8   0.157724152   1.76444  -1.01182   0.62127   0.59555
  16   29511.8    338.8   0.064855711   0.72348   0.28548  -0.59332  -0.53848
  17   30416.6    328.8   0.639586583   6.92253  -1.01980   1.53621   1.87686
  18   30526.1    327.6   0.024496134   0.26418   0.01601   0.31754   0.40385
  19   31016.8    322.4   0.001101414   0.01169  -0.07366  -0.04637  -0.06414
  20   31046.4    322.1   0.024638036   0.26126   0.30108   0.29643   0.28764
  21   31361.0    318.9   0.075013012   0.78745   0.87756   0.09524  -0.09093
  22   31692.3    315.5   0.020572515   0.21370  -0.43491  -0.12374  -0.09613
  23   32056.3    312.0   0.000034899   0.00036  -0.01566  -0.01056   0.00134
  24   32385.9    308.8   0.338099731   3.43688  -1.48396  -0.60403  -0.93268
  25   32755.1    305.3   0.916128629   9.20774  -2.97938  -0.54100  -0.19579
  26   32850.4    304.4   0.322691037   3.23386  -0.94928  -0.73925  -1.33650
  27   34062.4    293.6   0.035141939   0.33965  -0.51631   0.14812   0.22612
  28   34774.4    287.6   0.005276885   0.04996  -0.15042   0.11645   0.11734
  29   35092.6    285.0   0.131644424   1.23499   1.10549   0.08585  -0.07419
  30   35440.3    282.2   0.011735101   0.10901   0.08258   0.18629   0.25978
  31   35580.0    281.1   0.001908091   0.01766  -0.00654  -0.08093   0.10518
  32   36302.2    275.5   0.013665265   0.12393  -0.34242   0.00973  -0.08110
  33   36755.7    272.1   0.219907980   1.96966   1.40092   0.07981  -0.02651
  34   37202.0    268.8   0.074771309   0.66167  -0.66622  -0.28265  -0.37139
  35   37629.1    265.8   0.000466433   0.00408   0.05087   0.03760   0.00890
  36   37801.8    264.5   0.004216318   0.03672   0.01526   0.10419   0.16010
  37   37871.7    264.0   0.015256460   0.13262  -0.14859  -0.24749  -0.22201
  38   38397.8    260.4   0.027943371   0.23958   0.00301  -0.42597  -0.24108
  39   38552.6    259.4   0.024166210   0.20636  -0.38499   0.22351   0.09047
  40   38700.3    258.4   0.033813962   0.28764  -0.49487  -0.14143  -0.15083
  41   38872.1    257.3   0.084832177   0.71845   0.58213   0.36255   0.49814
  42   39025.0    256.2   0.028589785   0.24118  -0.47229  -0.09582  -0.09457
  43   39170.7    255.3   0.001701996   0.01430  -0.02749  -0.10633   0.04736
  44   39298.5    254.5   0.002414762   0.02023  -0.05038   0.06958  -0.11335
  45   39495.6    253.2   0.032986558   0.27496  -0.36063   0.28742   0.24959
  46   39725.6    251.7   0.246378229   2.04178  -1.33436  -0.44926  -0.24379
  47   39971.2    250.2   0.012431613   0.10239  -0.18005   0.25002   0.08637

FINAL SINGLE POINT ENERGY     -5954.224034842477

DIPOLE MOMENT
-------------
                                X             Y             Z
Electronic contribution:      5.97843       1.32554       1.44703
Nuclear contribution   :     -5.21999      -1.07338      -1.91294
                        -----------------------------------------
Total Dipole Moment    :      0.75844       0.25216      -0.46591
                        -----------------------------------------
Magnitude (a.u.)       :      0.92514
Magnitude (Debye)      :      2.35152

Rotational constants in cm-1:     0.002916     0.000210     0.000197
Rotational constants in MHz :    87.404815     6.286502     5.896925

                             ****ORCA TERMINATED NORMALLY****
TOTAL RUN TIME: 0 days 0 hours 6 minutes 15 seconds 198 msec
