                         Program Version 4.2.0 -  RELEASE  -
|  1> # ORCA input file
|  2> # SCF done       -174.414085769184          0.000625895644
|  3> ! CAM-B3LYP def2-SVP def2/J RIJCOSX Grid4 TightSCF
|  4> %maxcore 5000
|  5> %tddft
|  6>     Mode sTDDFT
|  7>     Ethresh 5.0
|  8>     maxcore 5000
|  9> end
| 10>
| 11> %pal
| 12>   nprocs 6
| 13>   end
| 14> * xyz 0 1
| 15>    C        1.64799        -1.53185        -2.94838
| 16>    N        2.96918        -1.33021        -2.41389
| 17>    C        3.79483        -0.26612        -2.78129
| 18>    O        3.48877         0.57885        -3.58508
| 19>    C        5.09076        -0.43385        -2.04605
| 20>    C        6.16752         0.50076        -2.25053
| 21>    C        5.90803         1.87954        -2.25022
| 22>    N        4.75588         2.47113        -1.91561
| 23>    S        4.92389         4.04938        -2.06865
| 24>    N        6.45320         4.10257        -2.53010
| 25>    C        6.92661         2.84994        -2.59783
| 26>    C        8.21293         2.45071        -2.93424
| 27>    C        8.48955         1.08877        -2.92007
| 28>    N        9.73619         0.68330        -3.24912
| 29>    C        9.99249        -0.59353        -3.29496
| 30>    C       11.29715        -1.03483        -3.63863
| 31>    N       12.33663        -1.43412        -3.90507
| 32>    C        8.97527        -1.56912        -2.99787
| 33>    C        9.28072        -2.95139        -3.06411
| 34>    N        9.55348        -4.06320        -3.10763
| 35>    N        7.77044        -1.20328        -2.64079
| 36>    C        7.47941         0.10876        -2.58174
| 37>    C        4.96087        -1.57120        -1.31403
| 38>    C        3.62793        -2.12153        -1.53024
| 39>    C        3.45789        -3.23271        -0.75786
| 40>    C        2.31903        -4.07747        -0.65181
| 41>    C        2.22562        -5.17837         0.12222
| 42>    C        1.00002        -5.94243         0.13838
| 43>    C        0.85121        -7.13086         0.86880
| 44>    C       -0.38036        -7.75588         0.78559
| 45>    N       -1.38064        -7.27912         0.06218
| 46>    C       -1.15324        -6.13873        -0.60158
| 47>    C       -2.21318        -5.57450        -1.41211
| 48>    C       -3.49960        -5.96509        -1.63019
| 49>    C       -4.13051        -5.01937        -2.56085
| 50>    C       -5.39762        -5.42626        -2.82267
| 51>    C       -6.47585        -4.91332        -3.62727
| 52>    C       -6.90576        -3.57855        -3.61937
| 53>    N       -6.34188        -2.54756        -2.97581
| 54>    S       -7.23007        -1.23507        -3.22085
| 55>    N       -8.36863        -1.87032        -4.13926
| 56>    C       -8.11999        -3.17682        -4.30600
| 57>    C       -8.90835        -4.09225        -4.99128
| 58>    C       -8.47854        -5.41302        -5.02326
| 59>    N       -9.24324        -6.33653        -5.64938
| 60>    C       -8.82813        -7.57027        -5.69115
| 61>    C       -9.63959        -8.56094        -6.30323
| 62>    N      -10.26455        -9.38990        -6.78636
| 63>    C       -7.53567        -7.94102        -5.16514
| 64>    C       -7.04455        -9.25584        -5.36211
| 65>    N       -6.67686       -10.32653        -5.53644
| 66>    N       -6.79314        -7.07179        -4.53715
| 67>    C       -7.25237        -5.81788        -4.38037
| 68>    C       -5.60155        -6.66436        -1.99950
| 69>    O       -6.60235        -7.32134        -1.86882
| 70>    N       -4.40936        -6.91720        -1.31884
| 71>    C       -4.27568        -8.02800        -0.41012
| 72>    N       -3.21377        -4.08734        -2.90703
| 73>    C       -3.37316        -3.00226        -3.83474
| 74>    C       -2.00478        -4.34895        -2.23516
| 75>    O       -1.03053        -3.65355        -2.37174
| 76>    N       -0.01533        -5.46912        -0.58286
| 77>    C        4.73321        -3.38248         0.00697
| 78>    O        5.03757        -4.20168         0.83688
| 79>    N        5.58571        -2.33644        -0.38235
| 80>    C        6.88866        -2.14472         0.18972
| 81>    H        1.44175        -0.70193        -3.62310
| 82>    H        0.90562        -1.55109        -2.15010
| 83>    H        1.59231        -2.47267        -3.49737
| 84>    H        8.97707         3.15855        -3.20643
| 85>    H        1.45289        -3.81323        -1.24488
| 86>    H        3.04555        -5.51676         0.73637
| 87>    H        1.65664        -7.53413         1.45965
| 88>    H       -0.58712        -8.67835         1.31432
| 89>    H       -9.83538        -3.80485        -5.45707
| 90>    H       -4.56545        -8.94624        -0.92165
| 91>    H       -4.93604        -7.88729         0.44751
| 92>    H       -3.23740        -8.07605        -0.08319
| 93>    H       -4.21156        -2.37502        -3.52973
| 94>    H       -3.55534        -3.38364        -4.84175
| 95>    H       -2.44772        -2.42769        -3.82423
| 96>    H        7.00009        -2.87081         0.99461
| 97>    H        6.98409        -1.13283         0.58742
| 98>    H        7.66199        -2.31354        -0.56019
| 99> *
|100>
|101>                          ****END OF INPUT****

CARTESIAN COORDINATES (ANGSTROEM)
---------------------------------
  C      1.647990   -1.531850   -2.948380
  N      2.969180   -1.330210   -2.413890
  C      3.794830   -0.266120   -2.781290
  O      3.488770    0.578850   -3.585080
  C      5.090760   -0.433850   -2.046050
  C      6.167520    0.500760   -2.250530
  C      5.908030    1.879540   -2.250220
  N      4.755880    2.471130   -1.915610
  S      4.923890    4.049380   -2.068650
  N      6.453200    4.102570   -2.530100
  C      6.926610    2.849940   -2.597830
  C      8.212930    2.450710   -2.934240
  C      8.489550    1.088770   -2.920070
  N      9.736190    0.683300   -3.249120
  C      9.992490   -0.593530   -3.294960
  C     11.297150   -1.034830   -3.638630
  N     12.336630   -1.434120   -3.905070
  C      8.975270   -1.569120   -2.997870
  C      9.280720   -2.951390   -3.064110
  N      9.553480   -4.063200   -3.107630
  N      7.770440   -1.203280   -2.640790
  C      7.479410    0.108760   -2.581740
  C      4.960870   -1.571200   -1.314030
  C      3.627930   -2.121530   -1.530240
  C      3.457890   -3.232710   -0.757860
  C      2.319030   -4.077470   -0.651810
  C      2.225620   -5.178370    0.122220
  C      1.000020   -5.942430    0.138380
  C      0.851210   -7.130860    0.868800
  C     -0.380360   -7.755880    0.785590
  N     -1.380640   -7.279120    0.062180
  C     -1.153240   -6.138730   -0.601580
  C     -2.213180   -5.574500   -1.412110
  C     -3.499600   -5.965090   -1.630190
  C     -4.130510   -5.019370   -2.560850
  C     -5.397620   -5.426260   -2.822670
  C     -6.475850   -4.913320   -3.627270
  C     -6.905760   -3.578550   -3.619370
  N     -6.341880   -2.547560   -2.975810
  S     -7.230070   -1.235070   -3.220850
  N     -8.368630   -1.870320   -4.139260
  C     -8.119990   -3.176820   -4.306000
  C     -8.908350   -4.092250   -4.991280
  C     -8.478540   -5.413020   -5.023260
  N     -9.243240   -6.336530   -5.649380
  C     -8.828130   -7.570270   -5.691150
  C     -9.639590   -8.560940   -6.303230
  N    -10.264550   -9.389900   -6.786360
  C     -7.535670   -7.941020   -5.165140
  C     -7.044550   -9.255840   -5.362110
  N     -6.676860  -10.326530   -5.536440
  N     -6.793140   -7.071790   -4.537150
  C     -7.252370   -5.817880   -4.380370
  C     -5.601550   -6.664360   -1.999500
  O     -6.602350   -7.321340   -1.868820
  N     -4.409360   -6.917200   -1.318840
  C     -4.275680   -8.028000   -0.410120
  N     -3.213770   -4.087340   -2.907030
  C     -3.373160   -3.002260   -3.834740
  C     -2.004780   -4.348950   -2.235160
  O     -1.030530   -3.653550   -2.371740
  N     -0.015330   -5.469120   -0.582860
  C      4.733210   -3.382480    0.006970
  O      5.037570   -4.201680    0.836880
  N      5.585710   -2.336440   -0.382350
  C      6.888660   -2.144720    0.189720
  H      1.441750   -0.701930   -3.623100
  H      0.905620   -1.551090   -2.150100
  H      1.592310   -2.472670   -3.497370
  H      8.977070    3.158550   -3.206430
  H      1.452890   -3.813230   -1.244880
  H      3.045550   -5.516760    0.736370
  H      1.656640   -7.534130    1.459650
  H     -0.587120   -8.678350    1.314320
  H     -9.835380   -3.804850   -5.457070
  H     -4.565450   -8.946240   -0.921650
  H     -4.936040   -7.887290    0.447510
  H     -3.237400   -8.076050   -0.083190
  H     -4.211560   -2.375020   -3.529730
  H     -3.555340   -3.383640   -4.841750
  H     -2.447720   -2.427690   -3.824230
  H      7.000090   -2.870810    0.994610
  H      6.984090   -1.132830    0.587420
  H      7.661990   -2.313540   -0.560190

 Total Charge           Charge          ....    0
 Multiplicity           Mult            ....    1
 Number of Electrons    NEL             ....  460
 Basis Dimension        Dim             .... 1022

ORBITAL ENERGIES
----------------

  NO   OCC          E(Eh)            E(eV)
   0   2.0000     -89.056854     -2423.3602
   1   2.0000     -89.052229     -2423.2344
   2   2.0000     -19.220191      -523.0080
   3   2.0000     -19.216570      -522.9095
   4   2.0000     -19.215522      -522.8809
   5   2.0000     -19.214558      -522.8547
   6   2.0000     -14.472520      -393.8173
   7   2.0000     -14.471936      -393.8014
   8   2.0000     -14.471266      -393.7832
   9   2.0000     -14.470916      -393.7736
  10   2.0000     -14.470276      -393.7562
  11   2.0000     -14.467179      -393.6720
  12   2.0000     -14.464069      -393.5873
  13   2.0000     -14.461554      -393.5189
  14   2.0000     -14.461298      -393.5119
  15   2.0000     -14.460716      -393.4961
  16   2.0000     -14.456478      -393.3808
  17   2.0000     -14.454115      -393.3165
  18   2.0000     -14.436476      -392.8365
  19   2.0000     -14.434044      -392.7703
  20   2.0000     -14.429418      -392.6444
  21   2.0000     -14.427131      -392.5822
  22   2.0000     -14.413910      -392.2224
  23   2.0000     -14.403461      -391.9381
  24   2.0000     -10.398297      -282.9520
  25   2.0000     -10.397290      -282.9246
  26   2.0000     -10.396075      -282.8916
  27   2.0000     -10.394286      -282.8429
  28   2.0000     -10.388247      -282.6786
  29   2.0000     -10.387988      -282.6715
  30   2.0000     -10.383215      -282.5416
  31   2.0000     -10.379703      -282.4461
  32   2.0000     -10.355276      -281.7814
  33   2.0000     -10.354447      -281.7588
  34   2.0000     -10.354199      -281.7521
  35   2.0000     -10.354122      -281.7500
  36   2.0000     -10.353842      -281.7424
  37   2.0000     -10.353307      -281.7278
  38   2.0000     -10.352097      -281.6949
  39   2.0000     -10.349487      -281.6239
  40   2.0000     -10.349260      -281.6177
  41   2.0000     -10.348710      -281.6027
  42   2.0000     -10.346846      -281.5520
  43   2.0000     -10.346482      -281.5421
  44   2.0000     -10.346198      -281.5344
  45   2.0000     -10.331853      -281.1440
  46   2.0000     -10.329594      -281.0825
  47   2.0000     -10.329327      -281.0753
  48   2.0000     -10.327854      -281.0352
  49   2.0000     -10.326931      -281.0101
  50   2.0000     -10.325444      -280.9696
  51   2.0000     -10.322180      -280.8808
  52   2.0000     -10.320494      -280.8349
  53   2.0000     -10.314576      -280.6739
  54   2.0000     -10.311401      -280.5875
  55   2.0000     -10.311323      -280.5854
  56   2.0000     -10.310432      -280.5611
  57   2.0000     -10.310106      -280.5522
  58   2.0000     -10.306091      -280.4430
  59   2.0000     -10.305050      -280.4147
  60   2.0000     -10.298531      -280.2373
  61   2.0000     -10.295092      -280.1437
  62   2.0000     -10.292438      -280.0715
  63   2.0000     -10.286256      -279.9033
  64   2.0000     -10.284624      -279.8589
  65   2.0000     -10.271144      -279.4920
  66   2.0000      -8.148128      -221.7218
  67   2.0000      -8.143504      -221.5960
  68   2.0000      -6.118936      -166.5047
  69   2.0000      -6.114265      -166.3776
  70   2.0000      -6.111395      -166.2995
  71   2.0000      -6.111208      -166.2944
  72   2.0000      -6.106949      -166.1785
  73   2.0000      -6.106471      -166.1655
  74   2.0000      -1.160750       -31.5856
  75   2.0000      -1.159751       -31.5584
  76   2.0000      -1.152968       -31.3738
  77   2.0000      -1.152308       -31.3559
  78   2.0000      -1.151004       -31.3204
  79   2.0000      -1.146271       -31.1916
  80   2.0000      -1.126453       -30.6523
  81   2.0000      -1.119970       -30.4759
  82   2.0000      -1.094887       -29.7934
  83   2.0000      -1.094463       -29.7819
  84   2.0000      -1.085758       -29.5450
  85   2.0000      -1.062025       -28.8992
  86   2.0000      -1.060674       -28.8624
  87   2.0000      -1.053580       -28.6694
  88   2.0000      -1.046821       -28.4855
  89   2.0000      -1.019506       -27.7422
  90   2.0000      -1.012791       -27.5594
  91   2.0000      -1.009051       -27.4577
  92   2.0000      -1.004285       -27.3280
  93   2.0000      -1.001195       -27.2439
  94   2.0000      -0.998497       -27.1705
  95   2.0000      -0.984334       -26.7851
  96   2.0000      -0.983008       -26.7490
  97   2.0000      -0.981181       -26.6993
  98   2.0000      -0.934803       -25.4373
  99   2.0000      -0.930888       -25.3308
 100   2.0000      -0.926692       -25.2166
 101   2.0000      -0.923822       -25.1385
 102   2.0000      -0.910786       -24.7837
 103   2.0000      -0.908362       -24.7178
 104   2.0000      -0.894840       -24.3498
 105   2.0000      -0.881733       -23.9932
 106   2.0000      -0.872562       -23.7436
 107   2.0000      -0.856471       -23.3057
 108   2.0000      -0.838444       -22.8152
 109   2.0000      -0.837382       -22.7863
 110   2.0000      -0.817889       -22.2559
 111   2.0000      -0.816137       -22.2082
 112   2.0000      -0.807930       -21.9849
 113   2.0000      -0.804169       -21.8826
 114   2.0000      -0.792339       -21.5606
 115   2.0000      -0.788465       -21.4552
 116   2.0000      -0.774271       -21.0690
 117   2.0000      -0.769984       -20.9523
 118   2.0000      -0.753637       -20.5075
 119   2.0000      -0.750634       -20.4258
 120   2.0000      -0.742974       -20.2174
 121   2.0000      -0.739163       -20.1136
 122   2.0000      -0.723518       -19.6879
 123   2.0000      -0.720436       -19.6041
 124   2.0000      -0.708062       -19.2674
 125   2.0000      -0.706640       -19.2287
 126   2.0000      -0.702460       -19.1149
 127   2.0000      -0.696711       -18.9585
 128   2.0000      -0.687293       -18.7022
 129   2.0000      -0.682963       -18.5844
 130   2.0000      -0.679243       -18.4832
 131   2.0000      -0.659108       -17.9352
 132   2.0000      -0.656799       -17.8724
 133   2.0000      -0.651409       -17.7257
 134   2.0000      -0.647348       -17.6152
 135   2.0000      -0.636329       -17.3154
 136   2.0000      -0.634748       -17.2724
 137   2.0000      -0.631797       -17.1921
 138   2.0000      -0.625854       -17.0304
 139   2.0000      -0.620093       -16.8736
 140   2.0000      -0.615435       -16.7468
 141   2.0000      -0.604321       -16.4444
 142   2.0000      -0.602608       -16.3978
 143   2.0000      -0.597916       -16.2701
 144   2.0000      -0.596729       -16.2378
 145   2.0000      -0.590820       -16.0770
 146   2.0000      -0.589402       -16.0385
 147   2.0000      -0.587420       -15.9845
 148   2.0000      -0.583288       -15.8721
 149   2.0000      -0.580021       -15.7832
 150   2.0000      -0.576962       -15.6999
 151   2.0000      -0.564529       -15.3616
 152   2.0000      -0.562991       -15.3198
 153   2.0000      -0.559188       -15.2163
 154   2.0000      -0.557097       -15.1594
 155   2.0000      -0.553992       -15.0749
 156   2.0000      -0.550965       -14.9925
 157   2.0000      -0.549762       -14.9598
 158   2.0000      -0.547311       -14.8931
 159   2.0000      -0.538788       -14.6612
 160   2.0000      -0.538462       -14.6523
 161   2.0000      -0.536308       -14.5937
 162   2.0000      -0.533830       -14.5262
 163   2.0000      -0.530292       -14.4300
 164   2.0000      -0.528718       -14.3872
 165   2.0000      -0.525157       -14.2903
 166   2.0000      -0.521967       -14.2035
 167   2.0000      -0.515967       -14.0402
 168   2.0000      -0.510538       -13.8924
 169   2.0000      -0.505164       -13.7462
 170   2.0000      -0.503042       -13.6885
 171   2.0000      -0.498109       -13.5542
 172   2.0000      -0.495794       -13.4913
 173   2.0000      -0.494054       -13.4439
 174   2.0000      -0.493647       -13.4328
 175   2.0000      -0.492392       -13.3987
 176   2.0000      -0.488016       -13.2796
 177   2.0000      -0.486573       -13.2403
 178   2.0000      -0.484042       -13.1714
 179   2.0000      -0.482107       -13.1188
 180   2.0000      -0.479900       -13.0587
 181   2.0000      -0.479148       -13.0383
 182   2.0000      -0.476829       -12.9752
 183   2.0000      -0.474557       -12.9134
 184   2.0000      -0.473432       -12.8827
 185   2.0000      -0.470269       -12.7967
 186   2.0000      -0.461159       -12.5488
 187   2.0000      -0.458279       -12.4704
 188   2.0000      -0.454642       -12.3714
 189   2.0000      -0.453268       -12.3340
 190   2.0000      -0.452109       -12.3025
 191   2.0000      -0.449831       -12.2405
 192   2.0000      -0.449296       -12.2260
 193   2.0000      -0.448812       -12.2128
 194   2.0000      -0.443158       -12.0589
 195   2.0000      -0.443047       -12.0559
 196   2.0000      -0.441472       -12.0131
 197   2.0000      -0.440739       -11.9931
 198   2.0000      -0.434656       -11.8276
 199   2.0000      -0.429144       -11.6776
 200   2.0000      -0.426219       -11.5980
 201   2.0000      -0.422158       -11.4875
 202   2.0000      -0.420401       -11.4397
 203   2.0000      -0.419498       -11.4151
 204   2.0000      -0.417413       -11.3584
 205   2.0000      -0.416438       -11.3319
 206   2.0000      -0.416370       -11.3300
 207   2.0000      -0.410195       -11.1620
 208   2.0000      -0.402344       -10.9483
 209   2.0000      -0.400487       -10.8978
 210   2.0000      -0.392787       -10.6883
 211   2.0000      -0.390873       -10.6362
 212   2.0000      -0.386726       -10.5234
 213   2.0000      -0.377320       -10.2674
 214   2.0000      -0.370631       -10.0854
 215   2.0000      -0.368925       -10.0390
 216   2.0000      -0.367321        -9.9953
 217   2.0000      -0.359871        -9.7926
 218   2.0000      -0.357623        -9.7314
 219   2.0000      -0.355367        -9.6700
 220   2.0000      -0.351361        -9.5610
 221   2.0000      -0.349991        -9.5237
 222   2.0000      -0.348179        -9.4744
 223   2.0000      -0.336331        -9.1520
 224   2.0000      -0.334188        -9.0937
 225   2.0000      -0.319211        -8.6862
 226   2.0000      -0.298773        -8.1300
 227   2.0000      -0.288265        -7.8441
 228   2.0000      -0.284932        -7.7534
 229   2.0000      -0.275562        -7.4984
 230   0.0000      -0.121417        -3.3039
 231   0.0000      -0.120143        -3.2692
 232   0.0000      -0.077961        -2.1214
 233   0.0000      -0.071929        -1.9573
 234   0.0000      -0.053793        -1.4638

MULLIKEN ATOMIC CHARGES
-----------------------
   0 C :    0.122877
   1 N :   -0.235057
   2 C :    0.170596
   3 O :   -0.156689
   4 C :   -0.237282
   5 C :    0.116698
   6 C :   -0.032824
   7 N :   -0.248737
   8 S :    0.557367
   9 N :   -0.270989
  10 C :    0.112794
  11 C :   -0.090945
  12 C :    0.026448
  13 N :    0.061919
  14 C :   -0.147155
  15 C :   -0.200886
  16 N :    0.238522
  17 C :   -0.135249
  18 C :   -0.211505
  19 N :    0.247656
  20 N :    0.038792
  21 C :   -0.092066
  22 C :    0.222061
  23 C :    0.150017
  24 C :   -0.079435
  25 C :   -0.053545
  26 C :   -0.022833
  27 C :    0.067857
  28 C :   -0.044825
  29 C :    0.104075
  30 N :   -0.102199
  31 C :   -0.143743
  32 C :   -0.091041
  33 C :    0.165383
  34 C :    0.179633
  35 C :   -0.216813
  36 C :    0.109906
  37 C :   -0.022136
  38 N :   -0.291054
  39 S :    0.550336
  40 N :   -0.264052
  41 C :    0.106216
  42 C :   -0.088111
  43 C :    0.024608
  44 N :    0.055064
  45 C :   -0.143945
  46 C :   -0.194112
  47 N :    0.230559
  48 C :   -0.134272
  49 C :   -0.195780
  50 N :    0.232199
  51 N :    0.072426
  52 C :   -0.063290
  53 C :    0.166050
  54 O :   -0.156251
  55 N :   -0.221014
  56 C :    0.150509
  57 N :   -0.231141
  58 C :    0.127909
  59 C :    0.171057
  60 O :   -0.144198
  61 N :   -0.019007
  62 C :    0.179549
  63 O :   -0.163896
  64 N :   -0.234604
  65 C :    0.130594
  66 H :    0.049976
  67 H :    0.054985
  68 H :    0.048735
  69 H :   -0.015075
  70 H :    0.017930
  71 H :    0.002573
  72 H :   -0.002644
  73 H :    0.002294
  74 H :   -0.015340
  75 H :    0.035161
  76 H :    0.027253
  77 H :    0.039583
  78 H :    0.036661
  79 H :    0.032164
  80 H :    0.045548
  81 H :    0.057725
  82 H :    0.030767
  83 H :    0.042709
Sum of atomic charges:   -0.0000000

LOEWDIN ATOMIC CHARGES
----------------------
   0 C :    0.037752
   1 N :   -0.012155
   2 C :    0.101883
   3 O :   -0.158194
   4 C :   -0.111944
   5 C :   -0.000157
   6 C :   -0.041824
   7 N :   -0.269577
   8 S :    0.704056
   9 N :   -0.291566
  10 C :   -0.046142
  11 C :   -0.000128
  12 C :   -0.011186
  13 N :    0.003409
  14 C :   -0.028346
  15 C :   -0.036086
  16 N :   -0.000613
  17 C :   -0.032863
  18 C :   -0.040760
  19 N :   -0.000962
  20 N :    0.001187
  21 C :   -0.014904
  22 C :    0.075736
  23 C :    0.061503
  24 C :   -0.107024
  25 C :    0.019624
  26 C :   -0.042340
  27 C :    0.043911
  28 C :   -0.066030
  29 C :    0.054455
  30 N :   -0.095454
  31 C :    0.032756
  32 C :   -0.132759
  33 C :    0.082917
  34 C :    0.073637
  35 C :   -0.112193
  36 C :   -0.005167
  37 C :   -0.042226
  38 N :   -0.286304
  39 S :    0.689514
  40 N :   -0.283086
  41 C :   -0.047155
  42 C :   -0.001287
  43 C :   -0.008842
  44 N :   -0.001088
  45 C :   -0.021241
  46 C :   -0.034498
  47 N :   -0.001396
  48 C :   -0.026438
  49 C :   -0.034395
  50 N :   -0.005847
  51 N :    0.017602
  52 C :   -0.004830
  53 C :    0.102992
  54 O :   -0.153396
  55 N :   -0.001642
  56 C :    0.029016
  57 N :   -0.012753
  58 C :    0.027562
  59 C :    0.110774
  60 O :   -0.151314
  61 N :   -0.072378
  62 C :    0.110859
  63 O :   -0.151200
  64 N :   -0.012688
  65 C :    0.032549
  66 H :    0.039168
  67 H :    0.033765
  68 H :    0.033346
  69 H :    0.049575
  70 H :    0.040620
  71 H :    0.030998
  72 H :    0.035418
  73 H :    0.025902
  74 H :    0.049442
  75 H :    0.031627
  76 H :    0.027324
  77 H :    0.024663
  78 H :    0.019857
  79 H :    0.026876
  80 H :    0.035399
  81 H :    0.041129
  82 H :    0.027567
  83 H :    0.026009

  Mayer bond orders larger than 0.100000
B(  0-C ,  1-N ) :   0.9411 B(  0-C , 66-H ) :   0.9556 B(  0-C , 67-H ) :   0.9703
B(  0-C , 68-H ) :   0.9740 B(  1-N ,  2-C ) :   1.0324 B(  1-N , 23-C ) :   1.1789
B(  2-C ,  3-O ) :   2.1882 B(  2-C ,  4-C ) :   0.9300 B(  4-C ,  5-C ) :   0.9888
B(  4-C , 22-C ) :   1.6191 B(  5-C ,  6-C ) :   1.2889 B(  5-C , 11-C ) :   0.1416
B(  5-C , 21-C ) :   1.3443 B(  6-C ,  7-N ) :   1.4873 B(  6-C , 10-C ) :   1.1192
B(  7-N ,  8-S ) :   1.3201 B(  7-N ,  9-N ) :   0.1630 B(  8-S ,  9-N ) :   1.3142
B(  9-N , 10-C ) :   1.4518 B( 10-C , 11-C ) :   1.1666 B( 11-C , 12-C ) :   1.3026
B( 11-C , 69-H ) :   1.0660 B( 12-C , 13-N ) :   1.3347 B( 12-C , 21-C ) :   1.1195
B( 13-N , 14-C ) :   1.7952 B( 14-C , 15-C ) :   1.1503 B( 14-C , 17-C ) :   1.1778
B( 15-C , 16-N ) :   3.0521 B( 17-C , 18-C ) :   1.1468 B( 17-C , 20-N ) :   1.7260
B( 18-C , 19-N ) :   3.0501 B( 20-N , 21-C ) :   1.4174 B( 22-C , 23-C ) :   1.0331
B( 22-C , 64-N ) :   1.1889 B( 23-C , 24-C ) :   1.5215 B( 24-C , 25-C ) :   1.1015
B( 24-C , 62-C ) :   0.9114 B( 25-C , 26-C ) :   1.6905 B( 25-C , 70-H ) :   0.9822
B( 26-C , 27-C ) :   1.0439 B( 26-C , 71-H ) :   0.9818 B( 27-C , 28-C ) :   1.3180
B( 27-C , 61-N ) :   1.4998 B( 28-C , 29-C ) :   1.3911 B( 28-C , 72-H ) :   0.9776
B( 29-C , 30-N ) :   1.4939 B( 29-C , 73-H ) :   0.9739 B( 30-N , 31-C ) :   1.5486
B( 30-N , 77-H ) :   0.1199 B( 31-C , 32-C ) :   0.9621 B( 31-C , 61-N ) :   1.6848
B( 32-C , 33-C ) :   1.5616 B( 32-C , 59-C ) :   0.9263 B( 32-C , 61-N ) :  -0.1195
B( 33-C , 34-C ) :   1.0235 B( 33-C , 55-N ) :   1.2174 B( 34-C , 35-C ) :   1.6227
B( 34-C , 57-N ) :   1.2066 B( 35-C , 36-C ) :   0.9912 B( 35-C , 53-C ) :   0.9242
B( 36-C , 37-C ) :   1.3039 B( 36-C , 42-C ) :   0.1441 B( 36-C , 52-C ) :   1.3345
B( 37-C , 38-N ) :   1.4559 B( 37-C , 41-C ) :   1.1170 B( 38-N , 39-S ) :   1.2790
B( 38-N , 40-N ) :   0.1611 B( 39-S , 40-N ) :   1.3207 B( 40-N , 41-C ) :   1.4539
B( 41-C , 42-C ) :   1.1694 B( 42-C , 43-C ) :   1.2988 B( 42-C , 74-H ) :   1.0657
B( 43-C , 44-N ) :   1.3280 B( 43-C , 52-C ) :   1.1293 B( 44-N , 45-C ) :   1.8005
B( 45-C , 46-C ) :   1.1446 B( 45-C , 48-C ) :   1.1658 B( 46-C , 47-N ) :   3.0521
B( 48-C , 49-C ) :   1.1476 B( 48-C , 51-N ) :   1.7587 B( 49-C , 50-N ) :   3.0505
B( 51-N , 52-C ) :   1.4082 B( 53-C , 54-O ) :   2.1930 B( 53-C , 55-N ) :   1.0262
B( 55-N , 56-C ) :   0.9351 B( 56-C , 75-H ) :   0.9662 B( 56-C , 76-H ) :   0.9693
B( 56-C , 77-H ) :   0.9304 B( 57-N , 58-C ) :   0.9505 B( 57-N , 59-C ) :   1.0109
B( 58-C , 78-H ) :   0.9548 B( 58-C , 79-H ) :   0.9731 B( 58-C , 80-H ) :   0.9544
B( 59-C , 60-O ) :   2.1534 B( 62-C , 63-O ) :   2.1468 B( 62-C , 64-N ) :   1.0217
B( 64-N , 65-C ) :   0.9516 B( 65-C , 81-H ) :   0.9536 B( 65-C , 82-H ) :   0.9727
B( 65-C , 83-H ) :   0.9696

-----------------------------------------------------------------------------
         ABSORPTION SPECTRUM VIA TRANSITION ELECTRIC DIPOLE MOMENTS
-----------------------------------------------------------------------------
State   Energy  Wavelength   fosc         T2         TX        TY        TZ
        (cm-1)    (nm)                  (au**2)     (au)      (au)      (au)
-----------------------------------------------------------------------------
   0   17463.5    572.6   0.186886891   3.52309  -1.61241  -0.92613   0.25597
   1   17686.6    565.4   0.153890281   2.86446  -1.40033   0.22622  -0.92324
   2   18396.3    543.6   0.134419740   2.40551   0.86105   1.12072  -0.63882
   3   21545.7    464.1   0.055955321   0.85498  -0.87752  -0.09164  -0.27666
   4   23658.1    422.7   0.100940096   1.40462  -0.79391  -0.82213   0.31374
   5   23915.8    418.1   0.012615668   0.17366   0.14397   0.34855  -0.17733
   6   24714.4    404.6   0.002196589   0.02926   0.02894  -0.15653   0.06261
   7   26478.4    377.7   0.027932914   0.34730   0.42530  -0.25712   0.31671
   8   26643.3    375.3   0.028539703   0.35264  -0.49911  -0.32089   0.02360
   9   27429.5    364.6   0.037429444   0.44923  -0.52085  -0.06156   0.41732
  10   27495.9    363.7   0.016014383   0.19174   0.38788  -0.18857   0.07574
  11   27531.1    363.2   0.006013230   0.07191   0.07643   0.24095  -0.08949
  12   28048.1    356.5   0.016385637   0.19232  -0.37819   0.19091  -0.11335
  13   28503.2    350.8   0.631100594   7.28922  -1.42344  -2.00396   1.11678
  14   28960.5    345.3   0.010713373   0.12179   0.26472   0.21292  -0.07986
  15   29177.3    342.7   0.079178788   0.89339  -0.82709   0.44001   0.12531
  16   29255.9    341.8   0.011753726   0.13226  -0.16985  -0.01102   0.32139
  17   29470.6    339.3   0.093704093   1.04676  -0.78684   0.64311   0.11850
  18   29673.2    337.0   0.125415557   1.39143  -0.65143  -0.97499  -0.12835
  19   30572.4    327.1   0.008523059   0.09178  -0.05798   0.08944   0.28358
  20   30703.2    325.7   0.007927633   0.08500  -0.13212  -0.25524   0.04900
  21   31084.4    321.7   0.041547266   0.44002   0.53845   0.20731   0.32729
  22   31584.9    316.6   0.456868517   4.76198  -1.93252  -0.63465  -0.79028
  23   32086.9    311.7   0.008211353   0.08425  -0.15777   0.24344   0.00967
  24   32772.5    305.1   0.007614690   0.07649   0.16237   0.20949   0.07900
  25   32847.4    304.4   0.011952143   0.11979  -0.30839  -0.08660  -0.13109
  26   32988.4    303.1   0.060628632   0.60505  -0.65860  -0.40067  -0.10372
  27   33208.0    301.1   0.011650304   0.11550   0.30171   0.03920   0.15143
  28   33259.9    300.7   0.036021014   0.35654   0.06239   0.59314  -0.02887
  29   33755.0    296.3   0.014537204   0.14178  -0.37126   0.05057   0.03726
  30   33925.2    294.8   0.142725968   1.38502  -0.99410   0.46763   0.42203
  31   34206.4    292.3   0.019810458   0.19066  -0.25282   0.34729  -0.07832
  32   34412.1    290.6   0.030021447   0.28721  -0.17890   0.50300   0.04678
  33   34901.5    286.5   0.074969777   0.70716   0.35822   0.75933   0.04755
  34   35608.3    280.8   0.171829293   1.58863  -1.03672   0.61200   0.37323
  35   35742.2    279.8   0.411696287   3.79203  -1.45696   1.29092   0.05313
  36   35875.9    278.7   0.507619261   4.65812   0.99295   1.90681  -0.19035
  37   35957.4    278.1   0.890336708   8.15157   0.00420  -2.58891  -1.20379
  38   36252.6    275.8   0.158191787   1.43655   0.09869  -1.17289   0.22614
  39   36449.6    274.4   0.089710224   0.81026   0.23088  -0.84497  -0.20731
  40   37096.4    269.6   0.002478990   0.02200  -0.10622  -0.10164  -0.01966
  41   37394.9    267.4   0.024858894   0.21885   0.18624   0.23152   0.36133
  42   37534.3    266.4   0.059524625   0.52209  -0.70936  -0.12489  -0.05739
  43   38676.6    258.6   0.066453700   0.56565  -0.29368   0.56473  -0.40060
  44   38808.2    257.7   0.024757429   0.21002   0.10710   0.42677   0.12811
  45   38928.0    256.9   0.086574331   0.73216   0.24434   0.77813   0.25878
  46   38969.7    256.6   0.018570249   0.15688  -0.08069   0.38686  -0.02668
  47   39401.6    253.8   0.112148435   0.93703  -0.58831   0.76336  -0.09055
  48   39613.6    252.4   0.017544169   0.14580   0.34940   0.15257   0.02098
  49   39685.9    252.0   0.008131612   0.06746   0.21309  -0.14737  -0.01812
  50   39963.5    250.2   0.035215769   0.29010   0.50368  -0.18989   0.01862
  51   40175.6    248.9   0.005538439   0.04538  -0.18806   0.10001   0.00368
  52   40323.9    248.0   0.110871669   0.90518  -0.83318  -0.45895   0.01890

FINAL SINGLE POINT ENERGY     -3690.238339723273

DIPOLE MOMENT
-------------
                                X             Y             Z
Electronic contribution:     -5.24080      15.17815     -15.87709
Nuclear contribution   :      4.58134     -11.15700      17.82465
                        -----------------------------------------
Total Dipole Moment    :     -0.65946       4.02115       1.94756
                        -----------------------------------------
Magnitude (a.u.)       :      4.51636
Magnitude (Debye)      :     11.47968

Rotational constants in cm-1:     0.002121     0.000373     0.000344
Rotational constants in MHz :    63.575216    11.191399    10.308536

                             ****ORCA TERMINATED NORMALLY****
TOTAL RUN TIME: 0 days 0 hours 7 minutes 25 seconds 29 msec
