                         Program Version 4.2.0 -  RELEASE  -
|  1> # ORCA input file
|  2> # SCF done       -159.832515445177          0.000802088119
|  3> ! CAM-B3LYP def2-SVP def2/J RIJCOSX Grid4 TightSCF
|  4> %maxcore 5000
|  5> %tddft
|  6>     Mode sTDDFT
|  7>     Ethresh 5.0
|  8>     maxcore 5000
|  9> end
| 10>
| 11> %pal
| 12>   nprocs 6
| 13>   end
| 14> * xyz 0 1
| 15>    C        1.59784        -0.80111        -4.32755
| 16>    C        0.71100        -0.75374        -5.35793
| 17>    S        0.24440        -2.34037        -5.85308
| 18>    C        1.26732        -3.08623        -4.64697
| 19>   Cl        1.36296        -4.77035        -4.49081
| 20>    C        1.91604        -2.13469        -3.91961
| 21>    C        2.87286        -2.10476        -2.80739
| 22>    O        3.35804        -3.06431        -2.24884
| 23>    C        3.09242        -0.65816        -2.52997
| 24>    C        2.34038         0.12888        -3.49964
| 25>    C        2.31955         1.48835        -3.67457
| 26>    C        1.52688         2.08139        -4.68040
| 27>    N        0.88576         2.58522        -5.48750
| 28>    C        3.04968         2.44995        -2.94823
| 29>    N        3.61361         3.29743        -2.41572
| 30>    C        3.80481        -0.08589        -1.51036
| 31>    C        4.59119        -0.63725        -0.47993
| 32>    C        5.00032        -1.93050        -0.19280
| 33>    C        5.78513        -1.98288         0.95142
| 34>    C        5.99626        -0.73596         1.56922
| 35>    S        5.21519         0.52529         0.70222
| 36>    C        6.76766        -0.80318         2.72595
| 37>    C        7.15904        -2.09882         3.00412
| 38>    S        6.57250        -3.24952         1.81925
| 39>    C        7.93814        -2.50982         4.13333
| 40>    C        8.35084        -3.81675         4.36351
| 41>    F        8.03197        -4.78001         3.48271
| 42>    C        9.09469        -4.21564         5.48187
| 43>    F        9.41364        -5.51922         5.55502
| 44>    C        9.49350        -3.35271         6.49543
| 45>    C        9.09335        -2.00810         6.28700
| 46>    C        8.34759        -1.59899         5.14071
| 47>    N        8.14624        -0.27839         5.25326
| 48>    N        8.72821         0.04978         6.37151
| 49>    N        9.30313        -0.91437         7.03257
| 50>    C        8.73151         1.39859         6.84740
| 51>    C       10.22922        -3.75876         7.65463
| 52>    C       10.55781        -2.94992         8.72573
| 53>    C       11.26765        -3.64961         9.69669
| 54>    C       11.49270        -4.99851         9.37970
| 55>    S       10.80717        -5.40130         7.85081
| 56>    C       12.18085        -5.70045        10.36390
| 57>    C       12.52711        -4.89467        11.43481
| 58>    S       11.93641        -3.24751        11.23239
| 59>    C       13.15671        -5.34213        12.61970
| 60>    C       13.74306        -4.62724        13.61797
| 61>    C       13.87546        -5.25030        14.97164
| 62>    O       13.74382        -6.41916        15.24326
| 63>    C       14.13156        -4.11360        15.86659
| 64>    C       14.26023        -3.90215        17.20636
| 65>    S       14.56544        -2.21187        17.53416
| 66>    C       14.52863        -1.81360        15.85379
| 67>    C       14.28585        -2.91395        15.09522
| 68>    C       14.19038        -3.24991        13.68695
| 69>    C       14.69563        -2.48865        12.66624
| 70>    C       15.16174        -1.17745        12.88567
| 71>    N       15.52047        -0.10072        13.05444
| 72>    C       14.88704        -2.96931        11.35565
| 73>    N       15.10852        -3.35505        10.29755
| 74>   Cl       14.16020        -5.03793        18.45940
| 75>    H        0.29419         0.09521        -5.86200
| 76>    H        3.75351         0.99587        -1.45711
| 77>    H        4.72631        -2.77793        -0.79320
| 78>    H        7.03753         0.03030         3.34534
| 79>    H        9.75689         1.72472         7.02080
| 80>    H        8.18040         1.46297         7.78629
| 81>    H        8.25836         2.02377         6.09431
| 82>    H       10.28879        -1.91228         8.77366
| 83>    H       12.44580        -6.74008        10.30415
| 84>    H       13.08058        -6.40976        12.80590
| 85>    H       14.67791        -0.79708        15.54821
| 86> *
| 87>
| 88>                          ****END OF INPUT****

CARTESIAN COORDINATES (ANGSTROEM)
---------------------------------
  C      1.597840   -0.801110   -4.327550
  C      0.711000   -0.753740   -5.357930
  S      0.244400   -2.340370   -5.853080
  C      1.267320   -3.086230   -4.646970
  Cl     1.362960   -4.770350   -4.490810
  C      1.916040   -2.134690   -3.919610
  C      2.872860   -2.104760   -2.807390
  O      3.358040   -3.064310   -2.248840
  C      3.092420   -0.658160   -2.529970
  C      2.340380    0.128880   -3.499640
  C      2.319550    1.488350   -3.674570
  C      1.526880    2.081390   -4.680400
  N      0.885760    2.585220   -5.487500
  C      3.049680    2.449950   -2.948230
  N      3.613610    3.297430   -2.415720
  C      3.804810   -0.085890   -1.510360
  C      4.591190   -0.637250   -0.479930
  C      5.000320   -1.930500   -0.192800
  C      5.785130   -1.982880    0.951420
  C      5.996260   -0.735960    1.569220
  S      5.215190    0.525290    0.702220
  C      6.767660   -0.803180    2.725950
  C      7.159040   -2.098820    3.004120
  S      6.572500   -3.249520    1.819250
  C      7.938140   -2.509820    4.133330
  C      8.350840   -3.816750    4.363510
  F      8.031970   -4.780010    3.482710
  C      9.094690   -4.215640    5.481870
  F      9.413640   -5.519220    5.555020
  C      9.493500   -3.352710    6.495430
  C      9.093350   -2.008100    6.287000
  C      8.347590   -1.598990    5.140710
  N      8.146240   -0.278390    5.253260
  N      8.728210    0.049780    6.371510
  N      9.303130   -0.914370    7.032570
  C      8.731510    1.398590    6.847400
  C     10.229220   -3.758760    7.654630
  C     10.557810   -2.949920    8.725730
  C     11.267650   -3.649610    9.696690
  C     11.492700   -4.998510    9.379700
  S     10.807170   -5.401300    7.850810
  C     12.180850   -5.700450   10.363900
  C     12.527110   -4.894670   11.434810
  S     11.936410   -3.247510   11.232390
  C     13.156710   -5.342130   12.619700
  C     13.743060   -4.627240   13.617970
  C     13.875460   -5.250300   14.971640
  O     13.743820   -6.419160   15.243260
  C     14.131560   -4.113600   15.866590
  C     14.260230   -3.902150   17.206360
  S     14.565440   -2.211870   17.534160
  C     14.528630   -1.813600   15.853790
  C     14.285850   -2.913950   15.095220
  C     14.190380   -3.249910   13.686950
  C     14.695630   -2.488650   12.666240
  C     15.161740   -1.177450   12.885670
  N     15.520470   -0.100720   13.054440
  C     14.887040   -2.969310   11.355650
  N     15.108520   -3.355050   10.297550
  Cl    14.160200   -5.037930   18.459400
  H      0.294190    0.095210   -5.862000
  H      3.753510    0.995870   -1.457110
  H      4.726310   -2.777930   -0.793200
  H      7.037530    0.030300    3.345340
  H      9.756890    1.724720    7.020800
  H      8.180400    1.462970    7.786290
  H      8.258360    2.023770    6.094310
  H     10.288790   -1.912280    8.773660
  H     12.445800   -6.740080   10.304150
  H     13.080580   -6.409760   12.805900
  H     14.677910   -0.797080   15.548210

 Total Charge           Charge          ....    0
 Multiplicity           Mult            ....    1
 Number of Electrons    NEL             ....  470
 Basis Dimension        Dim             ....  927

ORBITAL ENERGIES
----------------

  NO   OCC          E(Eh)            E(eV)
   0   2.0000    -101.615220     -2765.0907
   1   2.0000    -101.614642     -2765.0750
   2   2.0000     -88.990357     -2421.5507
   3   2.0000     -88.989732     -2421.5337
   4   2.0000     -88.971426     -2421.0356
   5   2.0000     -88.971294     -2421.0320
   6   2.0000     -88.969845     -2420.9926
   7   2.0000     -88.969521     -2420.9837
   8   2.0000     -24.814465      -675.2359
   9   2.0000     -24.814345      -675.2327
  10   2.0000     -19.220297      -523.0109
  11   2.0000     -19.215758      -522.8874
  12   2.0000     -14.565653      -396.3516
  13   2.0000     -14.468404      -393.7053
  14   2.0000     -14.467053      -393.6685
  15   2.0000     -14.418452      -392.3460
  16   2.0000     -14.417763      -392.3273
  17   2.0000     -14.414442      -392.2369
  18   2.0000     -14.413419      -392.2091
  19   2.0000     -10.392459      -282.7932
  20   2.0000     -10.392043      -282.7819
  21   2.0000     -10.377113      -282.3756
  22   2.0000     -10.373759      -282.2843
  23   2.0000     -10.373015      -282.2641
  24   2.0000     -10.372487      -282.2497
  25   2.0000     -10.346348      -281.5384
  26   2.0000     -10.344987      -281.5014
  27   2.0000     -10.344936      -281.5000
  28   2.0000     -10.341496      -281.4064
  29   2.0000     -10.341042      -281.3941
  30   2.0000     -10.333545      -281.1901
  31   2.0000     -10.332873      -281.1718
  32   2.0000     -10.331509      -281.1346
  33   2.0000     -10.330568      -281.1090
  34   2.0000     -10.328628      -281.0563
  35   2.0000     -10.328387      -281.0497
  36   2.0000     -10.326559      -280.9999
  37   2.0000     -10.326277      -280.9923
  38   2.0000     -10.325950      -280.9834
  39   2.0000     -10.324323      -280.9391
  40   2.0000     -10.323537      -280.9177
  41   2.0000     -10.321009      -280.8489
  42   2.0000     -10.320522      -280.8357
  43   2.0000     -10.320454      -280.8338
  44   2.0000     -10.318093      -280.7696
  45   2.0000     -10.317365      -280.7498
  46   2.0000     -10.317158      -280.7441
  47   2.0000     -10.315706      -280.7046
  48   2.0000     -10.312133      -280.6074
  49   2.0000     -10.310644      -280.5669
  50   2.0000     -10.310372      -280.5595
  51   2.0000     -10.308370      -280.5050
  52   2.0000     -10.308255      -280.5019
  53   2.0000     -10.303587      -280.3749
  54   2.0000     -10.301011      -280.3048
  55   2.0000     -10.297932      -280.2210
  56   2.0000     -10.297410      -280.2068
  57   2.0000     -10.295902      -280.1657
  58   2.0000     -10.293481      -280.0999
  59   2.0000     -10.292943      -280.0852
  60   2.0000      -9.569987      -260.4126
  61   2.0000      -9.569362      -260.3956
  62   2.0000      -8.086136      -220.0349
  63   2.0000      -8.085416      -220.0154
  64   2.0000      -8.066302      -219.4952
  65   2.0000      -8.066213      -219.4928
  66   2.0000      -8.064955      -219.4586
  67   2.0000      -8.064831      -219.4552
  68   2.0000      -7.340586      -199.7475
  69   2.0000      -7.339983      -199.7311
  70   2.0000      -7.330041      -199.4606
  71   2.0000      -7.329524      -199.4465
  72   2.0000      -7.329412      -199.4434
  73   2.0000      -7.328890      -199.4292
  74   2.0000      -6.055523      -164.7792
  75   2.0000      -6.054838      -164.7605
  76   2.0000      -6.050968      -164.6552
  77   2.0000      -6.050194      -164.6342
  78   2.0000      -6.048305      -164.5828
  79   2.0000      -6.047661      -164.5652
  80   2.0000      -6.035855      -164.2440
  81   2.0000      -6.035807      -164.2427
  82   2.0000      -6.034440      -164.2054
  83   2.0000      -6.034347      -164.2029
  84   2.0000      -6.031848      -164.1349
  85   2.0000      -6.031592      -164.1280
  86   2.0000      -6.030440      -164.0966
  87   2.0000      -6.030196      -164.0900
  88   2.0000      -6.027779      -164.0242
  89   2.0000      -6.027744      -164.0232
  90   2.0000      -6.026573      -163.9914
  91   2.0000      -6.026326      -163.9847
  92   2.0000      -1.338255       -36.4158
  93   2.0000      -1.320296       -35.9271
  94   2.0000      -1.245097       -33.8808
  95   2.0000      -1.137089       -30.9418
  96   2.0000      -1.133012       -30.8308
  97   2.0000      -1.035730       -28.1836
  98   2.0000      -1.034739       -28.1567
  99   2.0000      -1.025970       -27.9181
 100   2.0000      -1.024437       -27.8763
 101   2.0000      -1.016611       -27.6634
 102   2.0000      -1.014157       -27.5966
 103   2.0000      -1.013305       -27.5734
 104   2.0000      -1.008652       -27.4468
 105   2.0000      -0.995031       -27.0762
 106   2.0000      -0.994532       -27.0626
 107   2.0000      -0.985657       -26.8211
 108   2.0000      -0.985102       -26.8060
 109   2.0000      -0.967448       -26.3256
 110   2.0000      -0.963951       -26.2304
 111   2.0000      -0.950836       -25.8736
 112   2.0000      -0.949923       -25.8487
 113   2.0000      -0.943200       -25.6658
 114   2.0000      -0.910327       -24.7713
 115   2.0000      -0.904750       -24.6195
 116   2.0000      -0.901157       -24.5217
 117   2.0000      -0.886823       -24.1317
 118   2.0000      -0.881868       -23.9969
 119   2.0000      -0.873779       -23.7767
 120   2.0000      -0.867487       -23.6055
 121   2.0000      -0.842814       -22.9341
 122   2.0000      -0.830096       -22.5881
 123   2.0000      -0.829386       -22.5687
 124   2.0000      -0.826213       -22.4824
 125   2.0000      -0.815696       -22.1962
 126   2.0000      -0.815467       -22.1900
 127   2.0000      -0.809088       -22.0164
 128   2.0000      -0.792361       -21.5613
 129   2.0000      -0.767616       -20.8879
 130   2.0000      -0.757506       -20.6128
 131   2.0000      -0.754615       -20.5341
 132   2.0000      -0.751648       -20.4534
 133   2.0000      -0.745832       -20.2951
 134   2.0000      -0.722163       -19.6510
 135   2.0000      -0.707875       -19.2623
 136   2.0000      -0.694273       -18.8921
 137   2.0000      -0.684964       -18.6388
 138   2.0000      -0.678433       -18.4611
 139   2.0000      -0.677247       -18.4288
 140   2.0000      -0.673375       -18.3235
 141   2.0000      -0.672432       -18.2978
 142   2.0000      -0.670980       -18.2583
 143   2.0000      -0.660659       -17.9775
 144   2.0000      -0.657296       -17.8859
 145   2.0000      -0.645532       -17.5658
 146   2.0000      -0.640217       -17.4212
 147   2.0000      -0.634147       -17.2560
 148   2.0000      -0.628720       -17.1084
 149   2.0000      -0.625758       -17.0277
 150   2.0000      -0.622792       -16.9470
 151   2.0000      -0.613516       -16.6946
 152   2.0000      -0.607274       -16.5248
 153   2.0000      -0.605469       -16.4756
 154   2.0000      -0.602989       -16.4082
 155   2.0000      -0.600589       -16.3428
 156   2.0000      -0.591955       -16.1079
 157   2.0000      -0.584989       -15.9184
 158   2.0000      -0.579956       -15.7814
 159   2.0000      -0.577707       -15.7202
 160   2.0000      -0.570129       -15.5140
 161   2.0000      -0.562781       -15.3140
 162   2.0000      -0.561930       -15.2909
 163   2.0000      -0.547656       -14.9025
 164   2.0000      -0.547476       -14.8976
 165   2.0000      -0.544894       -14.8273
 166   2.0000      -0.543582       -14.7916
 167   2.0000      -0.532710       -14.4958
 168   2.0000      -0.530532       -14.4365
 169   2.0000      -0.529773       -14.4159
 170   2.0000      -0.528703       -14.3867
 171   2.0000      -0.526132       -14.3168
 172   2.0000      -0.524667       -14.2769
 173   2.0000      -0.520066       -14.1517
 174   2.0000      -0.519380       -14.1330
 175   2.0000      -0.515967       -14.0402
 176   2.0000      -0.515785       -14.0352
 177   2.0000      -0.513124       -13.9628
 178   2.0000      -0.504690       -13.7333
 179   2.0000      -0.503115       -13.6905
 180   2.0000      -0.502280       -13.6677
 181   2.0000      -0.498576       -13.5669
 182   2.0000      -0.496073       -13.4988
 183   2.0000      -0.494749       -13.4628
 184   2.0000      -0.492629       -13.4051
 185   2.0000      -0.487973       -13.2784
 186   2.0000      -0.487287       -13.2598
 187   2.0000      -0.486708       -13.2440
 188   2.0000      -0.482287       -13.1237
 189   2.0000      -0.471697       -12.8355
 190   2.0000      -0.465805       -12.6752
 191   2.0000      -0.465157       -12.6576
 192   2.0000      -0.462805       -12.5936
 193   2.0000      -0.454415       -12.3652
 194   2.0000      -0.451745       -12.2926
 195   2.0000      -0.449716       -12.2374
 196   2.0000      -0.449449       -12.2301
 197   2.0000      -0.446945       -12.1620
 198   2.0000      -0.446098       -12.1389
 199   2.0000      -0.442717       -12.0470
 200   2.0000      -0.442050       -12.0288
 201   2.0000      -0.441310       -12.0087
 202   2.0000      -0.441027       -12.0009
 203   2.0000      -0.436284       -11.8719
 204   2.0000      -0.430488       -11.7142
 205   2.0000      -0.428927       -11.6717
 206   2.0000      -0.427329       -11.6282
 207   2.0000      -0.426694       -11.6109
 208   2.0000      -0.423143       -11.5143
 209   2.0000      -0.418279       -11.3820
 210   2.0000      -0.417272       -11.3546
 211   2.0000      -0.414216       -11.2714
 212   2.0000      -0.411370       -11.1939
 213   2.0000      -0.410158       -11.1610
 214   2.0000      -0.404030       -10.9942
 215   2.0000      -0.401926       -10.9369
 216   2.0000      -0.400377       -10.8948
 217   2.0000      -0.396944       -10.8014
 218   2.0000      -0.395871       -10.7722
 219   2.0000      -0.376867       -10.2551
 220   2.0000      -0.376505       -10.2452
 221   2.0000      -0.367878       -10.0105
 222   2.0000      -0.357691        -9.7333
 223   2.0000      -0.341676        -9.2975
 224   2.0000      -0.341507        -9.2929
 225   2.0000      -0.340928        -9.2771
 226   2.0000      -0.335348        -9.1253
 227   2.0000      -0.331693        -9.0258
 228   2.0000      -0.325500        -8.8573
 229   2.0000      -0.312531        -8.5044
 230   2.0000      -0.307187        -8.3590
 231   2.0000      -0.304916        -8.2972
 232   2.0000      -0.304779        -8.2935
 233   2.0000      -0.282609        -7.6902
 234   2.0000      -0.256336        -6.9753
 235   0.0000      -0.107651        -2.9293
 236   0.0000      -0.093097        -2.5333
 237   0.0000      -0.064264        -1.7487
 238   0.0000      -0.048945        -1.3319
 239   0.0000      -0.044571        -1.2128

MULLIKEN ATOMIC CHARGES
-----------------------
   0 C :    0.028442
   1 C :   -0.129483
   2 S :    0.180700
   3 C :   -0.173980
   4 Cl:   -0.004668
   5 C :    0.084837
   6 C :    0.155890
   7 O :   -0.144877
   8 C :   -0.104880
   9 C :    0.297518
  10 C :   -0.347377
  11 C :   -0.195263
  12 N :    0.149542
  13 C :   -0.182198
  14 N :    0.154826
  15 C :    0.043011
  16 C :   -0.117288
  17 C :   -0.002023
  18 C :   -0.020264
  19 C :    0.019164
  20 S :    0.153129
  21 C :   -0.055963
  22 C :   -0.127798
  23 S :    0.174639
  24 C :    0.106886
  25 C :    0.119620
  26 F :   -0.170332
  27 C :    0.116991
  28 F :   -0.171214
  29 C :    0.107139
  30 C :   -0.035309
  31 C :   -0.042193
  32 N :   -0.064880
  33 N :   -0.056817
  34 N :   -0.073095
  35 C :    0.142835
  36 C :   -0.133553
  37 C :   -0.042069
  38 C :    0.009678
  39 C :    0.002331
  40 S :    0.171369
  41 C :    0.008708
  42 C :   -0.090968
  43 S :    0.156854
  44 C :    0.044704
  45 C :   -0.149627
  46 C :    0.137205
  47 O :   -0.132745
  48 C :    0.088303
  49 C :   -0.173816
  50 S :    0.178753
  51 C :   -0.128555
  52 C :    0.019967
  53 C :    0.247588
  54 C :   -0.310253
  55 C :   -0.180425
  56 N :    0.153403
  57 C :   -0.210129
  58 N :    0.178680
  59 Cl:   -0.001676
  60 H :    0.053307
  61 H :    0.006658
  62 H :    0.021056
  63 H :   -0.001136
  64 H :    0.062164
  65 H :    0.059256
  66 H :    0.057942
  67 H :   -0.002219
  68 H :    0.002061
  69 H :    0.030661
  70 H :    0.051257
Sum of atomic charges:    0.0000000

LOEWDIN ATOMIC CHARGES
----------------------
   0 C :   -0.059849
   1 C :   -0.148676
   2 S :    0.470688
   3 C :   -0.273986
   4 Cl:    0.188568
   5 C :   -0.115514
   6 C :    0.084660
   7 O :   -0.137947
   8 C :   -0.098366
   9 C :    0.076800
  10 C :   -0.145382
  11 C :   -0.014724
  12 N :   -0.057603
  13 C :   -0.026373
  14 N :   -0.050711
  15 C :    0.048934
  16 C :   -0.172667
  17 C :   -0.011929
  18 C :   -0.205773
  19 C :   -0.181408
  20 S :    0.437971
  21 C :   -0.059625
  22 C :   -0.146014
  23 S :    0.446212
  24 C :   -0.063147
  25 C :    0.062660
  26 F :   -0.045883
  27 C :    0.061922
  28 F :   -0.046654
  29 C :   -0.061599
  30 C :   -0.038690
  31 C :   -0.041641
  32 N :   -0.079716
  33 N :    0.159757
  34 N :   -0.083048
  35 C :    0.035558
  36 C :   -0.149385
  37 C :   -0.054919
  38 C :   -0.177748
  39 C :   -0.204570
  40 S :    0.447345
  41 C :   -0.016096
  42 C :   -0.172438
  43 S :    0.452958
  44 C :    0.053842
  45 C :   -0.099444
  46 C :    0.080359
  47 O :   -0.137349
  48 C :   -0.117266
  49 C :   -0.273437
  50 S :    0.468724
  51 C :   -0.154048
  52 C :   -0.055730
  53 C :    0.060000
  54 C :   -0.141656
  55 C :   -0.017068
  56 N :   -0.053857
  57 C :   -0.039319
  58 N :   -0.045051
  59 Cl:    0.189970
  60 H :    0.037198
  61 H :    0.043674
  62 H :    0.038594
  63 H :    0.032348
  64 H :    0.045163
  65 H :    0.043779
  66 H :    0.044697
  67 H :    0.032733
  68 H :    0.041044
  69 H :    0.053130
  70 H :    0.037017

  Mayer bond orders larger than 0.100000
B(  0-C ,  1-C ) :   1.5470 B(  0-C ,  5-C ) :   1.2245 B(  0-C ,  9-C ) :   0.9901
B(  1-C ,  2-S ) :   1.1593 B(  1-C , 60-H ) :   0.9541 B(  2-S ,  3-C ) :   1.1460
B(  3-C ,  4-Cl) :   1.1235 B(  3-C ,  5-C ) :   1.4773 B(  5-C ,  6-C ) :   0.9632
B(  6-C ,  7-O ) :   2.1786 B(  6-C ,  8-C ) :   0.9376 B(  8-C ,  9-C ) :   1.0949
B(  8-C , 15-C ) :   1.5906 B(  9-C , 10-C ) :   1.6287 B( 10-C , 11-C ) :   1.1546
B( 10-C , 13-C ) :   1.1352 B( 11-C , 12-N ) :   2.9870 B( 13-C , 14-N ) :   2.9686
B( 15-C , 16-C ) :   1.2381 B( 15-C , 61-H ) :   0.9103 B( 16-C , 17-C ) :   1.4404
B( 16-C , 20-S ) :   1.0710 B( 17-C , 18-C ) :   1.2773 B( 17-C , 62-H ) :   0.9805
B( 18-C , 19-C ) :   1.3677 B( 18-C , 23-S ) :   1.0465 B( 19-C , 20-S ) :   1.0982
B( 19-C , 21-C ) :   1.2286 B( 21-C , 22-C ) :   1.5213 B( 21-C , 63-H ) :   0.9879
B( 22-C , 23-S ) :   1.1015 B( 22-C , 24-C ) :   1.1514 B( 24-C , 25-C ) :   1.3638
B( 24-C , 29-C ) :   0.1253 B( 24-C , 31-C ) :   1.1705 B( 25-C , 26-F ) :   1.1433
B( 25-C , 27-C ) :   1.2003 B( 27-C , 28-F ) :   1.1412 B( 27-C , 29-C ) :   1.3630
B( 29-C , 30-C ) :   1.1699 B( 29-C , 36-C ) :   1.1519 B( 30-C , 31-C ) :   1.2242
B( 30-C , 34-N ) :   1.4718 B( 31-C , 32-N ) :   1.4748 B( 32-N , 33-N ) :   1.2394
B( 32-N , 34-N ) :   0.1596 B( 33-N , 34-N ) :   1.2224 B( 33-N , 35-C ) :   0.9498
B( 35-C , 64-H ) :   0.9689 B( 35-C , 65-H ) :   0.9694 B( 35-C , 66-H ) :   0.9666
B( 36-C , 37-C ) :   1.5165 B( 36-C , 40-S ) :   1.1040 B( 37-C , 38-C ) :   1.2420
B( 37-C , 67-H ) :   0.9859 B( 38-C , 39-C ) :   1.3843 B( 38-C , 43-S ) :   1.0898
B( 39-C , 40-S ) :   1.0458 B( 39-C , 41-C ) :   1.2755 B( 41-C , 42-C ) :   1.4452
B( 41-C , 68-H ) :   1.0061 B( 42-C , 43-S ) :   1.0847 B( 42-C , 44-C ) :   1.1581
B( 44-C , 45-C ) :   1.6403 B( 44-C , 69-H ) :   0.9452 B( 45-C , 46-C ) :   0.9412
B( 45-C , 53-C ) :   1.0392 B( 46-C , 47-O ) :   2.2743 B( 46-C , 48-C ) :   0.9260
B( 48-C , 49-C ) :   1.4890 B( 48-C , 52-C ) :   1.2221 B( 49-C , 50-S ) :   1.1493
B( 49-C , 59-Cl) :   1.1268 B( 50-S , 51-C ) :   1.1528 B( 51-C , 52-C ) :   1.5582
B( 51-C , 70-H ) :   0.9572 B( 52-C , 53-C ) :   1.0124 B( 53-C , 54-C ) :   1.6662
B( 54-C , 55-C ) :   1.1382 B( 54-C , 57-C ) :   1.1460 B( 55-C , 56-N ) :   3.0025
B( 57-C , 58-N ) :   3.0315

-----------------------------------------------------------------------------
         ABSORPTION SPECTRUM VIA TRANSITION ELECTRIC DIPOLE MOMENTS
-----------------------------------------------------------------------------
State   Energy  Wavelength   fosc         T2         TX        TY        TZ
        (cm-1)    (nm)                  (au**2)     (au)      (au)      (au)
-----------------------------------------------------------------------------
   0   17638.1    567.0   2.599532117  48.51980   3.96756  -1.00609   5.63614
   1   21319.9    469.0   0.209241742   3.23102  -0.62180   1.29552  -1.07981
   2   25849.6    386.9   0.002900417   0.03694  -0.13004  -0.11647   0.08039
   3   26125.6    382.8   0.051971532   0.65490  -0.07232  -0.52707  -0.60981
   4   27010.6    370.2   0.077789939   0.94812   0.15941  -0.57465   0.76973
   5   27348.4    365.7   0.027950677   0.33646  -0.10607  -0.43995  -0.36284
   6   28098.9    355.9   0.032801284   0.38431  -0.13645  -0.16896   0.58064
   7   28743.3    347.9   0.011348542   0.12998  -0.26711   0.24191  -0.01052
   8   29155.2    343.0   0.002954772   0.03336  -0.07068   0.06347  -0.15601
   9   29712.5    336.6   0.010521698   0.11658   0.01521   0.33778   0.04746
  10   30483.8    328.0   0.077992056   0.84228   0.05328   0.88210  -0.24769
  11   30839.9    324.3   0.153121936   1.63456  -0.80686  -0.77202  -0.62251
  12   31494.0    317.5   0.204237905   2.13493  -0.40921   0.14867  -1.39477
  13   32540.4    307.3   0.010194623   0.10314  -0.15521   0.23453  -0.15506
  14   32931.1    303.7   0.060850460   0.60832  -0.13821   0.08059  -0.76336
  15   33376.9    299.6   0.106445611   1.04992   0.38604   0.91263  -0.26076
  16   33471.9    298.8   0.059449125   0.58471  -0.07799  -0.03870  -0.75969
  17   34704.0    288.2   0.078425840   0.74397   0.02547  -0.85195   0.13232
  18   34972.6    285.9   0.034328008   0.32314  -0.01853   0.19504   0.53363
  19   35028.2    285.5   0.191144930   1.79647   0.36210   1.02235   0.78750
  20   35693.5    280.2   0.098484087   0.90835   0.01140   0.13716  -0.94308
  21   36088.0    277.1   0.016158755   0.14741   0.01959   0.09791   0.37073
  22   37239.3    268.5   0.079748020   0.70501   0.26664   0.74415  -0.28310
  23   37735.5    265.0   0.620462665   5.41305  -0.72035  -1.61000  -1.51725
  24   38153.7    262.1   0.207835118   1.79332   0.04825  -0.56246   1.21434
  25   38580.3    259.2   0.287933126   2.45698  -0.10537  -1.07395   1.13688
  26   38654.5    258.7   0.068790657   0.58588  -0.48887   0.35128   0.47274
  27   38902.8    257.1   0.008643474   0.07314   0.21058   0.16247   0.04905
  28   38967.8    256.6   0.029886556   0.25249   0.42870  -0.25292  -0.06885
  29   39378.0    253.9   0.062415452   0.52181   0.15932   0.03776   0.70357
  30   39643.3    252.2   0.043268484   0.35932  -0.02043   0.02031  -0.59874
  31   39861.2    250.9   0.008258558   0.06821   0.16310  -0.20396  -0.00245

FINAL SINGLE POINT ENERGY     -5607.939623880755

DIPOLE MOMENT
-------------
                                X             Y             Z
Electronic contribution:     -2.23762     -25.86773       0.83586
Nuclear contribution   :      1.30393      25.45798       0.83749
                        -----------------------------------------
Total Dipole Moment    :     -0.93368      -0.40975       1.67335
                        -----------------------------------------
Magnitude (a.u.)       :      1.95953
Magnitude (Debye)      :      4.98073

Rotational constants in cm-1:     0.003825     0.000226     0.000217
Rotational constants in MHz :   114.667583     6.783182     6.519558

                             ****ORCA TERMINATED NORMALLY****
TOTAL RUN TIME: 0 days 0 hours 5 minutes 59 seconds 31 msec
