                         Program Version 4.2.0 -  RELEASE  -
|  1> # ORCA input file
|  2> # SCF done       -179.955744041631          0.000362874155
|  3> ! CAM-B3LYP def2-SVP def2/J RIJCOSX Grid4 TightSCF
|  4> %maxcore 5000
|  5> %tddft
|  6>     Mode sTDDFT
|  7>     Ethresh 5.0
|  8>     maxcore 5000
|  9> end
| 10>
| 11> %pal
| 12>   nprocs 6
| 13>   end
| 14> * xyz 0 1
| 15>    C       -1.26352         7.30684         1.43200
| 16>    C       -1.25456         5.82151         1.39258
| 17>    C       -0.59081         4.95525         2.20502
| 18>    C       -0.81656         3.60123         1.88727
| 19>    C       -1.65333         3.42899         0.81981
| 20>    C       -2.10755         2.18962         0.22267
| 21>    C       -2.49186         1.09508         1.01986
| 22>    C       -2.54825         1.03486         2.43719
| 23>    C       -2.90559        -0.19103         2.91006
| 24>    C       -3.05933        -0.59488         4.28764
| 25>    N       -3.99646        -1.43925         4.63958
| 26>    O       -3.92603        -1.60584         5.97636
| 27>    C       -2.93709        -0.85147         6.48268
| 28>    C       -2.69486        -0.93873         7.88554
| 29>    C       -3.36011        -1.79151         8.72685
| 30>    C       -2.91666        -1.71583        10.06473
| 31>    C       -3.36334        -2.46634        11.17379
| 32>    C       -4.37229        -3.49992        11.06942
| 33>    C       -5.37654        -3.78517        11.95200
| 34>    C       -6.15740        -4.89450        11.57298
| 35>    C       -5.74991        -5.47456        10.41168
| 36>    C       -6.32104        -6.65625         9.71478
| 37>    S       -4.38400        -4.63892         9.74845
| 38>    C       -2.75767        -2.17662        12.39112
| 39>    S       -3.11229        -2.97331        13.90070
| 40>    C       -1.91019        -2.01014        14.72586
| 41>    C       -1.66402        -2.16651        16.13870
| 42>    C       -2.36007        -3.09052        16.93096
| 43>    N       -2.11788        -3.22913        18.21903
| 44>    C       -1.18063        -2.45404        18.74841
| 45>    C       -0.48686        -1.53213        17.97375
| 46>    N       -0.72307        -1.38730        16.68378
| 47>    C       -1.28132        -1.13916        13.88961
| 48>    C       -1.72416        -1.21721        12.54539
| 49>    C       -1.26674        -0.48352        11.43390
| 50>    C       -0.17715         0.46652        11.51301
| 51>    C       -0.04185         1.65271        10.84593
| 52>    C        1.18031         2.30301        11.10304
| 53>    C        1.99450         1.61663        11.95016
| 54>    C        3.35039         1.98363        12.43555
| 55>    S        1.24703         0.14169        12.46731
| 56>    C       -1.89754        -0.74223        10.21724
| 57>    S       -1.50544         0.03273         8.70694
| 58>    C       -2.31613        -0.17171         5.43868
| 59>    C       -1.14361         0.70278         5.53869
| 60>    O       -0.83907         1.28654         6.54686
| 61>    O       -0.38104         0.81520         4.43762
| 62>    S       -3.24198        -1.33461         1.63618
| 63>    C       -2.87094        -0.13180         0.42634
| 64>    C       -2.89893        -0.33652        -0.95137
| 65>    C       -3.24948        -1.62843        -1.50340
| 66>    C       -4.20500        -2.50070        -1.06055
| 67>    C       -4.25137        -3.70032        -1.79686
| 68>    C       -3.32653        -3.76230        -2.79315
| 69>    C       -3.07718        -4.86243        -3.76051
| 70>    S       -2.37847        -2.31312        -2.84990
| 71>    C       -2.55122         0.76903        -1.75265
| 72>    C       -2.52949         0.85283        -3.16748
| 73>    C       -2.12433         2.06509        -3.63666
| 74>    C       -1.99692         2.44606        -5.02272
| 75>    C       -1.55979         3.71763        -5.41974
| 76>    N       -1.44350         4.05145        -6.68944
| 77>    C       -1.75866         3.13158        -7.59140
| 78>    C       -2.19393         1.86822        -7.20943
| 79>    N       -2.31270         1.52581        -5.94065
| 80>    S       -1.75539         3.18845        -2.35170
| 81>    C       -2.17138         1.99635        -1.15318
| 82>    S       -2.17272         4.97072         0.19309
| 83>    H       -0.64659         7.65984         2.25478
| 84>    H       -2.27765         7.68260         1.56535
| 85>    H       -0.87685         7.71815         0.49986
| 86>    H        0.04431         5.27133         3.01327
| 87>    H       -0.33703         2.79071         2.40670
| 88>    H       -2.37862         1.89068         3.06580
| 89>    H       -4.13857        -2.44430         8.37774
| 90>    H       -5.57605        -3.19568        12.82835
| 91>    H       -6.99459        -5.25060        12.14664
| 92>    H       -7.17481        -7.03715        10.27009
| 93>    H       -5.57719        -7.44797         9.62677
| 94>    H       -6.64462        -6.39112         8.70849
| 95>    H       -3.12606        -3.72785        16.50897
| 96>    H       -0.99135        -2.58065        19.80481
| 97>    H        0.27843        -0.89197        18.39154
| 98>    H       -0.52857        -0.46356        14.24944
| 99>    H       -0.80500         2.06802        10.21392
|100>    H        1.44718         3.24878        10.66635
|101>    H        3.64714         2.94233        12.01682
|102>    H        4.08099         1.23026        12.14117
|103>    H        3.36491         2.05342        13.52305
|104>    H       -0.72418         0.30769         3.68608
|105>    H       -4.88372        -2.27734        -0.25743
|106>    H       -4.94967        -4.49209        -1.59143
|107>    H       -3.77957        -5.67437        -3.58856
|108>    H       -2.06278        -5.24654        -3.65372
|109>    H       -3.19162        -4.50779        -4.78445
|110>    H       -2.80875         0.05924        -3.83437
|111>    H       -1.30006         4.47554        -4.69235
|112>    H       -1.65800         3.41958        -8.62808
|113>    H       -2.45497         1.10805        -7.93329
|114> *
|115>
|116>                          ****END OF INPUT****

CARTESIAN COORDINATES (ANGSTROEM)
---------------------------------
  C     -1.263520    7.306840    1.432000
  C     -1.254560    5.821510    1.392580
  C     -0.590810    4.955250    2.205020
  C     -0.816560    3.601230    1.887270
  C     -1.653330    3.428990    0.819810
  C     -2.107550    2.189620    0.222670
  C     -2.491860    1.095080    1.019860
  C     -2.548250    1.034860    2.437190
  C     -2.905590   -0.191030    2.910060
  C     -3.059330   -0.594880    4.287640
  N     -3.996460   -1.439250    4.639580
  O     -3.926030   -1.605840    5.976360
  C     -2.937090   -0.851470    6.482680
  C     -2.694860   -0.938730    7.885540
  C     -3.360110   -1.791510    8.726850
  C     -2.916660   -1.715830   10.064730
  C     -3.363340   -2.466340   11.173790
  C     -4.372290   -3.499920   11.069420
  C     -5.376540   -3.785170   11.952000
  C     -6.157400   -4.894500   11.572980
  C     -5.749910   -5.474560   10.411680
  C     -6.321040   -6.656250    9.714780
  S     -4.384000   -4.638920    9.748450
  C     -2.757670   -2.176620   12.391120
  S     -3.112290   -2.973310   13.900700
  C     -1.910190   -2.010140   14.725860
  C     -1.664020   -2.166510   16.138700
  C     -2.360070   -3.090520   16.930960
  N     -2.117880   -3.229130   18.219030
  C     -1.180630   -2.454040   18.748410
  C     -0.486860   -1.532130   17.973750
  N     -0.723070   -1.387300   16.683780
  C     -1.281320   -1.139160   13.889610
  C     -1.724160   -1.217210   12.545390
  C     -1.266740   -0.483520   11.433900
  C     -0.177150    0.466520   11.513010
  C     -0.041850    1.652710   10.845930
  C      1.180310    2.303010   11.103040
  C      1.994500    1.616630   11.950160
  C      3.350390    1.983630   12.435550
  S      1.247030    0.141690   12.467310
  C     -1.897540   -0.742230   10.217240
  S     -1.505440    0.032730    8.706940
  C     -2.316130   -0.171710    5.438680
  C     -1.143610    0.702780    5.538690
  O     -0.839070    1.286540    6.546860
  O     -0.381040    0.815200    4.437620
  S     -3.241980   -1.334610    1.636180
  C     -2.870940   -0.131800    0.426340
  C     -2.898930   -0.336520   -0.951370
  C     -3.249480   -1.628430   -1.503400
  C     -4.205000   -2.500700   -1.060550
  C     -4.251370   -3.700320   -1.796860
  C     -3.326530   -3.762300   -2.793150
  C     -3.077180   -4.862430   -3.760510
  S     -2.378470   -2.313120   -2.849900
  C     -2.551220    0.769030   -1.752650
  C     -2.529490    0.852830   -3.167480
  C     -2.124330    2.065090   -3.636660
  C     -1.996920    2.446060   -5.022720
  C     -1.559790    3.717630   -5.419740
  N     -1.443500    4.051450   -6.689440
  C     -1.758660    3.131580   -7.591400
  C     -2.193930    1.868220   -7.209430
  N     -2.312700    1.525810   -5.940650
  S     -1.755390    3.188450   -2.351700
  C     -2.171380    1.996350   -1.153180
  S     -2.172720    4.970720    0.193090
  H     -0.646590    7.659840    2.254780
  H     -2.277650    7.682600    1.565350
  H     -0.876850    7.718150    0.499860
  H      0.044310    5.271330    3.013270
  H     -0.337030    2.790710    2.406700
  H     -2.378620    1.890680    3.065800
  H     -4.138570   -2.444300    8.377740
  H     -5.576050   -3.195680   12.828350
  H     -6.994590   -5.250600   12.146640
  H     -7.174810   -7.037150   10.270090
  H     -5.577190   -7.447970    9.626770
  H     -6.644620   -6.391120    8.708490
  H     -3.126060   -3.727850   16.508970
  H     -0.991350   -2.580650   19.804810
  H      0.278430   -0.891970   18.391540
  H     -0.528570   -0.463560   14.249440
  H     -0.805000    2.068020   10.213920
  H      1.447180    3.248780   10.666350
  H      3.647140    2.942330   12.016820
  H      4.080990    1.230260   12.141170
  H      3.364910    2.053420   13.523050
  H     -0.724180    0.307690    3.686080
  H     -4.883720   -2.277340   -0.257430
  H     -4.949670   -4.492090   -1.591430
  H     -3.779570   -5.674370   -3.588560
  H     -2.062780   -5.246540   -3.653720
  H     -3.191620   -4.507790   -4.784450
  H     -2.808750    0.059240   -3.834370
  H     -1.300060    4.475540   -4.692350
  H     -1.658000    3.419580   -8.628080
  H     -2.454970    1.108050   -7.933290

 Total Charge           Charge          ....    0
 Multiplicity           Mult            ....    1
 Number of Electrons    NEL             ....  530
 Basis Dimension        Dim             .... 1139

ORBITAL ENERGIES
----------------

  NO   OCC          E(Eh)            E(eV)
   0   2.0000     -88.955685     -2420.6072
   1   2.0000     -88.949878     -2420.4492
   2   2.0000     -88.946510     -2420.3576
   3   2.0000     -88.946389     -2420.3543
   4   2.0000     -88.945527     -2420.3308
   5   2.0000     -88.944812     -2420.3114
   6   2.0000     -88.944789     -2420.3107
   7   2.0000     -88.939256     -2420.1602
   8   2.0000     -19.322357      -525.7881
   9   2.0000     -19.261247      -524.1252
  10   2.0000     -19.203196      -522.5455
  11   2.0000     -14.463278      -393.5658
  12   2.0000     -14.420804      -392.4100
  13   2.0000     -14.420066      -392.3900
  14   2.0000     -14.417764      -392.3273
  15   2.0000     -14.417502      -392.3202
  16   2.0000     -10.412139      -283.3287
  17   2.0000     -10.368630      -282.1448
  18   2.0000     -10.332974      -281.1745
  19   2.0000     -10.325197      -280.9629
  20   2.0000     -10.322216      -280.8818
  21   2.0000     -10.317762      -280.7606
  22   2.0000     -10.312827      -280.6263
  23   2.0000     -10.312199      -280.6092
  24   2.0000     -10.310116      -280.5525
  25   2.0000     -10.309406      -280.5332
  26   2.0000     -10.309382      -280.5325
  27   2.0000     -10.307595      -280.4839
  28   2.0000     -10.306657      -280.4584
  29   2.0000     -10.305251      -280.4201
  30   2.0000     -10.303782      -280.3802
  31   2.0000     -10.300512      -280.2912
  32   2.0000     -10.298690      -280.2416
  33   2.0000     -10.298136      -280.2265
  34   2.0000     -10.296614      -280.1851
  35   2.0000     -10.296454      -280.1808
  36   2.0000     -10.295618      -280.1580
  37   2.0000     -10.295120      -280.1445
  38   2.0000     -10.294964      -280.1402
  39   2.0000     -10.293649      -280.1044
  40   2.0000     -10.293392      -280.0974
  41   2.0000     -10.293228      -280.0930
  42   2.0000     -10.292688      -280.0783
  43   2.0000     -10.291799      -280.0541
  44   2.0000     -10.291016      -280.0328
  45   2.0000     -10.288817      -279.9729
  46   2.0000     -10.288410      -279.9619
  47   2.0000     -10.287786      -279.9449
  48   2.0000     -10.287348      -279.9330
  49   2.0000     -10.286679      -279.9148
  50   2.0000     -10.286553      -279.9113
  51   2.0000     -10.281003      -279.7603
  52   2.0000     -10.280881      -279.7570
  53   2.0000     -10.278845      -279.7016
  54   2.0000     -10.272596      -279.5315
  55   2.0000     -10.271690      -279.5069
  56   2.0000     -10.271646      -279.5057
  57   2.0000     -10.270899      -279.4854
  58   2.0000     -10.267554      -279.3944
  59   2.0000     -10.267161      -279.3837
  60   2.0000     -10.266859      -279.3754
  61   2.0000     -10.266756      -279.3726
  62   2.0000     -10.264298      -279.3058
  63   2.0000     -10.261779      -279.2372
  64   2.0000     -10.261067      -279.2178
  65   2.0000     -10.260023      -279.1894
  66   2.0000     -10.258617      -279.1512
  67   2.0000     -10.254462      -279.0381
  68   2.0000      -8.050688      -219.0704
  69   2.0000      -8.045280      -218.9232
  70   2.0000      -8.042366      -218.8439
  71   2.0000      -8.042238      -218.8404
  72   2.0000      -8.040725      -218.7993
  73   2.0000      -8.040595      -218.7957
  74   2.0000      -8.038619      -218.7419
  75   2.0000      -8.035111      -218.6465
  76   2.0000      -6.020456      -163.8249
  77   2.0000      -6.016042      -163.7048
  78   2.0000      -6.014899      -163.6737
  79   2.0000      -6.012026      -163.5955
  80   2.0000      -6.011648      -163.5852
  81   2.0000      -6.011520      -163.5818
  82   2.0000      -6.010754      -163.5609
  83   2.0000      -6.010394      -163.5511
  84   2.0000      -6.009877      -163.5371
  85   2.0000      -6.008504      -163.4997
  86   2.0000      -6.007340      -163.4680
  87   2.0000      -6.007275      -163.4663
  88   2.0000      -6.006649      -163.4492
  89   2.0000      -6.006218      -163.4375
  90   2.0000      -6.005632      -163.4216
  91   2.0000      -6.004656      -163.3950
  92   2.0000      -6.004434      -163.3890
  93   2.0000      -6.004386      -163.3877
  94   2.0000      -6.003853      -163.3731
  95   2.0000      -6.002821      -163.3451
  96   2.0000      -6.002104      -163.3255
  97   2.0000      -6.000164      -163.2728
  98   2.0000      -5.999896      -163.2655
  99   2.0000      -5.997310      -163.1951
 100   2.0000      -1.261888       -34.3377
 101   2.0000      -1.186030       -32.2735
 102   2.0000      -1.101102       -29.9625
 103   2.0000      -1.076675       -29.2978
 104   2.0000      -1.073776       -29.2189
 105   2.0000      -1.012061       -27.5396
 106   2.0000      -1.003753       -27.3135
 107   2.0000      -0.998494       -27.1704
 108   2.0000      -0.994431       -27.0598
 109   2.0000      -0.990249       -26.9460
 110   2.0000      -0.977846       -26.6085
 111   2.0000      -0.975680       -26.5496
 112   2.0000      -0.972799       -26.4712
 113   2.0000      -0.970749       -26.4154
 114   2.0000      -0.966004       -26.2863
 115   2.0000      -0.962921       -26.2024
 116   2.0000      -0.926996       -25.2248
 117   2.0000      -0.912839       -24.8396
 118   2.0000      -0.901600       -24.5338
 119   2.0000      -0.899840       -24.4859
 120   2.0000      -0.894711       -24.3463
 121   2.0000      -0.873250       -23.7623
 122   2.0000      -0.868078       -23.6216
 123   2.0000      -0.851073       -23.1589
 124   2.0000      -0.847751       -23.0685
 125   2.0000      -0.842166       -22.9165
 126   2.0000      -0.839461       -22.8429
 127   2.0000      -0.835521       -22.7357
 128   2.0000      -0.832935       -22.6653
 129   2.0000      -0.822684       -22.3864
 130   2.0000      -0.816370       -22.2146
 131   2.0000      -0.814432       -22.1618
 132   2.0000      -0.812102       -22.0984
 133   2.0000      -0.810994       -22.0683
 134   2.0000      -0.807043       -21.9608
 135   2.0000      -0.795209       -21.6387
 136   2.0000      -0.789751       -21.4902
 137   2.0000      -0.779707       -21.2169
 138   2.0000      -0.775401       -21.0997
 139   2.0000      -0.762010       -20.7353
 140   2.0000      -0.756069       -20.5737
 141   2.0000      -0.746462       -20.3123
 142   2.0000      -0.743890       -20.2423
 143   2.0000      -0.741576       -20.1793
 144   2.0000      -0.737548       -20.0697
 145   2.0000      -0.734444       -19.9852
 146   2.0000      -0.720984       -19.6190
 147   2.0000      -0.708878       -19.2895
 148   2.0000      -0.700920       -19.0730
 149   2.0000      -0.690086       -18.7782
 150   2.0000      -0.682118       -18.5614
 151   2.0000      -0.666516       -18.1368
 152   2.0000      -0.662405       -18.0250
 153   2.0000      -0.649315       -17.6688
 154   2.0000      -0.642844       -17.4927
 155   2.0000      -0.639903       -17.4126
 156   2.0000      -0.637532       -17.3481
 157   2.0000      -0.634239       -17.2585
 158   2.0000      -0.626340       -17.0436
 159   2.0000      -0.623728       -16.9725
 160   2.0000      -0.620090       -16.8735
 161   2.0000      -0.615194       -16.7403
 162   2.0000      -0.612820       -16.6757
 163   2.0000      -0.608087       -16.5469
 164   2.0000      -0.605491       -16.4763
 165   2.0000      -0.604353       -16.4453
 166   2.0000      -0.600507       -16.3406
 167   2.0000      -0.599684       -16.3182
 168   2.0000      -0.597495       -16.2587
 169   2.0000      -0.590059       -16.0563
 170   2.0000      -0.587766       -15.9939
 171   2.0000      -0.582759       -15.8577
 172   2.0000      -0.580281       -15.7903
 173   2.0000      -0.575032       -15.6474
 174   2.0000      -0.574574       -15.6350
 175   2.0000      -0.569282       -15.4910
 176   2.0000      -0.560049       -15.2397
 177   2.0000      -0.548745       -14.9321
 178   2.0000      -0.539667       -14.6851
 179   2.0000      -0.535960       -14.5842
 180   2.0000      -0.533784       -14.5250
 181   2.0000      -0.531291       -14.4572
 182   2.0000      -0.529559       -14.4100
 183   2.0000      -0.526803       -14.3350
 184   2.0000      -0.523288       -14.2394
 185   2.0000      -0.521360       -14.1869
 186   2.0000      -0.518940       -14.1211
 187   2.0000      -0.514294       -13.9947
 188   2.0000      -0.510603       -13.8942
 189   2.0000      -0.508975       -13.8499
 190   2.0000      -0.507861       -13.8196
 191   2.0000      -0.507643       -13.8137
 192   2.0000      -0.507150       -13.8003
 193   2.0000      -0.506335       -13.7781
 194   2.0000      -0.504540       -13.7292
 195   2.0000      -0.503465       -13.7000
 196   2.0000      -0.501482       -13.6460
 197   2.0000      -0.499760       -13.5991
 198   2.0000      -0.494469       -13.4552
 199   2.0000      -0.489983       -13.3331
 200   2.0000      -0.486554       -13.2398
 201   2.0000      -0.483837       -13.1659
 202   2.0000      -0.478495       -13.0205
 203   2.0000      -0.476765       -12.9734
 204   2.0000      -0.476514       -12.9666
 205   2.0000      -0.473257       -12.8780
 206   2.0000      -0.466728       -12.7003
 207   2.0000      -0.466316       -12.6891
 208   2.0000      -0.465217       -12.6592
 209   2.0000      -0.463171       -12.6035
 210   2.0000      -0.462249       -12.5784
 211   2.0000      -0.461574       -12.5601
 212   2.0000      -0.458248       -12.4696
 213   2.0000      -0.457609       -12.4522
 214   2.0000      -0.455758       -12.4018
 215   2.0000      -0.454075       -12.3560
 216   2.0000      -0.451095       -12.2749
 217   2.0000      -0.449029       -12.2187
 218   2.0000      -0.445953       -12.1350
 219   2.0000      -0.441566       -12.0156
 220   2.0000      -0.440931       -11.9984
 221   2.0000      -0.439601       -11.9622
 222   2.0000      -0.438297       -11.9267
 223   2.0000      -0.434287       -11.8175
 224   2.0000      -0.429142       -11.6776
 225   2.0000      -0.426010       -11.5923
 226   2.0000      -0.419886       -11.4257
 227   2.0000      -0.417630       -11.3643
 228   2.0000      -0.413121       -11.2416
 229   2.0000      -0.410701       -11.1758
 230   2.0000      -0.408782       -11.1235
 231   2.0000      -0.407585       -11.0910
 232   2.0000      -0.406437       -11.0597
 233   2.0000      -0.403485       -10.9794
 234   2.0000      -0.402233       -10.9453
 235   2.0000      -0.399238       -10.8638
 236   2.0000      -0.397587       -10.8189
 237   2.0000      -0.393476       -10.7070
 238   2.0000      -0.387484       -10.5440
 239   2.0000      -0.385260       -10.4835
 240   2.0000      -0.381597       -10.3838
 241   2.0000      -0.378849       -10.3090
 242   2.0000      -0.378661       -10.3039
 243   2.0000      -0.374032       -10.1779
 244   2.0000      -0.373433       -10.1616
 245   2.0000      -0.358154        -9.7459
 246   2.0000      -0.348714        -9.4890
 247   2.0000      -0.343224        -9.3396
 248   2.0000      -0.334052        -9.0900
 249   2.0000      -0.322652        -8.7798
 250   2.0000      -0.319870        -8.7041
 251   2.0000      -0.316989        -8.6257
 252   2.0000      -0.315146        -8.5756
 253   2.0000      -0.313151        -8.5213
 254   2.0000      -0.312702        -8.5091
 255   2.0000      -0.309940        -8.4339
 256   2.0000      -0.306744        -8.3469
 257   2.0000      -0.301150        -8.1947
 258   2.0000      -0.295119        -8.0306
 259   2.0000      -0.291870        -7.9422
 260   2.0000      -0.284816        -7.7502
 261   2.0000      -0.281745        -7.6667
 262   2.0000      -0.273605        -7.4452
 263   2.0000      -0.243518        -6.6265
 264   2.0000      -0.235692        -6.4135
 265   0.0000      -0.057908        -1.5757
 266   0.0000      -0.052779        -1.4362
 267   0.0000      -0.017175        -0.4674
 268   0.0000      -0.013096        -0.3564
 269   0.0000      -0.006027        -0.1640

MULLIKEN ATOMIC CHARGES
-----------------------
   0 C :    0.123852
   1 C :   -0.206465
   2 C :    0.013262
   3 C :    0.026710
   4 C :   -0.217110
   5 C :    0.144407
   6 C :    0.070631
   7 C :   -0.090540
   8 C :   -0.147342
   9 C :    0.032489
  10 N :    0.022918
  11 O :   -0.172054
  12 C :    0.220083
  13 C :   -0.097879
  14 C :   -0.060306
  15 C :    0.089711
  16 C :    0.146092
  17 C :   -0.221043
  18 C :    0.031913
  19 C :    0.019263
  20 C :   -0.211598
  21 C :    0.126573
  22 S :    0.121468
  23 C :   -0.132373
  24 S :    0.097578
  25 C :   -0.004900
  26 C :   -0.016851
  27 C :   -0.018120
  28 N :   -0.046074
  29 C :    0.018026
  30 C :    0.037351
  31 N :   -0.044724
  32 C :   -0.065101
  33 C :    0.087035
  34 C :    0.141356
  35 C :   -0.215721
  36 C :    0.028177
  37 C :    0.022937
  38 C :   -0.211940
  39 C :    0.126710
  40 S :    0.120637
  41 C :   -0.120429
  42 S :    0.165010
  43 C :   -0.161467
  44 C :    0.167699
  45 O :   -0.181732
  46 O :   -0.157592
  47 S :    0.173693
  48 C :   -0.130223
  49 C :    0.138904
  50 C :   -0.216102
  51 C :    0.021156
  52 C :    0.019722
  53 C :   -0.210339
  54 C :    0.124899
  55 S :    0.126381
  56 C :    0.087636
  57 C :   -0.062591
  58 C :   -0.007823
  59 C :   -0.015080
  60 C :   -0.019435
  61 N :   -0.043693
  62 C :    0.018227
  63 C :    0.037277
  64 N :   -0.044309
  65 S :    0.110854
  66 C :   -0.133601
  67 S :    0.124400
  68 H :    0.020611
  69 H :    0.033898
  70 H :    0.033532
  71 H :   -0.018692
  72 H :   -0.017994
  73 H :    0.013973
  74 H :    0.002115
  75 H :   -0.009990
  76 H :   -0.025798
  77 H :    0.018833
  78 H :    0.034707
  79 H :    0.033698
  80 H :    0.011378
  81 H :    0.012658
  82 H :    0.009725
  83 H :   -0.001634
  84 H :    0.000967
  85 H :   -0.025616
  86 H :    0.017565
  87 H :    0.033557
  88 H :    0.032070
  89 H :    0.194580
  90 H :   -0.002266
  91 H :   -0.023411
  92 H :    0.019916
  93 H :    0.033963
  94 H :    0.033246
  95 H :   -0.002438
  96 H :    0.012394
  97 H :    0.013228
  98 H :    0.010751
Sum of atomic charges:    0.0000000

LOEWDIN ATOMIC CHARGES
----------------------
   0 C :   -0.059271
   1 C :   -0.170264
   2 C :   -0.074001
   3 C :   -0.052802
   4 C :   -0.185541
   5 C :   -0.049235
   6 C :   -0.043018
   7 C :   -0.048133
   8 C :   -0.190251
   9 C :   -0.048981
  10 N :   -0.037663
  11 O :    0.039797
  12 C :    0.076276
  13 C :   -0.196237
  14 C :   -0.027877
  15 C :   -0.047570
  16 C :   -0.049613
  17 C :   -0.180348
  18 C :   -0.062050
  19 C :   -0.075526
  20 C :   -0.171551
  21 C :   -0.059468
  22 S :    0.432900
  23 C :   -0.140991
  24 S :    0.412743
  25 C :   -0.168807
  26 C :   -0.020116
  27 C :   -0.003304
  28 N :   -0.040036
  29 C :   -0.006758
  30 C :    0.004304
  31 N :   -0.045776
  32 C :   -0.034417
  33 C :   -0.040204
  34 C :   -0.049629
  35 C :   -0.181276
  36 C :   -0.058939
  37 C :   -0.073342
  38 C :   -0.172717
  39 C :   -0.059711
  40 S :    0.433654
  41 C :   -0.146672
  42 S :    0.481573
  43 C :   -0.159380
  44 C :    0.080560
  45 O :   -0.165479
  46 O :   -0.024912
  47 S :    0.448133
  48 C :   -0.143664
  49 C :   -0.050301
  50 C :   -0.181518
  51 C :   -0.062232
  52 C :   -0.075267
  53 C :   -0.171079
  54 C :   -0.059341
  55 S :    0.436901
  56 C :   -0.039526
  57 C :   -0.035610
  58 C :   -0.167637
  59 C :   -0.020553
  60 C :   -0.002522
  61 N :   -0.039208
  62 C :   -0.005420
  63 C :    0.004375
  64 N :   -0.045839
  65 S :    0.404287
  66 C :   -0.148421
  67 S :    0.419972
  68 H :    0.038426
  69 H :    0.037431
  70 H :    0.037404
  71 H :    0.029617
  72 H :    0.028108
  73 H :    0.036611
  74 H :    0.022667
  75 H :    0.022749
  76 H :    0.026937
  77 H :    0.037709
  78 H :    0.037636
  79 H :    0.037469
  80 H :    0.019705
  81 H :    0.025390
  82 H :    0.026199
  83 H :    0.022916
  84 H :    0.024948
  85 H :    0.027339
  86 H :    0.037272
  87 H :    0.037179
  88 H :    0.036415
  89 H :    0.083866
  90 H :    0.024231
  91 H :    0.027719
  92 H :    0.037958
  93 H :    0.037610
  94 H :    0.037192
  95 H :    0.023295
  96 H :    0.020249
  97 H :    0.025751
  98 H :    0.026530

  Mayer bond orders larger than 0.100000
B(  0-C ,  1-C ) :   1.0658 B(  0-C , 68-H ) :   0.9571 B(  0-C , 69-H ) :   0.9515
B(  0-C , 70-H ) :   0.9511 B(  1-C ,  2-C ) :   1.6018 B(  1-C ,  4-C ) :   0.1048
B(  1-C , 67-S ) :   1.1336 B(  2-C ,  3-C ) :   1.2259 B(  2-C , 71-H ) :   0.9964
B(  3-C ,  4-C ) :   1.5603 B(  3-C , 72-H ) :   0.9980 B(  4-C ,  5-C ) :   0.9894
B(  4-C , 67-S ) :   1.1272 B(  5-C ,  6-C ) :   1.3258 B(  5-C , 66-C ) :   1.3975
B(  6-C ,  7-C ) :   1.1647 B(  6-C , 48-C ) :   1.2862 B(  7-C ,  8-C ) :   1.5730
B(  7-C , 73-H ) :   0.9961 B(  8-C ,  9-C ) :   1.0040 B(  8-C , 47-S ) :   1.0876
B(  9-C , 10-N ) :   1.7436 B(  9-C , 43-C ) :   1.1738 B( 10-N , 11-O ) :   0.9885
B( 11-O , 12-C ) :   1.2121 B( 12-C , 13-C ) :   1.1140 B( 12-C , 43-C ) :   1.4644
B( 13-C , 14-C ) :   1.5236 B( 13-C , 42-S ) :   1.0852 B( 14-C , 15-C ) :   1.1691
B( 14-C , 74-H ) :   0.9910 B( 15-C , 16-C ) :   1.2828 B( 15-C , 41-C ) :   1.2615
B( 16-C , 17-C ) :   0.9915 B( 16-C , 23-C ) :   1.4363 B( 17-C , 18-C ) :   1.5747
B( 17-C , 20-C ) :   0.1029 B( 17-C , 22-S ) :   1.1257 B( 18-C , 19-C ) :   1.2235
B( 18-C , 75-H ) :   0.9884 B( 19-C , 20-C ) :   1.6074 B( 19-C , 76-H ) :   0.9947
B( 20-C , 21-C ) :   1.0667 B( 20-C , 22-S ) :   1.1350 B( 21-C , 77-H ) :   0.9562
B( 21-C , 78-H ) :   0.9510 B( 21-C , 79-H ) :   0.9505 B( 23-C , 24-S ) :   1.0575
B( 23-C , 33-C ) :   1.2598 B( 24-S , 25-C ) :   1.0651 B( 25-C , 26-C ) :   1.0451
B( 25-C , 32-C ) :   1.6080 B( 26-C , 27-C ) :   1.3235 B( 26-C , 31-N ) :   1.5732
B( 27-C , 28-N ) :   1.5914 B( 27-C , 80-H ) :   0.9744 B( 28-N , 29-C ) :   1.5370
B( 29-C , 30-C ) :   1.3502 B( 29-C , 81-H ) :   0.9782 B( 30-C , 31-N ) :   1.5524
B( 30-C , 82-H ) :   0.9765 B( 32-C , 33-C ) :   1.1336 B( 32-C , 83-H ) :   0.9872
B( 33-C , 34-C ) :   1.3043 B( 34-C , 35-C ) :   0.9981 B( 34-C , 41-C ) :   1.4049
B( 35-C , 36-C ) :   1.5708 B( 35-C , 38-C ) :   0.1034 B( 35-C , 40-S ) :   1.1237
B( 36-C , 37-C ) :   1.2273 B( 36-C , 84-H ) :   0.9871 B( 37-C , 38-C ) :   1.6047
B( 37-C , 85-H ) :   0.9949 B( 38-C , 39-C ) :   1.0668 B( 38-C , 40-S ) :   1.1370
B( 39-C , 86-H ) :   0.9564 B( 39-C , 87-H ) :   0.9510 B( 39-C , 88-H ) :   0.9508
B( 41-C , 42-S ) :   1.0381 B( 43-C , 44-C ) :   0.9253 B( 44-C , 45-O ) :   2.1159
B( 44-C , 46-O ) :   1.2520 B( 46-O , 89-H ) :   0.9291 B( 47-S , 48-C ) :   1.0502
B( 48-C , 49-C ) :   1.4087 B( 49-C , 50-C ) :   0.9937 B( 49-C , 56-C ) :   1.3060
B( 50-C , 51-C ) :   1.5695 B( 50-C , 53-C ) :   0.1032 B( 50-C , 55-S ) :   1.1281
B( 51-C , 52-C ) :   1.2273 B( 51-C , 90-H ) :   0.9885 B( 52-C , 53-C ) :   1.6055
B( 52-C , 91-H ) :   0.9945 B( 53-C , 54-C ) :   1.0662 B( 53-C , 55-S ) :   1.1374
B( 54-C , 92-H ) :   0.9567 B( 54-C , 93-H ) :   0.9512 B( 54-C , 94-H ) :   0.9510
B( 56-C , 57-C ) :   1.1398 B( 56-C , 66-C ) :   1.2691 B( 57-C , 58-C ) :   1.6077
B( 57-C , 95-H ) :   0.9867 B( 58-C , 59-C ) :   1.0462 B( 58-C , 65-S ) :   1.0708
B( 59-C , 60-C ) :   1.3261 B( 59-C , 64-N ) :   1.5720 B( 60-C , 61-N ) :   1.5932
B( 60-C , 96-H ) :   0.9738 B( 61-N , 62-C ) :   1.5354 B( 62-C , 63-C ) :   1.3508
B( 62-C , 97-H ) :   0.9784 B( 63-C , 64-N ) :   1.5531 B( 63-C , 98-H ) :   0.9762
B( 65-S , 66-C ) :   1.0647

-----------------------------------------------------------------------------
         ABSORPTION SPECTRUM VIA TRANSITION ELECTRIC DIPOLE MOMENTS
-----------------------------------------------------------------------------
State   Energy  Wavelength   fosc         T2         TX        TY        TZ
        (cm-1)    (nm)                  (au**2)     (au)      (au)      (au)
-----------------------------------------------------------------------------
   0   22302.9    448.4   0.519443288   7.66748   1.21153   1.65821  -1.85742
   1   24890.5    401.8   0.504119992   6.66770  -0.62685  -2.34091   0.89158
   2   28932.6    345.6   1.025325556  11.66674   0.34935  -0.43527   3.36975
   3   29373.6    340.4   0.425449647   4.76834  -0.16001   0.23383  -2.16519
   4   30096.7    332.3   0.047697654   0.52174   0.24891   0.37045  -0.56794
   5   30546.0    327.4   0.000353637   0.00381   0.02787   0.01070   0.05404
   6   31327.3    319.2   0.331928829   3.48817  -0.14299  -0.91594   1.62135
   7   31954.0    313.0   0.008236365   0.08486  -0.10922  -0.20986  -0.16996
   8   32445.7    308.2   0.908323075   9.21636   1.60276   1.10069   2.33152
   9   32778.6    305.1   0.458758101   4.60754  -0.33795  -0.98342  -1.87782
  10   33489.0    298.6   0.087805360   0.86317   0.67721   0.47857   0.41894
  11   33724.5    296.5   0.009316042   0.09094   0.22722  -0.11244  -0.16330
  12   33920.0    294.8   0.009221885   0.08950  -0.01171   0.27379  -0.12001
  13   34018.3    294.0   0.242667939   2.34842  -0.06939   0.17536   1.52081
  14   34609.9    288.9   0.424892361   4.04161   0.34815  -0.05049  -1.97936
  15   35408.0    282.4   0.041820488   0.38883   0.13743   0.42300   0.43706
  16   35717.2    280.0   0.082204350   0.75769  -0.03914  -0.40777   0.76804
  17   36806.3    271.7   0.006824383   0.06104   0.10819  -0.12819  -0.18138
  18   36915.0    270.9   0.163192467   1.45537  -0.29191  -0.52956   1.04390
  19   36930.8    270.8   0.033656918   0.30003   0.26431  -0.02114   0.47929
  20   37393.9    267.4   0.013307179   0.11715  -0.03769   0.15275  -0.30398
  21   38007.1    263.1   0.012940000   0.11208  -0.02232   0.24715   0.22472
  22   38187.5    261.9   0.002688068   0.02317  -0.04545  -0.04313   0.13874
  23   38911.7    257.0   0.012879743   0.10897   0.15272   0.05994  -0.28645
  24   39040.6    256.1   0.010262901   0.08654   0.20598   0.14449   0.15244
  25   39253.9    254.8   0.050818470   0.42620   0.25822   0.21160   0.56103
  26   39446.3    253.5   0.001314928   0.01097  -0.05385   0.08422  -0.03131
  27   39452.3    253.5   0.008768434   0.07317   0.16062  -0.19778  -0.09085
  28   39592.6    252.6   0.011629626   0.09670   0.22431  -0.20097   0.07745
  29   39834.7    251.0   0.002023191   0.01672   0.04841   0.10682   0.05446

FINAL SINGLE POINT ENERGY     -5681.066147697891

DIPOLE MOMENT
-------------
                                X             Y             Z
Electronic contribution:     -4.28214      -0.02869      -0.28625
Nuclear contribution   :      4.31541      -0.28707      -0.48209
                        -----------------------------------------
Total Dipole Moment    :      0.03327      -0.31576      -0.76834
                        -----------------------------------------
Magnitude (a.u.)       :      0.83136
Magnitude (Debye)      :      2.11314

Rotational constants in cm-1:     0.001744     0.000307     0.000270
Rotational constants in MHz :    52.286885     9.215874     8.107798

                             ****ORCA TERMINATED NORMALLY****
TOTAL RUN TIME: 0 days 0 hours 11 minutes 30 seconds 162 msec
