                         Program Version 4.2.0 -  RELEASE  -
|  1> # ORCA input file
|  2> # SCF done       -124.718719025404          0.000631143384
|  3> ! CAM-B3LYP def2-SVP def2/J RIJCOSX Grid4 TightSCF
|  4> %maxcore 5000
|  5> %tddft
|  6>     Mode sTDDFT
|  7>     Ethresh 5.0
|  8>     maxcore 5000
|  9> end
| 10>
| 11> %pal
| 12>   nprocs 6
| 13>   end
| 14> * xyz 0 1
| 15>    N        2.75527        10.87705         0.76497
| 16>    C        3.81655        10.55741         1.06069
| 17>    C        5.10687        10.16258         1.41765
| 18>    S        6.13949         9.31521         0.30517
| 19>    C        7.41789         9.22084         1.47983
| 20>    C        8.61467         8.58026         1.21195
| 21>    C        9.66189         7.99625         1.01714
| 22>    C       10.81328         7.26525         0.79424
| 23>    C       11.84192         7.03692         1.68284
| 24>    C       12.79219         6.16251         1.15255
| 25>    S       14.23264         5.41772         1.75193
| 26>    C       14.39987         4.50293         0.26726
| 27>    C       15.41780         3.49967         0.16223
| 28>    C       15.55123         2.64955        -0.92778
| 29>    C       16.42985         1.57117        -0.93052
| 30>    C       17.24692         1.24757         0.14498
| 31>    C       18.00533         0.03258         0.18604
| 32>    C       18.77020        -0.44650         1.22489
| 33>    C       19.24614        -1.73514         0.97050
| 34>    S       20.15693        -2.88771         1.87706
| 35>    C       19.98005        -4.05968         0.57618
| 36>    C       20.46602        -5.34451         0.73054
| 37>    C       20.85645        -6.47893         0.92091
| 38>    C       21.26176        -7.78603         1.12523
| 39>    S       20.99898        -9.02811        -0.06370
| 40>    C       21.71351       -10.23647         0.96132
| 41>    C       21.80997       -11.56986         0.55956
| 42>    N       21.88311       -12.66495         0.22604
| 43>    C       22.13043        -9.68612         2.15583
| 44>    F       22.71154       -10.39045         3.12399
| 45>    C       21.87675        -8.30811         2.24805
| 46>    F       22.19231        -7.57059         3.31541
| 47>    C       19.27589        -3.56338        -0.50096
| 48>    C       18.85937        -2.25193        -0.27204
| 49>    S       17.90264        -1.11222        -1.14643
| 50>    C       17.21543         2.14820         1.24347
| 51>    N       17.93622         2.10810         2.36355
| 52>    S       17.51796         3.33851         3.30904
| 53>    N       16.39730         3.98291         2.35574
| 54>    C       16.30557         3.26127         1.24217
| 55>    C       13.40890         4.79531        -0.64733
| 56>    C       12.49947         5.72613        -0.14546
| 57>    S       11.03041         6.41785        -0.73438
| 58>    C        7.03825         9.82558         2.66399
| 59>    F        7.83368         9.89083         3.73544
| 60>    C        5.73854        10.35443         2.62931
| 61>    F        5.17158        10.97472         3.66160
| 62>    H       11.87794         7.47159         2.66455
| 63>    H       14.92739         2.79932        -1.79427
| 64>    H       16.44805         0.92827        -1.79883
| 65>    H       18.94553         0.11445         2.12329
| 66>    H       19.06921        -4.13555        -1.38646
| 67>    H       13.33168         4.34704        -1.61989
| 68> *
| 69>
| 70>                          ****END OF INPUT****

CARTESIAN COORDINATES (ANGSTROEM)
---------------------------------
  N      2.755270   10.877050    0.764970
  C      3.816550   10.557410    1.060690
  C      5.106870   10.162580    1.417650
  S      6.139490    9.315210    0.305170
  C      7.417890    9.220840    1.479830
  C      8.614670    8.580260    1.211950
  C      9.661890    7.996250    1.017140
  C     10.813280    7.265250    0.794240
  C     11.841920    7.036920    1.682840
  C     12.792190    6.162510    1.152550
  S     14.232640    5.417720    1.751930
  C     14.399870    4.502930    0.267260
  C     15.417800    3.499670    0.162230
  C     15.551230    2.649550   -0.927780
  C     16.429850    1.571170   -0.930520
  C     17.246920    1.247570    0.144980
  C     18.005330    0.032580    0.186040
  C     18.770200   -0.446500    1.224890
  C     19.246140   -1.735140    0.970500
  S     20.156930   -2.887710    1.877060
  C     19.980050   -4.059680    0.576180
  C     20.466020   -5.344510    0.730540
  C     20.856450   -6.478930    0.920910
  C     21.261760   -7.786030    1.125230
  S     20.998980   -9.028110   -0.063700
  C     21.713510  -10.236470    0.961320
  C     21.809970  -11.569860    0.559560
  N     21.883110  -12.664950    0.226040
  C     22.130430   -9.686120    2.155830
  F     22.711540  -10.390450    3.123990
  C     21.876750   -8.308110    2.248050
  F     22.192310   -7.570590    3.315410
  C     19.275890   -3.563380   -0.500960
  C     18.859370   -2.251930   -0.272040
  S     17.902640   -1.112220   -1.146430
  C     17.215430    2.148200    1.243470
  N     17.936220    2.108100    2.363550
  S     17.517960    3.338510    3.309040
  N     16.397300    3.982910    2.355740
  C     16.305570    3.261270    1.242170
  C     13.408900    4.795310   -0.647330
  C     12.499470    5.726130   -0.145460
  S     11.030410    6.417850   -0.734380
  C      7.038250    9.825580    2.663990
  F      7.833680    9.890830    3.735440
  C      5.738540   10.354430    2.629310
  F      5.171580   10.974720    3.661600
  H     11.877940    7.471590    2.664550
  H     14.927390    2.799320   -1.794270
  H     16.448050    0.928270   -1.798830
  H     18.945530    0.114450    2.123290
  H     19.069210   -4.135550   -1.386460
  H     13.331680    4.347040   -1.619890

 Total Charge           Charge          ....    0
 Multiplicity           Mult            ....    1
 Number of Electrons    NEL             ....  374
 Basis Dimension        Dim             ....  716

ORBITAL ENERGIES
----------------

  NO   OCC          E(Eh)            E(eV)
   0   2.0000     -89.038672     -2422.8654
   1   2.0000     -88.997417     -2421.7428
   2   2.0000     -88.996096     -2421.7069
   3   2.0000     -88.972642     -2421.0687
   4   2.0000     -88.969093     -2420.9721
   5   2.0000     -88.968031     -2420.9432
   6   2.0000     -88.962425     -2420.7907
   7   2.0000     -24.816231      -675.2840
   8   2.0000     -24.815099      -675.2532
   9   2.0000     -24.810663      -675.1325
  10   2.0000     -24.809264      -675.0944
  11   2.0000     -14.453084      -393.2884
  12   2.0000     -14.452809      -393.2809
  13   2.0000     -14.417672      -392.3248
  14   2.0000     -14.416233      -392.2856
  15   2.0000     -10.399248      -282.9779
  16   2.0000     -10.398046      -282.9452
  17   2.0000     -10.390128      -282.7297
  18   2.0000     -10.388525      -282.6861
  19   2.0000     -10.351843      -281.6880
  20   2.0000     -10.350458      -281.6503
  21   2.0000     -10.349720      -281.6302
  22   2.0000     -10.348144      -281.5873
  23   2.0000     -10.338155      -281.3155
  24   2.0000     -10.336613      -281.2735
  25   2.0000     -10.331978      -281.1474
  26   2.0000     -10.328801      -281.0610
  27   2.0000     -10.321168      -280.8533
  28   2.0000     -10.320164      -280.8259
  29   2.0000     -10.319847      -280.8173
  30   2.0000     -10.319754      -280.8148
  31   2.0000     -10.313639      -280.6484
  32   2.0000     -10.313277      -280.6385
  33   2.0000     -10.312307      -280.6121
  34   2.0000     -10.311878      -280.6005
  35   2.0000     -10.309848      -280.5452
  36   2.0000     -10.306154      -280.4447
  37   2.0000     -10.304324      -280.3949
  38   2.0000     -10.303291      -280.3668
  39   2.0000     -10.303274      -280.3663
  40   2.0000     -10.301758      -280.3251
  41   2.0000     -10.301751      -280.3249
  42   2.0000     -10.301366      -280.3144
  43   2.0000     -10.299577      -280.2657
  44   2.0000     -10.299507      -280.2638
  45   2.0000     -10.293950      -280.1126
  46   2.0000     -10.288910      -279.9755
  47   2.0000      -8.130303      -221.2368
  48   2.0000      -8.092481      -220.2076
  49   2.0000      -8.091091      -220.1698
  50   2.0000      -8.067684      -219.5329
  51   2.0000      -8.064438      -219.4445
  52   2.0000      -8.063233      -219.4117
  53   2.0000      -8.056683      -219.2335
  54   2.0000      -6.101571      -166.0322
  55   2.0000      -6.093771      -165.8199
  56   2.0000      -6.092628      -165.7888
  57   2.0000      -6.062071      -164.9573
  58   2.0000      -6.060671      -164.9193
  59   2.0000      -6.057998      -164.8465
  60   2.0000      -6.056608      -164.8087
  61   2.0000      -6.053793      -164.7321
  62   2.0000      -6.052451      -164.6956
  63   2.0000      -6.037266      -164.2824
  64   2.0000      -6.034051      -164.1949
  65   2.0000      -6.033210      -164.1720
  66   2.0000      -6.032787      -164.1605
  67   2.0000      -6.029998      -164.0846
  68   2.0000      -6.029164      -164.0619
  69   2.0000      -6.028816      -164.0524
  70   2.0000      -6.026334      -163.9849
  71   2.0000      -6.025799      -163.9703
  72   2.0000      -6.024730      -163.9412
  73   2.0000      -6.021996      -163.8669
  74   2.0000      -6.018233      -163.7645
  75   2.0000      -1.334788       -36.3214
  76   2.0000      -1.333475       -36.2857
  77   2.0000      -1.321385       -35.9567
  78   2.0000      -1.319834       -35.9145
  79   2.0000      -1.139375       -31.0040
  80   2.0000      -1.028894       -27.9976
  81   2.0000      -1.027515       -27.9601
  82   2.0000      -1.020562       -27.7709
  83   2.0000      -1.017647       -27.6916
  84   2.0000      -0.996368       -27.1125
  85   2.0000      -0.995865       -27.0989
  86   2.0000      -0.994932       -27.0735
  87   2.0000      -0.984241       -26.7826
  88   2.0000      -0.959709       -26.1150
  89   2.0000      -0.948623       -25.8133
  90   2.0000      -0.907430       -24.6924
  91   2.0000      -0.904645       -24.6167
  92   2.0000      -0.887691       -24.1553
  93   2.0000      -0.878098       -23.8943
  94   2.0000      -0.872120       -23.7316
  95   2.0000      -0.868565       -23.6348
  96   2.0000      -0.866026       -23.5658
  97   2.0000      -0.864222       -23.5167
  98   2.0000      -0.859417       -23.3859
  99   2.0000      -0.849025       -23.1032
 100   2.0000      -0.818849       -22.2820
 101   2.0000      -0.811522       -22.0826
 102   2.0000      -0.808281       -21.9944
 103   2.0000      -0.798266       -21.7219
 104   2.0000      -0.774896       -21.0860
 105   2.0000      -0.756155       -20.5760
 106   2.0000      -0.751772       -20.4568
 107   2.0000      -0.732954       -19.9447
 108   2.0000      -0.721406       -19.6305
 109   2.0000      -0.718191       -19.5430
 110   2.0000      -0.709624       -19.3098
 111   2.0000      -0.698858       -19.0169
 112   2.0000      -0.685465       -18.6524
 113   2.0000      -0.682359       -18.5679
 114   2.0000      -0.672274       -18.2935
 115   2.0000      -0.664842       -18.0913
 116   2.0000      -0.655022       -17.8241
 117   2.0000      -0.637999       -17.3608
 118   2.0000      -0.635363       -17.2891
 119   2.0000      -0.633235       -17.2312
 120   2.0000      -0.629663       -17.1340
 121   2.0000      -0.618161       -16.8210
 122   2.0000      -0.617191       -16.7946
 123   2.0000      -0.608737       -16.5646
 124   2.0000      -0.600572       -16.3424
 125   2.0000      -0.599207       -16.3052
 126   2.0000      -0.597332       -16.2542
 127   2.0000      -0.586809       -15.9679
 128   2.0000      -0.585222       -15.9247
 129   2.0000      -0.583122       -15.8676
 130   2.0000      -0.579532       -15.7699
 131   2.0000      -0.572790       -15.5864
 132   2.0000      -0.570756       -15.5311
 133   2.0000      -0.563848       -15.3431
 134   2.0000      -0.561678       -15.2840
 135   2.0000      -0.560288       -15.2462
 136   2.0000      -0.529649       -14.4125
 137   2.0000      -0.521544       -14.1919
 138   2.0000      -0.520339       -14.1591
 139   2.0000      -0.518354       -14.1051
 140   2.0000      -0.515355       -14.0235
 141   2.0000      -0.514422       -13.9981
 142   2.0000      -0.508728       -13.8432
 143   2.0000      -0.499906       -13.6031
 144   2.0000      -0.499725       -13.5982
 145   2.0000      -0.498503       -13.5649
 146   2.0000      -0.498337       -13.5604
 147   2.0000      -0.496760       -13.5175
 148   2.0000      -0.493082       -13.4174
 149   2.0000      -0.484869       -13.1939
 150   2.0000      -0.479666       -13.0524
 151   2.0000      -0.478475       -13.0200
 152   2.0000      -0.476373       -12.9628
 153   2.0000      -0.470733       -12.8093
 154   2.0000      -0.470423       -12.8009
 155   2.0000      -0.466110       -12.6835
 156   2.0000      -0.464317       -12.6347
 157   2.0000      -0.457054       -12.4371
 158   2.0000      -0.452650       -12.3172
 159   2.0000      -0.450775       -12.2662
 160   2.0000      -0.446010       -12.1366
 161   2.0000      -0.445290       -12.1169
 162   2.0000      -0.444050       -12.0832
 163   2.0000      -0.432417       -11.7667
 164   2.0000      -0.431460       -11.7406
 165   2.0000      -0.422349       -11.4927
 166   2.0000      -0.420187       -11.4339
 167   2.0000      -0.419309       -11.4100
 168   2.0000      -0.417997       -11.3743
 169   2.0000      -0.401464       -10.9244
 170   2.0000      -0.394799       -10.7430
 171   2.0000      -0.390502       -10.6261
 172   2.0000      -0.373346       -10.1593
 173   2.0000      -0.371294       -10.1034
 174   2.0000      -0.370541       -10.0829
 175   2.0000      -0.369161       -10.0454
 176   2.0000      -0.368067       -10.0156
 177   2.0000      -0.351310        -9.5596
 178   2.0000      -0.348851        -9.4927
 179   2.0000      -0.341671        -9.2973
 180   2.0000      -0.340393        -9.2626
 181   2.0000      -0.330086        -8.9821
 182   2.0000      -0.305756        -8.3200
 183   2.0000      -0.305225        -8.3056
 184   2.0000      -0.301596        -8.2068
 185   2.0000      -0.272539        -7.4162
 186   2.0000      -0.245507        -6.6806
 187   0.0000      -0.095198        -2.5905
 188   0.0000      -0.064975        -1.7681
 189   0.0000      -0.058459        -1.5907
 190   0.0000      -0.018462        -0.5024
 191   0.0000      -0.009151        -0.2490

MULLIKEN ATOMIC CHARGES
-----------------------
   0 N :    0.144066
   1 C :   -0.135377
   2 C :   -0.346965
   3 S :    0.254614
   4 C :   -0.208269
   5 C :    0.026777
   6 C :    0.027130
   7 C :   -0.170513
   8 C :    0.015221
   9 C :   -0.008713
  10 S :    0.172998
  11 C :   -0.104592
  12 C :    0.163395
  13 C :   -0.055998
  14 C :   -0.054412
  15 C :    0.147930
  16 C :   -0.119748
  17 C :   -0.030135
  18 C :   -0.013675
  19 S :    0.183663
  20 C :   -0.168702
  21 C :    0.021435
  22 C :    0.027066
  23 C :   -0.209846
  24 S :    0.253852
  25 C :   -0.342784
  26 C :   -0.137361
  27 N :    0.142421
  28 C :    0.288825
  29 F :   -0.144500
  30 C :    0.218446
  31 F :   -0.154946
  32 C :    0.014671
  33 C :   -0.006851
  34 S :    0.112017
  35 C :    0.021694
  36 N :   -0.292090
  37 S :    0.530460
  38 N :   -0.312735
  39 C :   -0.017658
  40 C :   -0.038437
  41 C :   -0.015778
  42 S :    0.165896
  43 C :    0.214843
  44 F :   -0.156985
  45 C :    0.287072
  46 F :   -0.144910
  47 H :   -0.002216
  48 H :   -0.018599
  49 H :   -0.002785
  50 H :    0.002134
  51 H :   -0.003565
  52 H :   -0.017480
Sum of atomic charges:    0.0000000

LOEWDIN ATOMIC CHARGES
----------------------
   0 N :   -0.034930
   1 C :   -0.055328
   2 C :   -0.257552
   3 S :    0.506401
   4 C :   -0.200738
   5 C :   -0.061745
   6 C :   -0.013066
   7 C :   -0.186643
   8 C :   -0.033763
   9 C :   -0.209433
  10 S :    0.462651
  11 C :   -0.152099
  12 C :   -0.040938
  13 C :   -0.006131
  14 C :   -0.017191
  15 C :   -0.041496
  16 C :   -0.149198
  17 C :   -0.054363
  18 C :   -0.195375
  19 S :    0.446682
  20 C :   -0.185971
  21 C :   -0.014612
  22 C :   -0.059333
  23 C :   -0.201358
  24 S :    0.505800
  25 C :   -0.256651
  26 C :   -0.055287
  27 N :   -0.034036
  28 C :    0.057030
  29 F :   -0.028218
  30 C :    0.033133
  31 F :   -0.037929
  32 C :   -0.037369
  33 C :   -0.200558
  34 S :    0.416191
  35 C :   -0.035838
  36 N :   -0.279738
  37 S :    0.653141
  38 N :   -0.295310
  39 C :   -0.046593
  40 C :   -0.064629
  41 C :   -0.194875
  42 S :    0.431111
  43 C :    0.032618
  44 F :   -0.039460
  45 C :    0.056923
  46 F :   -0.028696
  47 H :    0.040308
  48 H :    0.033354
  49 H :    0.027038
  50 H :    0.033929
  51 H :    0.039272
  52 H :    0.030872

  Mayer bond orders larger than 0.100000
B(  0-N ,  1-C ) :   3.0170 B(  1-C ,  2-C ) :   1.1928 B(  2-C ,  3-S ) :   1.1094
B(  2-C ,  4-C ) :   0.1452 B(  2-C , 45-C ) :   1.4637 B(  3-S ,  4-C ) :   1.1068
B(  4-C ,  5-C ) :   0.9637 B(  4-C , 43-C ) :   1.4526 B(  5-C ,  6-C ) :   2.3407
B(  6-C ,  7-C ) :   1.0175 B(  7-C ,  8-C ) :   1.5081 B(  7-C , 42-S ) :   1.0677
B(  8-C ,  9-C ) :   1.2534 B(  8-C , 47-H ) :   1.0082 B(  9-C , 10-S ) :   1.0392
B(  9-C , 41-C ) :   1.4085 B( 10-S , 11-C ) :   1.1200 B( 11-C , 12-C ) :   1.1093
B( 11-C , 40-C ) :   1.5059 B( 12-C , 13-C ) :   1.4464 B( 12-C , 15-C ) :   0.1071
B( 12-C , 39-C ) :   1.1669 B( 13-C , 14-C ) :   1.2566 B( 13-C , 48-H ) :   0.9910
B( 14-C , 15-C ) :   1.4358 B( 14-C , 49-H ) :   0.9823 B( 15-C , 16-C ) :   1.1338
B( 15-C , 35-C ) :   1.1889 B( 16-C , 17-C ) :   1.5460 B( 16-C , 34-S ) :   1.0876
B( 17-C , 18-C ) :   1.2163 B( 17-C , 50-H ) :   0.9868 B( 18-C , 19-S ) :   1.0768
B( 18-C , 33-C ) :   1.4151 B( 19-S , 20-C ) :   1.0757 B( 20-C , 21-C ) :   1.0206
B( 20-C , 32-C ) :   1.5002 B( 21-C , 22-C ) :   2.3466 B( 22-C , 23-C ) :   0.9708
B( 23-C , 24-S ) :   1.1041 B( 23-C , 25-C ) :   0.1453 B( 23-C , 30-C ) :   1.4507
B( 24-S , 25-C ) :   1.1092 B( 25-C , 26-C ) :   1.1927 B( 25-C , 28-C ) :   1.4643
B( 26-C , 27-N ) :   3.0164 B( 28-C , 29-F ) :   1.2137 B( 28-C , 30-C ) :   1.2136
B( 30-C , 31-F ) :   1.2019 B( 32-C , 33-C ) :   1.2610 B( 32-C , 51-H ) :   1.0066
B( 33-C , 34-S ) :   1.0634 B( 35-C , 36-N ) :   1.5211 B( 35-C , 39-C ) :   1.1686
B( 36-N , 37-S ) :   1.2637 B( 36-N , 38-N ) :   0.1467 B( 37-S , 38-N ) :   1.2601
B( 38-N , 39-C ) :   1.4999 B( 40-C , 41-C ) :   1.2672 B( 40-C , 52-H ) :   0.9926
B( 41-C , 42-S ) :   1.0705 B( 43-C , 44-F ) :   1.2002 B( 43-C , 45-C ) :   1.2156
B( 45-C , 46-F ) :   1.2134

-----------------------------------------------------------------------------
         ABSORPTION SPECTRUM VIA TRANSITION ELECTRIC DIPOLE MOMENTS
-----------------------------------------------------------------------------
State   Energy  Wavelength   fosc         T2         TX        TY        TZ
        (cm-1)    (nm)                  (au**2)     (au)      (au)      (au)
-----------------------------------------------------------------------------
   0   17671.8    565.9   1.828679381  34.06682  -3.73442   4.48550   0.03482
   1   24866.1    402.2   0.146560775   1.94038  -0.96831  -0.97660   0.22136
   2   26168.7    382.1   1.304207415  16.40739  -2.36539   3.28803  -0.03421
   3   26693.1    374.6   0.237437569   2.92837  -1.66161  -0.19711   0.35858
   4   28492.7    351.0   0.022969976   0.26540   0.17240   0.10677   0.47358
   5   29671.1    337.0   0.022035275   0.24449  -0.31625  -0.02566  -0.37923
   6   32447.6    308.2   0.105114870   1.06649  -0.58748   0.84670   0.06681
   7   33414.8    299.3   0.009378983   0.09240   0.04430  -0.28932   0.08209
   8   34636.8    288.7   0.052179636   0.49595   0.28837   0.52002  -0.37733
   9   36101.7    277.0   0.264681226   2.41363  -1.02536   1.16648   0.03979
  10   36552.9    273.6   0.071582469   0.64470  -0.58803   0.00227  -0.54674
  11   36689.8    272.6   0.023052723   0.20685  -0.03685  -0.07509  -0.44705
  12   37352.4    267.7   0.055250308   0.48696   0.15175   0.29904   0.61197
  13   38218.3    261.7   0.108485438   0.93449   0.21358   0.14721   0.93124

FINAL SINGLE POINT ENERGY     -4625.449851874224

DIPOLE MOMENT
-------------
                                X             Y             Z
Electronic contribution:     -4.54638      -4.54584      15.94965
Nuclear contribution   :      5.89739       5.39515     -16.57325
                        -----------------------------------------
Total Dipole Moment    :      1.35101       0.84931      -0.62360
                        -----------------------------------------
Magnitude (a.u.)       :      1.71332
Magnitude (Debye)      :      4.35490

Rotational constants in cm-1:     0.004723     0.000281     0.000277
Rotational constants in MHz :   141.606448     8.422147     8.303456

                             ****ORCA TERMINATED NORMALLY****
TOTAL RUN TIME: 0 days 0 hours 6 minutes 23 seconds 574 msec
