                         Program Version 4.2.0 -  RELEASE  -
|  1> # ORCA input file
|  2> # SCF done       -142.077998262109          0.000398506073
|  3> ! CAM-B3LYP def2-SVP def2/J RIJCOSX Grid4 TightSCF
|  4> %maxcore 5000
|  5> %tddft
|  6>     Mode sTDDFT
|  7>     Ethresh 5.0
|  8>     maxcore 5000
|  9> end
| 10>
| 11> %pal
| 12>   nprocs 6
| 13>   end
| 14> * xyz 0 1
| 15>    C        1.43381        -0.14416        -3.11018
| 16>    O        1.88831         1.14451        -2.78051
| 17>    C        2.17381         1.44985        -1.49574
| 18>    C        2.20694         2.81396        -1.14255
| 19>    C        2.36818         3.03455         0.20352
| 20>    C        2.43504         4.30864         0.85552
| 21>    C        2.53730         4.47856         2.23055
| 22>    F        2.56821         3.39388         3.02879
| 23>    C        2.59274         5.72408         2.87493
| 24>    F        2.60333         5.69280         4.21694
| 25>    C        2.57043         6.93527         2.19428
| 26>    C        2.62455         8.23589         2.78884
| 27>    S        1.86122         9.57956         1.99004
| 28>    C        2.31357        10.64633         3.27956
| 29>    C        1.94371        12.01970         3.26830
| 30>    C        1.21058        12.55503         2.18368
| 31>    N        0.88542        11.72200         1.17944
| 32>    C        0.21059        12.18807         0.16858
| 33>    C       -0.18154        13.54641         0.11497
| 34>    N        0.11029        14.38961         1.06003
| 35>    C        0.81382        13.93534         2.12844
| 36>    C        1.13598        14.81706         3.15470
| 37>    C        1.85505        14.31624         4.23191
| 38>    N        2.25658        15.00465         5.31008
| 39>    S        3.05071        14.02010         6.28792
| 40>    N        2.94313        12.67107         5.42368
| 41>    C        2.26485        12.92555         4.30130
| 42>    C        3.05271         9.99123         4.24796
| 43>    C        3.24169         8.63225         3.97775
| 44>    O        3.98462         7.76400         4.69253
| 45>    C        4.57861         8.23857         5.87744
| 46>    C        2.44169         6.79364         0.79076
| 47>    N        2.37301         7.73855        -0.15471
| 48>    N        2.27554         7.07459        -1.27124
| 49>    C        2.17278         7.74348        -2.53120
| 50>    N        2.27467         5.77195        -1.17873
| 51>    C        2.38218         5.52874         0.13523
| 52>    S        2.45172         1.53322         1.06984
| 53>    C        2.33731         0.61236        -0.40206
| 54>    C        2.49651        -0.81752        -0.28650
| 55>    C        3.42191        -1.54903        -1.05698
| 56>    N        4.19230        -0.88536        -1.95237
| 57>    C        5.07156        -1.56402        -2.62888
| 58>    C        5.20526        -2.96704        -2.48443
| 59>    N        4.49486        -3.64295        -1.63360
| 60>    C        3.60302        -2.96529        -0.86345
| 61>    C        2.89666        -3.66623         0.10743
| 62>    C        2.01309        -2.95257         0.90499
| 63>    N        1.25127        -3.42347         1.90409
| 64>    S        0.40042        -2.21463         2.51743
| 65>    N        0.92090        -1.03321         1.57348
| 66>    C        1.81914        -1.53047         0.71620
| 67>    H        0.87923        -0.03572        -4.04258
| 68>    H        0.77532        -0.54844        -2.33594
| 69>    H        2.26728        -0.83241        -3.26729
| 70>    H        2.10698         3.60495        -1.86093
| 71>    H       -0.03386        11.49129        -0.62084
| 72>    H       -0.74292        13.93303        -0.72541
| 73>    H        0.83331        15.84879         3.10898
| 74>    H        3.42916        10.50952         5.10964
| 75>    H        5.10508         7.38606         6.30252
| 76>    H        3.82527         8.59225         6.58717
| 77>    H        5.28987         9.04470         5.67066
| 78>    H        2.21954         8.81322        -2.34287
| 79>    H        1.22916         7.48565        -3.01303
| 80>    H        2.99261         7.43705        -3.18128
| 81>    H        5.68807        -1.00625        -3.32092
| 82>    H        5.90997        -3.52634        -3.08562
| 83>    H        3.05307        -4.72313         0.23842
| 84> *
| 85>
| 86>                          ****END OF INPUT****

CARTESIAN COORDINATES (ANGSTROEM)
---------------------------------
  C      1.433810   -0.144160   -3.110180
  O      1.888310    1.144510   -2.780510
  C      2.173810    1.449850   -1.495740
  C      2.206940    2.813960   -1.142550
  C      2.368180    3.034550    0.203520
  C      2.435040    4.308640    0.855520
  C      2.537300    4.478560    2.230550
  F      2.568210    3.393880    3.028790
  C      2.592740    5.724080    2.874930
  F      2.603330    5.692800    4.216940
  C      2.570430    6.935270    2.194280
  C      2.624550    8.235890    2.788840
  S      1.861220    9.579560    1.990040
  C      2.313570   10.646330    3.279560
  C      1.943710   12.019700    3.268300
  C      1.210580   12.555030    2.183680
  N      0.885420   11.722000    1.179440
  C      0.210590   12.188070    0.168580
  C     -0.181540   13.546410    0.114970
  N      0.110290   14.389610    1.060030
  C      0.813820   13.935340    2.128440
  C      1.135980   14.817060    3.154700
  C      1.855050   14.316240    4.231910
  N      2.256580   15.004650    5.310080
  S      3.050710   14.020100    6.287920
  N      2.943130   12.671070    5.423680
  C      2.264850   12.925550    4.301300
  C      3.052710    9.991230    4.247960
  C      3.241690    8.632250    3.977750
  O      3.984620    7.764000    4.692530
  C      4.578610    8.238570    5.877440
  C      2.441690    6.793640    0.790760
  N      2.373010    7.738550   -0.154710
  N      2.275540    7.074590   -1.271240
  C      2.172780    7.743480   -2.531200
  N      2.274670    5.771950   -1.178730
  C      2.382180    5.528740    0.135230
  S      2.451720    1.533220    1.069840
  C      2.337310    0.612360   -0.402060
  C      2.496510   -0.817520   -0.286500
  C      3.421910   -1.549030   -1.056980
  N      4.192300   -0.885360   -1.952370
  C      5.071560   -1.564020   -2.628880
  C      5.205260   -2.967040   -2.484430
  N      4.494860   -3.642950   -1.633600
  C      3.603020   -2.965290   -0.863450
  C      2.896660   -3.666230    0.107430
  C      2.013090   -2.952570    0.904990
  N      1.251270   -3.423470    1.904090
  S      0.400420   -2.214630    2.517430
  N      0.920900   -1.033210    1.573480
  C      1.819140   -1.530470    0.716200
  H      0.879230   -0.035720   -4.042580
  H      0.775320   -0.548440   -2.335940
  H      2.267280   -0.832410   -3.267290
  H      2.106980    3.604950   -1.860930
  H     -0.033860   11.491290   -0.620840
  H     -0.742920   13.933030   -0.725410
  H      0.833310   15.848790    3.108980
  H      3.429160   10.509520    5.109640
  H      5.105080    7.386060    6.302520
  H      3.825270    8.592250    6.587170
  H      5.289870    9.044700    5.670660
  H      2.219540    8.813220   -2.342870
  H      1.229160    7.485650   -3.013030
  H      2.992610    7.437050   -3.181280
  H      5.688070   -1.006250   -3.320920
  H      5.909970   -3.526340   -3.085620
  H      3.053070   -4.723130    0.238420

 Total Charge           Charge          ....    0
 Multiplicity           Mult            ....    1
 Number of Electrons    NEL             ....  390
 Basis Dimension        Dim             ....  829

ORBITAL ENERGIES
----------------

  NO   OCC          E(Eh)            E(eV)
   0   2.0000     -89.030106     -2422.6323
   1   2.0000     -89.022426     -2422.4234
   2   2.0000     -88.937069     -2420.1007
   3   2.0000     -88.933138     -2419.9937
   4   2.0000     -24.781974      -674.3518
   5   2.0000     -24.769483      -674.0119
   6   2.0000     -19.233135      -523.3602
   7   2.0000     -19.230718      -523.2944
   8   2.0000     -14.535206      -395.5231
   9   2.0000     -14.439221      -392.9112
  10   2.0000     -14.437204      -392.8563
  11   2.0000     -14.436175      -392.8283
  12   2.0000     -14.435409      -392.8074
  13   2.0000     -14.430435      -392.6721
  14   2.0000     -14.429727      -392.6528
  15   2.0000     -14.427044      -392.5798
  16   2.0000     -14.425143      -392.5281
  17   2.0000     -14.419736      -392.3810
  18   2.0000     -14.418068      -392.3356
  19   2.0000     -10.358176      -281.8603
  20   2.0000     -10.355457      -281.7863
  21   2.0000     -10.325747      -280.9779
  22   2.0000     -10.325602      -280.9739
  23   2.0000     -10.322964      -280.9021
  24   2.0000     -10.322637      -280.8932
  25   2.0000     -10.320336      -280.8306
  26   2.0000     -10.319686      -280.8129
  27   2.0000     -10.319496      -280.8078
  28   2.0000     -10.318747      -280.7874
  29   2.0000     -10.318486      -280.7803
  30   2.0000     -10.315904      -280.7100
  31   2.0000     -10.315807      -280.7074
  32   2.0000     -10.315347      -280.6949
  33   2.0000     -10.314833      -280.6809
  34   2.0000     -10.313414      -280.6423
  35   2.0000     -10.312896      -280.6282
  36   2.0000     -10.312557      -280.6190
  37   2.0000     -10.305979      -280.4399
  38   2.0000     -10.303327      -280.3678
  39   2.0000     -10.301371      -280.3145
  40   2.0000     -10.298883      -280.2469
  41   2.0000     -10.297086      -280.1979
  42   2.0000     -10.293874      -280.1106
  43   2.0000     -10.292829      -280.0821
  44   2.0000     -10.291669      -280.0506
  45   2.0000     -10.291211      -280.0381
  46   2.0000     -10.279412      -279.7170
  47   2.0000     -10.279365      -279.7157
  48   2.0000     -10.278741      -279.6988
  49   2.0000     -10.274731      -279.5896
  50   2.0000     -10.258516      -279.1484
  51   2.0000     -10.248066      -278.8640
  52   2.0000      -8.121511      -220.9976
  53   2.0000      -8.114029      -220.7940
  54   2.0000      -8.030002      -218.5075
  55   2.0000      -8.027990      -218.4527
  56   2.0000      -6.092474      -165.7847
  57   2.0000      -6.084881      -165.5780
  58   2.0000      -6.084718      -165.5736
  59   2.0000      -6.084538      -165.5687
  60   2.0000      -6.077184      -165.3686
  61   2.0000      -6.077156      -165.3678
  62   2.0000      -5.999624      -163.2581
  63   2.0000      -5.997542      -163.2014
  64   2.0000      -5.994940      -163.1306
  65   2.0000      -5.993194      -163.0831
  66   2.0000      -5.992015      -163.0510
  67   2.0000      -5.989696      -162.9879
  68   2.0000      -1.301044       -35.4032
  69   2.0000      -1.279558       -34.8185
  70   2.0000      -1.214205       -33.0402
  71   2.0000      -1.140812       -31.0431
  72   2.0000      -1.135060       -30.8865
  73   2.0000      -1.124684       -30.6042
  74   2.0000      -1.117604       -30.4115
  75   2.0000      -1.084407       -29.5082
  76   2.0000      -1.074074       -29.2270
  77   2.0000      -1.010014       -27.4839
  78   2.0000      -0.998946       -27.1827
  79   2.0000      -0.989196       -26.9174
  80   2.0000      -0.984789       -26.7975
  81   2.0000      -0.978866       -26.6363
  82   2.0000      -0.972569       -26.4650
  83   2.0000      -0.964732       -26.2517
  84   2.0000      -0.958985       -26.0953
  85   2.0000      -0.944495       -25.7010
  86   2.0000      -0.940731       -25.5986
  87   2.0000      -0.916731       -24.9455
  88   2.0000      -0.882846       -24.0235
  89   2.0000      -0.866618       -23.5819
  90   2.0000      -0.861927       -23.4542
  91   2.0000      -0.857569       -23.3356
  92   2.0000      -0.850678       -23.1481
  93   2.0000      -0.825484       -22.4626
  94   2.0000      -0.821209       -22.3462
  95   2.0000      -0.815554       -22.1923
  96   2.0000      -0.800369       -21.7792
  97   2.0000      -0.789035       -21.4707
  98   2.0000      -0.785133       -21.3645
  99   2.0000      -0.775787       -21.1102
 100   2.0000      -0.762840       -20.7579
 101   2.0000      -0.755674       -20.5629
 102   2.0000      -0.742319       -20.1995
 103   2.0000      -0.733953       -19.9719
 104   2.0000      -0.731690       -19.9103
 105   2.0000      -0.724246       -19.7077
 106   2.0000      -0.705815       -19.2062
 107   2.0000      -0.703915       -19.1545
 108   2.0000      -0.693214       -18.8633
 109   2.0000      -0.684018       -18.6131
 110   2.0000      -0.668069       -18.1791
 111   2.0000      -0.654295       -17.8043
 112   2.0000      -0.653756       -17.7896
 113   2.0000      -0.644516       -17.5382
 114   2.0000      -0.638346       -17.3703
 115   2.0000      -0.634633       -17.2692
 116   2.0000      -0.626598       -17.0506
 117   2.0000      -0.624132       -16.9835
 118   2.0000      -0.615555       -16.7501
 119   2.0000      -0.610793       -16.6205
 120   2.0000      -0.608769       -16.5654
 121   2.0000      -0.605160       -16.4672
 122   2.0000      -0.602913       -16.4061
 123   2.0000      -0.600651       -16.3445
 124   2.0000      -0.600037       -16.3278
 125   2.0000      -0.589619       -16.0444
 126   2.0000      -0.577814       -15.7231
 127   2.0000      -0.565560       -15.3897
 128   2.0000      -0.559625       -15.2282
 129   2.0000      -0.555973       -15.1288
 130   2.0000      -0.552983       -15.0474
 131   2.0000      -0.550969       -14.9926
 132   2.0000      -0.548523       -14.9261
 133   2.0000      -0.547626       -14.9017
 134   2.0000      -0.544405       -14.8140
 135   2.0000      -0.540760       -14.7148
 136   2.0000      -0.538791       -14.6613
 137   2.0000      -0.537576       -14.6282
 138   2.0000      -0.532899       -14.5009
 139   2.0000      -0.528945       -14.3933
 140   2.0000      -0.523336       -14.2407
 141   2.0000      -0.522919       -14.2293
 142   2.0000      -0.514522       -14.0009
 143   2.0000      -0.511172       -13.9097
 144   2.0000      -0.506712       -13.7883
 145   2.0000      -0.504267       -13.7218
 146   2.0000      -0.502421       -13.6716
 147   2.0000      -0.498775       -13.5724
 148   2.0000      -0.497306       -13.5324
 149   2.0000      -0.491176       -13.3656
 150   2.0000      -0.480445       -13.0736
 151   2.0000      -0.478995       -13.0341
 152   2.0000      -0.476452       -12.9649
 153   2.0000      -0.472627       -12.8608
 154   2.0000      -0.468083       -12.7372
 155   2.0000      -0.467533       -12.7222
 156   2.0000      -0.465457       -12.6657
 157   2.0000      -0.462413       -12.5829
 158   2.0000      -0.460573       -12.5328
 159   2.0000      -0.456539       -12.4231
 160   2.0000      -0.447614       -12.1802
 161   2.0000      -0.437497       -11.9049
 162   2.0000      -0.430357       -11.7106
 163   2.0000      -0.429412       -11.6849
 164   2.0000      -0.423690       -11.5292
 165   2.0000      -0.418826       -11.3968
 166   2.0000      -0.416113       -11.3230
 167   2.0000      -0.408876       -11.1261
 168   2.0000      -0.402916       -10.9639
 169   2.0000      -0.402603       -10.9554
 170   2.0000      -0.400312       -10.8930
 171   2.0000      -0.395079       -10.7506
 172   2.0000      -0.392822       -10.6892
 173   2.0000      -0.390980       -10.6391
 174   2.0000      -0.386643       -10.5211
 175   2.0000      -0.383822       -10.4443
 176   2.0000      -0.381299       -10.3757
 177   2.0000      -0.379966       -10.3394
 178   2.0000      -0.372390       -10.1333
 179   2.0000      -0.371011       -10.0957
 180   2.0000      -0.367263        -9.9937
 181   2.0000      -0.357941        -9.7401
 182   2.0000      -0.357445        -9.7266
 183   2.0000      -0.332110        -9.0372
 184   2.0000      -0.331156        -9.0112
 185   2.0000      -0.324335        -8.8256
 186   2.0000      -0.317420        -8.6374
 187   2.0000      -0.315449        -8.5838
 188   2.0000      -0.313795        -8.5388
 189   2.0000      -0.306118        -8.3299
 190   2.0000      -0.284682        -7.7466
 191   2.0000      -0.283171        -7.7055
 192   2.0000      -0.275640        -7.5005
 193   2.0000      -0.252130        -6.8608
 194   2.0000      -0.223577        -6.0838
 195   0.0000      -0.094039        -2.5589
 196   0.0000      -0.079727        -2.1695
 197   0.0000      -0.034573        -0.9408
 198   0.0000      -0.006267        -0.1705
 199   0.0000       0.001553         0.0423

MULLIKEN ATOMIC CHARGES
-----------------------
   0 C :    0.191362
   1 O :   -0.295273
   2 C :    0.289806
   3 C :   -0.089980
   4 C :   -0.099334
   5 C :    0.118440
   6 C :    0.116392
   7 F :   -0.180266
   8 C :    0.131137
   9 F :   -0.167991
  10 C :    0.059570
  11 C :   -0.189527
  12 S :    0.190670
  13 C :   -0.143656
  14 C :    0.218454
  15 C :   -0.066089
  16 N :   -0.064041
  17 C :    0.040293
  18 C :    0.019587
  19 N :   -0.020967
  20 C :    0.029516
  21 C :   -0.100440
  22 C :    0.102466
  23 N :   -0.274888
  24 S :    0.526057
  25 N :   -0.294200
  26 C :   -0.041005
  27 C :   -0.130519
  28 C :    0.260437
  29 O :   -0.295872
  30 C :    0.183888
  31 C :   -0.066347
  32 N :   -0.052415
  33 N :   -0.069617
  34 C :    0.148202
  35 N :   -0.071494
  36 C :   -0.037980
  37 S :    0.177552
  38 C :   -0.280551
  39 C :    0.091861
  40 C :   -0.104853
  41 N :   -0.011685
  42 C :    0.024487
  43 C :    0.017142
  44 N :   -0.023424
  45 C :    0.044889
  46 C :   -0.116332
  47 C :    0.117226
  48 N :   -0.278073
  49 S :    0.523856
  50 N :   -0.262887
  51 C :   -0.050136
  52 H :    0.024908
  53 H :    0.026673
  54 H :    0.022666
  55 H :   -0.019027
  56 H :    0.010186
  57 H :    0.015257
  58 H :   -0.032781
  59 H :   -0.017845
  60 H :    0.037204
  61 H :    0.021739
  62 H :    0.020080
  63 H :    0.050303
  64 H :    0.050583
  65 H :    0.053956
  66 H :    0.013953
  67 H :    0.012976
  68 H :   -0.034276
Sum of atomic charges:    0.0000000

LOEWDIN ATOMIC CHARGES
----------------------
   0 C :    0.076295
   1 O :   -0.092977
   2 C :    0.034363
   3 C :   -0.065234
   4 C :   -0.164453
   5 C :   -0.068178
   6 C :    0.061281
   7 F :   -0.054157
   8 C :    0.060847
   9 F :   -0.045717
  10 C :   -0.063834
  11 C :   -0.208009
  12 S :    0.507410
  13 C :   -0.171143
  14 C :   -0.023504
  15 C :   -0.024970
  16 N :   -0.041426
  17 C :    0.011734
  18 C :    0.006692
  19 N :   -0.034190
  20 C :   -0.011503
  21 C :   -0.027197
  22 C :   -0.048872
  23 N :   -0.291603
  24 S :    0.664802
  25 N :   -0.288563
  26 C :   -0.044328
  27 C :   -0.082162
  28 C :    0.017216
  29 O :   -0.092840
  30 C :    0.078695
  31 C :   -0.055808
  32 N :   -0.093083
  33 N :    0.150107
  34 C :    0.032956
  35 N :   -0.090253
  36 C :   -0.041833
  37 S :    0.462126
  38 C :   -0.222484
  39 C :   -0.035852
  40 C :   -0.024750
  41 N :   -0.028408
  42 C :    0.000158
  43 C :    0.004030
  44 N :   -0.038655
  45 C :   -0.013543
  46 C :   -0.023053
  47 C :   -0.052085
  48 N :   -0.298782
  49 S :    0.669815
  50 N :   -0.291051
  51 C :   -0.059195
  52 H :    0.023024
  53 H :    0.017364
  54 H :    0.010695
  55 H :    0.029070
  56 H :    0.026316
  57 H :    0.026934
  58 H :    0.041882
  59 H :    0.025165
  60 H :    0.028839
  61 H :    0.015805
  62 H :    0.014603
  63 H :    0.041197
  64 H :    0.039469
  65 H :    0.041080
  66 H :    0.026496
  67 H :    0.025984
  68 H :    0.041243

  Mayer bond orders larger than 0.100000
B(  0-C ,  1-O ) :   0.9580 B(  0-C , 52-H ) :   0.9771 B(  0-C , 53-H ) :   0.9611
B(  0-C , 54-H ) :   0.9642 B(  1-O ,  2-C ) :   1.2075 B(  2-C ,  3-C ) :   1.1929
B(  2-C , 38-C ) :   1.4580 B(  3-C ,  4-C ) :   1.5023 B(  3-C , 55-H ) :   0.9964
B(  4-C ,  5-C ) :   1.1238 B(  4-C , 37-S ) :   1.1226 B(  4-C , 38-C ) :   0.1047
B(  5-C ,  6-C ) :   1.3692 B(  5-C , 10-C ) :   0.1212 B(  5-C , 36-C ) :   1.1754
B(  6-C ,  7-F ) :   1.1309 B(  6-C ,  8-C ) :   1.1731 B(  8-C ,  9-F ) :   1.1745
B(  8-C , 10-C ) :   1.3878 B( 10-C , 11-C ) :   1.0675 B( 10-C , 31-C ) :   1.1776
B( 11-C , 12-S ) :   1.0889 B( 11-C , 13-C ) :   0.1100 B( 11-C , 28-C ) :   1.4452
B( 12-S , 13-C ) :   1.1256 B( 13-C , 14-C ) :   1.1752 B( 13-C , 27-C ) :   1.4186
B( 14-C , 15-C ) :   1.2771 B( 14-C , 21-C ) :   0.1399 B( 14-C , 26-C ) :   1.2119
B( 15-C , 16-N ) :   1.3923 B( 15-C , 20-C ) :   1.1419 B( 16-N , 17-C ) :   1.6831
B( 17-C , 18-C ) :   1.1693 B( 17-C , 56-H ) :   0.9731 B( 18-C , 19-N ) :   1.7361
B( 18-C , 57-H ) :   0.9744 B( 19-N , 20-C ) :   1.3557 B( 20-C , 21-C ) :   1.3144
B( 21-C , 22-C ) :   1.1835 B( 21-C , 58-H ) :   1.0602 B( 22-C , 23-N ) :   1.4534
B( 22-C , 26-C ) :   1.1206 B( 23-N , 24-S ) :   1.3054 B( 23-N , 25-N ) :   0.1626
B( 24-S , 25-N ) :   1.2758 B( 25-N , 26-C ) :   1.4954 B( 27-C , 28-C ) :   1.1986
B( 27-C , 59-H ) :   0.9882 B( 28-C , 29-O ) :   1.1879 B( 29-O , 30-C ) :   0.9633
B( 30-C , 60-H ) :   0.9789 B( 30-C , 61-H ) :   0.9695 B( 30-C , 62-H ) :   0.9689
B( 31-C , 32-N ) :   1.4846 B( 31-C , 36-C ) :   1.2215 B( 32-N , 33-N ) :   1.2382
B( 32-N , 35-N ) :   0.1629 B( 33-N , 34-C ) :   0.9552 B( 33-N , 35-N ) :   1.2035
B( 34-C , 63-H ) :   0.9670 B( 34-C , 64-H ) :   0.9704 B( 34-C , 65-H ) :   0.9701
B( 35-N , 36-C ) :   1.4802 B( 37-S , 38-C ) :   1.0771 B( 38-C , 39-C ) :   1.0282
B( 39-C , 40-C ) :   1.3486 B( 39-C , 46-C ) :   0.1492 B( 39-C , 51-C ) :   1.2493
B( 40-C , 41-N ) :   1.4084 B( 40-C , 45-C ) :   1.1314 B( 41-N , 42-C ) :   1.7109
B( 42-C , 43-C ) :   1.1515 B( 42-C , 66-H ) :   0.9747 B( 43-C , 44-N ) :   1.7462
B( 43-C , 67-H ) :   0.9740 B( 44-N , 45-C ) :   1.3495 B( 45-C , 46-C ) :   1.3161
B( 46-C , 47-C ) :   1.1690 B( 46-C , 68-H ) :   1.0652 B( 47-C , 48-N ) :   1.4540
B( 47-C , 51-C ) :   1.1296 B( 48-N , 49-S ) :   1.3016 B( 48-N , 50-N ) :   0.1654
B( 49-S , 50-N ) :   1.2955 B( 50-N , 51-C ) :   1.5089

-----------------------------------------------------------------------------
         ABSORPTION SPECTRUM VIA TRANSITION ELECTRIC DIPOLE MOMENTS
-----------------------------------------------------------------------------
State   Energy  Wavelength   fosc         T2         TX        TY        TZ
        (cm-1)    (nm)                  (au**2)     (au)      (au)      (au)
-----------------------------------------------------------------------------
   0   13313.4    751.1   0.659503609  16.30812  -0.55570   3.94921   0.63484
   1   16116.3    620.5   0.139340465   2.84635   0.07361  -1.68551   0.00024
   2   21997.6    454.6   0.015518920   0.23225   0.06482  -0.46877  -0.09114
   3   22591.4    442.6   0.119584418   1.74263  -0.00426  -1.16997  -0.61138
   4   23104.6    432.8   0.024456079   0.34847  -0.31365   0.00094  -0.50009
   5   23750.2    421.0   0.042815116   0.59348  -0.14345  -0.73011  -0.19959
   6   24536.6    407.6   0.069180933   0.92821  -0.18509  -0.62389  -0.71043
   7   25233.6    396.3   0.525731599   6.85899   0.00369   2.46642   0.88076
   8   25961.2    385.2   0.008707775   0.11042  -0.21144   0.25296  -0.04157
   9   28396.7    352.2   0.017572670   0.20373  -0.10859  -0.26784  -0.34669
  10   29827.9    335.3   0.001239012   0.01368  -0.00365   0.09027  -0.07425
  11   29947.5    333.9   0.006826354   0.07504  -0.05317  -0.16327  -0.21344
  12   30190.1    331.2   0.005822618   0.06349  -0.05988  -0.11660  -0.21520
  13   31666.1    315.8   0.087862162   0.91345   0.22449  -0.29238   0.88179
  14   31832.2    314.1   0.130386123   1.34847  -0.50164  -0.67762  -0.79853
  15   31996.3    312.5   0.006916612   0.07117   0.07571   0.21205  -0.14306
  16   32323.8    309.4   0.027273505   0.27778  -0.14879   0.08803  -0.49789
  17   32931.1    303.7   0.268741192   2.68660  -1.15004   0.08241   1.16500
  18   32991.8    303.1   0.000387742   0.00387  -0.02125  -0.00171   0.05843
  19   33272.6    300.5   0.014079786   0.13931   0.01146  -0.37298  -0.00816
  20   33612.8    297.5   0.019807556   0.19400   0.13431  -0.36137   0.21300
  21   34333.8    291.3   0.018559332   0.17796   0.23229  -0.29131   0.19782
  22   35498.7    281.7   0.006823923   0.06328  -0.16350   0.18639   0.04255
  23   35939.5    278.2   0.038118470   0.34917   0.26147  -0.09843   0.52069
  24   36193.4    276.3   0.104311833   0.94881  -0.55838   0.74702  -0.28105
  25   36463.2    274.2   0.022811546   0.20596   0.09881  -0.36238   0.25471
  26   36891.2    271.1   0.066516532   0.59359   0.28469  -0.15278   0.69942
  27   37271.3    268.3   0.060170622   0.53148   0.30522  -0.62353   0.22255
  28   38062.8    262.7   0.437488637   3.78391  -0.19414  -1.17339  -1.53928
  29   38482.7    259.9   0.269501533   2.30553  -0.63800  -0.50444  -1.28220
  30   38834.5    257.5   0.218497807   1.85228   1.06647  -0.50509  -0.67809
  31   39290.9    254.5   0.238103862   1.99503   0.79004   0.91054  -0.73607
  32   39558.7    252.8   0.026626174   0.22159   0.05978  -0.11614   0.45224
  33   40076.3    249.5   0.010248980   0.08419  -0.09168  -0.07533   0.26479
  34   40254.0    248.4   0.064422997   0.52688  -0.24026  -0.06103   0.68222

FINAL SINGLE POINT ENERGY     -3809.614204694403

DIPOLE MOMENT
-------------
                                X             Y             Z
Electronic contribution:     -4.55924       0.29655      26.88404
Nuclear contribution   :      4.66509       0.80200     -28.07484
                        -----------------------------------------
Total Dipole Moment    :      0.10585       1.09855      -1.19080
                        -----------------------------------------
Magnitude (a.u.)       :      1.62358
Magnitude (Debye)      :      4.12681

Rotational constants in cm-1:     0.004188     0.000559     0.000522
Rotational constants in MHz :   125.559781    16.772465    15.652276

                             ****ORCA TERMINATED NORMALLY****
TOTAL RUN TIME: 0 days 0 hours 5 minutes 26 seconds 525 msec
