                         Program Version 4.2.0 -  RELEASE  -
|  1> # ORCA input file
|  2> # SCF done       -188.850613390867          0.000536563427
|  3> ! CAM-B3LYP def2-SVP def2/J RIJCOSX Grid4 TightSCF
|  4> %maxcore 5000
|  5> %tddft
|  6>     Mode sTDDFT
|  7>     Ethresh 5.0
|  8>     maxcore 5000
|  9> end
| 10>
| 11> %pal
| 12>   nprocs 6
| 13>   end
| 14> * xyz 0 1
| 15>    C        5.63660        -2.37887         0.17968
| 16>    O        5.20308        -3.68048         0.55983
| 17>    C        5.80679        -4.72716        -0.08672
| 18>    C        5.58680        -4.87711        -1.49267
| 19>    O        4.73584        -4.00596        -2.11917
| 20>    C        3.37218        -4.05536        -1.71294
| 21>    C        6.23598        -5.84362        -2.26095
| 22>    C        6.10006        -6.00771        -3.67775
| 23>    C        5.44189        -5.19462        -4.58261
| 24>    C        5.51856        -5.70094        -5.87578
| 25>    S        4.91788        -5.19330        -7.40818
| 26>    C        5.64458        -6.59895        -8.18507
| 27>    C        5.59604        -6.80919        -9.58034
| 28>    C        4.73886        -6.29463       -10.50730
| 29>    C        5.15176        -6.23613       -11.93381
| 30>    O        6.09390        -6.79035       -12.44552
| 31>    C        4.19019        -5.30265       -12.57082
| 32>    C        4.18098        -4.81701       -13.86005
| 33>    C        3.15473        -3.94301       -14.23192
| 34>    C        3.17057        -3.43535       -15.55691
| 35>    N        3.30542        -3.06142       -16.63079
| 36>    C        2.16816        -3.56352       -13.30557
| 37>    C        1.06754        -2.66145       -13.78755
| 38>    O        0.73305        -2.62935       -14.93658
| 39>    O        0.47375        -1.89287       -12.86709
| 40>    C        2.18982        -4.06636       -12.00626
| 41>    C        3.20124        -4.93900       -11.63778
| 42>    C        3.44740        -5.65664       -10.38700
| 43>    C        2.50955        -5.90525        -9.41905
| 44>    C        2.68165        -6.87733        -8.41034
| 45>    N        2.76060        -7.70359        -7.61820
| 46>    C        1.24686        -5.28239        -9.37579
| 47>    N        0.22844        -4.75956        -9.29087
| 48>    C        6.34067        -7.38353        -7.27990
| 49>    C        6.24742        -6.89709        -5.98104
| 50>    S        6.84252        -7.40106        -4.43982
| 51>    C        7.06075        -6.73363        -1.52484
| 52>    N        7.78149        -7.76150        -1.92292
| 53>    O        8.33399        -8.27759        -0.82996
| 54>    N        7.99962        -7.62187         0.27600
| 55>    C        7.20134        -6.64386        -0.09870
| 56>    C        6.57775        -5.61839         0.65906
| 57>    C        6.80259        -5.54061         2.07183
| 58>    C        6.22124        -4.68854         2.99282
| 59>    C        6.72206        -4.89972         4.27314
| 60>    S        6.44060        -4.17795         5.81084
| 61>    C        7.61973        -5.25466         6.55615
| 62>    C        7.87969        -5.24065         7.94521
| 63>    C        7.65117        -4.24265         8.84366
| 64>    C        7.53111        -4.55560        10.29089
| 65>    O        7.83678        -5.58189        10.84796
| 66>    C        6.89448        -3.35364        10.88613
| 67>    C        6.43682        -3.16068        12.16954
| 68>    C        5.82724        -1.93882        12.48482
| 69>    C        5.37599        -1.78037        13.81666
| 70>    N        5.04377        -1.68791        14.91114
| 71>    C        5.66722        -0.94354        11.50450
| 72>    C        4.94467         0.36200        11.71982
| 73>    O        4.44196         0.93537        10.79460
| 74>    O        4.89334         0.86846        12.95182
| 75>    C        6.14327        -1.15740        10.21060
| 76>    C        6.76990        -2.35142         9.90472
| 77>    C        7.39183        -2.82835         8.67078
| 78>    C        7.90921        -2.02623         7.69078
| 79>    C        8.76428        -2.50781         6.67545
| 80>    N        9.50530        -2.85677         5.87208
| 81>    C        7.74689        -0.62506         7.65123
| 82>    N        7.64821         0.51453         7.56873
| 83>    C        8.15969        -6.14185         5.64033
| 84>    C        7.67873        -5.92488         4.35343
| 85>    S        7.96170        -6.63395         2.80422
| 86>    H        5.01144        -1.68719         0.74044
| 87>    H        5.51630        -2.20060        -0.88986
| 88>    H        6.68473        -2.23487         0.45784
| 89>    H        3.25462        -3.90022        -0.63974
| 90>    H        2.93132        -5.01659        -1.99297
| 91>    H        2.87660        -3.25390        -2.25687
| 92>    H        4.94419        -4.28433        -4.31130
| 93>    H        6.41022        -7.40127        -9.98878
| 94>    H        4.94204        -5.10973       -14.56723
| 95>    H        0.83022        -1.99575       -11.97456
| 96>    H        1.41431        -3.80520       -11.30105
| 97>    H        6.85696        -8.28236        -7.56268
| 98>    H        5.47256        -3.96270         2.74268
| 99>    H        8.23432        -6.17621         8.36734
|100>    H        6.54103        -3.93244        12.91725
|101>    H        5.28008         0.31830        13.64899
|102>    H        5.98791        -0.38116         9.47718
|103>    H        8.89444        -6.87993         5.90441
|104> *
|105>
|106>                          ****END OF INPUT****

CARTESIAN COORDINATES (ANGSTROEM)
---------------------------------
  C      5.636600   -2.378870    0.179680
  O      5.203080   -3.680480    0.559830
  C      5.806790   -4.727160   -0.086720
  C      5.586800   -4.877110   -1.492670
  O      4.735840   -4.005960   -2.119170
  C      3.372180   -4.055360   -1.712940
  C      6.235980   -5.843620   -2.260950
  C      6.100060   -6.007710   -3.677750
  C      5.441890   -5.194620   -4.582610
  C      5.518560   -5.700940   -5.875780
  S      4.917880   -5.193300   -7.408180
  C      5.644580   -6.598950   -8.185070
  C      5.596040   -6.809190   -9.580340
  C      4.738860   -6.294630  -10.507300
  C      5.151760   -6.236130  -11.933810
  O      6.093900   -6.790350  -12.445520
  C      4.190190   -5.302650  -12.570820
  C      4.180980   -4.817010  -13.860050
  C      3.154730   -3.943010  -14.231920
  C      3.170570   -3.435350  -15.556910
  N      3.305420   -3.061420  -16.630790
  C      2.168160   -3.563520  -13.305570
  C      1.067540   -2.661450  -13.787550
  O      0.733050   -2.629350  -14.936580
  O      0.473750   -1.892870  -12.867090
  C      2.189820   -4.066360  -12.006260
  C      3.201240   -4.939000  -11.637780
  C      3.447400   -5.656640  -10.387000
  C      2.509550   -5.905250   -9.419050
  C      2.681650   -6.877330   -8.410340
  N      2.760600   -7.703590   -7.618200
  C      1.246860   -5.282390   -9.375790
  N      0.228440   -4.759560   -9.290870
  C      6.340670   -7.383530   -7.279900
  C      6.247420   -6.897090   -5.981040
  S      6.842520   -7.401060   -4.439820
  C      7.060750   -6.733630   -1.524840
  N      7.781490   -7.761500   -1.922920
  O      8.333990   -8.277590   -0.829960
  N      7.999620   -7.621870    0.276000
  C      7.201340   -6.643860   -0.098700
  C      6.577750   -5.618390    0.659060
  C      6.802590   -5.540610    2.071830
  C      6.221240   -4.688540    2.992820
  C      6.722060   -4.899720    4.273140
  S      6.440600   -4.177950    5.810840
  C      7.619730   -5.254660    6.556150
  C      7.879690   -5.240650    7.945210
  C      7.651170   -4.242650    8.843660
  C      7.531110   -4.555600   10.290890
  O      7.836780   -5.581890   10.847960
  C      6.894480   -3.353640   10.886130
  C      6.436820   -3.160680   12.169540
  C      5.827240   -1.938820   12.484820
  C      5.375990   -1.780370   13.816660
  N      5.043770   -1.687910   14.911140
  C      5.667220   -0.943540   11.504500
  C      4.944670    0.362000   11.719820
  O      4.441960    0.935370   10.794600
  O      4.893340    0.868460   12.951820
  C      6.143270   -1.157400   10.210600
  C      6.769900   -2.351420    9.904720
  C      7.391830   -2.828350    8.670780
  C      7.909210   -2.026230    7.690780
  C      8.764280   -2.507810    6.675450
  N      9.505300   -2.856770    5.872080
  C      7.746890   -0.625060    7.651230
  N      7.648210    0.514530    7.568730
  C      8.159690   -6.141850    5.640330
  C      7.678730   -5.924880    4.353430
  S      7.961700   -6.633950    2.804220
  H      5.011440   -1.687190    0.740440
  H      5.516300   -2.200600   -0.889860
  H      6.684730   -2.234870    0.457840
  H      3.254620   -3.900220   -0.639740
  H      2.931320   -5.016590   -1.992970
  H      2.876600   -3.253900   -2.256870
  H      4.944190   -4.284330   -4.311300
  H      6.410220   -7.401270   -9.988780
  H      4.942040   -5.109730  -14.567230
  H      0.830220   -1.995750  -11.974560
  H      1.414310   -3.805200  -11.301050
  H      6.856960   -8.282360   -7.562680
  H      5.472560   -3.962700    2.742680
  H      8.234320   -6.176210    8.367340
  H      6.541030   -3.932440   12.917250
  H      5.280080    0.318300   13.648990
  H      5.987910   -0.381160    9.477180
  H      8.894440   -6.879930    5.904410

 Total Charge           Charge          ....    0
 Multiplicity           Mult            ....    1
 Number of Electrons    NEL             ....  510
 Basis Dimension        Dim             .... 1100

ORBITAL ENERGIES
----------------

  NO   OCC          E(Eh)            E(eV)
   0   2.0000     -88.983579     -2421.3663
   1   2.0000     -88.982126     -2421.3267
   2   2.0000     -88.979803     -2421.2635
   3   2.0000     -88.978943     -2421.2401
   4   2.0000     -19.376885      -527.2718
   5   2.0000     -19.281000      -524.6627
   6   2.0000     -19.280333      -524.6445
   7   2.0000     -19.279107      -524.6112
   8   2.0000     -19.275025      -524.5001
   9   2.0000     -19.236187      -523.4432
  10   2.0000     -19.235580      -523.4267
  11   2.0000     -19.217363      -522.9310
  12   2.0000     -19.216111      -522.8970
  13   2.0000     -14.502593      -394.6356
  14   2.0000     -14.502421      -394.6309
  15   2.0000     -14.447958      -393.1489
  16   2.0000     -14.437118      -392.8540
  17   2.0000     -14.430385      -392.6707
  18   2.0000     -14.429160      -392.6374
  19   2.0000     -14.428807      -392.6278
  20   2.0000     -14.411875      -392.1671
  21   2.0000     -10.424545      -283.6663
  22   2.0000     -10.423250      -283.6310
  23   2.0000     -10.388264      -282.6790
  24   2.0000     -10.387032      -282.6455
  25   2.0000     -10.384615      -282.5797
  26   2.0000     -10.383860      -282.5592
  27   2.0000     -10.364676      -282.0372
  28   2.0000     -10.364274      -282.0262
  29   2.0000     -10.362159      -281.9687
  30   2.0000     -10.360762      -281.9307
  31   2.0000     -10.359517      -281.8968
  32   2.0000     -10.351485      -281.6782
  33   2.0000     -10.351172      -281.6697
  34   2.0000     -10.350902      -281.6624
  35   2.0000     -10.347474      -281.5691
  36   2.0000     -10.347180      -281.5611
  37   2.0000     -10.344934      -281.5000
  38   2.0000     -10.342622      -281.4371
  39   2.0000     -10.341967      -281.4192
  40   2.0000     -10.340870      -281.3894
  41   2.0000     -10.340049      -281.3670
  42   2.0000     -10.339416      -281.3498
  43   2.0000     -10.339227      -281.3447
  44   2.0000     -10.339065      -281.3402
  45   2.0000     -10.339050      -281.3398
  46   2.0000     -10.338244      -281.3179
  47   2.0000     -10.338207      -281.3169
  48   2.0000     -10.337780      -281.3053
  49   2.0000     -10.335490      -281.2430
  50   2.0000     -10.335487      -281.2429
  51   2.0000     -10.334450      -281.2147
  52   2.0000     -10.333614      -281.1919
  53   2.0000     -10.331336      -281.1299
  54   2.0000     -10.331020      -281.1213
  55   2.0000     -10.330174      -281.0983
  56   2.0000     -10.329568      -281.0818
  57   2.0000     -10.328965      -281.0654
  58   2.0000     -10.327211      -281.0177
  59   2.0000     -10.325412      -280.9687
  60   2.0000     -10.323938      -280.9286
  61   2.0000     -10.322715      -280.8954
  62   2.0000     -10.321817      -280.8709
  63   2.0000     -10.321169      -280.8533
  64   2.0000     -10.320888      -280.8456
  65   2.0000     -10.319782      -280.8155
  66   2.0000     -10.314275      -280.6657
  67   2.0000     -10.314005      -280.6583
  68   2.0000     -10.311995      -280.6037
  69   2.0000     -10.305586      -280.4292
  70   2.0000     -10.304880      -280.4100
  71   2.0000      -8.078478      -219.8266
  72   2.0000      -8.077082      -219.7886
  73   2.0000      -8.074318      -219.7134
  74   2.0000      -8.073487      -219.6907
  75   2.0000      -6.048046      -164.5757
  76   2.0000      -6.046656      -164.5379
  77   2.0000      -6.044041      -164.4667
  78   2.0000      -6.043916      -164.4633
  79   2.0000      -6.043097      -164.4410
  80   2.0000      -6.042627      -164.4282
  81   2.0000      -6.039944      -164.3552
  82   2.0000      -6.039621      -164.3465
  83   2.0000      -6.038786      -164.3237
  84   2.0000      -6.038532      -164.3168
  85   2.0000      -6.035868      -164.2443
  86   2.0000      -6.035021      -164.2213
  87   2.0000      -1.332632       -36.2628
  88   2.0000      -1.202929       -32.7334
  89   2.0000      -1.201350       -32.6904
  90   2.0000      -1.196850       -32.5679
  91   2.0000      -1.169010       -31.8104
  92   2.0000      -1.152087       -31.3499
  93   2.0000      -1.151459       -31.3328
  94   2.0000      -1.118032       -30.4232
  95   2.0000      -1.115369       -30.3507
  96   2.0000      -1.043006       -28.3816
  97   2.0000      -1.042577       -28.3700
  98   2.0000      -1.040931       -28.3252
  99   2.0000      -1.037958       -28.2443
 100   2.0000      -1.033627       -28.1264
 101   2.0000      -1.029217       -28.0064
 102   2.0000      -1.023179       -27.8421
 103   2.0000      -1.022735       -27.8300
 104   2.0000      -1.017396       -27.6848
 105   2.0000      -1.011060       -27.5123
 106   2.0000      -1.007471       -27.4147
 107   2.0000      -0.999525       -27.1984
 108   2.0000      -0.984648       -26.7936
 109   2.0000      -0.980003       -26.6672
 110   2.0000      -0.972464       -26.4621
 111   2.0000      -0.967936       -26.3389
 112   2.0000      -0.938888       -25.5484
 113   2.0000      -0.925969       -25.1969
 114   2.0000      -0.924617       -25.1601
 115   2.0000      -0.921943       -25.0873
 116   2.0000      -0.910474       -24.7753
 117   2.0000      -0.902195       -24.5500
 118   2.0000      -0.899714       -24.4825
 119   2.0000      -0.897963       -24.4348
 120   2.0000      -0.884754       -24.0754
 121   2.0000      -0.883382       -24.0380
 122   2.0000      -0.856893       -23.3172
 123   2.0000      -0.845665       -23.0117
 124   2.0000      -0.834460       -22.7068
 125   2.0000      -0.834087       -22.6967
 126   2.0000      -0.825059       -22.4510
 127   2.0000      -0.820683       -22.3319
 128   2.0000      -0.813987       -22.1497
 129   2.0000      -0.806748       -21.9527
 130   2.0000      -0.803760       -21.8714
 131   2.0000      -0.789838       -21.4926
 132   2.0000      -0.766598       -20.8602
 133   2.0000      -0.759563       -20.6688
 134   2.0000      -0.754658       -20.5353
 135   2.0000      -0.752162       -20.4674
 136   2.0000      -0.743617       -20.2348
 137   2.0000      -0.736124       -20.0309
 138   2.0000      -0.725569       -19.7437
 139   2.0000      -0.721296       -19.6275
 140   2.0000      -0.712090       -19.3770
 141   2.0000      -0.710193       -19.3253
 142   2.0000      -0.706942       -19.2369
 143   2.0000      -0.694383       -18.8951
 144   2.0000      -0.687998       -18.7214
 145   2.0000      -0.682810       -18.5802
 146   2.0000      -0.681901       -18.5555
 147   2.0000      -0.673289       -18.3211
 148   2.0000      -0.669042       -18.2056
 149   2.0000      -0.664603       -18.0848
 150   2.0000      -0.660667       -17.9777
 151   2.0000      -0.655184       -17.8285
 152   2.0000      -0.652461       -17.7544
 153   2.0000      -0.647359       -17.6155
 154   2.0000      -0.638002       -17.3609
 155   2.0000      -0.631104       -17.1732
 156   2.0000      -0.627238       -17.0680
 157   2.0000      -0.615208       -16.7407
 158   2.0000      -0.614521       -16.7220
 159   2.0000      -0.612588       -16.6694
 160   2.0000      -0.608832       -16.5672
 161   2.0000      -0.601880       -16.3780
 162   2.0000      -0.600771       -16.3478
 163   2.0000      -0.597532       -16.2597
 164   2.0000      -0.591776       -16.1030
 165   2.0000      -0.590108       -16.0577
 166   2.0000      -0.581443       -15.8219
 167   2.0000      -0.580321       -15.7913
 168   2.0000      -0.573663       -15.6102
 169   2.0000      -0.570293       -15.5185
 170   2.0000      -0.567515       -15.4429
 171   2.0000      -0.564492       -15.3606
 172   2.0000      -0.563284       -15.3277
 173   2.0000      -0.563079       -15.3222
 174   2.0000      -0.556202       -15.1350
 175   2.0000      -0.553462       -15.0605
 176   2.0000      -0.548961       -14.9380
 177   2.0000      -0.546103       -14.8602
 178   2.0000      -0.542041       -14.7497
 179   2.0000      -0.540480       -14.7072
 180   2.0000      -0.540246       -14.7008
 181   2.0000      -0.539127       -14.6704
 182   2.0000      -0.536930       -14.6106
 183   2.0000      -0.533993       -14.5307
 184   2.0000      -0.532676       -14.4949
 185   2.0000      -0.530542       -14.4368
 186   2.0000      -0.529025       -14.3955
 187   2.0000      -0.524622       -14.2757
 188   2.0000      -0.519532       -14.1372
 189   2.0000      -0.516332       -14.0501
 190   2.0000      -0.513851       -13.9826
 191   2.0000      -0.512932       -13.9576
 192   2.0000      -0.509623       -13.8675
 193   2.0000      -0.507344       -13.8055
 194   2.0000      -0.502237       -13.6666
 195   2.0000      -0.500810       -13.6277
 196   2.0000      -0.498857       -13.5746
 197   2.0000      -0.496576       -13.5125
 198   2.0000      -0.490109       -13.3365
 199   2.0000      -0.487742       -13.2721
 200   2.0000      -0.483948       -13.1689
 201   2.0000      -0.480308       -13.0698
 202   2.0000      -0.478758       -13.0277
 203   2.0000      -0.476930       -12.9779
 204   2.0000      -0.472316       -12.8524
 205   2.0000      -0.471000       -12.8166
 206   2.0000      -0.468679       -12.7534
 207   2.0000      -0.465650       -12.6710
 208   2.0000      -0.464450       -12.6383
 209   2.0000      -0.463795       -12.6205
 210   2.0000      -0.462813       -12.5938
 211   2.0000      -0.461000       -12.5444
 212   2.0000      -0.459562       -12.5053
 213   2.0000      -0.457661       -12.4536
 214   2.0000      -0.455398       -12.3920
 215   2.0000      -0.452419       -12.3110
 216   2.0000      -0.451085       -12.2746
 217   2.0000      -0.447835       -12.1862
 218   2.0000      -0.445457       -12.1215
 219   2.0000      -0.444185       -12.0869
 220   2.0000      -0.443261       -12.0618
 221   2.0000      -0.441797       -12.0219
 222   2.0000      -0.440524       -11.9873
 223   2.0000      -0.439507       -11.9596
 224   2.0000      -0.438734       -11.9386
 225   2.0000      -0.436315       -11.8727
 226   2.0000      -0.425829       -11.5874
 227   2.0000      -0.424958       -11.5637
 228   2.0000      -0.423538       -11.5250
 229   2.0000      -0.423246       -11.5171
 230   2.0000      -0.416156       -11.3242
 231   2.0000      -0.413259       -11.2454
 232   2.0000      -0.409597       -11.1457
 233   2.0000      -0.406776       -11.0689
 234   2.0000      -0.405770       -11.0416
 235   2.0000      -0.395426       -10.7601
 236   2.0000      -0.388471       -10.5708
 237   2.0000      -0.386414       -10.5149
 238   2.0000      -0.385187       -10.4815
 239   2.0000      -0.380170       -10.3450
 240   2.0000      -0.378665       -10.3040
 241   2.0000      -0.376041       -10.2326
 242   2.0000      -0.375569       -10.2197
 243   2.0000      -0.364054        -9.9064
 244   2.0000      -0.363776        -9.8988
 245   2.0000      -0.360342        -9.8054
 246   2.0000      -0.359270        -9.7762
 247   2.0000      -0.356764        -9.7081
 248   2.0000      -0.344821        -9.3831
 249   2.0000      -0.335616        -9.1326
 250   2.0000      -0.327717        -8.9176
 251   2.0000      -0.315867        -8.5952
 252   2.0000      -0.314718        -8.5639
 253   2.0000      -0.295494        -8.0408
 254   2.0000      -0.266841        -7.2611
 255   0.0000      -0.124125        -3.3776
 256   0.0000      -0.110604        -3.0097
 257   0.0000      -0.097349        -2.6490
 258   0.0000      -0.090015        -2.4494
 259   0.0000      -0.079498        -2.1632

MULLIKEN ATOMIC CHARGES
-----------------------
   0 C :    0.177226
   1 O :   -0.349159
   2 C :    0.045535
   3 C :    0.048836
   4 O :   -0.347015
   5 C :    0.177063
   6 C :    0.190475
   7 C :   -0.151926
   8 C :   -0.045935
   9 C :    0.011868
  10 S :    0.153743
  11 C :   -0.104294
  12 C :    0.056186
  13 C :   -0.142561
  14 C :    0.148876
  15 O :   -0.125589
  16 C :    0.002940
  17 C :   -0.033019
  18 C :   -0.080772
  19 C :   -0.153902
  20 N :    0.143225
  21 C :    0.015766
  22 C :    0.184488
  23 O :   -0.144820
  24 O :   -0.139823
  25 C :   -0.086528
  26 C :    0.036828
  27 C :    0.257162
  28 C :   -0.308890
  29 C :   -0.209746
  30 N :    0.182548
  31 C :   -0.165443
  32 N :    0.146233
  33 C :    0.016182
  34 C :    0.017721
  35 S :    0.182062
  36 C :   -0.081958
  37 N :    0.020203
  38 O :   -0.079442
  39 N :    0.021738
  40 C :   -0.080233
  41 C :    0.191436
  42 C :   -0.150948
  43 C :   -0.045321
  44 C :    0.011730
  45 S :    0.154657
  46 C :   -0.106310
  47 C :    0.062025
  48 C :   -0.141849
  49 C :    0.148742
  50 O :   -0.127278
  51 C :    0.014915
  52 C :   -0.036644
  53 C :   -0.047879
  54 C :   -0.222538
  55 N :    0.131979
  56 C :    0.000995
  57 C :    0.170297
  58 O :   -0.157555
  59 O :   -0.131877
  60 C :   -0.070911
  61 C :    0.054039
  62 C :    0.239153
  63 C :   -0.299562
  64 C :   -0.203177
  65 N :    0.180253
  66 C :   -0.184443
  67 N :    0.178253
  68 C :    0.017125
  69 C :    0.018553
  70 S :    0.180291
  71 H :    0.046014
  72 H :    0.046355
  73 H :    0.034481
  74 H :    0.047870
  75 H :    0.034109
  76 H :    0.044899
  77 H :   -0.000766
  78 H :    0.034597
  79 H :    0.019594
  80 H :    0.187724
  81 H :   -0.009432
  82 H :    0.005741
  83 H :    0.000450
  84 H :    0.032773
  85 H :    0.019295
  86 H :    0.182839
  87 H :    0.034344
  88 H :    0.005112
Sum of atomic charges:   -0.0000000

LOEWDIN ATOMIC CHARGES
----------------------
   0 C :    0.083607
   1 O :   -0.112405
   2 C :    0.046398
   3 C :    0.048473
   4 O :   -0.111728
   5 C :    0.083700
   6 C :   -0.059066
   7 C :   -0.141507
   8 C :   -0.059782
   9 C :   -0.175381
  10 S :    0.446215
  11 C :   -0.175866
  12 C :    0.063036
  13 C :   -0.108849
  14 C :    0.083329
  15 O :   -0.127938
  16 C :   -0.032481
  17 C :    0.050394
  18 C :   -0.023565
  19 C :   -0.034899
  20 N :   -0.024387
  21 C :   -0.037127
  22 C :    0.081537
  23 O :   -0.116137
  24 O :   -0.014581
  25 C :   -0.005646
  26 C :    0.003490
  27 C :    0.056790
  28 C :   -0.133611
  29 C :   -0.037095
  30 N :   -0.037659
  31 C :   -0.019087
  32 N :   -0.048042
  33 C :   -0.006881
  34 C :   -0.203935
  35 S :    0.474916
  36 C :   -0.055065
  37 N :   -0.036305
  38 O :    0.084240
  39 N :   -0.034962
  40 C :   -0.055304
  41 C :   -0.056513
  42 C :   -0.143580
  43 C :   -0.058297
  44 C :   -0.177094
  45 S :    0.448203
  46 C :   -0.175277
  47 C :    0.060893
  48 C :   -0.105898
  49 C :    0.082985
  50 O :   -0.129994
  51 C :   -0.033935
  52 C :    0.047825
  53 C :   -0.056773
  54 C :   -0.042361
  55 N :   -0.028581
  56 C :   -0.031838
  57 C :    0.081742
  58 O :   -0.137634
  59 O :   -0.008202
  60 C :    0.034479
  61 C :    0.007233
  62 C :    0.051677
  63 C :   -0.123201
  64 C :   -0.034289
  65 N :   -0.036808
  66 C :   -0.025875
  67 N :   -0.031042
  68 C :   -0.008944
  69 C :   -0.202828
  70 S :    0.473679
  71 H :    0.030512
  72 H :    0.017899
  73 H :    0.022667
  74 H :    0.018304
  75 H :    0.022534
  76 H :    0.030154
  77 H :    0.034296
  78 H :    0.055119
  79 H :    0.054316
  80 H :    0.096342
  81 H :    0.034111
  82 H :    0.042914
  83 H :    0.034723
  84 H :    0.054527
  85 H :    0.052910
  86 H :    0.088005
  87 H :    0.051475
  88 H :    0.042598

  Mayer bond orders larger than 0.100000
B(  0-C ,  1-O ) :   0.8983 B(  0-C , 71-H ) :   0.9828 B(  0-C , 72-H ) :   0.9670
B(  0-C , 73-H ) :   0.9698 B(  1-O ,  2-C ) :   1.1336 B(  2-C ,  3-C ) :   1.1256
B(  2-C , 41-C ) :   1.4538 B(  3-C ,  4-O ) :   1.1372 B(  3-C ,  6-C ) :   1.4539
B(  4-O ,  5-C ) :   0.8972 B(  5-C , 74-H ) :   0.9668 B(  5-C , 75-H ) :   0.9700
B(  5-C , 76-H ) :   0.9830 B(  6-C ,  7-C ) :   1.1410 B(  6-C , 36-C ) :   1.1054
B(  6-C , 41-C ) :   0.1056 B(  7-C ,  8-C ) :   1.4788 B(  7-C , 35-S ) :   1.1252
B(  8-C ,  9-C ) :   1.2522 B(  8-C , 77-H ) :   1.0026 B(  9-C , 10-S ) :   1.0876
B(  9-C , 34-C ) :   1.3677 B( 10-S , 11-C ) :   1.0797 B( 11-C , 12-C ) :   1.1735
B( 11-C , 33-C ) :   1.4267 B( 12-C , 13-C ) :   1.6047 B( 12-C , 78-H ) :   0.9469
B( 13-C , 14-C ) :   0.9495 B( 13-C , 27-C ) :   1.0510 B( 14-C , 15-O ) :   2.2824
B( 14-C , 16-C ) :   0.8979 B( 16-C , 17-C ) :   1.3580 B( 16-C , 26-C ) :   1.3432
B( 17-C , 18-C ) :   1.3661 B( 17-C , 79-H ) :   1.0154 B( 18-C , 19-C ) :   1.0667
B( 18-C , 21-C ) :   1.3955 B( 19-C , 20-N ) :   3.0378 B( 21-C , 22-C ) :   0.8686
B( 21-C , 25-C ) :   1.3158 B( 22-C , 23-O ) :   2.1671 B( 22-C , 24-O ) :   1.2541
B( 24-O , 80-H ) :   0.9505 B( 25-C , 26-C ) :   1.3961 B( 25-C , 81-H ) :   0.9599
B( 26-C , 27-C ) :   0.9992 B( 27-C , 28-C ) :   1.6554 B( 28-C , 29-C ) :   1.1491
B( 28-C , 31-C ) :   1.1339 B( 29-C , 30-N ) :   3.0295 B( 31-C , 32-N ) :   2.9681
B( 33-C , 34-C ) :   1.2846 B( 33-C , 82-H ) :   1.0071 B( 34-C , 35-S ) :   1.0406
B( 36-C , 37-N ) :   1.5822 B( 36-C , 40-C ) :   1.1530 B( 37-N , 38-O ) :   1.0685
B( 37-N , 39-N ) :   0.1767 B( 38-O , 39-N ) :   1.0684 B( 39-N , 40-C ) :   1.5816
B( 40-C , 41-C ) :   1.1036 B( 41-C , 42-C ) :   1.1445 B( 42-C , 43-C ) :   1.4757
B( 42-C , 70-S ) :   1.1230 B( 43-C , 44-C ) :   1.2504 B( 43-C , 83-H ) :   1.0041
B( 44-C , 45-S ) :   1.0846 B( 44-C , 69-C ) :   1.3723 B( 45-S , 46-C ) :   1.0835
B( 46-C , 47-C ) :   1.1610 B( 46-C , 68-C ) :   1.4328 B( 47-C , 48-C ) :   1.6169
B( 47-C , 84-H ) :   0.9497 B( 48-C , 49-C ) :   0.9499 B( 48-C , 62-C ) :   1.0412
B( 49-C , 50-O ) :   2.2834 B( 49-C , 51-C ) :   0.8995 B( 51-C , 52-C ) :   1.3791
B( 51-C , 61-C ) :   1.3307 B( 52-C , 53-C ) :   1.3561 B( 52-C , 85-H ) :   1.0116
B( 53-C , 54-C ) :   1.0589 B( 53-C , 56-C ) :   1.3522 B( 54-C , 55-N ) :   2.9916
B( 56-C , 57-C ) :   0.8603 B( 56-C , 60-C ) :   1.3748 B( 57-C , 58-O ) :   2.1772
B( 57-C , 59-O ) :   1.2759 B( 59-O , 86-H ) :   0.9381 B( 60-C , 61-C ) :   1.3324
B( 60-C , 87-H ) :   0.9916 B( 61-C , 62-C ) :   0.9904 B( 62-C , 63-C ) :   1.6771
B( 63-C , 64-C ) :   1.1492 B( 63-C , 66-C ) :   1.1328 B( 64-C , 65-N ) :   3.0266
B( 66-C , 67-N ) :   3.0018 B( 68-C , 69-C ) :   1.2801 B( 68-C , 88-H ) :   1.0074
B( 69-C , 70-S ) :   1.0411

-----------------------------------------------------------------------------
         ABSORPTION SPECTRUM VIA TRANSITION ELECTRIC DIPOLE MOMENTS
-----------------------------------------------------------------------------
State   Energy  Wavelength   fosc         T2         TX        TY        TZ
        (cm-1)    (nm)                  (au**2)     (au)      (au)      (au)
-----------------------------------------------------------------------------
   0   16113.2    620.6   2.063096523  42.15157  -1.41583  -0.93459  -6.26686
   1   19504.2    512.7   0.123347443   2.08199   0.78347  -1.20674  -0.10924
   2   22675.3    441.0   0.300185338   4.35825   0.40764   0.23345  -2.03410
   3   24260.4    412.2   0.002556695   0.03469   0.03920  -0.10844   0.14628
   4   24767.1    403.8   0.020281954   0.26959  -0.00384   0.37884  -0.35505
   5   24952.2    400.8   0.047189420   0.62260   0.55290  -0.55684  -0.08265
   6   25146.9    397.7   0.016989347   0.22242   0.21577  -0.38366  -0.16932
   7   26146.4    382.5   0.099007602   1.24661   0.24956   0.21287   1.06725
   8   28460.9    351.4   0.105605089   1.22155   0.69536   0.50778  -0.69295
   9   29481.1    339.2   0.017992180   0.20092  -0.08214   0.13431  -0.41968
  10   29570.2    338.2   0.051019337   0.56801  -0.02608   0.00863   0.75316
  11   29793.4    335.6   0.037113123   0.41009  -0.11702   0.05630  -0.62708
  12   30004.2    333.3   0.007468882   0.08195  -0.14659   0.18763   0.15892
  13   31045.6    322.1   0.066029642   0.70019   0.46933  -0.67913   0.13677
  14   31396.5    318.5   0.126198342   1.32327   0.33571   0.44689  -1.00541
  15   31663.7    315.8   0.097776353   1.01659   0.27057   0.33717  -0.91088
  16   31750.2    315.0   0.040198871   0.41681  -0.39241   0.06153   0.50896
  17   32379.8    308.8   0.003250248   0.03305   0.15663  -0.02879   0.08766
  18   33183.0    301.4   0.004513083   0.04477  -0.16244   0.02223   0.13377
  19   33482.3    298.7   0.075329030   0.74067   0.09691  -0.25696   0.81563
  20   33840.6    295.5   0.167256826   1.62713   0.35330   0.09472  -1.22202
  21   34064.2    293.6   0.069755423   0.67415  -0.30005  -0.28014   0.71108
  22   34429.8    290.4   0.008207418   0.07848  -0.22112   0.14399   0.09406
  23   35114.2    284.8   0.159635764   1.49666   0.18686  -0.78033   0.92348
  24   35350.9    282.9   0.186056592   1.73269   0.79049  -1.04677  -0.10994
  25   35397.9    282.5   0.705235286   6.55892  -0.93245  -0.15467   2.38024
  26   36226.3    276.0   0.407633673   3.70443   0.12638  -0.10294   1.91778
  27   36329.9    275.3   0.074352883   0.67377   0.34243  -0.59712  -0.44717
  28   36897.5    271.0   0.005433404   0.04848   0.19286  -0.08534   0.06327
  29   36945.6    270.7   0.025591698   0.22804  -0.39183  -0.23490  -0.13904
  30   37246.3    268.5   0.002439849   0.02157   0.06126  -0.10060  -0.08770
  31   37366.4    267.6   0.079460906   0.70008  -0.43793  -0.37820   0.60437
  32   37435.4    267.1   0.011213573   0.09861  -0.23151   0.12427   0.17198
  33   37566.4    266.2   0.032669636   0.28630  -0.19748  -0.37527   0.32630
  34   38213.5    261.7   0.015221545   0.13113   0.29353   0.18028  -0.11168
  35   38868.0    257.3   0.021904890   0.18553  -0.30729   0.28871  -0.08809
  36   39339.5    254.2   0.057284700   0.47939  -0.28764  -0.01867   0.62952
  37   39744.9    251.6   0.069806772   0.57822  -0.53940   0.36399   0.39341
  38   39782.7    251.4   0.033038477   0.27340  -0.12984  -0.10669   0.49514
  39   40173.1    248.9   0.254813709   2.08816   0.41009   0.30054  -1.35265

FINAL SINGLE POINT ENERGY     -4619.508189789271

DIPOLE MOMENT
-------------
                                X             Y             Z
Electronic contribution:      8.88606     -11.43732      -1.48839
Nuclear contribution   :     -7.61249      10.03215       3.69006
                        -----------------------------------------
Total Dipole Moment    :      1.27356      -1.40517       2.20167
                        -----------------------------------------
Magnitude (a.u.)       :      2.90582
Magnitude (Debye)      :      7.38602

Rotational constants in cm-1:     0.002485     0.000204     0.000193
Rotational constants in MHz :    74.496245     6.114195     5.794956

                             ****ORCA TERMINATED NORMALLY****
TOTAL RUN TIME: 0 days 0 hours 12 minutes 2 seconds 842 msec
