                         Program Version 4.2.0 -  RELEASE  -
|  1> # ORCA input file
|  2> # SCF done       -178.989218642530          0.000652775915
|  3> ! CAM-B3LYP def2-SVP def2/J RIJCOSX Grid4 TightSCF
|  4> %maxcore 5000
|  5> %tddft
|  6>     Mode sTDDFT
|  7>     Ethresh 5.0
|  8>     maxcore 5000
|  9> end
| 10>
| 11> %pal
| 12>   nprocs 6
| 13>   end
| 14> * xyz 0 1
| 15>    N        4.42495         5.07027        -2.60001
| 16>    C        4.52649         4.04047        -2.10143
| 17>    C        4.60789         2.81360        -1.41340
| 18>    C        4.74397         3.02703        -0.02962
| 19>    N        4.90615         3.30003         1.07502
| 20>    C        4.65658         1.58689        -2.03276
| 21>    C        4.72956         0.29459        -1.40056
| 22>    C        4.39538        -0.16893        -0.15749
| 23>    C        3.68338         0.43118         0.91598
| 24>    C        3.94405        -0.02322         2.20618
| 25>    C        3.53383         0.68469         3.32784
| 26>    C        2.80803         1.86454         3.21802
| 27>    C        2.66732         2.67789         4.38487
| 28>    N        2.87723         2.23711         5.59259
| 29>    C        2.78638         3.21375         6.48872
| 30>    S        2.91889         3.28163         8.19671
| 31>    C        2.60459         5.04721         8.09157
| 32>    C        2.56969         5.83843         9.28063
| 33>    C        2.55089         5.21020        10.51547
| 34>    C        2.43005         5.91897        11.70354
| 35>    C        2.29581         7.30009        11.72982
| 36>    C        1.97493         7.90815        12.98047
| 37>    C        1.23577         9.01733        13.26880
| 38>    C        1.32045         9.60673        14.63104
| 39>    O        1.83845         9.11104        15.60612
| 40>    C        0.69336        10.94089        14.51998
| 41>    C        0.59419        11.92319        15.46155
| 42>    C       -0.02786        13.14490        15.11738
| 43>    C       -0.15677        14.19033        16.05188
| 44>    C       -0.75579        15.36503        15.69200
| 45>    F       -0.87713        16.35966        16.58277
| 46>    C       -1.24978        15.54520        14.38499
| 47>    F       -1.82983        16.70868        14.05865
| 48>    C       -1.14077        14.54846        13.45644
| 49>    C       -0.53145        13.32400        13.79648
| 50>    C       -0.42498        12.28314        12.84554
| 51>    C        0.17362        11.10471        13.20384
| 52>    C        0.38406         9.86301        12.46465
| 53>    C       -0.25024         9.51211        11.29814
| 54>    C       -0.30577         8.19323        10.80482
| 55>    N       -0.44923         7.12733        10.40355
| 56>    C       -1.01601        10.40328        10.52274
| 57>    N       -1.60750        11.10552         9.83276
| 58>    C        2.44154         8.02408        10.49496
| 59>    C        2.53005         7.27434         9.23135
| 60>    C        2.51763         8.04284         8.09092
| 61>   Si        3.09937         9.71572         8.64961
| 62>    C        2.44179         9.39162        10.36652
| 63>    N        2.43104         5.48219         6.87858
| 64>    C        2.51746         4.50106         5.98636
| 65>    S        2.34977         4.43319         4.28270
| 66>    C        2.25333         2.21362         1.94528
| 67>    C        2.68933         1.45798         0.76010
| 68>    C        1.98261         1.71738        -0.38488
| 69>   Si        1.23035         3.40314        -0.11713
| 70>    C        1.20974         3.07560         1.71923
| 71>    C        5.21910        -0.68504        -2.40679
| 72>    O        5.53166        -1.83663        -2.20470
| 73>    C        5.19325         0.03072        -3.69956
| 74>    C        5.44945        -0.44656        -4.95136
| 75>    C        5.33046         0.42655        -6.05704
| 76>    C        5.58347        -0.01419        -7.37007
| 77>    C        5.45656         0.84932        -8.42225
| 78>    F        5.69712         0.42783        -9.67188
| 79>    C        5.07175         2.18728        -8.20752
| 80>    F        4.95439         3.01192        -9.25753
| 81>    C        4.81897         2.64423        -6.94445
| 82>    C        4.94277         1.77993        -5.83846
| 83>    C        4.69144         2.24726        -4.52760
| 84>    C        4.82085         1.38579        -3.47133
| 85>    H        4.75278        -1.17857         0.03125
| 86>    H        4.58263        -0.88503         2.33826
| 87>    H        3.85538         0.37187         4.30892
| 88>    H        2.57897         4.13104        10.55718
| 89>    H        2.34024         5.36935        12.62907
| 90>    H        2.38876         7.41762        13.85764
| 91>    H        0.98498        11.77162        16.45621
| 92>    H        0.21681        14.06796        17.05646
| 93>    H       -1.52780        14.70166        12.46114
| 94>    H       -0.81481        12.44589        11.85349
| 95>    H        2.63449         7.58706         7.12372
| 96>    H        2.52875        10.03615        11.22641
| 97>    H        2.20455         1.21378        -1.31136
| 98>    H        0.78966         3.68435         2.50063
| 99>    H        5.73827        -1.47611        -5.09819
|100>    H        5.87872        -1.03579        -7.55126
|101>    H        4.52836         3.67269        -6.79722
|102>    H        4.39540         3.27526        -4.39429
|103> *
|104>
|105>                          ****END OF INPUT****

CARTESIAN COORDINATES (ANGSTROEM)
---------------------------------
  N      4.424950    5.070270   -2.600010
  C      4.526490    4.040470   -2.101430
  C      4.607890    2.813600   -1.413400
  C      4.743970    3.027030   -0.029620
  N      4.906150    3.300030    1.075020
  C      4.656580    1.586890   -2.032760
  C      4.729560    0.294590   -1.400560
  C      4.395380   -0.168930   -0.157490
  C      3.683380    0.431180    0.915980
  C      3.944050   -0.023220    2.206180
  C      3.533830    0.684690    3.327840
  C      2.808030    1.864540    3.218020
  C      2.667320    2.677890    4.384870
  N      2.877230    2.237110    5.592590
  C      2.786380    3.213750    6.488720
  S      2.918890    3.281630    8.196710
  C      2.604590    5.047210    8.091570
  C      2.569690    5.838430    9.280630
  C      2.550890    5.210200   10.515470
  C      2.430050    5.918970   11.703540
  C      2.295810    7.300090   11.729820
  C      1.974930    7.908150   12.980470
  C      1.235770    9.017330   13.268800
  C      1.320450    9.606730   14.631040
  O      1.838450    9.111040   15.606120
  C      0.693360   10.940890   14.519980
  C      0.594190   11.923190   15.461550
  C     -0.027860   13.144900   15.117380
  C     -0.156770   14.190330   16.051880
  C     -0.755790   15.365030   15.692000
  F     -0.877130   16.359660   16.582770
  C     -1.249780   15.545200   14.384990
  F     -1.829830   16.708680   14.058650
  C     -1.140770   14.548460   13.456440
  C     -0.531450   13.324000   13.796480
  C     -0.424980   12.283140   12.845540
  C      0.173620   11.104710   13.203840
  C      0.384060    9.863010   12.464650
  C     -0.250240    9.512110   11.298140
  C     -0.305770    8.193230   10.804820
  N     -0.449230    7.127330   10.403550
  C     -1.016010   10.403280   10.522740
  N     -1.607500   11.105520    9.832760
  C      2.441540    8.024080   10.494960
  C      2.530050    7.274340    9.231350
  C      2.517630    8.042840    8.090920
  Si     3.099370    9.715720    8.649610
  C      2.441790    9.391620   10.366520
  N      2.431040    5.482190    6.878580
  C      2.517460    4.501060    5.986360
  S      2.349770    4.433190    4.282700
  C      2.253330    2.213620    1.945280
  C      2.689330    1.457980    0.760100
  C      1.982610    1.717380   -0.384880
  Si     1.230350    3.403140   -0.117130
  C      1.209740    3.075600    1.719230
  C      5.219100   -0.685040   -2.406790
  O      5.531660   -1.836630   -2.204700
  C      5.193250    0.030720   -3.699560
  C      5.449450   -0.446560   -4.951360
  C      5.330460    0.426550   -6.057040
  C      5.583470   -0.014190   -7.370070
  C      5.456560    0.849320   -8.422250
  F      5.697120    0.427830   -9.671880
  C      5.071750    2.187280   -8.207520
  F      4.954390    3.011920   -9.257530
  C      4.818970    2.644230   -6.944450
  C      4.942770    1.779930   -5.838460
  C      4.691440    2.247260   -4.527600
  C      4.820850    1.385790   -3.471330
  H      4.752780   -1.178570    0.031250
  H      4.582630   -0.885030    2.338260
  H      3.855380    0.371870    4.308920
  H      2.578970    4.131040   10.557180
  H      2.340240    5.369350   12.629070
  H      2.388760    7.417620   13.857640
  H      0.984980   11.771620   16.456210
  H      0.216810   14.067960   17.056460
  H     -1.527800   14.701660   12.461140
  H     -0.814810   12.445890   11.853490
  H      2.634490    7.587060    7.123720
  H      2.528750   10.036150   11.226410
  H      2.204550    1.213780   -1.311360
  H      0.789660    3.684350    2.500630
  H      5.738270   -1.476110   -5.098190
  H      5.878720   -1.035790   -7.551260
  H      4.528360    3.672690   -6.797220
  H      4.395400    3.275260   -4.394290

 Total Charge           Charge          ....    0
 Multiplicity           Mult            ....    1
 Number of Electrons    NEL             ....  496
 Basis Dimension        Dim             .... 1086

ORBITAL ENERGIES
----------------

  NO   OCC          E(Eh)            E(eV)
   0   2.0000     -88.983137     -2421.3542
   1   2.0000     -88.980584     -2421.2848
   2   2.0000     -66.207915     -1801.6090
   3   2.0000     -66.202041     -1801.4491
   4   2.0000     -24.797697      -674.7796
   5   2.0000     -24.797276      -674.7682
   6   2.0000     -24.796957      -674.7595
   7   2.0000     -24.796685      -674.7521
   8   2.0000     -19.216965      -522.9202
   9   2.0000     -19.216689      -522.9127
  10   2.0000     -14.437804      -392.8726
  11   2.0000     -14.436963      -392.8497
  12   2.0000     -14.420461      -392.4007
  13   2.0000     -14.417977      -392.3331
  14   2.0000     -14.417284      -392.3142
  15   2.0000     -14.414003      -392.2250
  16   2.0000     -10.380868      -282.4778
  17   2.0000     -10.380474      -282.4671
  18   2.0000     -10.380330      -282.4631
  19   2.0000     -10.380040      -282.4553
  20   2.0000     -10.367370      -282.1105
  21   2.0000     -10.367094      -282.1030
  22   2.0000     -10.362278      -281.9719
  23   2.0000     -10.361298      -281.9452
  24   2.0000     -10.345033      -281.5027
  25   2.0000     -10.344994      -281.5016
  26   2.0000     -10.344116      -281.4777
  27   2.0000     -10.343041      -281.4484
  28   2.0000     -10.341261      -281.4000
  29   2.0000     -10.337903      -281.3086
  30   2.0000     -10.324114      -280.9334
  31   2.0000     -10.320495      -280.8350
  32   2.0000     -10.320005      -280.8216
  33   2.0000     -10.319938      -280.8198
  34   2.0000     -10.319088      -280.7967
  35   2.0000     -10.318739      -280.7872
  36   2.0000     -10.316841      -280.7355
  37   2.0000     -10.316467      -280.7253
  38   2.0000     -10.313740      -280.6511
  39   2.0000     -10.311205      -280.5822
  40   2.0000     -10.310829      -280.5719
  41   2.0000     -10.310191      -280.5546
  42   2.0000     -10.309911      -280.5469
  43   2.0000     -10.309879      -280.5461
  44   2.0000     -10.309471      -280.5350
  45   2.0000     -10.307886      -280.4918
  46   2.0000     -10.307469      -280.4805
  47   2.0000     -10.307055      -280.4692
  48   2.0000     -10.306575      -280.4562
  49   2.0000     -10.306323      -280.4493
  50   2.0000     -10.303512      -280.3728
  51   2.0000     -10.303388      -280.3694
  52   2.0000     -10.302695      -280.3506
  53   2.0000     -10.302648      -280.3493
  54   2.0000     -10.302416      -280.3430
  55   2.0000     -10.301466      -280.3171
  56   2.0000     -10.300911      -280.3020
  57   2.0000     -10.300747      -280.2976
  58   2.0000     -10.300550      -280.2922
  59   2.0000     -10.299932      -280.2754
  60   2.0000     -10.299502      -280.2637
  61   2.0000     -10.299074      -280.2521
  62   2.0000     -10.298797      -280.2445
  63   2.0000     -10.298577      -280.2385
  64   2.0000     -10.293387      -280.0973
  65   2.0000     -10.293173      -280.0915
  66   2.0000     -10.270629      -279.4780
  67   2.0000     -10.260353      -279.1984
  68   2.0000     -10.257853      -279.1304
  69   2.0000     -10.257047      -279.1084
  70   2.0000      -8.078355      -219.8232
  71   2.0000      -8.076280      -219.7668
  72   2.0000      -6.047439      -164.5592
  73   2.0000      -6.045382      -164.5032
  74   2.0000      -6.043641      -164.4558
  75   2.0000      -6.041761      -164.4047
  76   2.0000      -6.040377      -164.3670
  77   2.0000      -6.038095      -164.3049
  78   2.0000      -5.376808      -146.3104
  79   2.0000      -5.371270      -146.1597
  80   2.0000      -3.744090      -101.8819
  81   2.0000      -3.738534      -101.7307
  82   2.0000      -3.736150      -101.6658
  83   2.0000      -3.733963      -101.6063
  84   2.0000      -3.730455      -101.5108
  85   2.0000      -3.728574      -101.4596
  86   2.0000      -1.319986       -35.9187
  87   2.0000      -1.319581       -35.9076
  88   2.0000      -1.305156       -35.5151
  89   2.0000      -1.304744       -35.5039
  90   2.0000      -1.131600       -30.7924
  91   2.0000      -1.131559       -30.7913
  92   2.0000      -1.109024       -30.1781
  93   2.0000      -1.068740       -29.0819
  94   2.0000      -1.023225       -27.8434
  95   2.0000      -1.020526       -27.7699
  96   2.0000      -1.006169       -27.3793
  97   2.0000      -1.003965       -27.3193
  98   2.0000      -0.998952       -27.1829
  99   2.0000      -0.997113       -27.1328
 100   2.0000      -0.990329       -26.9482
 101   2.0000      -0.986834       -26.8531
 102   2.0000      -0.981006       -26.6945
 103   2.0000      -0.979876       -26.6638
 104   2.0000      -0.937709       -25.5164
 105   2.0000      -0.935357       -25.4524
 106   2.0000      -0.929133       -25.2830
 107   2.0000      -0.920568       -25.0499
 108   2.0000      -0.914872       -24.8949
 109   2.0000      -0.909899       -24.7596
 110   2.0000      -0.904473       -24.6120
 111   2.0000      -0.897976       -24.4352
 112   2.0000      -0.895078       -24.3563
 113   2.0000      -0.891782       -24.2666
 114   2.0000      -0.890928       -24.2434
 115   2.0000      -0.888897       -24.1881
 116   2.0000      -0.863307       -23.4918
 117   2.0000      -0.855447       -23.2779
 118   2.0000      -0.840592       -22.8737
 119   2.0000      -0.839928       -22.8556
 120   2.0000      -0.825518       -22.4635
 121   2.0000      -0.808730       -22.0067
 122   2.0000      -0.807205       -21.9652
 123   2.0000      -0.798550       -21.7296
 124   2.0000      -0.780366       -21.2349
 125   2.0000      -0.772148       -21.0112
 126   2.0000      -0.767689       -20.8899
 127   2.0000      -0.764878       -20.8134
 128   2.0000      -0.763852       -20.7855
 129   2.0000      -0.745301       -20.2807
 130   2.0000      -0.736501       -20.0412
 131   2.0000      -0.731114       -19.8946
 132   2.0000      -0.717708       -19.5298
 133   2.0000      -0.716993       -19.5104
 134   2.0000      -0.709783       -19.3142
 135   2.0000      -0.702726       -19.1222
 136   2.0000      -0.687895       -18.7186
 137   2.0000      -0.683998       -18.6125
 138   2.0000      -0.683428       -18.5970
 139   2.0000      -0.681057       -18.5325
 140   2.0000      -0.670897       -18.2560
 141   2.0000      -0.667107       -18.1529
 142   2.0000      -0.657312       -17.8864
 143   2.0000      -0.655290       -17.8314
 144   2.0000      -0.654512       -17.8102
 145   2.0000      -0.646188       -17.5837
 146   2.0000      -0.642294       -17.4777
 147   2.0000      -0.640915       -17.4402
 148   2.0000      -0.635379       -17.2895
 149   2.0000      -0.633104       -17.2276
 150   2.0000      -0.618748       -16.8370
 151   2.0000      -0.615627       -16.7521
 152   2.0000      -0.611927       -16.6514
 153   2.0000      -0.607353       -16.5269
 154   2.0000      -0.606479       -16.5031
 155   2.0000      -0.597349       -16.2547
 156   2.0000      -0.592014       -16.1095
 157   2.0000      -0.584743       -15.9117
 158   2.0000      -0.584359       -15.9012
 159   2.0000      -0.580925       -15.8078
 160   2.0000      -0.580201       -15.7881
 161   2.0000      -0.579512       -15.7693
 162   2.0000      -0.576591       -15.6898
 163   2.0000      -0.561890       -15.2898
 164   2.0000      -0.558360       -15.1938
 165   2.0000      -0.554362       -15.0849
 166   2.0000      -0.553751       -15.0683
 167   2.0000      -0.547019       -14.8852
 168   2.0000      -0.546320       -14.8661
 169   2.0000      -0.546205       -14.8630
 170   2.0000      -0.545950       -14.8560
 171   2.0000      -0.543138       -14.7795
 172   2.0000      -0.538891       -14.6640
 173   2.0000      -0.535953       -14.5840
 174   2.0000      -0.534515       -14.5449
 175   2.0000      -0.533794       -14.5253
 176   2.0000      -0.532902       -14.5010
 177   2.0000      -0.530768       -14.4429
 178   2.0000      -0.529263       -14.4020
 179   2.0000      -0.527068       -14.3422
 180   2.0000      -0.524416       -14.2701
 181   2.0000      -0.522826       -14.2268
 182   2.0000      -0.520634       -14.1672
 183   2.0000      -0.517122       -14.0716
 184   2.0000      -0.514383       -13.9971
 185   2.0000      -0.512122       -13.9355
 186   2.0000      -0.509759       -13.8713
 187   2.0000      -0.508988       -13.8503
 188   2.0000      -0.505321       -13.7505
 189   2.0000      -0.504632       -13.7317
 190   2.0000      -0.502858       -13.6835
 191   2.0000      -0.499176       -13.5833
 192   2.0000      -0.493978       -13.4418
 193   2.0000      -0.490829       -13.3561
 194   2.0000      -0.488291       -13.2871
 195   2.0000      -0.486781       -13.2460
 196   2.0000      -0.480813       -13.0836
 197   2.0000      -0.477472       -12.9927
 198   2.0000      -0.470179       -12.7942
 199   2.0000      -0.469238       -12.7686
 200   2.0000      -0.466929       -12.7058
 201   2.0000      -0.465320       -12.6620
 202   2.0000      -0.463470       -12.6117
 203   2.0000      -0.462638       -12.5890
 204   2.0000      -0.456070       -12.4103
 205   2.0000      -0.451945       -12.2980
 206   2.0000      -0.450094       -12.2477
 207   2.0000      -0.448134       -12.1943
 208   2.0000      -0.447519       -12.1776
 209   2.0000      -0.445659       -12.1270
 210   2.0000      -0.443458       -12.0671
 211   2.0000      -0.442355       -12.0371
 212   2.0000      -0.434839       -11.8326
 213   2.0000      -0.432176       -11.7601
 214   2.0000      -0.430295       -11.7089
 215   2.0000      -0.428696       -11.6654
 216   2.0000      -0.427473       -11.6321
 217   2.0000      -0.426748       -11.6124
 218   2.0000      -0.422318       -11.4919
 219   2.0000      -0.418321       -11.3831
 220   2.0000      -0.415616       -11.3095
 221   2.0000      -0.408793       -11.1238
 222   2.0000      -0.406633       -11.0651
 223   2.0000      -0.401158       -10.9161
 224   2.0000      -0.400964       -10.9108
 225   2.0000      -0.394375       -10.7315
 226   2.0000      -0.391397       -10.6504
 227   2.0000      -0.388999       -10.5852
 228   2.0000      -0.388385       -10.5685
 229   2.0000      -0.382917       -10.4197
 230   2.0000      -0.381011       -10.3678
 231   2.0000      -0.375335       -10.2134
 232   2.0000      -0.368414       -10.0251
 233   2.0000      -0.352233        -9.5848
 234   2.0000      -0.343239        -9.3400
 235   2.0000      -0.340326        -9.2607
 236   2.0000      -0.338648        -9.2151
 237   2.0000      -0.328511        -8.9392
 238   2.0000      -0.325547        -8.8586
 239   2.0000      -0.318313        -8.6617
 240   2.0000      -0.314327        -8.5533
 241   2.0000      -0.307573        -8.3695
 242   2.0000      -0.299018        -8.1367
 243   2.0000      -0.295786        -8.0487
 244   2.0000      -0.292438        -7.9576
 245   2.0000      -0.288393        -7.8476
 246   2.0000      -0.268093        -7.2952
 247   2.0000      -0.252561        -6.8725
 248   0.0000      -0.130289        -3.5453
 249   0.0000      -0.117019        -3.1843
 250   0.0000      -0.082262        -2.2385
 251   0.0000      -0.081496        -2.2176
 252   0.0000      -0.063743        -1.7345

MULLIKEN ATOMIC CHARGES
-----------------------
   0 N :    0.158084
   1 C :   -0.186009
   2 C :   -0.343427
   3 C :   -0.203273
   4 N :    0.167083
   5 C :    0.286704
   6 C :   -0.122551
   7 C :   -0.006153
   8 C :    0.112977
   9 C :    0.024989
  10 C :   -0.019670
  11 C :    0.154029
  12 C :   -0.136571
  13 N :   -0.023054
  14 C :   -0.043107
  15 S :    0.108776
  16 C :   -0.132216
  17 C :    0.193879
  18 C :   -0.049750
  19 C :    0.029558
  20 C :    0.072278
  21 C :   -0.006066
  22 C :   -0.119865
  23 C :    0.139124
  24 O :   -0.141177
  25 C :    0.012606
  26 C :   -0.085629
  27 C :    0.113545
  28 C :   -0.103381
  29 C :    0.238184
  30 F :   -0.173240
  31 C :    0.242554
  32 F :   -0.172067
  33 C :   -0.106945
  34 C :    0.113721
  35 C :   -0.091378
  36 C :    0.048882
  37 C :    0.255599
  38 C :   -0.312048
  39 C :   -0.188795
  40 N :    0.163259
  41 C :   -0.189902
  42 N :    0.150670
  43 C :   -0.005380
  44 C :   -0.006776
  45 C :   -0.183472
  46 Si:    0.382829
  47 C :   -0.200253
  48 N :   -0.020666
  49 C :   -0.056355
  50 S :    0.166047
  51 C :    0.038810
  52 C :   -0.051100
  53 C :   -0.196495
  54 Si:    0.390204
  55 C :   -0.212712
  56 C :    0.134597
  57 O :   -0.143100
  58 C :    0.016502
  59 C :   -0.084671
  60 C :    0.112030
  61 C :   -0.102466
  62 C :    0.237499
  63 F :   -0.173098
  64 C :    0.241652
  65 F :   -0.171929
  66 C :   -0.106338
  67 C :    0.111235
  68 C :   -0.086611
  69 C :    0.040238
  70 H :    0.020344
  71 H :    0.004615
  72 H :    0.007437
  73 H :    0.006108
  74 H :   -0.002238
  75 H :    0.024581
  76 H :   -0.010584
  77 H :   -0.001729
  78 H :    0.005867
  79 H :   -0.007689
  80 H :    0.027245
  81 H :    0.013098
  82 H :    0.007900
  83 H :    0.014949
  84 H :   -0.010557
  85 H :   -0.000138
  86 H :    0.005701
  87 H :   -0.005358
Sum of atomic charges:   -0.0000000

LOEWDIN ATOMIC CHARGES
----------------------
   0 N :   -0.050602
   1 C :   -0.020873
   2 C :   -0.138847
   3 C :   -0.013378
   4 N :   -0.058964
   5 C :    0.063501
   6 C :   -0.099480
   7 C :    0.071246
   8 C :   -0.035184
   9 C :    0.046051
  10 C :    0.001571
  11 C :   -0.003840
  12 C :   -0.100663
  13 N :   -0.088366
  14 C :   -0.203501
  15 S :    0.417247
  16 C :   -0.092382
  17 C :   -0.006107
  18 C :   -0.019877
  19 C :    0.040736
  20 C :   -0.030948
  21 C :    0.067404
  22 C :   -0.092720
  23 C :    0.083950
  24 O :   -0.142355
  25 C :   -0.054859
  26 C :    0.030458
  27 C :   -0.010551
  28 C :   -0.032723
  29 C :    0.066589
  30 F :   -0.050576
  31 C :    0.067106
  32 F :   -0.049880
  33 C :   -0.030538
  34 C :   -0.005487
  35 C :    0.010332
  36 C :   -0.018876
  37 C :    0.058518
  38 C :   -0.124590
  39 C :   -0.009737
  40 N :   -0.053507
  41 C :   -0.016702
  42 N :   -0.054660
  43 C :   -0.013650
  44 C :   -0.012071
  45 C :   -0.180318
  46 Si:    0.435106
  47 C :   -0.228568
  48 N :   -0.074178
  49 C :   -0.210257
  50 S :    0.458931
  51 C :   -0.010701
  52 C :   -0.010005
  53 C :   -0.219347
  54 Si:    0.439935
  55 C :   -0.200614
  56 C :    0.083104
  57 O :   -0.144182
  58 C :   -0.054194
  59 C :    0.029971
  60 C :   -0.010243
  61 C :   -0.033087
  62 C :    0.066811
  63 F :   -0.050410
  64 C :    0.066924
  65 F :   -0.049748
  66 C :   -0.029896
  67 C :   -0.006052
  68 C :    0.012058
  69 C :   -0.019857
  70 H :    0.046871
  71 H :    0.040449
  72 H :    0.039334
  73 H :    0.025788
  74 H :    0.039439
  75 H :    0.047619
  76 H :    0.040317
  77 H :    0.044579
  78 H :    0.047193
  79 H :    0.039035
  80 H :    0.021114
  81 H :    0.020882
  82 H :    0.019037
  83 H :    0.007024
  84 H :    0.040286
  85 H :    0.044729
  86 H :    0.047321
  87 H :    0.039584

  Mayer bond orders larger than 0.100000
B(  0-N ,  1-C ) :   2.9682 B(  1-C ,  2-C ) :   1.1349 B(  2-C ,  3-C ) :   1.1850
B(  2-C ,  5-C ) :   1.6137 B(  3-C ,  4-N ) :   2.9592 B(  5-C ,  6-C ) :   1.0564
B(  5-C , 69-C ) :   1.0022 B(  6-C ,  7-C ) :   1.6025 B(  6-C , 56-C ) :   0.9407
B(  7-C ,  8-C ) :   1.1318 B(  7-C , 70-H ) :   0.9394 B(  8-C ,  9-C ) :   1.4639
B(  8-C , 52-C ) :   1.0431 B(  9-C , 10-C ) :   1.1740 B(  9-C , 71-H ) :   0.9935
B( 10-C , 11-C ) :   1.5495 B( 10-C , 72-H ) :   0.9833 B( 11-C , 12-C ) :   1.0747
B( 11-C , 51-C ) :   1.0747 B( 12-C , 13-N ) :   1.6940 B( 12-C , 50-S ) :   1.0896
B( 13-N , 14-C ) :   1.4187 B( 13-N , 50-S ) :   0.1014 B( 14-C , 15-S ) :   1.1095
B( 14-C , 49-C ) :   1.2636 B( 15-S , 16-C ) :   1.0726 B( 15-S , 48-N ) :   0.1001
B( 16-C , 17-C ) :   1.0986 B( 16-C , 48-N ) :   1.6849 B( 17-C , 18-C ) :   1.4993
B( 17-C , 44-C ) :   1.0865 B( 18-C , 19-C ) :   1.1930 B( 18-C , 73-H ) :   0.9729
B( 19-C , 20-C ) :   1.4916 B( 19-C , 74-H ) :   0.9905 B( 20-C , 21-C ) :   1.0945
B( 20-C , 43-C ) :   1.0807 B( 21-C , 22-C ) :   1.6466 B( 21-C , 75-H ) :   0.9424
B( 22-C , 23-C ) :   0.9373 B( 22-C , 37-C ) :   1.0428 B( 23-C , 24-O ) :   2.2692
B( 23-C , 25-C ) :   0.9178 B( 25-C , 26-C ) :   1.4755 B( 25-C , 36-C ) :   1.2178
B( 26-C , 27-C ) :   1.1906 B( 26-C , 76-H ) :   1.0160 B( 27-C , 28-C ) :   1.1932
B( 27-C , 34-C ) :   1.2595 B( 28-C , 29-C ) :   1.4422 B( 28-C , 33-C ) :   0.1086
B( 28-C , 77-H ) :   1.0066 B( 29-C , 30-F ) :   1.1319 B( 29-C , 31-C ) :   1.1933
B( 31-C , 32-F ) :   1.1336 B( 31-C , 33-C ) :   1.4401 B( 33-C , 34-C ) :   1.1903
B( 33-C , 78-H ) :   1.0065 B( 34-C , 35-C ) :   1.2086 B( 35-C , 36-C ) :   1.4559
B( 35-C , 79-H ) :   0.9930 B( 36-C , 37-C ) :   1.0065 B( 37-C , 38-C ) :   1.6276
B( 38-C , 39-C ) :   1.1731 B( 38-C , 41-C ) :   1.1438 B( 39-C , 40-N ) :   2.9867
B( 41-C , 42-N ) :   2.9725 B( 43-C , 44-C ) :   0.9860 B( 43-C , 46-Si) :   0.1122
B( 43-C , 47-C ) :   1.7415 B( 44-C , 45-C ) :   1.7154 B( 44-C , 46-Si) :   0.1169
B( 45-C , 46-Si) :   0.9571 B( 45-C , 80-H ) :   0.9133 B( 46-Si, 47-C ) :   0.9359
B( 47-C , 81-H ) :   0.9080 B( 48-N , 49-C ) :   1.3919 B( 49-C , 50-S ) :   1.1114
B( 51-C , 52-C ) :   1.0090 B( 51-C , 54-Si) :   0.1004 B( 51-C , 55-C ) :   1.6953
B( 52-C , 53-C ) :   1.7385 B( 52-C , 54-Si) :   0.1219 B( 53-C , 54-Si) :   0.9536
B( 53-C , 82-H ) :   0.9326 B( 54-Si, 55-C ) :   0.9359 B( 55-C , 83-H ) :   0.9350
B( 56-C , 57-O ) :   2.2620 B( 56-C , 58-C ) :   0.9192 B( 58-C , 59-C ) :   1.4767
B( 58-C , 69-C ) :   1.2154 B( 59-C , 60-C ) :   1.1894 B( 59-C , 84-H ) :   1.0164
B( 60-C , 61-C ) :   1.1943 B( 60-C , 67-C ) :   1.2568 B( 61-C , 62-C ) :   1.4417
B( 61-C , 66-C ) :   0.1086 B( 61-C , 85-H ) :   1.0064 B( 62-C , 63-F ) :   1.1318
B( 62-C , 64-C ) :   1.1933 B( 64-C , 65-F ) :   1.1335 B( 64-C , 66-C ) :   1.4391
B( 66-C , 67-C ) :   1.1932 B( 66-C , 86-H ) :   1.0066 B( 67-C , 68-C ) :   1.2099
B( 68-C , 69-C ) :   1.4581 B( 68-C , 87-H ) :   0.9917

-----------------------------------------------------------------------------
         ABSORPTION SPECTRUM VIA TRANSITION ELECTRIC DIPOLE MOMENTS
-----------------------------------------------------------------------------
State   Energy  Wavelength   fosc         T2         TX        TY        TZ
        (cm-1)    (nm)                  (au**2)     (au)      (au)      (au)
-----------------------------------------------------------------------------
   0    9519.2   1050.5   0.478686349  16.55493  -1.03777   1.92682   3.43006
   1   10665.0    937.6   0.020736703   0.64011  -0.00741  -0.78044  -0.17599
   2   14752.8    677.8   0.072183902   1.61079   0.22181   1.16602  -0.44943
   3   15929.6    627.8   0.160691383   3.32095  -0.72048  -0.00990  -1.67384
   4   16681.5    599.5   0.117920659   2.32719  -0.48820   0.89767   1.13271
   5   17482.7    572.0   0.379427526   7.14492   0.86778  -1.44181  -2.07679
   6   18917.1    528.6   0.228110389   3.96978  -0.91883   0.63020   1.65178
   7   19625.3    509.5   0.071775438   1.20402  -0.08865   1.00869  -0.42274
   8   20377.8    490.7   0.016197743   0.26168  -0.22378   0.38020  -0.25895
   9   20942.9    477.5   0.042577810   0.66930   0.71907   0.24807  -0.30116
  10   23192.5    431.2   0.179063539   2.54176   0.36392  -0.87032  -1.28525
  11   24079.7    415.3   0.022315807   0.30510  -0.45095   0.31363  -0.05810
  12   24563.3    407.1   0.027786564   0.37241   0.17524  -0.49387   0.31271
  13   24938.8    401.0   0.016580918   0.21888   0.25925   0.04284  -0.38709
  14   25242.0    396.2   0.279388211   3.64385   0.25660  -1.31195  -1.36264
  15   25824.6    387.2   0.039081757   0.49821   0.17029   0.08682   0.67947
  16   25869.7    386.6   0.009881771   0.12575   0.13997   0.15894   0.28443
  17   25981.3    384.9   0.016595403   0.21028  -0.17047   0.23172   0.35711
  18   26412.3    378.6   0.004258359   0.05308  -0.02917   0.15495   0.16798
  19   27277.5    366.6   0.008976836   0.10834   0.07849  -0.24948  -0.19986
  20   27610.3    362.2   0.002208277   0.02633  -0.13023  -0.04654  -0.08488
  21   27679.4    361.3   0.034179153   0.40652  -0.38205   0.51041   0.00616
  22   27797.9    359.7   0.010506397   0.12443  -0.07968   0.22741   0.25761
  23   27970.6    357.5   0.020954872   0.24664  -0.09324   0.13484   0.46879
  24   28117.5    355.7   0.148252873   1.73581  -0.08629  -0.11782   1.30938
  25   28321.1    353.1   0.013521582   0.15718   0.01672   0.35610  -0.17347
  26   28718.3    348.2   0.029983045   0.34371   0.11615  -0.52013  -0.24431
  27   29034.1    344.4   0.027712988   0.31423  -0.06014  -0.40065   0.38742
  28   29544.6    338.5   0.146032292   1.62722  -0.20883  -0.86786  -0.91128
  29   29909.4    334.3   0.023370682   0.25724   0.03280  -0.02411  -0.50555
  30   30556.2    327.3   0.009253597   0.09970  -0.14057   0.12259   0.25478
  31   30729.1    325.4   0.005920174   0.06343  -0.23706   0.03100  -0.07915
  32   31027.6    322.3   0.007590380   0.08054  -0.26777  -0.09186   0.01995
  33   31235.3    320.2   0.077783295   0.81982  -0.69247  -0.48794  -0.31971
  34   31660.6    315.8   0.007112170   0.07395  -0.13195  -0.16853  -0.16775
  35   31908.9    313.4   0.002140765   0.02209  -0.14381  -0.03724   0.00420
  36   32274.3    309.8   0.276587764   2.82132  -0.43803   1.21305   1.07608
  37   32318.1    309.4   0.286517008   2.91864   0.38212  -0.19495  -1.65367
  38   32601.7    306.7   0.045212980   0.45656   0.12586   0.29515   0.59465
  39   32794.8    304.9   0.030475700   0.30593   0.23079  -0.32030  -0.38740
  40   33139.2    301.8   0.020770718   0.20634   0.16369  -0.36256   0.21930
  41   33292.8    300.4   0.100457447   0.99336   0.11136  -0.04393   0.98946
  42   33766.4    296.2   0.297399055   2.89955   0.03216  -1.24053  -1.16602
  43   33906.1    294.9   0.108456484   1.05306  -0.09748  -0.61194  -0.81798
  44   34178.1    292.6   0.035603558   0.34294  -0.07094   0.43375   0.38700
  45   34205.3    292.4   0.098095970   0.94413  -0.14071   0.87295   0.40286
  46   34412.9    290.6   0.026239161   0.25102  -0.06951  -0.32363  -0.37610
  47   34748.7    287.8   0.020283563   0.19217  -0.11983   0.01456  -0.42142
  48   34851.7    286.9   0.080501056   0.76042  -0.05279  -0.60739  -0.62346
  49   35308.7    283.2   0.099882692   0.93129   0.06336   0.22622   0.93600
  50   35685.2    280.2   0.011635011   0.10734  -0.13300   0.00892   0.29928
  51   35901.2    278.5   0.119755098   1.09815  -0.29993  -0.58436  -0.81652
  52   36067.0    277.3   0.016304618   0.14883  -0.06610   0.36524   0.10514
  53   36207.4    276.2   0.043053342   0.39146   0.31845  -0.39666  -0.36429
  54   36342.9    275.2   0.087014250   0.78822  -0.00030  -0.80974  -0.36406
  55   36502.7    274.0   0.283706818   2.55871   0.04541  -0.82766  -1.36807
  56   36664.4    272.7   0.174291207   1.56497   0.22431  -0.56212  -1.09484
  57   36837.0    271.5   0.154797995   1.38343  -0.28312   0.89608   0.70733
  58   37064.3    269.8   0.013474536   0.11968   0.24597  -0.17676  -0.16715
  59   37211.6    268.7   0.062942097   0.55685  -0.05662  -0.74351  -0.02901
  60   37268.9    268.3   0.110349450   0.97476  -0.21793   0.13988   0.95273
  61   37376.0    267.6   0.007078003   0.06234   0.07052   0.22322   0.08687
  62   37502.6    266.6   0.022566633   0.19810  -0.26835   0.25102   0.25115
  63   37561.4    266.2   0.042653428   0.37384   0.19752  -0.36316  -0.45049
  64   38103.6    262.4   0.064607045   0.55820  -0.38781  -0.41258  -0.48742
  65   38193.3    261.8   0.092290587   0.79551   0.01714   0.16761   0.87586
  66   38273.2    261.3   0.034772985   0.29910   0.11153   0.26479  -0.46535
  67   38338.9    260.8   0.055874322   0.47979  -0.19615   0.51636  -0.41795
  68   38526.5    259.6   0.041029847   0.35060   0.17317   0.08964  -0.55909
  69   38704.8    258.4   0.003025545   0.02573  -0.16012  -0.00984  -0.00063
  70   39123.8    255.6   0.020543510   0.17287  -0.18681   0.32999   0.17051
  71   39307.3    254.4   0.014935774   0.12509   0.28617  -0.07607  -0.19342
  72   39652.4    252.2   0.013429202   0.11150   0.08888   0.02653  -0.32077
  73   39774.3    251.4   0.002487988   0.02059  -0.02113  -0.10600  -0.09440
  74   39915.9    250.5   0.014390178   0.11868   0.14554  -0.30226   0.07835
  75   40088.4    249.4   0.055094910   0.45245   0.21576  -0.61936   0.14928
  76   40115.3    249.3   0.109511646   0.89872   0.29538  -0.77505   0.45910

FINAL SINGLE POINT ENERGY     -4317.914349590564

DIPOLE MOMENT
-------------
                                X             Y             Z
Electronic contribution:     -4.61284      18.69668     -12.40630
Nuclear contribution   :      5.03138     -20.49603      13.24283
                        -----------------------------------------
Total Dipole Moment    :      0.41853      -1.79935       0.83652
                        -----------------------------------------
Magnitude (a.u.)       :      2.02796
Magnitude (Debye)      :      5.15465

Rotational constants in cm-1:     0.002749     0.000213     0.000202
Rotational constants in MHz :    82.411545     6.377843     6.045586

                             ****ORCA TERMINATED NORMALLY****
TOTAL RUN TIME: 0 days 0 hours 11 minutes 25 seconds 706 msec
