                         Program Version 4.2.0 -  RELEASE  -
|  1> # ORCA input file
|  2> # SCF done       -153.493865103701          0.000840418381
|  3> ! CAM-B3LYP def2-SVP def2/J RIJCOSX Grid4 TightSCF
|  4> %maxcore 5000
|  5> %tddft
|  6>     Mode sTDDFT
|  7>     Ethresh 5.0
|  8>     maxcore 5000
|  9> end
| 10>
| 11> %pal
| 12>   nprocs 6
| 13>   end
| 14> * xyz 0 1
| 15>    C        4.93572        -2.52921         6.59907
| 16>    C        4.34606        -3.42410         7.45471
| 17>    C        4.10594        -3.22277         8.82506
| 18>    N        3.87896        -3.11734         9.94574
| 19>    C        3.92425        -4.67528         6.95940
| 20>    N        3.57825        -5.69068         6.55312
| 21>    N        5.40139        -1.28648         6.88244
| 22>    C        5.34791        -0.67902         8.19010
| 23>    C        5.95221        -0.58021         5.81736
| 24>    O        6.40283         0.53750         5.92806
| 25>    C        5.89465        -1.37341         4.59566
| 26>    S        5.16683        -2.93367         4.91073
| 27>    C        6.34409        -0.88956         3.40829
| 28>    C        6.33583        -1.52085         2.14921
| 29>    C        5.93140        -2.79950         1.78242
| 30>    C        6.04796        -3.04958         0.42384
| 31>    C        6.54786        -1.94636        -0.26971
| 32>    S        6.88610        -0.61287         0.75376
| 33>    C        6.66586        -2.08598        -1.67346
| 34>    C        6.27374        -3.31409        -2.20531
| 35>   Si        5.70218        -4.45556        -0.80390
| 36>    C        3.85939        -4.89875        -0.90382
| 37>    C        6.84869        -5.94591        -0.54190
| 38>    C        6.38970        -3.32990        -3.59228
| 39>    C        6.86017        -2.13830        -4.10392
| 40>    S        7.18206        -0.96293        -2.86991
| 41>    C        7.04716        -1.76918        -5.47598
| 42>    N        7.49697        -0.54039        -5.71393
| 43>    C        7.57941        -0.19594        -6.99707
| 44>    N        7.25922        -1.00882        -8.01314
| 45>    C        6.87047        -2.21572        -7.66007
| 46>    N        6.73594        -2.66085        -6.42629
| 47>    C        8.01914         1.13094        -7.30629
| 48>    C        8.51680         2.07534        -6.42926
| 49>    C        8.82957         3.27739        -7.05318
| 50>    C        8.54721         3.23587        -8.41946
| 51>    S        7.92892         1.71645        -8.93597
| 52>    C        8.78000         4.42742        -9.14872
| 53>    C        9.29368         5.50316        -8.41291
| 54>   Si        9.52485         4.98041        -6.60532
| 55>    C       11.34992         4.91725        -6.08041
| 56>    C        8.42307         5.95419        -5.40314
| 57>    C        9.45058         6.62087        -9.20715
| 58>    C        9.05812         6.43175       -10.53625
| 59>    S        8.49130         4.79601       -10.79693
| 60>    C        9.10397         7.45713       -11.49561
| 61>    C        8.71806         7.46008       -12.80427
| 62>    C        8.15644         6.38122       -13.58652
| 63>    O        7.94391         5.24072       -13.21950
| 64>    N        7.86713         6.80740       -14.87640
| 65>    C        8.15514         8.10495       -15.16200
| 66>    C        7.95704         8.76547       -16.34823
| 67>    C        7.40160         8.21772       -17.51722
| 68>    N        6.96119         7.83138       -18.50502
| 69>    C        8.32061        10.12374       -16.45615
| 70>    N        8.61262        11.22907       -16.54894
| 71>    S        8.84807         8.91816       -13.78093
| 72>    C        7.29321         5.88003       -15.82128
| 73>    H        5.90616        -1.27081         8.91587
| 74>    H        4.31630        -0.57686         8.52830
| 75>    H        5.80172         0.30786         8.09352
| 76>    H        6.74343         0.11718         3.45166
| 77>    H        5.56533        -3.52199         2.48894
| 78>    H        3.53197        -5.38608         0.00885
| 79>    H        3.67368        -5.58103        -1.72689
| 80>    H        3.24097        -4.01902        -1.05352
| 81>    H        7.89120        -5.64765        -0.48683
| 82>    H        6.74716        -6.65498        -1.35699
| 83>    H        6.59995        -6.46391         0.37867
| 84>    H        6.14093        -4.15921        -4.22843
| 85>    H        6.62887        -2.90656        -8.45895
| 86>    H        8.63504         1.86755        -5.38158
| 87>    H       11.45397         4.43796        -5.11241
| 88>    H       11.76384         5.91710        -5.99915
| 89>    H       11.95259         4.36320        -6.79343
| 90>    H        7.39156         5.98486        -5.73994
| 91>    H        8.77218         6.97666        -5.30191
| 92>    H        8.43860         5.50163        -4.41702
| 93>    H        9.82861         7.56507        -8.85623
| 94>    H        9.49618         8.39611       -11.12004
| 95>    H        7.19202         4.92678       -15.30143
| 96>    H        7.94332         5.75865       -16.68802
| 97>    H        6.31292         6.22245       -16.15380
| 98> *
| 99>
|100>                          ****END OF INPUT****

CARTESIAN COORDINATES (ANGSTROEM)
---------------------------------
  C      4.935720   -2.529210    6.599070
  C      4.346060   -3.424100    7.454710
  C      4.105940   -3.222770    8.825060
  N      3.878960   -3.117340    9.945740
  C      3.924250   -4.675280    6.959400
  N      3.578250   -5.690680    6.553120
  N      5.401390   -1.286480    6.882440
  C      5.347910   -0.679020    8.190100
  C      5.952210   -0.580210    5.817360
  O      6.402830    0.537500    5.928060
  C      5.894650   -1.373410    4.595660
  S      5.166830   -2.933670    4.910730
  C      6.344090   -0.889560    3.408290
  C      6.335830   -1.520850    2.149210
  C      5.931400   -2.799500    1.782420
  C      6.047960   -3.049580    0.423840
  C      6.547860   -1.946360   -0.269710
  S      6.886100   -0.612870    0.753760
  C      6.665860   -2.085980   -1.673460
  C      6.273740   -3.314090   -2.205310
  Si     5.702180   -4.455560   -0.803900
  C      3.859390   -4.898750   -0.903820
  C      6.848690   -5.945910   -0.541900
  C      6.389700   -3.329900   -3.592280
  C      6.860170   -2.138300   -4.103920
  S      7.182060   -0.962930   -2.869910
  C      7.047160   -1.769180   -5.475980
  N      7.496970   -0.540390   -5.713930
  C      7.579410   -0.195940   -6.997070
  N      7.259220   -1.008820   -8.013140
  C      6.870470   -2.215720   -7.660070
  N      6.735940   -2.660850   -6.426290
  C      8.019140    1.130940   -7.306290
  C      8.516800    2.075340   -6.429260
  C      8.829570    3.277390   -7.053180
  C      8.547210    3.235870   -8.419460
  S      7.928920    1.716450   -8.935970
  C      8.780000    4.427420   -9.148720
  C      9.293680    5.503160   -8.412910
  Si     9.524850    4.980410   -6.605320
  C     11.349920    4.917250   -6.080410
  C      8.423070    5.954190   -5.403140
  C      9.450580    6.620870   -9.207150
  C      9.058120    6.431750  -10.536250
  S      8.491300    4.796010  -10.796930
  C      9.103970    7.457130  -11.495610
  C      8.718060    7.460080  -12.804270
  C      8.156440    6.381220  -13.586520
  O      7.943910    5.240720  -13.219500
  N      7.867130    6.807400  -14.876400
  C      8.155140    8.104950  -15.162000
  C      7.957040    8.765470  -16.348230
  C      7.401600    8.217720  -17.517220
  N      6.961190    7.831380  -18.505020
  C      8.320610   10.123740  -16.456150
  N      8.612620   11.229070  -16.548940
  S      8.848070    8.918160  -13.780930
  C      7.293210    5.880030  -15.821280
  H      5.906160   -1.270810    8.915870
  H      4.316300   -0.576860    8.528300
  H      5.801720    0.307860    8.093520
  H      6.743430    0.117180    3.451660
  H      5.565330   -3.521990    2.488940
  H      3.531970   -5.386080    0.008850
  H      3.673680   -5.581030   -1.726890
  H      3.240970   -4.019020   -1.053520
  H      7.891200   -5.647650   -0.486830
  H      6.747160   -6.654980   -1.356990
  H      6.599950   -6.463910    0.378670
  H      6.140930   -4.159210   -4.228430
  H      6.628870   -2.906560   -8.458950
  H      8.635040    1.867550   -5.381580
  H     11.453970    4.437960   -5.112410
  H     11.763840    5.917100   -5.999150
  H     11.952590    4.363200   -6.793430
  H      7.391560    5.984860   -5.739940
  H      8.772180    6.976660   -5.301910
  H      8.438600    5.501630   -4.417020
  H      9.828610    7.565070   -8.856230
  H      9.496180    8.396110  -11.120040
  H      7.192020    4.926780  -15.301430
  H      7.943320    5.758650  -16.688020
  H      6.312920    6.222450  -16.153800

 Total Charge           Charge          ....    0
 Multiplicity           Mult            ....    1
 Number of Electrons    NEL             ....  462
 Basis Dimension        Dim             ....  969

ORBITAL ENERGIES
----------------

  NO   OCC          E(Eh)            E(eV)
   0   2.0000     -88.988323     -2421.4954
   1   2.0000     -88.982346     -2421.3327
   2   2.0000     -88.982024     -2421.3240
   3   2.0000     -88.975007     -2421.1330
   4   2.0000     -88.972920     -2421.0762
   5   2.0000     -88.972296     -2421.0593
   6   2.0000     -66.213865     -1801.7709
   7   2.0000     -66.211791     -1801.7144
   8   2.0000     -19.226315      -523.1746
   9   2.0000     -19.221388      -523.0405
  10   2.0000     -14.499618      -394.5547
  11   2.0000     -14.499055      -394.5394
  12   2.0000     -14.423703      -392.4889
  13   2.0000     -14.418558      -392.3489
  14   2.0000     -14.418423      -392.3452
  15   2.0000     -14.409410      -392.1000
  16   2.0000     -14.408860      -392.0850
  17   2.0000     -14.404068      -391.9546
  18   2.0000     -14.403967      -391.9519
  19   2.0000     -10.412630      -283.3421
  20   2.0000     -10.409949      -283.2691
  21   2.0000     -10.401193      -283.0309
  22   2.0000     -10.397605      -282.9332
  23   2.0000     -10.369682      -282.1734
  24   2.0000     -10.369550      -282.1698
  25   2.0000     -10.355490      -281.7872
  26   2.0000     -10.339655      -281.3563
  27   2.0000     -10.333874      -281.1990
  28   2.0000     -10.331624      -281.1378
  29   2.0000     -10.329672      -281.0847
  30   2.0000     -10.328822      -281.0615
  31   2.0000     -10.328615      -281.0559
  32   2.0000     -10.324257      -280.9373
  33   2.0000     -10.323584      -280.9190
  34   2.0000     -10.322368      -280.8859
  35   2.0000     -10.321362      -280.8585
  36   2.0000     -10.319797      -280.8160
  37   2.0000     -10.319101      -280.7970
  38   2.0000     -10.318954      -280.7930
  39   2.0000     -10.318458      -280.7795
  40   2.0000     -10.315247      -280.6921
  41   2.0000     -10.313333      -280.6401
  42   2.0000     -10.310901      -280.5739
  43   2.0000     -10.307996      -280.4948
  44   2.0000     -10.307948      -280.4935
  45   2.0000     -10.306005      -280.4406
  46   2.0000     -10.302402      -280.3426
  47   2.0000     -10.298398      -280.2337
  48   2.0000     -10.291992      -280.0594
  49   2.0000     -10.290138      -280.0089
  50   2.0000     -10.275689      -279.6157
  51   2.0000     -10.271559      -279.5033
  52   2.0000     -10.269129      -279.4372
  53   2.0000     -10.268874      -279.4303
  54   2.0000     -10.262540      -279.2579
  55   2.0000     -10.262384      -279.2537
  56   2.0000     -10.262242      -279.2498
  57   2.0000     -10.261790      -279.2375
  58   2.0000      -8.083811      -219.9717
  59   2.0000      -8.078504      -219.8273
  60   2.0000      -8.077596      -219.8026
  61   2.0000      -8.070015      -219.5963
  62   2.0000      -8.067185      -219.5193
  63   2.0000      -8.066703      -219.5061
  64   2.0000      -6.053746      -164.7308
  65   2.0000      -6.049665      -164.6198
  66   2.0000      -6.048453      -164.5868
  67   2.0000      -6.046655      -164.5378
  68   2.0000      -6.044507      -164.4794
  69   2.0000      -6.044275      -164.4731
  70   2.0000      -6.042731      -164.4311
  71   2.0000      -6.039922      -164.3546
  72   2.0000      -6.039122      -164.3329
  73   2.0000      -6.038702      -164.3214
  74   2.0000      -6.036235      -164.2543
  75   2.0000      -6.035896      -164.2451
  76   2.0000      -6.035048      -164.2220
  77   2.0000      -6.032450      -164.1513
  78   2.0000      -6.032175      -164.1438
  79   2.0000      -6.031562      -164.1272
  80   2.0000      -6.029727      -164.0772
  81   2.0000      -6.029133      -164.0611
  82   2.0000      -5.378809      -146.3648
  83   2.0000      -5.376582      -146.3042
  84   2.0000      -3.742490      -101.8383
  85   2.0000      -3.741000      -101.7978
  86   2.0000      -3.740201      -101.7760
  87   2.0000      -3.739712      -101.7627
  88   2.0000      -3.738751      -101.7366
  89   2.0000      -3.737621      -101.7058
  90   2.0000      -1.171920       -31.8896
  91   2.0000      -1.168654       -31.8007
  92   2.0000      -1.126846       -30.6630
  93   2.0000      -1.099635       -29.9226
  94   2.0000      -1.099394       -29.9160
  95   2.0000      -1.019286       -27.7362
  96   2.0000      -1.013585       -27.5810
  97   2.0000      -1.005552       -27.3625
  98   2.0000      -1.005230       -27.3537
  99   2.0000      -1.001085       -27.2409
 100   2.0000      -1.000616       -27.2282
 101   2.0000      -0.989144       -26.9160
 102   2.0000      -0.984599       -26.7923
 103   2.0000      -0.983864       -26.7723
 104   2.0000      -0.979483       -26.6531
 105   2.0000      -0.965276       -26.2665
 106   2.0000      -0.963115       -26.2077
 107   2.0000      -0.929819       -25.3017
 108   2.0000      -0.926622       -25.2147
 109   2.0000      -0.901261       -24.5246
 110   2.0000      -0.898913       -24.4607
 111   2.0000      -0.866657       -23.5829
 112   2.0000      -0.862748       -23.4766
 113   2.0000      -0.858774       -23.3684
 114   2.0000      -0.853648       -23.2289
 115   2.0000      -0.840110       -22.8605
 116   2.0000      -0.836074       -22.7507
 117   2.0000      -0.826365       -22.4865
 118   2.0000      -0.824909       -22.4469
 119   2.0000      -0.821303       -22.3488
 120   2.0000      -0.814367       -22.1601
 121   2.0000      -0.803050       -21.8521
 122   2.0000      -0.802240       -21.8301
 123   2.0000      -0.793588       -21.5946
 124   2.0000      -0.789009       -21.4700
 125   2.0000      -0.779205       -21.2032
 126   2.0000      -0.778792       -21.1920
 127   2.0000      -0.760765       -20.7015
 128   2.0000      -0.754622       -20.5343
 129   2.0000      -0.729693       -19.8559
 130   2.0000      -0.713836       -19.4245
 131   2.0000      -0.701699       -19.0942
 132   2.0000      -0.697185       -18.9714
 133   2.0000      -0.689376       -18.7589
 134   2.0000      -0.686551       -18.6820
 135   2.0000      -0.680637       -18.5211
 136   2.0000      -0.664274       -18.0758
 137   2.0000      -0.656153       -17.8548
 138   2.0000      -0.646638       -17.5959
 139   2.0000      -0.642713       -17.4891
 140   2.0000      -0.640097       -17.4179
 141   2.0000      -0.632939       -17.2231
 142   2.0000      -0.629245       -17.1226
 143   2.0000      -0.622329       -16.9344
 144   2.0000      -0.616298       -16.7703
 145   2.0000      -0.609368       -16.5817
 146   2.0000      -0.603733       -16.4284
 147   2.0000      -0.598129       -16.2759
 148   2.0000      -0.597703       -16.2643
 149   2.0000      -0.592053       -16.1106
 150   2.0000      -0.588352       -16.0099
 151   2.0000      -0.575284       -15.6543
 152   2.0000      -0.573050       -15.5935
 153   2.0000      -0.558624       -15.2009
 154   2.0000      -0.558264       -15.1911
 155   2.0000      -0.550384       -14.9767
 156   2.0000      -0.549012       -14.9394
 157   2.0000      -0.542140       -14.7524
 158   2.0000      -0.531639       -14.4666
 159   2.0000      -0.527230       -14.3467
 160   2.0000      -0.521807       -14.1991
 161   2.0000      -0.521362       -14.1870
 162   2.0000      -0.519302       -14.1309
 163   2.0000      -0.518934       -14.1209
 164   2.0000      -0.511397       -13.9158
 165   2.0000      -0.510449       -13.8900
 166   2.0000      -0.509266       -13.8578
 167   2.0000      -0.508356       -13.8331
 168   2.0000      -0.503545       -13.7022
 169   2.0000      -0.501476       -13.6459
 170   2.0000      -0.500863       -13.6292
 171   2.0000      -0.500135       -13.6094
 172   2.0000      -0.499320       -13.5872
 173   2.0000      -0.498683       -13.5698
 174   2.0000      -0.495636       -13.4869
 175   2.0000      -0.493768       -13.4361
 176   2.0000      -0.487205       -13.2575
 177   2.0000      -0.487091       -13.2544
 178   2.0000      -0.484759       -13.1910
 179   2.0000      -0.482302       -13.1241
 180   2.0000      -0.481841       -13.1116
 181   2.0000      -0.480827       -13.0840
 182   2.0000      -0.480038       -13.0625
 183   2.0000      -0.472523       -12.8580
 184   2.0000      -0.471773       -12.8376
 185   2.0000      -0.468464       -12.7475
 186   2.0000      -0.464910       -12.6508
 187   2.0000      -0.457915       -12.4605
 188   2.0000      -0.456885       -12.4325
 189   2.0000      -0.451342       -12.2816
 190   2.0000      -0.445703       -12.1282
 191   2.0000      -0.444581       -12.0977
 192   2.0000      -0.443677       -12.0731
 193   2.0000      -0.443001       -12.0547
 194   2.0000      -0.441764       -12.0210
 195   2.0000      -0.438847       -11.9416
 196   2.0000      -0.438547       -11.9335
 197   2.0000      -0.435665       -11.8550
 198   2.0000      -0.433969       -11.8089
 199   2.0000      -0.431855       -11.7514
 200   2.0000      -0.428037       -11.6475
 201   2.0000      -0.424729       -11.5575
 202   2.0000      -0.422717       -11.5027
 203   2.0000      -0.420504       -11.4425
 204   2.0000      -0.417958       -11.3732
 205   2.0000      -0.411232       -11.1902
 206   2.0000      -0.409766       -11.1503
 207   2.0000      -0.408029       -11.1030
 208   2.0000      -0.403555       -10.9813
 209   2.0000      -0.403111       -10.9692
 210   2.0000      -0.401264       -10.9190
 211   2.0000      -0.396891       -10.8000
 212   2.0000      -0.395807       -10.7705
 213   2.0000      -0.391508       -10.6535
 214   2.0000      -0.388750       -10.5784
 215   2.0000      -0.372944       -10.1483
 216   2.0000      -0.369501       -10.0546
 217   2.0000      -0.365980        -9.9588
 218   2.0000      -0.360673        -9.8144
 219   2.0000      -0.349341        -9.5061
 220   2.0000      -0.346251        -9.4220
 221   2.0000      -0.345629        -9.4050
 222   2.0000      -0.338102        -9.2002
 223   2.0000      -0.336888        -9.1672
 224   2.0000      -0.334847        -9.1117
 225   2.0000      -0.332944        -9.0599
 226   2.0000      -0.330739        -8.9999
 227   2.0000      -0.305590        -8.3155
 228   2.0000      -0.301180        -8.1955
 229   2.0000      -0.262534        -7.1439
 230   2.0000      -0.257025        -6.9940
 231   0.0000      -0.088990        -2.4216
 232   0.0000      -0.083895        -2.2829
 233   0.0000      -0.047121        -1.2822
 234   0.0000      -0.039853        -1.0845
 235   0.0000      -0.012206        -0.3321

MULLIKEN ATOMIC CHARGES
-----------------------
   0 C :    0.157949
   1 C :   -0.317436
   2 C :   -0.195768
   3 N :    0.169911
   4 C :   -0.212400
   5 N :    0.143178
   6 N :   -0.235996
   7 C :    0.116758
   8 C :    0.211267
   9 O :   -0.179886
  10 C :   -0.152318
  11 S :    0.108116
  12 C :    0.068324
  13 C :   -0.101838
  14 C :   -0.020521
  15 C :   -0.137253
  16 C :   -0.082738
  17 S :    0.169454
  18 C :   -0.075565
  19 C :   -0.129677
  20 Si:    0.549619
  21 C :   -0.205302
  22 C :   -0.204063
  23 C :   -0.027718
  24 C :   -0.061372
  25 S :    0.196023
  26 C :   -0.020176
  27 N :   -0.063657
  28 C :   -0.024023
  29 N :   -0.111400
  30 C :    0.114846
  31 N :   -0.099073
  32 C :   -0.062134
  33 C :   -0.027373
  34 C :   -0.124159
  35 C :   -0.080708
  36 S :    0.216563
  37 C :   -0.073832
  38 C :   -0.109685
  39 Si:    0.545985
  40 C :   -0.204246
  41 C :   -0.202459
  42 C :   -0.029169
  43 C :   -0.066522
  44 S :    0.207591
  45 C :    0.046289
  46 C :   -0.179089
  47 C :    0.241979
  48 O :   -0.208824
  49 N :   -0.239394
  50 C :    0.128801
  51 C :   -0.315159
  52 C :   -0.194340
  53 N :    0.167643
  54 C :   -0.220630
  55 N :    0.144409
  56 S :    0.150001
  57 C :    0.116148
  58 H :    0.064278
  59 H :    0.064069
  60 H :    0.066268
  61 H :    0.023958
  62 H :    0.002035
  63 H :    0.051103
  64 H :    0.049220
  65 H :    0.057019
  66 H :    0.056757
  67 H :    0.049621
  68 H :    0.049959
  69 H :   -0.001897
  70 H :    0.018769
  71 H :   -0.007746
  72 H :    0.045790
  73 H :    0.044141
  74 H :    0.056685
  75 H :    0.056071
  76 H :    0.044146
  77 H :    0.046953
  78 H :   -0.015797
  79 H :    0.006211
  80 H :    0.067155
  81 H :    0.065256
  82 H :    0.065026
Sum of atomic charges:   -0.0000000

LOEWDIN ATOMIC CHARGES
----------------------
   0 C :   -0.027498
   1 C :   -0.210744
   2 C :   -0.034063
   3 N :   -0.060359
   4 C :   -0.040610
   5 N :   -0.053803
   6 N :   -0.007373
   7 C :    0.038767
   8 C :    0.069769
   9 O :   -0.172277
  10 C :   -0.225521
  11 S :    0.426616
  12 C :    0.000756
  13 C :   -0.189898
  14 C :   -0.038393
  15 C :   -0.199428
  16 C :   -0.178724
  17 S :    0.456646
  18 C :   -0.189519
  19 C :   -0.201267
  20 Si:    0.681820
  21 C :   -0.240834
  22 C :   -0.240764
  23 C :   -0.016651
  24 C :   -0.198202
  25 S :    0.476781
  26 C :    0.035794
  27 N :   -0.120422
  28 C :    0.037946
  29 N :   -0.128614
  30 C :    0.075657
  31 N :   -0.118193
  32 C :   -0.201103
  33 C :   -0.018846
  34 C :   -0.201894
  35 C :   -0.187480
  36 S :    0.489455
  37 C :   -0.183811
  38 C :   -0.208303
  39 Si:    0.678404
  40 C :   -0.241874
  41 C :   -0.241987
  42 C :   -0.027365
  43 C :   -0.190944
  44 S :    0.509175
  45 C :    0.008233
  46 C :   -0.236833
  47 C :    0.068975
  48 O :   -0.189330
  49 N :   -0.003735
  50 C :   -0.031967
  51 C :   -0.215417
  52 C :   -0.034725
  53 N :   -0.064756
  54 C :   -0.040875
  55 N :   -0.053670
  56 S :    0.422781
  57 C :    0.038214
  58 H :    0.040491
  59 H :    0.040406
  60 H :    0.043867
  61 H :    0.049366
  62 H :    0.020919
  63 H :    0.038525
  64 H :    0.037857
  65 H :    0.041835
  66 H :    0.041684
  67 H :    0.037788
  68 H :    0.037987
  69 H :    0.036773
  70 H :    0.023445
  71 H :    0.033632
  72 H :    0.036292
  73 H :    0.035436
  74 H :    0.041287
  75 H :    0.041168
  76 H :    0.035522
  77 H :    0.036671
  78 H :    0.029583
  79 H :    0.046508
  80 H :    0.043356
  81 H :    0.041011
  82 H :    0.040876

  Mayer bond orders larger than 0.100000
B(  0-C ,  1-C ) :   1.5686 B(  0-C ,  6-N ) :   1.2085 B(  0-C , 11-S ) :   1.0753
B(  1-C ,  2-C ) :   1.1695 B(  1-C ,  4-C ) :   1.1468 B(  2-C ,  3-N ) :   3.0121
B(  4-C ,  5-N ) :   3.0327 B(  6-N ,  7-C ) :   0.9347 B(  6-N ,  8-C ) :   1.0386
B(  7-C , 58-H ) :   0.9691 B(  7-C , 59-H ) :   0.9695 B(  7-C , 60-H ) :   0.9439
B(  8-C ,  9-O ) :   2.1570 B(  8-C , 10-C ) :   0.9763 B( 10-C , 11-S ) :   0.9916
B( 10-C , 12-C ) :   1.7186 B( 12-C , 13-C ) :   1.1488 B( 12-C , 61-H ) :   0.9421
B( 13-C , 14-C ) :   1.4318 B( 13-C , 17-S ) :   1.0914 B( 14-C , 15-C ) :   1.3225
B( 14-C , 62-H ) :   0.9797 B( 15-C , 16-C ) :   1.5014 B( 15-C , 20-Si) :   0.8607
B( 16-C , 17-S ) :   1.1419 B( 16-C , 18-C ) :   1.1531 B( 18-C , 19-C ) :   1.5058
B( 18-C , 24-C ) :   0.1070 B( 18-C , 25-S ) :   1.1235 B( 19-C , 20-Si) :   0.8742
B( 19-C , 23-C ) :   1.2474 B( 20-Si, 21-C ) :   1.0561 B( 20-Si, 22-C ) :   1.0560
B( 21-C , 63-H ) :   0.9545 B( 21-C , 64-H ) :   0.9552 B( 21-C , 65-H ) :   0.9503
B( 22-C , 66-H ) :   0.9504 B( 22-C , 67-H ) :   0.9549 B( 22-C , 68-H ) :   0.9549
B( 23-C , 24-C ) :   1.5007 B( 23-C , 69-H ) :   1.0077 B( 24-C , 25-S ) :   1.1161
B( 24-C , 26-C ) :   1.0346 B( 26-C , 27-N ) :   1.5758 B( 26-C , 31-N ) :   1.5757
B( 27-N , 28-C ) :   1.5686 B( 28-C , 29-N ) :   1.5740 B( 28-C , 32-C ) :   1.0486
B( 29-N , 30-C ) :   1.5091 B( 30-C , 31-N ) :   1.5096 B( 30-C , 70-H ) :   0.9760
B( 32-C , 33-C ) :   1.4894 B( 32-C , 35-C ) :   0.1054 B( 32-C , 36-S ) :   1.1152
B( 33-C , 34-C ) :   1.2534 B( 33-C , 71-H ) :   1.0062 B( 34-C , 35-C ) :   1.4959
B( 34-C , 39-Si) :   0.8784 B( 35-C , 36-S ) :   1.1304 B( 35-C , 37-C ) :   1.1592
B( 37-C , 38-C ) :   1.4527 B( 37-C , 44-S ) :   1.1226 B( 38-C , 39-Si) :   0.8695
B( 38-C , 42-C ) :   1.3197 B( 39-Si, 40-C ) :   1.0502 B( 39-Si, 41-C ) :   1.0519
B( 40-C , 72-H ) :   0.9559 B( 40-C , 73-H ) :   0.9554 B( 40-C , 74-H ) :   0.9517
B( 41-C , 75-H ) :   0.9513 B( 41-C , 76-H ) :   0.9548 B( 41-C , 77-H ) :   0.9555
B( 42-C , 43-C ) :   1.3660 B( 42-C , 78-H ) :   1.0065 B( 43-C , 44-S ) :   1.0963
B( 43-C , 45-C ) :   1.2577 B( 45-C , 46-C ) :   1.6114 B( 45-C , 79-H ) :   0.9530
B( 46-C , 47-C ) :   1.0066 B( 46-C , 56-S ) :   0.9994 B( 47-C , 48-O ) :   2.0486
B( 47-C , 49-N ) :   1.0651 B( 49-N , 50-C ) :   1.2010 B( 49-N , 57-C ) :   0.9348
B( 50-C , 51-C ) :   1.5443 B( 50-C , 56-S ) :   1.0984 B( 51-C , 52-C ) :   1.1714
B( 51-C , 54-C ) :   1.1539 B( 52-C , 53-N ) :   3.0101 B( 54-C , 55-N ) :   3.0330
B( 57-C , 80-H ) :   0.9437 B( 57-C , 81-H ) :   0.9689 B( 57-C , 82-H ) :   0.9692

-----------------------------------------------------------------------------
         ABSORPTION SPECTRUM VIA TRANSITION ELECTRIC DIPOLE MOMENTS
-----------------------------------------------------------------------------
State   Energy  Wavelength   fosc         T2         TX        TY        TZ
        (cm-1)    (nm)                  (au**2)     (au)      (au)      (au)
-----------------------------------------------------------------------------
   0   21018.6    475.8   2.869425494  44.94345  -0.55074  -3.01426   5.96275
   1   22756.2    439.4   0.523785733   7.57758  -0.81032   1.28931   2.29318
   2   26808.6    373.0   0.039974492   0.49089   0.14150   0.17698   0.66298
   3   28300.9    353.3   0.002800664   0.03258  -0.14355  -0.08195   0.07250
   4   30887.4    323.8   0.180045937   1.91901   0.54967   1.16366   0.51262
   5   31729.5    315.2   0.009197491   0.09543  -0.03230  -0.10079  -0.29022
   6   32290.0    309.7   0.061191550   0.62388   0.13054  -0.02541   0.77858
   7   32973.7    303.3   0.315689360   3.15187  -0.90561  -1.38668  -0.63942
   8   35108.2    284.8   0.000611478   0.00573   0.07506   0.00847  -0.00531
   9   35633.3    280.6   0.000666952   0.00616  -0.00232  -0.06462   0.04450
  10   36919.4    270.9   0.111683824   0.99589   0.41798   0.89108   0.16482
  11   37045.9    269.9   0.042313543   0.37602   0.16327   0.39649   0.43837
  12   37320.8    267.9   0.080710001   0.71195  -0.32488  -0.57477  -0.52540
  13   37509.5    266.6   0.020371568   0.17880  -0.10853  -0.40867   0.00217
  14   38513.3    259.7   0.047057393   0.40225   0.11407  -0.13098   0.60998
  15   38721.5    258.3   0.104613721   0.88943  -0.17907   0.10306  -0.92019
  16   38846.9    257.4   0.010812213   0.09163  -0.15715  -0.25857  -0.00848
  17   39626.7    252.4   0.078729146   0.65407  -0.34392  -0.72893  -0.06673
  18   39852.5    250.9   0.116307474   0.96079   0.35472   0.89018   0.20626
  19   40239.2    248.5   0.087244257   0.71378  -0.24629  -0.65704  -0.47056

FINAL SINGLE POINT ENERGY     -5108.980877930276

DIPOLE MOMENT
-------------
                                X             Y             Z
Electronic contribution:     -1.48448      11.95434     -20.34272
Nuclear contribution   :      2.95807     -12.53609      21.54743
                        -----------------------------------------
Total Dipole Moment    :      1.47359      -0.58175       1.20471
                        -----------------------------------------
Magnitude (a.u.)       :      1.99028
Magnitude (Debye)      :      5.05890

Rotational constants in cm-1:     0.002928     0.000244     0.000231
Rotational constants in MHz :    87.792012     7.320942     6.912621

                             ****ORCA TERMINATED NORMALLY****
TOTAL RUN TIME: 0 days 0 hours 6 minutes 21 seconds 765 msec
