                         Program Version 4.2.0 -  RELEASE  -
|  1> # ORCA input file
|  2> # SCF done       -161.270929790624          0.000416249920
|  3> ! CAM-B3LYP def2-SVP def2/J RIJCOSX Grid4 TightSCF
|  4> %maxcore 5000
|  5> %tddft
|  6>     Mode sTDDFT
|  7>     Ethresh 5.0
|  8>     maxcore 5000
|  9> end
| 10>
| 11> %pal
| 12>   nprocs 6
| 13>   end
| 14> * xyz 0 1
| 15>    C        0.91906        -3.36078         7.96402
| 16>    N        1.63830        -3.09361         6.74200
| 17>    C        2.59654        -2.13810         6.62483
| 18>    C        3.05617        -1.28678         7.59851
| 19>    C        4.06657        -0.35421         7.28522
| 20>    N        4.88846         0.40692         7.03891
| 21>    C        2.61670        -1.23935         8.93234
| 22>    N        2.30402        -1.14957        10.03396
| 23>    S        3.23778        -2.08995         5.00480
| 24>    C        2.18075        -3.40484         4.49018
| 25>    C        2.25414        -3.82332         3.19203
| 26>    C        1.56335        -4.83305         2.49791
| 27>    C        0.60172        -5.75842         2.89143
| 28>    C        0.18322        -6.59045         1.86830
| 29>    C        0.82554        -6.30873         0.65760
| 30>    S        1.94790        -5.02147         0.78905
| 31>    C        0.45321        -7.10036        -0.45160
| 32>    S        0.98479        -7.06105        -2.08859
| 33>    C       -0.09889        -8.36802        -2.46615
| 34>    C       -0.15539        -8.84359        -3.80736
| 35>    N        0.63728        -8.25866        -4.69455
| 36>    N        0.66400        -8.58228        -5.94654
| 37>    C       -0.10048        -9.52995        -6.47083
| 38>    C        0.01403        -9.76173        -7.87143
| 39>    C       -0.68214       -10.65750        -8.66409
| 40>    C       -0.31969       -10.59013       -10.00323
| 41>    C        0.66958        -9.62766       -10.22111
| 42>    S        1.14860        -8.81037        -8.78425
| 43>    C        1.10423        -9.47443       -11.55721
| 44>    S        2.27826        -8.42683       -12.23945
| 45>    C        1.95963        -9.07858       -13.83608
| 46>    C        2.68228        -8.56604       -14.92984
| 47>    C        2.57916        -8.90541       -16.24221
| 48>    S        1.50524       -10.08458       -16.96328
| 49>    C        2.13307        -9.73909       -18.56113
| 50>    C        1.64449       -10.39995       -19.65940
| 51>    C        0.62818       -11.36236       -19.48923
| 52>    N       -0.19968       -12.14401       -19.34825
| 53>    C        2.06154       -10.21477       -20.98881
| 54>    N        2.35719       -10.11136       -22.09363
| 55>    N        3.09986        -8.78831       -18.52169
| 56>    C        3.80406        -8.29880       -19.68190
| 57>    C        3.40476        -8.27475       -17.26386
| 58>    O        4.24526        -7.42258       -17.08504
| 59>    C        0.97890       -10.06431       -13.78447
| 60>    C        0.49233       -10.29540       -12.50872
| 61>   Si       -0.78087       -11.40792       -11.64916
| 62>    C       -2.56171       -11.03343       -12.19122
| 63>    C       -0.31973       -13.24781       -11.73113
| 64>    C       -0.99245       -10.25062        -5.62273
| 65>    N       -1.83796       -11.23587        -5.90455
| 66>    S       -2.59381       -11.67191        -4.54968
| 67>    N       -1.88449       -10.63028        -3.54554
| 68>    C       -1.01981        -9.89435        -4.23533
| 69>    C       -0.81803        -8.79334        -1.36247
| 70>    C       -0.51378        -8.08026        -0.21046
| 71>   Si       -1.02757        -8.02640         1.61349
| 72>    C       -2.84016        -7.51949         1.86380
| 73>    C       -0.52569        -9.58760         2.57122
| 74>    C        1.35377        -3.84140         5.60226
| 75>    O        0.51368        -4.71850         5.61632
| 76>    H        0.37377        -2.47590         8.29308
| 77>    H        1.60080        -3.67625         8.75425
| 78>    H        0.21588        -4.16462         7.74390
| 79>    H        2.97162        -3.28253         2.58390
| 80>    H        0.23417        -5.80168         3.89905
| 81>    H       -1.42245       -11.32185        -8.25692
| 82>    H        3.41803        -7.79876       -14.71797
| 83>    H        4.34309        -9.10655       -20.17774
| 84>    H        4.51187        -7.55064       -19.32337
| 85>    H        3.11328        -7.84087       -20.39045
| 86>    H        0.63650       -10.59411       -14.65471
| 87>    H       -3.27268       -11.56560       -11.56765
| 88>    H       -2.72420       -11.34623       -13.21756
| 89>    H       -2.78743        -9.97350       -12.12521
| 90>    H        0.70537       -13.42021       -11.41794
| 91>    H       -0.42792       -13.62485       -12.74293
| 92>    H       -0.96828       -13.83501       -11.08923
| 93>    H       -1.53278        -9.59375        -1.42303
| 94>    H       -3.03274        -7.29706         2.90824
| 95>    H       -3.50872        -8.32118         1.56735
| 96>    H       -3.09533        -6.63881         1.28252
| 97>    H        0.51128        -9.85359         2.39058
| 98>    H       -1.14263       -10.43214         2.28188
| 99>    H       -0.65042        -9.43691         3.63854
|100> *
|101>
|102>                          ****END OF INPUT****

CARTESIAN COORDINATES (ANGSTROEM)
---------------------------------
  C      0.919060   -3.360780    7.964020
  N      1.638300   -3.093610    6.742000
  C      2.596540   -2.138100    6.624830
  C      3.056170   -1.286780    7.598510
  C      4.066570   -0.354210    7.285220
  N      4.888460    0.406920    7.038910
  C      2.616700   -1.239350    8.932340
  N      2.304020   -1.149570   10.033960
  S      3.237780   -2.089950    5.004800
  C      2.180750   -3.404840    4.490180
  C      2.254140   -3.823320    3.192030
  C      1.563350   -4.833050    2.497910
  C      0.601720   -5.758420    2.891430
  C      0.183220   -6.590450    1.868300
  C      0.825540   -6.308730    0.657600
  S      1.947900   -5.021470    0.789050
  C      0.453210   -7.100360   -0.451600
  S      0.984790   -7.061050   -2.088590
  C     -0.098890   -8.368020   -2.466150
  C     -0.155390   -8.843590   -3.807360
  N      0.637280   -8.258660   -4.694550
  N      0.664000   -8.582280   -5.946540
  C     -0.100480   -9.529950   -6.470830
  C      0.014030   -9.761730   -7.871430
  C     -0.682140  -10.657500   -8.664090
  C     -0.319690  -10.590130  -10.003230
  C      0.669580   -9.627660  -10.221110
  S      1.148600   -8.810370   -8.784250
  C      1.104230   -9.474430  -11.557210
  S      2.278260   -8.426830  -12.239450
  C      1.959630   -9.078580  -13.836080
  C      2.682280   -8.566040  -14.929840
  C      2.579160   -8.905410  -16.242210
  S      1.505240  -10.084580  -16.963280
  C      2.133070   -9.739090  -18.561130
  C      1.644490  -10.399950  -19.659400
  C      0.628180  -11.362360  -19.489230
  N     -0.199680  -12.144010  -19.348250
  C      2.061540  -10.214770  -20.988810
  N      2.357190  -10.111360  -22.093630
  N      3.099860   -8.788310  -18.521690
  C      3.804060   -8.298800  -19.681900
  C      3.404760   -8.274750  -17.263860
  O      4.245260   -7.422580  -17.085040
  C      0.978900  -10.064310  -13.784470
  C      0.492330  -10.295400  -12.508720
  Si    -0.780870  -11.407920  -11.649160
  C     -2.561710  -11.033430  -12.191220
  C     -0.319730  -13.247810  -11.731130
  C     -0.992450  -10.250620   -5.622730
  N     -1.837960  -11.235870   -5.904550
  S     -2.593810  -11.671910   -4.549680
  N     -1.884490  -10.630280   -3.545540
  C     -1.019810   -9.894350   -4.235330
  C     -0.818030   -8.793340   -1.362470
  C     -0.513780   -8.080260   -0.210460
  Si    -1.027570   -8.026400    1.613490
  C     -2.840160   -7.519490    1.863800
  C     -0.525690   -9.587600    2.571220
  C      1.353770   -3.841400    5.602260
  O      0.513680   -4.718500    5.616320
  H      0.373770   -2.475900    8.293080
  H      1.600800   -3.676250    8.754250
  H      0.215880   -4.164620    7.743900
  H      2.971620   -3.282530    2.583900
  H      0.234170   -5.801680    3.899050
  H     -1.422450  -11.321850   -8.256920
  H      3.418030   -7.798760  -14.717970
  H      4.343090   -9.106550  -20.177740
  H      4.511870   -7.550640  -19.323370
  H      3.113280   -7.840870  -20.390450
  H      0.636500  -10.594110  -14.654710
  H     -3.272680  -11.565600  -11.567650
  H     -2.724200  -11.346230  -13.217560
  H     -2.787430   -9.973500  -12.125210
  H      0.705370  -13.420210  -11.417940
  H     -0.427920  -13.624850  -12.742930
  H     -0.968280  -13.835010  -11.089230
  H     -1.532780   -9.593750   -1.423030
  H     -3.032740   -7.297060    2.908240
  H     -3.508720   -8.321180    1.567350
  H     -3.095330   -6.638810    1.282520
  H      0.511280   -9.853590    2.390580
  H     -1.142630  -10.432140    2.281880
  H     -0.650420   -9.436910    3.638540

 Total Charge           Charge          ....    0
 Multiplicity           Mult            ....    1
 Number of Electrons    NEL             ....  490
 Basis Dimension        Dim             .... 1010

ORBITAL ENERGIES
----------------

  NO   OCC          E(Eh)            E(eV)
   0   2.0000     -89.055015     -2423.3102
   1   2.0000     -88.986285     -2421.4399
   2   2.0000     -88.979526     -2421.2560
   3   2.0000     -88.979395     -2421.2524
   4   2.0000     -88.977012     -2421.1876
   5   2.0000     -88.971498     -2421.0375
   6   2.0000     -88.971090     -2421.0264
   7   2.0000     -66.212633     -1801.7373
   8   2.0000     -66.211008     -1801.6931
   9   2.0000     -19.224007      -523.1118
  10   2.0000     -19.218836      -522.9711
  11   2.0000     -14.497496      -394.4969
  12   2.0000     -14.496885      -394.4803
  13   2.0000     -14.471268      -393.7832
  14   2.0000     -14.471181      -393.7808
  15   2.0000     -14.450373      -393.2146
  16   2.0000     -14.450258      -393.2115
  17   2.0000     -14.407680      -392.0529
  18   2.0000     -14.406968      -392.0335
  19   2.0000     -14.402669      -391.9166
  20   2.0000     -14.402139      -391.9021
  21   2.0000     -10.412534      -283.3395
  22   2.0000     -10.407373      -283.1990
  23   2.0000     -10.399236      -282.9776
  24   2.0000     -10.395562      -282.8776
  25   2.0000     -10.353080      -281.7216
  26   2.0000     -10.352778      -281.7134
  27   2.0000     -10.344669      -281.4927
  28   2.0000     -10.344507      -281.4883
  29   2.0000     -10.337517      -281.2981
  30   2.0000     -10.332067      -281.1498
  31   2.0000     -10.330961      -281.1198
  32   2.0000     -10.329427      -281.0780
  33   2.0000     -10.327728      -281.0318
  34   2.0000     -10.327318      -281.0206
  35   2.0000     -10.326121      -280.9880
  36   2.0000     -10.321871      -280.8724
  37   2.0000     -10.320995      -280.8486
  38   2.0000     -10.319352      -280.8038
  39   2.0000     -10.319328      -280.8032
  40   2.0000     -10.318753      -280.7875
  41   2.0000     -10.318693      -280.7859
  42   2.0000     -10.318417      -280.7784
  43   2.0000     -10.313439      -280.6429
  44   2.0000     -10.313214      -280.6368
  45   2.0000     -10.313009      -280.6312
  46   2.0000     -10.311746      -280.5969
  47   2.0000     -10.309676      -280.5405
  48   2.0000     -10.306237      -280.4470
  49   2.0000     -10.300252      -280.2841
  50   2.0000     -10.288884      -279.9748
  51   2.0000     -10.288612      -279.9674
  52   2.0000     -10.288562      -279.9660
  53   2.0000     -10.273677      -279.5610
  54   2.0000     -10.269648      -279.4513
  55   2.0000     -10.269505      -279.4474
  56   2.0000     -10.269378      -279.4440
  57   2.0000     -10.262082      -279.2454
  58   2.0000     -10.262040      -279.2443
  59   2.0000     -10.261114      -279.2191
  60   2.0000     -10.260991      -279.2158
  61   2.0000      -8.146679      -221.6824
  62   2.0000      -8.081733      -219.9151
  63   2.0000      -8.075798      -219.7536
  64   2.0000      -8.075000      -219.7319
  65   2.0000      -8.072544      -219.6651
  66   2.0000      -8.066151      -219.4911
  67   2.0000      -8.065809      -219.4818
  68   2.0000      -6.117917      -166.4770
  69   2.0000      -6.110007      -166.2617
  70   2.0000      -6.109153      -166.2385
  71   2.0000      -6.051658      -164.6740
  72   2.0000      -6.047586      -164.5632
  73   2.0000      -6.045683      -164.5114
  74   2.0000      -6.044049      -164.4669
  75   2.0000      -6.042230      -164.4174
  76   2.0000      -6.041768      -164.4049
  77   2.0000      -6.041547      -164.3988
  78   2.0000      -6.040146      -164.3607
  79   2.0000      -6.037736      -164.2951
  80   2.0000      -6.037341      -164.2844
  81   2.0000      -6.036026      -164.2486
  82   2.0000      -6.035394      -164.2314
  83   2.0000      -6.035010      -164.2210
  84   2.0000      -6.034898      -164.2179
  85   2.0000      -6.031179      -164.1167
  86   2.0000      -6.030868      -164.1083
  87   2.0000      -6.028497      -164.0437
  88   2.0000      -6.028136      -164.0339
  89   2.0000      -5.377514      -146.3296
  90   2.0000      -5.375850      -146.2843
  91   2.0000      -3.741200      -101.8032
  92   2.0000      -3.739680      -101.7619
  93   2.0000      -3.739469      -101.7561
  94   2.0000      -3.738468      -101.7289
  95   2.0000      -3.738049      -101.7175
  96   2.0000      -3.736840      -101.6846
  97   2.0000      -1.169381       -31.8205
  98   2.0000      -1.166190       -31.7336
  99   2.0000      -1.157986       -31.5104
 100   2.0000      -1.129052       -30.7231
 101   2.0000      -1.097130       -29.8544
 102   2.0000      -1.096922       -29.8488
 103   2.0000      -1.018490       -27.7145
 104   2.0000      -1.012856       -27.5612
 105   2.0000      -1.008787       -27.4505
 106   2.0000      -1.003698       -27.3120
 107   2.0000      -0.999057       -27.1857
 108   2.0000      -0.990554       -26.9543
 109   2.0000      -0.988009       -26.8851
 110   2.0000      -0.987022       -26.8582
 111   2.0000      -0.982493       -26.7350
 112   2.0000      -0.964283       -26.2395
 113   2.0000      -0.962710       -26.1967
 114   2.0000      -0.944668       -25.7057
 115   2.0000      -0.931473       -25.3467
 116   2.0000      -0.926803       -25.2196
 117   2.0000      -0.924065       -25.1451
 118   2.0000      -0.898736       -24.4558
 119   2.0000      -0.893231       -24.3061
 120   2.0000      -0.864972       -23.5371
 121   2.0000      -0.856853       -23.3162
 122   2.0000      -0.854072       -23.2405
 123   2.0000      -0.853188       -23.2164
 124   2.0000      -0.837603       -22.7923
 125   2.0000      -0.835319       -22.7302
 126   2.0000      -0.825108       -22.4523
 127   2.0000      -0.823071       -22.3969
 128   2.0000      -0.821068       -22.3424
 129   2.0000      -0.804999       -21.9051
 130   2.0000      -0.802399       -21.8344
 131   2.0000      -0.800076       -21.7712
 132   2.0000      -0.795518       -21.6471
 133   2.0000      -0.778716       -21.1899
 134   2.0000      -0.777760       -21.1639
 135   2.0000      -0.774897       -21.0860
 136   2.0000      -0.769134       -20.9292
 137   2.0000      -0.751860       -20.4592
 138   2.0000      -0.740115       -20.1395
 139   2.0000      -0.724979       -19.7277
 140   2.0000      -0.709169       -19.2975
 141   2.0000      -0.699586       -19.0367
 142   2.0000      -0.696299       -18.9473
 143   2.0000      -0.688810       -18.7435
 144   2.0000      -0.683225       -18.5915
 145   2.0000      -0.676065       -18.3967
 146   2.0000      -0.664147       -18.0724
 147   2.0000      -0.650851       -17.7106
 148   2.0000      -0.647810       -17.6278
 149   2.0000      -0.640921       -17.4404
 150   2.0000      -0.639111       -17.3911
 151   2.0000      -0.637370       -17.3437
 152   2.0000      -0.629689       -17.1347
 153   2.0000      -0.621648       -16.9159
 154   2.0000      -0.616485       -16.7754
 155   2.0000      -0.612327       -16.6623
 156   2.0000      -0.610208       -16.6046
 157   2.0000      -0.595979       -16.2174
 158   2.0000      -0.595728       -16.2106
 159   2.0000      -0.591381       -16.0923
 160   2.0000      -0.589719       -16.0471
 161   2.0000      -0.583864       -15.8877
 162   2.0000      -0.581338       -15.8190
 163   2.0000      -0.575789       -15.6680
 164   2.0000      -0.561550       -15.2806
 165   2.0000      -0.559345       -15.2205
 166   2.0000      -0.551672       -15.0117
 167   2.0000      -0.547317       -14.8933
 168   2.0000      -0.537880       -14.6365
 169   2.0000      -0.535381       -14.5685
 170   2.0000      -0.526791       -14.3347
 171   2.0000      -0.524813       -14.2809
 172   2.0000      -0.519912       -14.1475
 173   2.0000      -0.519519       -14.1368
 174   2.0000      -0.516169       -14.0457
 175   2.0000      -0.510024       -13.8785
 176   2.0000      -0.508987       -13.8502
 177   2.0000      -0.507269       -13.8035
 178   2.0000      -0.506756       -13.7895
 179   2.0000      -0.505097       -13.7444
 180   2.0000      -0.501600       -13.6492
 181   2.0000      -0.500142       -13.6096
 182   2.0000      -0.499637       -13.5958
 183   2.0000      -0.498593       -13.5674
 184   2.0000      -0.498421       -13.5627
 185   2.0000      -0.497096       -13.5267
 186   2.0000      -0.494783       -13.4637
 187   2.0000      -0.492251       -13.3948
 188   2.0000      -0.488725       -13.2989
 189   2.0000      -0.488016       -13.2796
 190   2.0000      -0.483987       -13.1700
 191   2.0000      -0.482106       -13.1188
 192   2.0000      -0.482079       -13.1180
 193   2.0000      -0.481625       -13.1057
 194   2.0000      -0.480444       -13.0735
 195   2.0000      -0.475082       -12.9276
 196   2.0000      -0.469658       -12.7800
 197   2.0000      -0.468382       -12.7453
 198   2.0000      -0.463556       -12.6140
 199   2.0000      -0.457918       -12.4606
 200   2.0000      -0.450173       -12.2498
 201   2.0000      -0.448974       -12.2172
 202   2.0000      -0.448285       -12.1984
 203   2.0000      -0.444283       -12.0896
 204   2.0000      -0.441514       -12.0142
 205   2.0000      -0.441314       -12.0088
 206   2.0000      -0.440411       -11.9842
 207   2.0000      -0.440222       -11.9791
 208   2.0000      -0.437656       -11.9092
 209   2.0000      -0.437139       -11.8952
 210   2.0000      -0.437007       -11.8916
 211   2.0000      -0.432355       -11.7650
 212   2.0000      -0.423256       -11.5174
 213   2.0000      -0.422933       -11.5086
 214   2.0000      -0.421418       -11.4674
 215   2.0000      -0.420272       -11.4362
 216   2.0000      -0.418932       -11.3997
 217   2.0000      -0.416039       -11.3210
 218   2.0000      -0.408578       -11.1180
 219   2.0000      -0.406194       -11.0531
 220   2.0000      -0.403543       -10.9810
 221   2.0000      -0.402198       -10.9444
 222   2.0000      -0.401612       -10.9284
 223   2.0000      -0.399763       -10.8781
 224   2.0000      -0.393969       -10.7204
 225   2.0000      -0.391894       -10.6640
 226   2.0000      -0.386980       -10.5303
 227   2.0000      -0.386733       -10.5236
 228   2.0000      -0.386112       -10.5066
 229   2.0000      -0.380886       -10.3644
 230   2.0000      -0.371373       -10.1056
 231   2.0000      -0.370656       -10.0861
 232   2.0000      -0.370459       -10.0807
 233   2.0000      -0.355658        -9.6780
 234   2.0000      -0.343500        -9.3471
 235   2.0000      -0.339587        -9.2406
 236   2.0000      -0.335694        -9.1347
 237   2.0000      -0.334530        -9.1030
 238   2.0000      -0.333646        -9.0790
 239   2.0000      -0.322981        -8.7888
 240   2.0000      -0.311984        -8.4895
 241   2.0000      -0.306341        -8.3360
 242   2.0000      -0.293319        -7.9816
 243   2.0000      -0.264325        -7.1926
 244   2.0000      -0.245017        -6.6672
 245   0.0000      -0.108798        -2.9605
 246   0.0000      -0.079781        -2.1709
 247   0.0000      -0.072894        -1.9836
 248   0.0000      -0.033902        -0.9225
 249   0.0000      -0.030240        -0.8229

MULLIKEN ATOMIC CHARGES
-----------------------
   0 C :    0.117263
   1 N :   -0.241153
   2 C :    0.124379
   3 C :   -0.306343
   4 C :   -0.220338
   5 N :    0.140627
   6 C :   -0.193906
   7 N :    0.163373
   8 S :    0.142985
   9 C :   -0.190871
  10 C :    0.111939
  11 C :   -0.117294
  12 C :   -0.005950
  13 C :   -0.136172
  14 C :   -0.081177
  15 S :    0.156230
  16 C :   -0.066720
  17 S :    0.207878
  18 C :   -0.129808
  19 C :    0.033072
  20 N :   -0.060523
  21 N :   -0.060794
  22 C :    0.031687
  23 C :   -0.132203
  24 C :   -0.044490
  25 C :   -0.127076
  26 C :   -0.068763
  27 S :    0.208009
  28 C :   -0.086430
  29 S :    0.175293
  30 C :   -0.100304
  31 C :    0.065178
  32 C :   -0.151320
  33 S :    0.106500
  34 C :    0.154761
  35 C :   -0.312089
  36 C :   -0.216161
  37 N :    0.140809
  38 C :   -0.195083
  39 N :    0.167899
  40 N :   -0.234587
  41 C :    0.114908
  42 C :    0.211806
  43 O :   -0.180639
  44 C :   -0.021666
  45 C :   -0.137576
  46 Si:    0.551465
  47 C :   -0.204999
  48 C :   -0.205777
  49 C :    0.022349
  50 N :   -0.257549
  51 S :    0.536777
  52 N :   -0.260291
  53 C :    0.021710
  54 C :   -0.049608
  55 C :   -0.125259
  56 Si:    0.553659
  57 C :   -0.205162
  58 C :   -0.206980
  59 C :    0.246347
  60 O :   -0.196185
  61 H :    0.064147
  62 H :    0.064220
  63 H :    0.064260
  64 H :    0.007299
  65 H :    0.010536
  66 H :   -0.009546
  67 H :    0.026473
  68 H :    0.064430
  69 H :    0.067314
  70 H :    0.064468
  71 H :   -0.000408
  72 H :    0.046493
  73 H :    0.050612
  74 H :    0.056932
  75 H :    0.056664
  76 H :    0.049916
  77 H :    0.046933
  78 H :   -0.009446
  79 H :    0.050001
  80 H :    0.044820
  81 H :    0.056271
  82 H :    0.056377
  83 H :    0.045006
  84 H :    0.050574
Sum of atomic charges:   -0.0000000

LOEWDIN ATOMIC CHARGES
----------------------
   0 C :    0.037101
   1 N :   -0.005514
   2 C :   -0.034278
   3 C :   -0.216164
   4 C :   -0.040911
   5 N :   -0.054242
   6 C :   -0.034456
   7 N :   -0.066697
   8 S :    0.423163
   9 C :   -0.225783
  10 C :   -0.001287
  11 C :   -0.185468
  12 C :   -0.014676
  13 C :   -0.204284
  14 C :   -0.173618
  15 S :    0.448703
  16 C :   -0.191106
  17 S :    0.484223
  18 C :   -0.182149
  19 C :   -0.029844
  20 N :   -0.063465
  21 N :   -0.063805
  22 C :   -0.029429
  23 C :   -0.183006
  24 C :   -0.036295
  25 C :   -0.200336
  26 C :   -0.190278
  27 S :    0.484566
  28 C :   -0.177275
  29 S :    0.460643
  30 C :   -0.190524
  31 C :    0.001105
  32 C :   -0.226681
  33 S :    0.426166
  34 C :   -0.027762
  35 C :   -0.211668
  36 C :   -0.040476
  37 N :   -0.055358
  38 C :   -0.034139
  39 N :   -0.061368
  40 N :   -0.007276
  41 C :    0.038293
  42 C :    0.069671
  43 O :   -0.172112
  44 C :   -0.038598
  45 C :   -0.200318
  46 Si:    0.681151
  47 C :   -0.241074
  48 C :   -0.241207
  49 C :   -0.053432
  50 N :   -0.267416
  51 S :    0.663385
  52 N :   -0.267591
  53 C :   -0.053179
  54 C :   -0.037024
  55 C :   -0.198217
  56 Si:    0.681747
  57 C :   -0.241367
  58 C :   -0.241545
  59 C :    0.075907
  60 O :   -0.173941
  61 H :    0.040547
  62 H :    0.040540
  63 H :    0.041841
  64 H :    0.038689
  65 H :    0.032398
  66 H :    0.029584
  67 H :    0.050031
  68 H :    0.040463
  69 H :    0.044074
  70 H :    0.040447
  71 H :    0.020185
  72 H :    0.036577
  73 H :    0.038059
  74 H :    0.041618
  75 H :    0.041512
  76 H :    0.038026
  77 H :    0.036723
  78 H :    0.029505
  79 H :    0.037978
  80 H :    0.035779
  81 H :    0.041275
  82 H :    0.041323
  83 H :    0.035721
  84 H :    0.037920

  Mayer bond orders larger than 0.100000
B(  0-C ,  1-N ) :   0.9353 B(  0-C , 61-H ) :   0.9691 B(  0-C , 62-H ) :   0.9692
B(  0-C , 63-H ) :   0.9428 B(  1-N ,  2-C ) :   1.2060 B(  1-N , 59-C ) :   1.0569
B(  2-C ,  3-C ) :   1.5411 B(  2-C ,  8-S ) :   1.1002 B(  3-C ,  4-C ) :   1.1508
B(  3-C ,  6-C ) :   1.1692 B(  4-C ,  5-N ) :   3.0327 B(  6-C ,  7-N ) :   3.0088
B(  8-S ,  9-C ) :   1.0058 B(  9-C , 10-C ) :   1.6633 B(  9-C , 59-C ) :   0.9862
B( 10-C , 11-C ) :   1.2296 B( 10-C , 64-H ) :   0.9258 B( 11-C , 12-C ) :   1.4236
B( 11-C , 15-S ) :   1.0722 B( 12-C , 13-C ) :   1.2905 B( 12-C , 65-H ) :   0.9808
B( 13-C , 14-C ) :   1.4725 B( 13-C , 56-Si) :   0.8658 B( 14-C , 15-S ) :   1.1487
B( 14-C , 16-C ) :   1.1619 B( 16-C , 17-S ) :   1.1098 B( 16-C , 18-C ) :   0.1035
B( 16-C , 55-C ) :   1.4977 B( 17-S , 18-C ) :   1.1014 B( 18-C , 19-C ) :   1.1642
B( 18-C , 54-C ) :   1.4878 B( 19-C , 20-N ) :   1.7041 B( 19-C , 22-C ) :   0.1155
B( 19-C , 53-C ) :   1.1186 B( 20-N , 21-N ) :   1.2337 B( 21-N , 22-C ) :   1.7042
B( 22-C , 23-C ) :   1.1640 B( 22-C , 49-C ) :   1.1188 B( 23-C , 24-C ) :   1.4920
B( 23-C , 26-C ) :   0.1039 B( 23-C , 27-S ) :   1.0999 B( 24-C , 25-C ) :   1.2542
B( 24-C , 66-H ) :   0.9885 B( 25-C , 26-C ) :   1.5010 B( 25-C , 46-Si) :   0.8759
B( 26-C , 27-S ) :   1.1115 B( 26-C , 28-C ) :   1.1630 B( 28-C , 29-S ) :   1.1432
B( 28-C , 45-C ) :   1.4902 B( 29-S , 30-C ) :   1.0911 B( 30-C , 31-C ) :   1.1514
B( 30-C , 44-C ) :   1.4238 B( 31-C , 32-C ) :   1.7138 B( 31-C , 67-H ) :   0.9436
B( 32-C , 33-S ) :   0.9904 B( 32-C , 42-C ) :   0.9778 B( 33-S , 34-C ) :   1.0757
B( 34-C , 35-C ) :   1.5645 B( 34-C , 40-N ) :   1.2133 B( 35-C , 36-C ) :   1.1488
B( 35-C , 38-C ) :   1.1672 B( 36-C , 37-N ) :   3.0330 B( 38-C , 39-N ) :   3.0115
B( 40-N , 41-C ) :   0.9337 B( 40-N , 42-C ) :   1.0345 B( 41-C , 68-H ) :   0.9694
B( 41-C , 69-H ) :   0.9440 B( 41-C , 70-H ) :   0.9694 B( 42-C , 43-O ) :   2.1565
B( 44-C , 45-C ) :   1.3291 B( 44-C , 71-H ) :   0.9803 B( 45-C , 46-Si) :   0.8618
B( 46-Si, 47-C ) :   1.0545 B( 46-Si, 48-C ) :   1.0535 B( 47-C , 72-H ) :   0.9552
B( 47-C , 73-H ) :   0.9548 B( 47-C , 74-H ) :   0.9508 B( 48-C , 75-H ) :   0.9513
B( 48-C , 76-H ) :   0.9552 B( 48-C , 77-H ) :   0.9551 B( 49-C , 50-N ) :   1.5552
B( 49-C , 53-C ) :   1.1892 B( 50-N , 51-S ) :   1.2675 B( 50-N , 52-N ) :   0.1434
B( 51-S , 52-N ) :   1.2678 B( 52-N , 53-C ) :   1.5533 B( 54-C , 55-C ) :   1.2541
B( 54-C , 78-H ) :   0.9904 B( 55-C , 56-Si) :   0.8742 B( 56-Si, 57-C ) :   1.0533
B( 56-Si, 58-C ) :   1.0531 B( 57-C , 79-H ) :   0.9555 B( 57-C , 80-H ) :   0.9553
B( 57-C , 81-H ) :   0.9510 B( 58-C , 82-H ) :   0.9515 B( 58-C , 83-H ) :   0.9552
B( 58-C , 84-H ) :   0.9553 B( 59-C , 60-O ) :   2.0554

-----------------------------------------------------------------------------
         ABSORPTION SPECTRUM VIA TRANSITION ELECTRIC DIPOLE MOMENTS
-----------------------------------------------------------------------------
State   Energy  Wavelength   fosc         T2         TX        TY        TZ
        (cm-1)    (nm)                  (au**2)     (au)      (au)      (au)
-----------------------------------------------------------------------------
   0   14745.3    678.2   1.946991404  43.46971   0.02475   1.83732   6.33193
   1   19949.5    501.3   0.000807079   0.01332   0.00910   0.04363   0.10645
   2   20869.3    479.2   0.409263446   6.45610   1.54109   2.01601  -0.12982
   3   22663.3    441.2   0.957628572  13.91074   0.27846   1.37230   3.45688
   4   23255.6    430.0   0.381226321   5.39674  -0.69168  -0.36903   2.18681
   5   28228.0    354.3   0.063887623   0.74510   0.20412   0.41478   0.72897
   6   29396.8    340.2   0.044616245   0.49965   0.04250   0.25059   0.65958
   7   29877.4    334.7   0.026724341   0.29447   0.25792   0.21086   0.42835
   8   31404.1    318.4   0.020141948   0.21115   0.28516   0.34659   0.09855
   9   31718.2    315.3   0.006307482   0.06547   0.02275   0.09342   0.23711
  10   31899.9    313.5   0.012849080   0.13260   0.23658   0.17724  -0.21265
  11   32256.6    310.0   0.032727504   0.33402  -0.09168   0.06289   0.56715
  12   33066.9    302.4   0.006270713   0.06243   0.22957  -0.08924   0.04202
  13   33149.3    301.7   0.028993240   0.28794  -0.36245  -0.39315   0.04470
  14   33977.1    294.3   0.131718443   1.27625   0.72003   0.79469   0.35536
  15   35037.4    285.4   0.000058697   0.00055   0.00410  -0.00879   0.02139
  16   35078.5    285.1   0.007978233   0.07488   0.13201   0.09452   0.22026
  17   35937.1    278.3   0.003655817   0.03349  -0.12627  -0.13189   0.01235
  18   36194.8    276.3   0.030584143   0.27818   0.35934   0.27922  -0.26662
  19   36428.5    274.5   0.088903083   0.80344  -0.12964   0.08317   0.88301
  20   37195.0    268.9   0.076260812   0.67498   0.43068   0.53485   0.45104
  21   37769.6    264.8   0.003502051   0.03052  -0.12817  -0.11550  -0.02749
  22   38083.4    262.6   0.168505127   1.45664  -0.35647  -0.62701  -0.96770
  23   38744.9    258.1   0.051620388   0.43861   0.30549   0.12964  -0.57313
  24   39238.1    254.9   0.005583011   0.04684   0.09394   0.00852  -0.19479
  25   39715.3    251.8   0.047999127   0.39788   0.08768   0.24214   0.57581
  26   39940.5    250.4   0.006862187   0.05656  -0.14074  -0.16805   0.09227
  27   39977.8    250.1   0.003782867   0.03115  -0.05089   0.16061   0.05259
  28   40220.0    248.6   0.039131165   0.32030  -0.30747  -0.37831  -0.28748

FINAL SINGLE POINT ENERGY     -5599.133796755705

DIPOLE MOMENT
-------------
                                X             Y             Z
Electronic contribution:     19.90599      18.21617      -5.11045
Nuclear contribution   :    -22.55007     -21.35499       5.77945
                        -----------------------------------------
Total Dipole Moment    :     -2.64408      -3.13882       0.66900
                        -----------------------------------------
Magnitude (a.u.)       :      4.15823
Magnitude (Debye)      :     10.56939

Rotational constants in cm-1:     0.002430     0.000204     0.000189
Rotational constants in MHz :    72.864007     6.104477     5.658273

                             ****ORCA TERMINATED NORMALLY****
TOTAL RUN TIME: 0 days 0 hours 6 minutes 59 seconds 729 msec
