                         Program Version 4.2.0 -  RELEASE  -
|  1> # ORCA input file
|  2> # SCF done       -132.023400807455          0.000332165917
|  3> ! CAM-B3LYP def2-SVP def2/J RIJCOSX Grid4 TightSCF
|  4> %maxcore 5000
|  5> %tddft
|  6>     Mode sTDDFT
|  7>     Ethresh 5.0
|  8>     maxcore 5000
|  9> end
| 10>
| 11> %pal
| 12>   nprocs 6
| 13>   end
| 14> * xyz 0 1
| 15>    C       -1.88612         3.70473        -0.74059
| 16>    C       -3.02003         3.37674        -0.04605
| 17>    C       -4.07576         4.24964         0.27406
| 18>    N       -4.96746         4.91087         0.56604
| 19>    C       -3.19386         2.05250         0.41043
| 20>    N       -3.33553         0.97681         0.78131
| 21>    N       -1.54271         4.91327        -1.25646
| 22>    C       -2.35726         6.10025        -1.15061
| 23>    C       -0.32675         4.97147        -1.92465
| 24>    O        0.10524         5.97934        -2.43263
| 25>    C        0.32241         3.65951        -1.91948
| 26>    S       -0.65829         2.49433        -1.06291
| 27>    C        1.51380         3.45816        -2.53535
| 28>    C        2.25363         2.25926        -2.64030
| 29>    C        1.99262         1.00305        -2.12056
| 30>    C        2.96987         0.08138        -2.48509
| 31>    C        3.99311         0.61225        -3.28839
| 32>    S        3.73900         2.28936        -3.58401
| 33>    C        4.95485        -0.32145        -3.67061
| 34>    C        4.67106        -1.57206        -3.15929
| 35>    S        3.21432        -1.60315        -2.19151
| 36>    C        5.42140        -2.75268        -3.38865
| 37>    N        6.47204        -2.79614        -4.15632
| 38>    C        6.95495        -4.03469        -4.22495
| 39>    C        6.27296        -5.01871        -3.48428
| 40>    S        4.94721        -4.30714        -2.65786
| 41>    N        6.73954        -6.26187        -3.57336
| 42>    C        7.77201        -6.31184        -4.36509
| 43>    S        8.26421        -4.75230        -5.07297
| 44>    C        8.44800        -7.51579        -4.68521
| 45>    C        8.13648        -8.76811        -4.19246
| 46>    C        8.95636        -9.74801        -4.74738
| 47>    C        9.89889        -9.25339        -5.66633
| 48>    S        9.76874        -7.53801        -5.83081
| 49>    C       10.70090       -10.22736        -6.25111
| 50>    C       10.38653       -11.49422        -5.79160
| 51>    S        9.08102       -11.45686        -4.59957
| 52>    C       10.89032       -12.77405        -6.11228
| 53>    C       11.83142       -13.17412        -7.01203
| 54>    C       12.65641       -12.41661        -7.94802
| 55>    O       12.69708       -11.21463        -8.10152
| 56>    N       13.44812       -13.27494        -8.70024
| 57>    C       13.32865       -14.60413        -8.44191
| 58>    C       13.98678       -15.64032        -9.05190
| 59>    C       14.92951       -15.52811       -10.08940
| 60>    N       15.70455       -15.50560       -10.93610
| 61>    C       13.72523       -16.96560        -8.64322
| 62>    N       13.51690       -18.04467        -8.31604
| 63>    S       12.17043       -14.89491        -7.16836
| 64>    C       14.33952       -12.72972        -9.69638
| 65>    H       -2.50959         6.37397        -0.10636
| 66>    H       -3.32613         5.94872        -1.62698
| 67>    H       -1.81685         6.89643        -1.66342
| 68>    H        1.93418         4.33451        -3.01510
| 69>    H        1.14138         0.76563        -1.51062
| 70>    H        5.81229        -0.12776        -4.28626
| 71>    H        7.35071        -8.93152        -3.47994
| 72>    H       11.46910       -10.04020        -6.97716
| 73>    H       10.42676       -13.57731        -5.54945
| 74>    H       14.22388       -11.64607        -9.66260
| 75>    H       14.07896       -13.09474       -10.69005
| 76>    H       15.37366       -12.99495        -9.47610
| 77> *
| 78>
| 79>                          ****END OF INPUT****

CARTESIAN COORDINATES (ANGSTROEM)
---------------------------------
  C     -1.886120    3.704730   -0.740590
  C     -3.020030    3.376740   -0.046050
  C     -4.075760    4.249640    0.274060
  N     -4.967460    4.910870    0.566040
  C     -3.193860    2.052500    0.410430
  N     -3.335530    0.976810    0.781310
  N     -1.542710    4.913270   -1.256460
  C     -2.357260    6.100250   -1.150610
  C     -0.326750    4.971470   -1.924650
  O      0.105240    5.979340   -2.432630
  C      0.322410    3.659510   -1.919480
  S     -0.658290    2.494330   -1.062910
  C      1.513800    3.458160   -2.535350
  C      2.253630    2.259260   -2.640300
  C      1.992620    1.003050   -2.120560
  C      2.969870    0.081380   -2.485090
  C      3.993110    0.612250   -3.288390
  S      3.739000    2.289360   -3.584010
  C      4.954850   -0.321450   -3.670610
  C      4.671060   -1.572060   -3.159290
  S      3.214320   -1.603150   -2.191510
  C      5.421400   -2.752680   -3.388650
  N      6.472040   -2.796140   -4.156320
  C      6.954950   -4.034690   -4.224950
  C      6.272960   -5.018710   -3.484280
  S      4.947210   -4.307140   -2.657860
  N      6.739540   -6.261870   -3.573360
  C      7.772010   -6.311840   -4.365090
  S      8.264210   -4.752300   -5.072970
  C      8.448000   -7.515790   -4.685210
  C      8.136480   -8.768110   -4.192460
  C      8.956360   -9.748010   -4.747380
  C      9.898890   -9.253390   -5.666330
  S      9.768740   -7.538010   -5.830810
  C     10.700900  -10.227360   -6.251110
  C     10.386530  -11.494220   -5.791600
  S      9.081020  -11.456860   -4.599570
  C     10.890320  -12.774050   -6.112280
  C     11.831420  -13.174120   -7.012030
  C     12.656410  -12.416610   -7.948020
  O     12.697080  -11.214630   -8.101520
  N     13.448120  -13.274940   -8.700240
  C     13.328650  -14.604130   -8.441910
  C     13.986780  -15.640320   -9.051900
  C     14.929510  -15.528110  -10.089400
  N     15.704550  -15.505600  -10.936100
  C     13.725230  -16.965600   -8.643220
  N     13.516900  -18.044670   -8.316040
  S     12.170430  -14.894910   -7.168360
  C     14.339520  -12.729720   -9.696380
  H     -2.509590    6.373970   -0.106360
  H     -3.326130    5.948720   -1.626980
  H     -1.816850    6.896430   -1.663420
  H      1.934180    4.334510   -3.015100
  H      1.141380    0.765630   -1.510620
  H      5.812290   -0.127760   -4.286260
  H      7.350710   -8.931520   -3.479940
  H     11.469100  -10.040200   -6.977160
  H     10.426760  -13.577310   -5.549450
  H     14.223880  -11.646070   -9.662600
  H     14.078960  -13.094740  -10.690050
  H     15.373660  -12.994950   -9.476100

 Total Charge           Charge          ....    0
 Multiplicity           Mult            ....    1
 Number of Electrons    NEL             ....  404
 Basis Dimension        Dim             ....  792

ORBITAL ENERGIES
----------------

  NO   OCC          E(Eh)            E(eV)
   0   2.0000     -88.994524     -2421.6641
   1   2.0000     -88.987627     -2421.4764
   2   2.0000     -88.985445     -2421.4171
   3   2.0000     -88.985409     -2421.4161
   4   2.0000     -88.983933     -2421.3759
   5   2.0000     -88.982783     -2421.3446
   6   2.0000     -88.981937     -2421.3216
   7   2.0000     -88.979320     -2421.2504
   8   2.0000     -19.233444      -523.3686
   9   2.0000     -19.227865      -523.2168
  10   2.0000     -14.504856      -394.6972
  11   2.0000     -14.504628      -394.6910
  12   2.0000     -14.438557      -392.8931
  13   2.0000     -14.438289      -392.8858
  14   2.0000     -14.413647      -392.2153
  15   2.0000     -14.413341      -392.2070
  16   2.0000     -14.409153      -392.0930
  17   2.0000     -14.408816      -392.0838
  18   2.0000     -10.421611      -283.5865
  19   2.0000     -10.416071      -283.4357
  20   2.0000     -10.406366      -283.1716
  21   2.0000     -10.402858      -283.0762
  22   2.0000     -10.366874      -282.0970
  23   2.0000     -10.366550      -282.0882
  24   2.0000     -10.346157      -281.5333
  25   2.0000     -10.345626      -281.5188
  26   2.0000     -10.345532      -281.5162
  27   2.0000     -10.340414      -281.3770
  28   2.0000     -10.340137      -281.3694
  29   2.0000     -10.338426      -281.3229
  30   2.0000     -10.336956      -281.2829
  31   2.0000     -10.334817      -281.2247
  32   2.0000     -10.334597      -281.2187
  33   2.0000     -10.334088      -281.2048
  34   2.0000     -10.331384      -281.1313
  35   2.0000     -10.329418      -281.0778
  36   2.0000     -10.327656      -281.0298
  37   2.0000     -10.326859      -281.0081
  38   2.0000     -10.325998      -280.9847
  39   2.0000     -10.325476      -280.9705
  40   2.0000     -10.324538      -280.9450
  41   2.0000     -10.322282      -280.8836
  42   2.0000     -10.319438      -280.8062
  43   2.0000     -10.317195      -280.7451
  44   2.0000     -10.315701      -280.7045
  45   2.0000     -10.315295      -280.6934
  46   2.0000     -10.312523      -280.6180
  47   2.0000     -10.307453      -280.4801
  48   2.0000     -10.305871      -280.4370
  49   2.0000     -10.303463      -280.3715
  50   2.0000      -8.090014      -220.1405
  51   2.0000      -8.083910      -219.9744
  52   2.0000      -8.081424      -219.9067
  53   2.0000      -8.081367      -219.9052
  54   2.0000      -8.079467      -219.8535
  55   2.0000      -8.078257      -219.8206
  56   2.0000      -8.077387      -219.7969
  57   2.0000      -8.074847      -219.7278
  58   2.0000      -6.059946      -164.8995
  59   2.0000      -6.055856      -164.7882
  60   2.0000      -6.053814      -164.7327
  61   2.0000      -6.050577      -164.6446
  62   2.0000      -6.050537      -164.6435
  63   2.0000      -6.050492      -164.6423
  64   2.0000      -6.049883      -164.6257
  65   2.0000      -6.048996      -164.6015
  66   2.0000      -6.047689      -164.5660
  67   2.0000      -6.046893      -164.5443
  68   2.0000      -6.046874      -164.5438
  69   2.0000      -6.046829      -164.5426
  70   2.0000      -6.045030      -164.4936
  71   2.0000      -6.044253      -164.4725
  72   2.0000      -6.044138      -164.4693
  73   2.0000      -6.043781      -164.4597
  74   2.0000      -6.043150      -164.4425
  75   2.0000      -6.043111      -164.4414
  76   2.0000      -6.042933      -164.4366
  77   2.0000      -6.040874      -164.3805
  78   2.0000      -6.040390      -164.3674
  79   2.0000      -6.039811      -164.3516
  80   2.0000      -6.038870      -164.3260
  81   2.0000      -6.036430      -164.2596
  82   2.0000      -1.178928       -32.0803
  83   2.0000      -1.175078       -31.9755
  84   2.0000      -1.110765       -30.2255
  85   2.0000      -1.105433       -30.0804
  86   2.0000      -1.105208       -30.0743
  87   2.0000      -1.071042       -29.1445
  88   2.0000      -1.033020       -28.1099
  89   2.0000      -1.029449       -28.0127
  90   2.0000      -1.009963       -27.4825
  91   2.0000      -1.005742       -27.3676
  92   2.0000      -0.993525       -27.0352
  93   2.0000      -0.989309       -26.9205
  94   2.0000      -0.983208       -26.7544
  95   2.0000      -0.980345       -26.6765
  96   2.0000      -0.964889       -26.2560
  97   2.0000      -0.963343       -26.2139
  98   2.0000      -0.934720       -25.4350
  99   2.0000      -0.932036       -25.3620
 100   2.0000      -0.928904       -25.2768
 101   2.0000      -0.902077       -24.5468
 102   2.0000      -0.893050       -24.3011
 103   2.0000      -0.888631       -24.1809
 104   2.0000      -0.883272       -24.0350
 105   2.0000      -0.880224       -23.9521
 106   2.0000      -0.860074       -23.4038
 107   2.0000      -0.836222       -22.7548
 108   2.0000      -0.832214       -22.6457
 109   2.0000      -0.829278       -22.5658
 110   2.0000      -0.824527       -22.4365
 111   2.0000      -0.821730       -22.3604
 112   2.0000      -0.810561       -22.0565
 113   2.0000      -0.800138       -21.7729
 114   2.0000      -0.775781       -21.1101
 115   2.0000      -0.756947       -20.5976
 116   2.0000      -0.732799       -19.9405
 117   2.0000      -0.718155       -19.5420
 118   2.0000      -0.704918       -19.1818
 119   2.0000      -0.700423       -19.0595
 120   2.0000      -0.692940       -18.8559
 121   2.0000      -0.689951       -18.7745
 122   2.0000      -0.674711       -18.3598
 123   2.0000      -0.673430       -18.3250
 124   2.0000      -0.665425       -18.1071
 125   2.0000      -0.658760       -17.9258
 126   2.0000      -0.650205       -17.6930
 127   2.0000      -0.647272       -17.6132
 128   2.0000      -0.643330       -17.5059
 129   2.0000      -0.639085       -17.3904
 130   2.0000      -0.622214       -16.9313
 131   2.0000      -0.603479       -16.4215
 132   2.0000      -0.603274       -16.4159
 133   2.0000      -0.603232       -16.4148
 134   2.0000      -0.597763       -16.2660
 135   2.0000      -0.592383       -16.1196
 136   2.0000      -0.589852       -16.0507
 137   2.0000      -0.585397       -15.9295
 138   2.0000      -0.574985       -15.6461
 139   2.0000      -0.562957       -15.3188
 140   2.0000      -0.562491       -15.3061
 141   2.0000      -0.556170       -15.1341
 142   2.0000      -0.547212       -14.8904
 143   2.0000      -0.544816       -14.8252
 144   2.0000      -0.536846       -14.6083
 145   2.0000      -0.534020       -14.5314
 146   2.0000      -0.527571       -14.3559
 147   2.0000      -0.525628       -14.3031
 148   2.0000      -0.520547       -14.1648
 149   2.0000      -0.518122       -14.0988
 150   2.0000      -0.515437       -14.0258
 151   2.0000      -0.512977       -13.9588
 152   2.0000      -0.510047       -13.8791
 153   2.0000      -0.508208       -13.8290
 154   2.0000      -0.505430       -13.7535
 155   2.0000      -0.502993       -13.6871
 156   2.0000      -0.500932       -13.6310
 157   2.0000      -0.499179       -13.5834
 158   2.0000      -0.497115       -13.5272
 159   2.0000      -0.491607       -13.3773
 160   2.0000      -0.478583       -13.0229
 161   2.0000      -0.475770       -12.9464
 162   2.0000      -0.470611       -12.8060
 163   2.0000      -0.467827       -12.7302
 164   2.0000      -0.465654       -12.6711
 165   2.0000      -0.461521       -12.5586
 166   2.0000      -0.457167       -12.4401
 167   2.0000      -0.454415       -12.3653
 168   2.0000      -0.447521       -12.1777
 169   2.0000      -0.446824       -12.1587
 170   2.0000      -0.444873       -12.1056
 171   2.0000      -0.444774       -12.1029
 172   2.0000      -0.442987       -12.0543
 173   2.0000      -0.442652       -12.0452
 174   2.0000      -0.438426       -11.9302
 175   2.0000      -0.433674       -11.8009
 176   2.0000      -0.429160       -11.6780
 177   2.0000      -0.428670       -11.6647
 178   2.0000      -0.426865       -11.6156
 179   2.0000      -0.425448       -11.5770
 180   2.0000      -0.422857       -11.5065
 181   2.0000      -0.419383       -11.4120
 182   2.0000      -0.415367       -11.3027
 183   2.0000      -0.412090       -11.2135
 184   2.0000      -0.408038       -11.1033
 185   2.0000      -0.406151       -11.0519
 186   2.0000      -0.394045       -10.7225
 187   2.0000      -0.387324       -10.5396
 188   2.0000      -0.382833       -10.4174
 189   2.0000      -0.379746       -10.3334
 190   2.0000      -0.378792       -10.3074
 191   2.0000      -0.369460       -10.0535
 192   2.0000      -0.363787        -9.8991
 193   2.0000      -0.354097        -9.6355
 194   2.0000      -0.344399        -9.3716
 195   2.0000      -0.333862        -9.0849
 196   2.0000      -0.322589        -8.7781
 197   2.0000      -0.316349        -8.6083
 198   2.0000      -0.314478        -8.5574
 199   2.0000      -0.303706        -8.2643
 200   2.0000      -0.281012        -7.6467
 201   2.0000      -0.256554        -6.9812
 202   0.0000      -0.101218        -2.7543
 203   0.0000      -0.085378        -2.3233
 204   0.0000      -0.052516        -1.4290
 205   0.0000      -0.029374        -0.7993
 206   0.0000      -0.013557        -0.3689

MULLIKEN ATOMIC CHARGES
-----------------------
   0 C :    0.155426
   1 C :   -0.311958
   2 C :   -0.195853
   3 N :    0.174206
   4 C :   -0.211658
   5 N :    0.148478
   6 N :   -0.236333
   7 C :    0.116274
   8 C :    0.213093
   9 O :   -0.173540
  10 C :   -0.145328
  11 S :    0.113826
  12 C :    0.065286
  13 C :   -0.113204
  14 C :   -0.011389
  15 C :   -0.032207
  16 C :   -0.004939
  17 S :    0.165616
  18 C :   -0.030487
  19 C :   -0.042804
  20 S :    0.161588
  21 C :   -0.100721
  22 N :   -0.031041
  23 C :   -0.056617
  24 C :   -0.056191
  25 S :    0.137280
  26 N :   -0.030475
  27 C :   -0.100605
  28 S :    0.137762
  29 C :   -0.043715
  30 C :   -0.030701
  31 C :    0.003337
  32 C :   -0.029737
  33 S :    0.160167
  34 C :    0.004418
  35 C :   -0.129754
  36 S :    0.143821
  37 C :    0.109855
  38 C :   -0.179116
  39 C :    0.247468
  40 O :   -0.191524
  41 N :   -0.239147
  42 C :    0.128462
  43 C :   -0.306383
  44 C :   -0.195955
  45 N :    0.169992
  46 C :   -0.221743
  47 N :    0.149453
  48 S :    0.149433
  49 C :    0.113433
  50 H :    0.065949
  51 H :    0.065194
  52 H :    0.067931
  53 H :    0.028837
  54 H :    0.010381
  55 H :    0.007671
  56 H :    0.007907
  57 H :    0.019374
  58 H :    0.010062
  59 H :    0.067332
  60 H :    0.066821
  61 H :    0.066993
Sum of atomic charges:    0.0000000

LOEWDIN ATOMIC CHARGES
----------------------
   0 C :   -0.027042
   1 C :   -0.205696
   2 C :   -0.033900
   3 N :   -0.055892
   4 C :   -0.041176
   5 N :   -0.048125
   6 N :   -0.006907
   7 C :    0.039585
   8 C :    0.070770
   9 O :   -0.165388
  10 C :   -0.216854
  11 S :    0.429604
  12 C :   -0.002334
  13 C :   -0.174806
  14 C :   -0.052111
  15 C :   -0.195112
  16 C :   -0.190206
  17 S :    0.443812
  18 C :   -0.037377
  19 C :   -0.184820
  20 S :    0.431295
  21 C :   -0.132838
  22 N :   -0.095893
  23 C :   -0.209430
  24 C :   -0.209455
  25 S :    0.412778
  26 N :   -0.095346
  27 C :   -0.132643
  28 S :    0.412685
  29 C :   -0.184002
  30 C :   -0.038522
  31 C :   -0.187702
  32 C :   -0.197940
  33 S :    0.431286
  34 C :   -0.027589
  35 C :   -0.172011
  36 S :    0.430886
  37 C :   -0.003218
  38 C :   -0.215046
  39 C :    0.077205
  40 O :   -0.166476
  41 N :   -0.004357
  42 C :   -0.033332
  43 C :   -0.210823
  44 C :   -0.034507
  45 N :   -0.060923
  46 C :   -0.041227
  47 N :   -0.049081
  48 S :    0.427357
  49 C :    0.038067
  50 H :    0.041109
  51 H :    0.041020
  52 H :    0.044597
  53 H :    0.050897
  54 H :    0.026865
  55 H :    0.043225
  56 H :    0.042887
  57 H :    0.038018
  58 H :    0.039968
  59 H :    0.043113
  60 H :    0.041520
  61 H :    0.041558

  Mayer bond orders larger than 0.100000
B(  0-C ,  1-C ) :   1.5820 B(  0-C ,  6-N ) :   1.2040 B(  0-C , 11-S ) :   1.0704
B(  1-C ,  2-C ) :   1.1662 B(  1-C ,  4-C ) :   1.1433 B(  2-C ,  3-N ) :   3.0135
B(  4-C ,  5-N ) :   3.0343 B(  6-N ,  7-C ) :   0.9328 B(  6-N ,  8-C ) :   1.0432
B(  7-C , 50-H ) :   0.9692 B(  7-C , 51-H ) :   0.9691 B(  7-C , 52-H ) :   0.9444
B(  8-C ,  9-O ) :   2.1635 B(  8-C , 10-C ) :   0.9632 B( 10-C , 11-S ) :   0.9985
B( 10-C , 12-C ) :   1.7338 B( 12-C , 13-C ) :   1.1405 B( 12-C , 53-H ) :   0.9430
B( 13-C , 14-C ) :   1.4750 B( 13-C , 17-S ) :   1.0924 B( 14-C , 15-C ) :   1.3062
B( 14-C , 54-H ) :   0.9803 B( 15-C , 16-C ) :   1.3999 B( 15-C , 20-S ) :   1.0766
B( 16-C , 17-S ) :   1.0847 B( 16-C , 18-C ) :   1.2339 B( 18-C , 19-C ) :   1.5281
B( 18-C , 55-H ) :   1.0142 B( 19-C , 20-S ) :   1.1014 B( 19-C , 21-C ) :   1.1113
B( 21-C , 22-N ) :   1.7334 B( 21-C , 25-S ) :   1.0863 B( 22-N , 23-C ) :   1.3986
B( 22-N , 25-S ) :   0.1012 B( 23-C , 24-C ) :   1.2924 B( 23-C , 28-S ) :   1.1024
B( 24-C , 25-S ) :   1.1025 B( 24-C , 26-N ) :   1.3997 B( 26-N , 27-C ) :   1.7326
B( 26-N , 28-S ) :   0.1010 B( 27-C , 28-S ) :   1.0860 B( 27-C , 29-C ) :   1.1119
B( 29-C , 30-C ) :   1.5229 B( 29-C , 33-S ) :   1.1051 B( 30-C , 31-C ) :   1.2363
B( 30-C , 56-H ) :   1.0151 B( 31-C , 32-C ) :   1.3846 B( 31-C , 36-S ) :   1.0879
B( 32-C , 33-S ) :   1.0726 B( 32-C , 34-C ) :   1.2689 B( 34-C , 35-C ) :   1.4772
B( 34-C , 57-H ) :   0.9811 B( 35-C , 36-S ) :   1.0744 B( 35-C , 37-C ) :   1.2120
B( 37-C , 38-C ) :   1.6928 B( 37-C , 58-H ) :   0.9262 B( 38-C , 39-C ) :   0.9700
B( 38-C , 48-S ) :   1.0106 B( 39-C , 40-O ) :   2.0602 B( 39-C , 41-N ) :   1.0681
B( 41-N , 42-C ) :   1.1969 B( 41-N , 49-C ) :   0.9324 B( 42-C , 43-C ) :   1.5539
B( 42-C , 48-S ) :   1.0934 B( 43-C , 44-C ) :   1.1694 B( 43-C , 46-C ) :   1.1512
B( 44-C , 45-N ) :   3.0115 B( 46-C , 47-N ) :   3.0343 B( 49-C , 59-H ) :   0.9433
B( 49-C , 60-H ) :   0.9692 B( 49-C , 61-H ) :   0.9691

-----------------------------------------------------------------------------
         ABSORPTION SPECTRUM VIA TRANSITION ELECTRIC DIPOLE MOMENTS
-----------------------------------------------------------------------------
State   Energy  Wavelength   fosc         T2         TX        TY        TZ
        (cm-1)    (nm)                  (au**2)     (au)      (au)      (au)
-----------------------------------------------------------------------------
   0   19219.0    520.3   3.369763806  57.72239   4.34567  -5.84297  -2.16730
   1   23586.2    424.0   0.059368027   0.82865  -0.82290   0.00535  -0.38917
   2   27425.0    364.6   0.009034921   0.10846   0.13461   0.24829   0.16938
   3   29299.1    341.3   0.383144285   4.30510  -1.66113  -0.03217   1.24287
   4   30451.6    328.4   0.126344295   1.36591  -0.83154  -0.19041   0.79887
   5   30959.2    323.0   0.051833123   0.55118   0.56692  -0.39455  -0.27223
   6   31618.3    316.3   0.113338397   1.18009   0.53092   0.81491  -0.48387
   7   33857.4    295.4   0.074368204   0.72312  -0.41177  -0.68309   0.29486
   8   34103.9    293.2   0.125766878   1.21405  -0.13008   1.08859  -0.11007
   9   34971.5    285.9   0.005098198   0.04799  -0.13568  -0.15050  -0.08328
  10   35812.9    279.2   0.003961144   0.03641  -0.13087  -0.03107   0.13536
  11   37370.4    267.6   0.050521712   0.44507  -0.37244   0.54141   0.11504
  12   37586.9    266.1   0.032187636   0.28192  -0.35631  -0.15440   0.36212
  13   38030.9    262.9   0.052183713   0.45172   0.52467   0.11112  -0.40510
  14   38919.0    256.9   0.034836085   0.29467  -0.41567  -0.03978   0.34686
  15   38995.2    256.4   0.001825483   0.01541   0.09732   0.06827  -0.03577
  16   39728.1    251.7   0.027965775   0.23174  -0.33553  -0.26224   0.22449
  17   39936.1    250.4   0.065592900   0.54071  -0.51574   0.07152   0.51923

FINAL SINGLE POINT ENERGY     -4997.343369835665

DIPOLE MOMENT
-------------
                                X             Y             Z
Electronic contribution:      0.45549      -9.70884       6.23441
Nuclear contribution   :      0.25472      11.93140      -6.18938
                        -----------------------------------------
Total Dipole Moment    :      0.71020       2.22256       0.04503
                        -----------------------------------------
Magnitude (a.u.)       :      2.33371
Magnitude (Debye)      :      5.93181

Rotational constants in cm-1:     0.007016     0.000242     0.000236
Rotational constants in MHz :   210.324576     7.260524     7.071571

                             ****ORCA TERMINATED NORMALLY****
TOTAL RUN TIME: 0 days 0 hours 4 minutes 0 seconds 434 msec
