                         Program Version 4.2.0 -  RELEASE  -
|  1> # ORCA input file
|  2> # SCF done       -136.860093425215          0.000230785443
|  3> ! CAM-B3LYP def2-SVP def2/J RIJCOSX Grid4 TightSCF
|  4> %maxcore 5000
|  5> %tddft
|  6>     Mode sTDDFT
|  7>     Ethresh 5.0
|  8>     maxcore 5000
|  9> end
| 10>
| 11> %pal
| 12>   nprocs 6
| 13>   end
| 14> * xyz 0 1
| 15>    C       -4.99792        -0.01331        -3.22040
| 16>    C       -5.60761        -0.56080        -2.10516
| 17>    C       -4.93719        -1.49160        -1.33819
| 18>    F       -5.60561        -1.98740        -0.27167
| 19>    C       -3.63060        -1.92509        -1.61156
| 20>    C       -3.03965        -1.36291        -2.75334
| 21>    C       -3.71637        -0.43962        -3.51946
| 22>    F       -3.10050         0.06833        -4.61256
| 23>    C       -2.98340        -2.92860        -0.80513
| 24>    C       -1.65629        -3.22337        -0.86336
| 25>    C       -1.20856        -4.35505        -0.07277
| 26>    O        0.08078        -4.80199        -0.13560
| 27>    C        0.86207        -4.23649        -1.16531
| 28>    C        0.59779        -2.74029        -1.25083
| 29>    O       -0.74674        -2.51569        -1.60777
| 30>    C       -2.14967        -4.94252         0.70868
| 31>   Si       -3.80854        -4.05715         0.53687
| 32>    C       -4.13244        -2.86945         2.00362
| 33>    C       -5.20388        -4.94192        -0.42531
| 34>    C       -2.00292        -6.06022         1.57279
| 35>    C       -0.86410        -6.81895         1.81364
| 36>    C       -0.89349        -7.91490         2.66768
| 37>    C       -2.04117        -8.32898         3.32882
| 38>    C       -3.20832        -7.52893         3.17909
| 39>    N       -4.30678        -7.76106         3.91736
| 40>    C       -5.35036        -6.99887         3.72179
| 41>    C       -5.35309        -5.95395         2.78337
| 42>    N       -4.27242        -5.67236         2.10249
| 43>    C       -3.18152        -6.42309         2.28226
| 44>    C       -2.04142        -9.49944         4.16807
| 45>    C       -3.05860       -10.39539         4.24056
| 46>    C       -2.90349       -11.47689         5.21105
| 47>    O       -3.92998       -12.32114         5.47755
| 48>    C       -5.15991       -11.95610         4.89115
| 49>    C       -4.93657       -11.52311         3.44881
| 50>    O       -4.13544       -10.36218         3.41292
| 51>    C       -1.71528       -11.54119         5.86293
| 52>   Si       -0.66601       -10.06024         5.33707
| 53>    C        0.95748       -10.62989         4.51870
| 54>    C       -0.33842        -8.76113         6.69039
| 55>    C       -1.34537       -12.57908         6.79860
| 56>    C       -0.61915       -12.26999         7.95012
| 57>    C       -0.25515       -13.26579         8.83136
| 58>    F        0.43979       -12.92745         9.94072
| 59>    C       -0.57158       -14.59626         8.62048
| 60>    C       -1.26535       -14.92466         7.46895
| 61>    C       -1.63459       -13.93139         6.58326
| 62>    F       -2.24827       -14.30978         5.44172
| 63>    H       -5.49512         0.71368        -3.84082
| 64>    H       -6.60864        -0.27428        -1.82335
| 65>    H       -2.04786        -1.65714        -3.04670
| 66>    H        1.90367        -4.44788        -0.91560
| 67>    H        0.61185        -4.70809        -2.12615
| 68>    H        1.20505        -2.26955        -2.02585
| 69>    H        0.81424        -2.27370        -0.27924
| 70>    H       -3.80663        -1.86188         1.77194
| 71>    H       -3.61030        -3.19517         2.89687
| 72>    H       -5.18975        -2.82268         2.23264
| 73>    H       -5.25473        -4.59479        -1.45129
| 74>    H       -6.16456        -4.74243         0.03338
| 75>    H       -5.06078        -6.01671        -0.44160
| 76>    H        0.05468        -6.55833         1.31412
| 77>    H        0.00621        -8.49638         2.80381
| 78>    H       -6.21952        -7.20050         4.33386
| 79>    H       -6.22172        -5.33675         2.60927
| 80>    H       -5.80172       -12.83641         4.95216
| 81>    H       -5.61054       -11.12693         5.45479
| 82>    H       -5.87599       -11.26368         2.95788
| 83>    H       -4.44464       -12.33768         2.89778
| 84>    H        0.77380       -11.19127         3.60784
| 85>    H        1.51085       -11.27276         5.19665
| 86>    H        1.59544        -9.78682         4.27438
| 87>    H       -1.20981        -8.60733         7.31919
| 88>    H       -0.08837        -7.80764         6.23533
| 89>    H        0.49334        -9.04784         7.32574
| 90>    H       -0.35913       -11.24559         8.15827
| 91>    H       -0.27225       -15.34737         9.33257
| 92>    H       -1.51741       -15.94939         7.24603
| 93> *
| 94>
| 95>                          ****END OF INPUT****

CARTESIAN COORDINATES (ANGSTROEM)
---------------------------------
  C     -4.997920   -0.013310   -3.220400
  C     -5.607610   -0.560800   -2.105160
  C     -4.937190   -1.491600   -1.338190
  F     -5.605610   -1.987400   -0.271670
  C     -3.630600   -1.925090   -1.611560
  C     -3.039650   -1.362910   -2.753340
  C     -3.716370   -0.439620   -3.519460
  F     -3.100500    0.068330   -4.612560
  C     -2.983400   -2.928600   -0.805130
  C     -1.656290   -3.223370   -0.863360
  C     -1.208560   -4.355050   -0.072770
  O      0.080780   -4.801990   -0.135600
  C      0.862070   -4.236490   -1.165310
  C      0.597790   -2.740290   -1.250830
  O     -0.746740   -2.515690   -1.607770
  C     -2.149670   -4.942520    0.708680
  Si    -3.808540   -4.057150    0.536870
  C     -4.132440   -2.869450    2.003620
  C     -5.203880   -4.941920   -0.425310
  C     -2.002920   -6.060220    1.572790
  C     -0.864100   -6.818950    1.813640
  C     -0.893490   -7.914900    2.667680
  C     -2.041170   -8.328980    3.328820
  C     -3.208320   -7.528930    3.179090
  N     -4.306780   -7.761060    3.917360
  C     -5.350360   -6.998870    3.721790
  C     -5.353090   -5.953950    2.783370
  N     -4.272420   -5.672360    2.102490
  C     -3.181520   -6.423090    2.282260
  C     -2.041420   -9.499440    4.168070
  C     -3.058600  -10.395390    4.240560
  C     -2.903490  -11.476890    5.211050
  O     -3.929980  -12.321140    5.477550
  C     -5.159910  -11.956100    4.891150
  C     -4.936570  -11.523110    3.448810
  O     -4.135440  -10.362180    3.412920
  C     -1.715280  -11.541190    5.862930
  Si    -0.666010  -10.060240    5.337070
  C      0.957480  -10.629890    4.518700
  C     -0.338420   -8.761130    6.690390
  C     -1.345370  -12.579080    6.798600
  C     -0.619150  -12.269990    7.950120
  C     -0.255150  -13.265790    8.831360
  F      0.439790  -12.927450    9.940720
  C     -0.571580  -14.596260    8.620480
  C     -1.265350  -14.924660    7.468950
  C     -1.634590  -13.931390    6.583260
  F     -2.248270  -14.309780    5.441720
  H     -5.495120    0.713680   -3.840820
  H     -6.608640   -0.274280   -1.823350
  H     -2.047860   -1.657140   -3.046700
  H      1.903670   -4.447880   -0.915600
  H      0.611850   -4.708090   -2.126150
  H      1.205050   -2.269550   -2.025850
  H      0.814240   -2.273700   -0.279240
  H     -3.806630   -1.861880    1.771940
  H     -3.610300   -3.195170    2.896870
  H     -5.189750   -2.822680    2.232640
  H     -5.254730   -4.594790   -1.451290
  H     -6.164560   -4.742430    0.033380
  H     -5.060780   -6.016710   -0.441600
  H      0.054680   -6.558330    1.314120
  H      0.006210   -8.496380    2.803810
  H     -6.219520   -7.200500    4.333860
  H     -6.221720   -5.336750    2.609270
  H     -5.801720  -12.836410    4.952160
  H     -5.610540  -11.126930    5.454790
  H     -5.875990  -11.263680    2.957880
  H     -4.444640  -12.337680    2.897780
  H      0.773800  -11.191270    3.607840
  H      1.510850  -11.272760    5.196650
  H      1.595440   -9.786820    4.274380
  H     -1.209810   -8.607330    7.319190
  H     -0.088370   -7.807640    6.235330
  H      0.493340   -9.047840    7.325740
  H     -0.359130  -11.245590    8.158270
  H     -0.272250  -15.347370    9.332570
  H     -1.517410  -15.949390    7.246030

 Total Charge           Charge          ....    0
 Multiplicity           Mult            ....    1
 Number of Electrons    NEL             ....  356
 Basis Dimension        Dim             ....  830

ORBITAL ENERGIES
----------------

  NO   OCC          E(Eh)            E(eV)
   0   2.0000     -66.186688     -1801.0313
   1   2.0000     -66.174891     -1800.7103
   2   2.0000     -24.767693      -673.9632
   3   2.0000     -24.762004      -673.8084
   4   2.0000     -24.760149      -673.7579
   5   2.0000     -24.753241      -673.5699
   6   2.0000     -19.251935      -523.8718
   7   2.0000     -19.249386      -523.8024
   8   2.0000     -19.247096      -523.7401
   9   2.0000     -19.244065      -523.6576
  10   2.0000     -14.436043      -392.8247
  11   2.0000     -14.416295      -392.2873
  12   2.0000     -10.341247      -281.3996
  13   2.0000     -10.338478      -281.3243
  14   2.0000     -10.333815      -281.1974
  15   2.0000     -10.333567      -281.1907
  16   2.0000     -10.331885      -281.1449
  17   2.0000     -10.331558      -281.1360
  18   2.0000     -10.331239      -281.1273
  19   2.0000     -10.331134      -281.1244
  20   2.0000     -10.331020      -281.1213
  21   2.0000     -10.330281      -281.1012
  22   2.0000     -10.326526      -280.9990
  23   2.0000     -10.319597      -280.8105
  24   2.0000     -10.318518      -280.7812
  25   2.0000     -10.312023      -280.6044
  26   2.0000     -10.306070      -280.4424
  27   2.0000     -10.305048      -280.4146
  28   2.0000     -10.281333      -279.7693
  29   2.0000     -10.272910      -279.5401
  30   2.0000     -10.272870      -279.5390
  31   2.0000     -10.271764      -279.5089
  32   2.0000     -10.271308      -279.4965
  33   2.0000     -10.269558      -279.4489
  34   2.0000     -10.267691      -279.3981
  35   2.0000     -10.267118      -279.3825
  36   2.0000     -10.265523      -279.3391
  37   2.0000     -10.263089      -279.2728
  38   2.0000     -10.261234      -279.2224
  39   2.0000     -10.253472      -279.0112
  40   2.0000     -10.243588      -278.7422
  41   2.0000     -10.242965      -278.7253
  42   2.0000     -10.240981      -278.6713
  43   2.0000     -10.239474      -278.6302
  44   2.0000     -10.225684      -278.2550
  45   2.0000     -10.225500      -278.2500
  46   2.0000     -10.219536      -278.0877
  47   2.0000     -10.217526      -278.0330
  48   2.0000      -5.351706      -145.6273
  49   2.0000      -5.334197      -145.1509
  50   2.0000      -3.715251      -101.0971
  51   2.0000      -3.713570      -101.0514
  52   2.0000      -3.713061      -101.0375
  53   2.0000      -3.698657      -100.6456
  54   2.0000      -3.696748      -100.5936
  55   2.0000      -3.695016      -100.5465
  56   2.0000      -1.280060       -34.8322
  57   2.0000      -1.275144       -34.6984
  58   2.0000      -1.273622       -34.6570
  59   2.0000      -1.266013       -34.4500
  60   2.0000      -1.177437       -32.0397
  61   2.0000      -1.173482       -31.9321
  62   2.0000      -1.138167       -30.9711
  63   2.0000      -1.133876       -30.8543
  64   2.0000      -1.081516       -29.4296
  65   2.0000      -1.004471       -27.3330
  66   2.0000      -0.952748       -25.9256
  67   2.0000      -0.945510       -25.7286
  68   2.0000      -0.943187       -25.6654
  69   2.0000      -0.918202       -24.9856
  70   2.0000      -0.908295       -24.7160
  71   2.0000      -0.869323       -23.6555
  72   2.0000      -0.856417       -23.3043
  73   2.0000      -0.851279       -23.1645
  74   2.0000      -0.845353       -23.0032
  75   2.0000      -0.830695       -22.6044
  76   2.0000      -0.825346       -22.4588
  77   2.0000      -0.820136       -22.3170
  78   2.0000      -0.812754       -22.1162
  79   2.0000      -0.802410       -21.8347
  80   2.0000      -0.788244       -21.4492
  81   2.0000      -0.784076       -21.3358
  82   2.0000      -0.764088       -20.7919
  83   2.0000      -0.759779       -20.6746
  84   2.0000      -0.752083       -20.4652
  85   2.0000      -0.742977       -20.2174
  86   2.0000      -0.739891       -20.1335
  87   2.0000      -0.733886       -19.9701
  88   2.0000      -0.731639       -19.9089
  89   2.0000      -0.725918       -19.7532
  90   2.0000      -0.697202       -18.9718
  91   2.0000      -0.693177       -18.8623
  92   2.0000      -0.689955       -18.7746
  93   2.0000      -0.674575       -18.3561
  94   2.0000      -0.667202       -18.1555
  95   2.0000      -0.661148       -17.9908
  96   2.0000      -0.634839       -17.2748
  97   2.0000      -0.631328       -17.1793
  98   2.0000      -0.628486       -17.1020
  99   2.0000      -0.625800       -17.0289
 100   2.0000      -0.617792       -16.8110
 101   2.0000      -0.615474       -16.7479
 102   2.0000      -0.609712       -16.5911
 103   2.0000      -0.603184       -16.4135
 104   2.0000      -0.600364       -16.3367
 105   2.0000      -0.596529       -16.2324
 106   2.0000      -0.593683       -16.1549
 107   2.0000      -0.589437       -16.0394
 108   2.0000      -0.582981       -15.8637
 109   2.0000      -0.571630       -15.5548
 110   2.0000      -0.559751       -15.2316
 111   2.0000      -0.548777       -14.9330
 112   2.0000      -0.541700       -14.7404
 113   2.0000      -0.540258       -14.7012
 114   2.0000      -0.539125       -14.6703
 115   2.0000      -0.538951       -14.6656
 116   2.0000      -0.535185       -14.5631
 117   2.0000      -0.529840       -14.4177
 118   2.0000      -0.527755       -14.3610
 119   2.0000      -0.523961       -14.2577
 120   2.0000      -0.522507       -14.2181
 121   2.0000      -0.522332       -14.2134
 122   2.0000      -0.517623       -14.0852
 123   2.0000      -0.516643       -14.0586
 124   2.0000      -0.514736       -14.0067
 125   2.0000      -0.509572       -13.8662
 126   2.0000      -0.507458       -13.8086
 127   2.0000      -0.505496       -13.7552
 128   2.0000      -0.500709       -13.6250
 129   2.0000      -0.496725       -13.5166
 130   2.0000      -0.495546       -13.4845
 131   2.0000      -0.490429       -13.3453
 132   2.0000      -0.486007       -13.2249
 133   2.0000      -0.484283       -13.1780
 134   2.0000      -0.482005       -13.1160
 135   2.0000      -0.481168       -13.0932
 136   2.0000      -0.476585       -12.9685
 137   2.0000      -0.476307       -12.9610
 138   2.0000      -0.469534       -12.7767
 139   2.0000      -0.465948       -12.6791
 140   2.0000      -0.464826       -12.6486
 141   2.0000      -0.462320       -12.5804
 142   2.0000      -0.458820       -12.4851
 143   2.0000      -0.454596       -12.3702
 144   2.0000      -0.452520       -12.3137
 145   2.0000      -0.449423       -12.2294
 146   2.0000      -0.444587       -12.0978
 147   2.0000      -0.442014       -12.0278
 148   2.0000      -0.439174       -11.9505
 149   2.0000      -0.432999       -11.7825
 150   2.0000      -0.432530       -11.7697
 151   2.0000      -0.427867       -11.6429
 152   2.0000      -0.421976       -11.4826
 153   2.0000      -0.419974       -11.4281
 154   2.0000      -0.417073       -11.3491
 155   2.0000      -0.413745       -11.2586
 156   2.0000      -0.408126       -11.1057
 157   2.0000      -0.401479       -10.9248
 158   2.0000      -0.393651       -10.7118
 159   2.0000      -0.384365       -10.4591
 160   2.0000      -0.382358       -10.4045
 161   2.0000      -0.375514       -10.2183
 162   2.0000      -0.373012       -10.1502
 163   2.0000      -0.369043       -10.0422
 164   2.0000      -0.368176       -10.0186
 165   2.0000      -0.355452        -9.6723
 166   2.0000      -0.338726        -9.2172
 167   2.0000      -0.338020        -9.1980
 168   2.0000      -0.337022        -9.1708
 169   2.0000      -0.333836        -9.0841
 170   2.0000      -0.320714        -8.7271
 171   2.0000      -0.311015        -8.4632
 172   2.0000      -0.305091        -8.3020
 173   2.0000      -0.298736        -8.1290
 174   2.0000      -0.293856        -7.9962
 175   2.0000      -0.280456        -7.6316
 176   2.0000      -0.249830        -6.7982
 177   2.0000      -0.215922        -5.8755
 178   0.0000      -0.052133        -1.4186
 179   0.0000      -0.012527        -0.3409
 180   0.0000      -0.008248        -0.2244
 181   0.0000       0.012866         0.3501
 182   0.0000       0.034788         0.9466

MULLIKEN ATOMIC CHARGES
-----------------------
   0 C :   -0.061853
   1 C :   -0.034316
   2 C :    0.218523
   3 F :   -0.201755
   4 C :    0.032967
   5 C :   -0.095297
   6 C :    0.305621
   7 F :   -0.211472
   8 C :   -0.232893
   9 C :    0.117084
  10 C :    0.129333
  11 O :   -0.306322
  12 C :    0.189242
  13 C :    0.186029
  14 O :   -0.316540
  15 C :   -0.211772
  16 Si:    0.535329
  17 C :   -0.126713
  18 C :   -0.152052
  19 C :    0.113832
  20 C :   -0.076542
  21 C :   -0.008524
  22 C :    0.100588
  23 C :   -0.054940
  24 N :    0.020463
  25 C :    0.012618
  26 C :    0.064084
  27 N :   -0.155639
  28 C :    0.030559
  29 C :   -0.273972
  30 C :    0.151761
  31 C :    0.137270
  32 O :   -0.284636
  33 C :    0.180873
  34 C :    0.177720
  35 O :   -0.287445
  36 C :   -0.255521
  37 Si:    0.519981
  38 C :   -0.202507
  39 C :   -0.202355
  40 C :    0.043798
  41 C :   -0.092816
  42 C :    0.307246
  43 F :   -0.207617
  44 C :   -0.053987
  45 C :   -0.045027
  46 C :    0.234425
  47 F :   -0.197077
  48 H :   -0.009499
  49 H :   -0.010831
  50 H :   -0.009915
  51 H :    0.027609
  52 H :    0.028091
  53 H :    0.030004
  54 H :    0.025900
  55 H :    0.028993
  56 H :    0.020358
  57 H :    0.021114
  58 H :    0.030845
  59 H :    0.021086
  60 H :    0.024787
  61 H :   -0.024142
  62 H :   -0.042570
  63 H :    0.004439
  64 H :    0.014956
  65 H :    0.032547
  66 H :    0.030609
  67 H :    0.027719
  68 H :    0.031124
  69 H :    0.051821
  70 H :    0.046955
  71 H :    0.042136
  72 H :    0.052366
  73 H :    0.044564
  74 H :    0.044303
  75 H :   -0.031777
  76 H :   -0.005980
  77 H :   -0.007367
Sum of atomic charges:   -0.0000000

LOEWDIN ATOMIC CHARGES
----------------------
   0 C :   -0.054234
   1 C :   -0.044634
   2 C :    0.072623
   3 F :   -0.061023
   4 C :   -0.040647
   5 C :   -0.040244
   6 C :    0.074421
   7 F :   -0.085677
   8 C :   -0.193234
   9 C :    0.015498
  10 C :    0.041999
  11 O :   -0.092798
  12 C :    0.068270
  13 C :    0.067939
  14 O :   -0.100411
  15 C :   -0.215164
  16 Si:    0.639689
  17 C :   -0.240465
  18 C :   -0.245007
  19 C :   -0.023646
  20 C :   -0.017493
  21 C :   -0.016630
  22 C :   -0.029349
  23 C :   -0.004805
  24 N :   -0.017989
  25 C :   -0.006021
  26 C :    0.020553
  27 N :    0.005846
  28 C :    0.006492
  29 C :   -0.213187
  30 C :    0.037690
  31 C :    0.038303
  32 O :   -0.084476
  33 C :    0.069143
  34 C :    0.068302
  35 O :   -0.084360
  36 C :   -0.223638
  37 Si:    0.686491
  38 C :   -0.245685
  39 C :   -0.245382
  40 C :   -0.036948
  41 C :   -0.051386
  42 C :    0.077224
  43 F :   -0.082223
  44 C :   -0.053855
  45 C :   -0.039424
  46 C :    0.076607
  47 F :   -0.072312
  48 H :    0.035282
  49 H :    0.036115
  50 H :    0.033068
  51 H :    0.030019
  52 H :    0.021688
  53 H :    0.031756
  54 H :    0.020880
  55 H :    0.026398
  56 H :    0.022837
  57 H :    0.023328
  58 H :    0.027184
  59 H :    0.024373
  60 H :    0.025352
  61 H :    0.026892
  62 H :    0.028491
  63 H :    0.023351
  64 H :    0.026853
  65 H :    0.032635
  66 H :    0.022417
  67 H :    0.030981
  68 H :    0.022477
  69 H :    0.038194
  70 H :    0.038070
  71 H :    0.029701
  72 H :    0.038737
  73 H :    0.037468
  74 H :    0.030670
  75 H :    0.035726
  76 H :    0.036822
  77 H :    0.037493

  Mayer bond orders larger than 0.100000
B(  0-C ,  1-C ) :   1.3193 B(  0-C ,  6-C ) :   1.3632 B(  0-C , 48-H ) :   1.0001
B(  1-C ,  2-C ) :   1.4065 B(  1-C , 49-H ) :   0.9884 B(  2-C ,  3-F ) :   1.0397
B(  2-C ,  4-C ) :   1.2985 B(  4-C ,  5-C ) :   1.2929 B(  4-C ,  8-C ) :   1.0657
B(  5-C ,  6-C ) :   1.3499 B(  5-C , 50-H ) :   0.9931 B(  6-C ,  7-F ) :   1.0702
B(  8-C ,  9-C ) :   1.7196 B(  8-C , 15-C ) :   0.1079 B(  8-C , 16-Si) :   0.7965
B(  9-C , 10-C ) :   1.0229 B(  9-C , 14-O ) :   1.0833 B( 10-C , 11-O ) :   1.1298
B( 10-C , 15-C ) :   1.6499 B( 11-O , 12-C ) :   0.9477 B( 12-C , 13-C ) :   1.0754
B( 12-C , 51-H ) :   0.9522 B( 12-C , 52-H ) :   0.9428 B( 13-C , 14-O ) :   0.9595
B( 13-C , 53-H ) :   0.9526 B( 13-C , 54-H ) :   0.9415 B( 15-C , 16-Si) :   0.8589
B( 15-C , 19-C ) :   1.1213 B( 16-Si, 17-C ) :   1.0542 B( 16-Si, 18-C ) :   1.0368
B( 16-Si, 27-N ) :   0.1973 B( 17-C , 55-H ) :   0.9553 B( 17-C , 56-H ) :   0.9499
B( 17-C , 57-H ) :   0.9514 B( 18-C , 58-H ) :   0.9586 B( 18-C , 59-H ) :   0.9517
B( 18-C , 60-H ) :   0.9527 B( 19-C , 20-C ) :   1.3745 B( 19-C , 22-C ) :   0.1046
B( 19-C , 28-C ) :   1.1917 B( 20-C , 21-C ) :   1.2235 B( 20-C , 61-H ) :   1.0001
B( 21-C , 22-C ) :   1.4293 B( 21-C , 62-H ) :   0.9891 B( 22-C , 23-C ) :   1.2435
B( 22-C , 29-C ) :   1.0067 B( 23-C , 24-N ) :   1.4760 B( 23-C , 28-C ) :   1.2214
B( 24-N , 25-C ) :   1.6438 B( 25-C , 26-C ) :   1.2568 B( 25-C , 63-H ) :   0.9769
B( 26-C , 27-N ) :   1.5536 B( 26-C , 64-H ) :   0.9690 B( 27-N , 28-C ) :   1.3421
B( 29-C , 30-C ) :   1.7349 B( 29-C , 36-C ) :   0.1030 B( 29-C , 37-Si) :   0.8820
B( 30-C , 31-C ) :   0.9981 B( 30-C , 35-O ) :   1.1452 B( 31-C , 32-O ) :   1.1598
B( 31-C , 36-C ) :   1.7424 B( 32-O , 33-C ) :   0.9531 B( 33-C , 34-C ) :   1.0787
B( 33-C , 65-H ) :   0.9509 B( 33-C , 66-H ) :   0.9424 B( 34-C , 35-O ) :   0.9572
B( 34-C , 67-H ) :   0.9511 B( 34-C , 68-H ) :   0.9418 B( 36-C , 37-Si) :   0.8784
B( 36-C , 40-C ) :   0.9868 B( 37-Si, 38-C ) :   1.0405 B( 37-Si, 39-C ) :   1.0410
B( 38-C , 69-H ) :   0.9526 B( 38-C , 70-H ) :   0.9478 B( 38-C , 71-H ) :   0.9554
B( 39-C , 72-H ) :   0.9532 B( 39-C , 73-H ) :   0.9475 B( 39-C , 74-H ) :   0.9550
B( 40-C , 41-C ) :   1.3233 B( 40-C , 46-C ) :   1.3284 B( 41-C , 42-C ) :   1.3527
B( 41-C , 75-H ) :   0.9952 B( 42-C , 43-F ) :   1.0745 B( 42-C , 44-C ) :   1.3654
B( 44-C , 45-C ) :   1.3194 B( 44-C , 76-H ) :   0.9990 B( 45-C , 46-C ) :   1.3846
B( 45-C , 77-H ) :   0.9916 B( 46-C , 47-F ) :   1.1142

-----------------------------------------------------------------------------
         ABSORPTION SPECTRUM VIA TRANSITION ELECTRIC DIPOLE MOMENTS
-----------------------------------------------------------------------------
State   Energy  Wavelength   fosc         T2         TX        TY        TZ
        (cm-1)    (nm)                  (au**2)     (au)      (au)      (au)
-----------------------------------------------------------------------------
   0   18107.4    552.3   0.577031540  10.49105   0.14516  -2.52373   2.02503
   1   25700.8    389.1   0.001290704   0.01653   0.06901   0.02467   0.10565
   2   26798.0    373.2   0.879898530  10.80952  -0.72487   2.57340  -1.91355
   3   29311.0    341.2   0.002756583   0.03096  -0.04030  -0.06457  -0.15864
   4   30336.5    329.6   0.010223366   0.11094  -0.17690  -0.01545   0.28180
   5   30697.6    325.8   0.015412100   0.16529   0.31827   0.20458  -0.14878
   6   33360.5    299.8   0.048487623   0.47849   0.67879   0.10548  -0.08132
   7   34734.8    287.9   0.086501864   0.81985  -0.07118   0.63809  -0.63846
   8   36677.0    272.7   0.069243867   0.62153   0.73916  -0.25618   0.09767
   9   37161.3    269.1   0.004871261   0.04315   0.13306  -0.15926  -0.00921
  10   37794.3    264.6   0.104922545   0.91394  -0.67725   0.33563  -0.58534
  11   38568.4    259.3   0.010711379   0.09143   0.00663  -0.22380   0.20322
  12   39053.3    256.1   0.001740681   0.01467   0.10483  -0.03584  -0.04898
  13   39418.6    253.7   0.113754897   0.95005  -0.91691   0.22300  -0.24413
  14   39802.9    251.2   0.145618595   1.20442   0.80853  -0.58857  -0.45199
  15   40286.3    248.2   0.183712930   1.50127   1.21500  -0.05375  -0.14881

FINAL SINGLE POINT ENERGY     -2775.819896177068

DIPOLE MOMENT
-------------
                                X             Y             Z
Electronic contribution:     -4.05899      -3.52328      -0.96280
Nuclear contribution   :      3.95826       2.74977       1.07423
                        -----------------------------------------
Total Dipole Moment    :     -0.10072      -0.77350       0.11144
                        -----------------------------------------
Magnitude (a.u.)       :      0.78795
Magnitude (Debye)      :      2.00281

Rotational constants in cm-1:     0.005653     0.000735     0.000688
Rotational constants in MHz :   169.464127    22.049497    20.623436

                             ****ORCA TERMINATED NORMALLY****
TOTAL RUN TIME: 0 days 0 hours 4 minutes 59 seconds 291 msec
