                         Program Version 4.2.0 -  RELEASE  -
|  1> # ORCA input file
|  2> # SCF done       -185.953607709453          0.000759772175
|  3> ! CAM-B3LYP def2-SVP def2/J RIJCOSX Grid4 TightSCF
|  4> %maxcore 5000
|  5> %tddft
|  6>     Mode sTDDFT
|  7>     Ethresh 5.0
|  8>     maxcore 5000
|  9> end
| 10>
| 11> %pal
| 12>   nprocs 6
| 13>   end
| 14> * xyz 0 1
| 15>    C       -5.31557         0.91153         2.31914
| 16>    C       -6.65496         0.57192         2.41608
| 17>    C       -7.33937         0.13227         1.29800
| 18>    C       -6.70098         0.02363         0.06591
| 19>   Si       -7.66040        -0.56394        -1.44773
| 20>    C       -9.41800         0.12007        -1.49498
| 21>    C       -9.69811         1.37173        -0.95466
| 22>    C      -10.98298         1.88244        -0.97521
| 23>    C      -12.01210         1.14658        -1.53900
| 24>    C      -11.74890        -0.09990        -2.08217
| 25>    C      -10.46244        -0.60696        -2.05979
| 26>    C       -7.60921        -2.43378        -1.72827
| 27>    C       -8.05145        -3.59931        -1.11618
| 28>    C       -7.71441        -4.73984        -1.82281
| 29>    C       -7.99560        -6.10096        -1.50946
| 30>    N       -7.56802        -7.02548        -2.35441
| 31>    N       -7.76649        -8.30478        -2.17417
| 32>    C       -8.40423        -8.77664        -1.13863
| 33>    C       -8.91683        -7.90590        -0.15335
| 34>    N       -9.58929        -8.17042         0.96576
| 35>    S       -9.92152        -6.78262         1.70370
| 36>    N       -9.23467        -5.77842         0.64532
| 37>    C       -8.70903        -6.49945        -0.33935
| 38>    S       -6.83035        -4.37789        -3.27934
| 39>    C       -6.92652        -2.69947        -2.91741
| 40>    C       -6.43665        -1.57233        -3.61729
| 41>    S       -5.54696        -1.46623        -5.08533
| 42>    C       -5.50274         0.27809        -4.95123
| 43>    C       -4.85086         1.07467        -5.93946
| 44>    C       -4.23472         0.54629        -7.06410
| 45>    C       -3.60565         1.32442        -8.03607
| 46>    C       -3.52946         2.70818        -7.97978
| 47>    C       -2.89402         3.50262        -8.98042
| 48>    C       -2.77079         4.88065        -9.01642
| 49>    C       -2.09154         5.34412       -10.13775
| 50>    C       -1.68711         4.30594       -10.97294
| 51>    S       -2.14707         2.75964       -10.37762
| 52>    C       -0.97813         4.66692       -12.14203
| 53>    S       -0.34150         3.69974       -13.41292
| 54>    C        0.23990         5.13532       -14.20959
| 55>    C        0.92465         4.99831       -15.45129
| 56>    N        1.08722         3.77402       -15.92721
| 57>    N        1.69692         3.52091       -17.05516
| 58>    C        2.19771         4.46118       -17.80806
| 59>    C        2.09730         5.81631       -17.42629
| 60>    N        2.52929         6.91846       -18.03692
| 61>    S        2.13176         8.19035       -17.13919
| 62>    N        1.39335         7.41219       -15.93542
| 63>    C        1.43039         6.10875       -16.19111
| 64>    C       -0.05598         6.28598       -13.50089
| 65>    C       -0.74858         6.03254       -12.32382
| 66>   Si       -1.50580         6.98477       -10.87600
| 67>    C       -2.88312         8.15509       -11.41464
| 68>    C       -3.49364         8.98386       -10.47744
| 69>    C       -4.48988         9.86624       -10.85214
| 70>    C       -4.89098         9.93634       -12.17624
| 71>    C       -4.29178         9.11971       -13.12032
| 72>    C       -3.29716         8.23634       -12.74086
| 73>    C       -0.25032         7.84193        -9.75767
| 74>    C        0.02695         9.19562        -9.92309
| 75>    C        0.94022         9.83812        -9.10749
| 76>    C        1.59186         9.13425        -8.10841
| 77>    C        1.32507         7.78711        -7.92999
| 78>    C        0.41203         7.14810        -8.74877
| 79>    C       -4.14007         3.29880        -6.83794
| 80>    N       -4.24929         4.55584        -6.45878
| 81>    O       -4.91591         4.54586        -5.30491
| 82>    N       -5.25175         3.31734        -4.91204
| 83>    C       -4.79273         2.49269        -5.83128
| 84>    C       -6.15925         0.71214        -3.81295
| 85>    C       -6.69037        -0.32460        -3.05379
| 86>    C       -5.35467         0.36770        -0.01557
| 87>    C       -4.66648         0.80834         1.10031
| 88>    H       -4.77980         1.25703         3.19118
| 89>    H       -7.16560         0.65174         3.36491
| 90>    H       -8.38534        -0.12726         1.37659
| 91>    H       -8.89867         1.94754        -0.51124
| 92>    H      -11.18362         2.85543        -0.55061
| 93>    H      -13.01671         1.54327        -1.55430
| 94>    H      -12.54885        -0.67717        -2.52283
| 95>    H      -10.26229        -1.58149        -2.48175
| 96>    H       -8.59943        -3.64071        -0.19230
| 97>    H       -8.51946        -9.84708        -1.07334
| 98>    H       -4.24485        -0.52582        -7.19661
| 99>    H       -3.15557         0.82150        -8.87959
|100>    H       -3.17012         5.50552        -8.23896
|101>    H        2.68331         4.15761       -18.72207
|102>    H        0.23227         7.26145       -13.84925
|103>    H       -3.17881         8.93652        -9.44501
|104>    H       -4.95454        10.50169       -10.11231
|105>    H       -5.66750        10.62687       -12.47136
|106>    H       -4.60038         9.17267       -14.15443
|107>    H       -2.83230         7.60176       -13.48157
|108>    H       -0.48586         9.74978       -10.69619
|109>    H        1.14426        10.88958        -9.24898
|110>    H        2.30465         9.63479        -7.46953
|111>    H        1.82863         7.23507        -7.14972
|112>    H        0.20449         6.09767        -8.60362
|113>    H       -6.23475         1.75474        -3.56472
|114>    H       -4.84508         0.29361        -0.96542
|115>    H       -3.62246         1.07426         1.01969
|116> *
|117>
|118>                          ****END OF INPUT****

CARTESIAN COORDINATES (ANGSTROEM)
---------------------------------
  C     -5.315570    0.911530    2.319140
  C     -6.654960    0.571920    2.416080
  C     -7.339370    0.132270    1.298000
  C     -6.700980    0.023630    0.065910
  Si    -7.660400   -0.563940   -1.447730
  C     -9.418000    0.120070   -1.494980
  C     -9.698110    1.371730   -0.954660
  C    -10.982980    1.882440   -0.975210
  C    -12.012100    1.146580   -1.539000
  C    -11.748900   -0.099900   -2.082170
  C    -10.462440   -0.606960   -2.059790
  C     -7.609210   -2.433780   -1.728270
  C     -8.051450   -3.599310   -1.116180
  C     -7.714410   -4.739840   -1.822810
  C     -7.995600   -6.100960   -1.509460
  N     -7.568020   -7.025480   -2.354410
  N     -7.766490   -8.304780   -2.174170
  C     -8.404230   -8.776640   -1.138630
  C     -8.916830   -7.905900   -0.153350
  N     -9.589290   -8.170420    0.965760
  S     -9.921520   -6.782620    1.703700
  N     -9.234670   -5.778420    0.645320
  C     -8.709030   -6.499450   -0.339350
  S     -6.830350   -4.377890   -3.279340
  C     -6.926520   -2.699470   -2.917410
  C     -6.436650   -1.572330   -3.617290
  S     -5.546960   -1.466230   -5.085330
  C     -5.502740    0.278090   -4.951230
  C     -4.850860    1.074670   -5.939460
  C     -4.234720    0.546290   -7.064100
  C     -3.605650    1.324420   -8.036070
  C     -3.529460    2.708180   -7.979780
  C     -2.894020    3.502620   -8.980420
  C     -2.770790    4.880650   -9.016420
  C     -2.091540    5.344120  -10.137750
  C     -1.687110    4.305940  -10.972940
  S     -2.147070    2.759640  -10.377620
  C     -0.978130    4.666920  -12.142030
  S     -0.341500    3.699740  -13.412920
  C      0.239900    5.135320  -14.209590
  C      0.924650    4.998310  -15.451290
  N      1.087220    3.774020  -15.927210
  N      1.696920    3.520910  -17.055160
  C      2.197710    4.461180  -17.808060
  C      2.097300    5.816310  -17.426290
  N      2.529290    6.918460  -18.036920
  S      2.131760    8.190350  -17.139190
  N      1.393350    7.412190  -15.935420
  C      1.430390    6.108750  -16.191110
  C     -0.055980    6.285980  -13.500890
  C     -0.748580    6.032540  -12.323820
  Si    -1.505800    6.984770  -10.876000
  C     -2.883120    8.155090  -11.414640
  C     -3.493640    8.983860  -10.477440
  C     -4.489880    9.866240  -10.852140
  C     -4.890980    9.936340  -12.176240
  C     -4.291780    9.119710  -13.120320
  C     -3.297160    8.236340  -12.740860
  C     -0.250320    7.841930   -9.757670
  C      0.026950    9.195620   -9.923090
  C      0.940220    9.838120   -9.107490
  C      1.591860    9.134250   -8.108410
  C      1.325070    7.787110   -7.929990
  C      0.412030    7.148100   -8.748770
  C     -4.140070    3.298800   -6.837940
  N     -4.249290    4.555840   -6.458780
  O     -4.915910    4.545860   -5.304910
  N     -5.251750    3.317340   -4.912040
  C     -4.792730    2.492690   -5.831280
  C     -6.159250    0.712140   -3.812950
  C     -6.690370   -0.324600   -3.053790
  C     -5.354670    0.367700   -0.015570
  C     -4.666480    0.808340    1.100310
  H     -4.779800    1.257030    3.191180
  H     -7.165600    0.651740    3.364910
  H     -8.385340   -0.127260    1.376590
  H     -8.898670    1.947540   -0.511240
  H    -11.183620    2.855430   -0.550610
  H    -13.016710    1.543270   -1.554300
  H    -12.548850   -0.677170   -2.522830
  H    -10.262290   -1.581490   -2.481750
  H     -8.599430   -3.640710   -0.192300
  H     -8.519460   -9.847080   -1.073340
  H     -4.244850   -0.525820   -7.196610
  H     -3.155570    0.821500   -8.879590
  H     -3.170120    5.505520   -8.238960
  H      2.683310    4.157610  -18.722070
  H      0.232270    7.261450  -13.849250
  H     -3.178810    8.936520   -9.445010
  H     -4.954540   10.501690  -10.112310
  H     -5.667500   10.626870  -12.471360
  H     -4.600380    9.172670  -14.154430
  H     -2.832300    7.601760  -13.481570
  H     -0.485860    9.749780  -10.696190
  H      1.144260   10.889580   -9.248980
  H      2.304650    9.634790   -7.469530
  H      1.828630    7.235070   -7.149720
  H      0.204490    6.097670   -8.603620
  H     -6.234750    1.754740   -3.564720
  H     -4.845080    0.293610   -0.965420
  H     -3.622460    1.074260    1.019690

 Total Charge           Charge          ....    0
 Multiplicity           Mult            ....    1
 Number of Electrons    NEL             ....  554
 Basis Dimension        Dim             .... 1194

ORBITAL ENERGIES
----------------

  NO   OCC          E(Eh)            E(eV)
   0   2.0000     -89.039220     -2422.8803
   1   2.0000     -89.039006     -2422.8745
   2   2.0000     -88.960665     -2420.7428
   3   2.0000     -88.960508     -2420.7385
   4   2.0000     -88.957695     -2420.6620
   5   2.0000     -88.957449     -2420.6552
   6   2.0000     -66.201432     -1801.4326
   7   2.0000     -66.201334     -1801.4299
   8   2.0000     -19.352055      -526.5962
   9   2.0000     -14.478090      -393.9689
  10   2.0000     -14.478004      -393.9665
  11   2.0000     -14.455755      -393.3611
  12   2.0000     -14.455444      -393.3526
  13   2.0000     -14.452919      -393.2839
  14   2.0000     -14.452667      -393.2771
  15   2.0000     -14.435592      -392.8124
  16   2.0000     -14.435365      -392.8063
  17   2.0000     -14.430359      -392.6700
  18   2.0000     -14.430153      -392.6644
  19   2.0000     -10.336802      -281.2787
  20   2.0000     -10.336489      -281.2702
  21   2.0000     -10.334703      -281.2216
  22   2.0000     -10.334466      -281.2151
  23   2.0000     -10.333861      -281.1987
  24   2.0000     -10.333574      -281.1908
  25   2.0000     -10.324128      -280.9338
  26   2.0000     -10.323900      -280.9276
  27   2.0000     -10.313731      -280.6509
  28   2.0000     -10.313499      -280.6446
  29   2.0000     -10.307106      -280.4706
  30   2.0000     -10.307014      -280.4681
  31   2.0000     -10.306680      -280.4590
  32   2.0000     -10.306628      -280.4576
  33   2.0000     -10.306275      -280.4480
  34   2.0000     -10.306149      -280.4446
  35   2.0000     -10.303480      -280.3720
  36   2.0000     -10.303420      -280.3703
  37   2.0000     -10.296723      -280.1881
  38   2.0000     -10.296366      -280.1784
  39   2.0000     -10.291785      -280.0537
  40   2.0000     -10.291434      -280.0442
  41   2.0000     -10.276805      -279.6461
  42   2.0000     -10.276115      -279.6273
  43   2.0000     -10.271910      -279.5129
  44   2.0000     -10.271828      -279.5107
  45   2.0000     -10.269014      -279.4341
  46   2.0000     -10.268856      -279.4298
  47   2.0000     -10.268741      -279.4266
  48   2.0000     -10.268620      -279.4234
  49   2.0000     -10.268173      -279.4112
  50   2.0000     -10.268158      -279.4108
  51   2.0000     -10.267831      -279.4019
  52   2.0000     -10.267637      -279.3966
  53   2.0000     -10.267564      -279.3946
  54   2.0000     -10.267504      -279.3930
  55   2.0000     -10.267445      -279.3914
  56   2.0000     -10.266620      -279.3689
  57   2.0000     -10.266476      -279.3650
  58   2.0000     -10.266272      -279.3595
  59   2.0000     -10.265856      -279.3482
  60   2.0000     -10.265541      -279.3396
  61   2.0000     -10.265485      -279.3381
  62   2.0000     -10.265315      -279.3334
  63   2.0000     -10.265150      -279.3289
  64   2.0000     -10.264500      -279.3112
  65   2.0000     -10.257816      -279.1294
  66   2.0000     -10.257741      -279.1273
  67   2.0000     -10.257219      -279.1131
  68   2.0000     -10.256438      -279.0919
  69   2.0000     -10.255804      -279.0746
  70   2.0000     -10.255687      -279.0714
  71   2.0000     -10.254166      -279.0300
  72   2.0000     -10.253617      -279.0151
  73   2.0000      -8.131072      -221.2577
  74   2.0000      -8.130821      -221.2509
  75   2.0000      -8.055903      -219.2123
  76   2.0000      -8.055854      -219.2109
  77   2.0000      -8.052388      -219.1166
  78   2.0000      -8.052131      -219.1096
  79   2.0000      -6.102192      -166.0491
  80   2.0000      -6.101962      -166.0428
  81   2.0000      -6.094379      -165.8365
  82   2.0000      -6.094115      -165.8293
  83   2.0000      -6.093653      -165.8167
  84   2.0000      -6.093412      -165.8102
  85   2.0000      -6.025059      -163.9502
  86   2.0000      -6.025012      -163.9489
  87   2.0000      -6.021557      -163.8549
  88   2.0000      -6.021319      -163.8484
  89   2.0000      -6.021119      -163.8430
  90   2.0000      -6.021064      -163.8415
  91   2.0000      -6.018166      -163.7626
  92   2.0000      -6.018083      -163.7604
  93   2.0000      -6.017439      -163.7428
  94   2.0000      -6.017176      -163.7357
  95   2.0000      -6.014768      -163.6701
  96   2.0000      -6.014499      -163.6628
  97   2.0000      -5.364432      -145.9736
  98   2.0000      -5.364405      -145.9729
  99   2.0000      -3.727707      -101.4361
 100   2.0000      -3.727626      -101.4339
 101   2.0000      -3.726675      -101.4080
 102   2.0000      -3.726659      -101.4075
 103   2.0000      -3.726018      -101.3901
 104   2.0000      -3.726011      -101.3899
 105   2.0000      -1.304592       -35.4998
 106   2.0000      -1.141208       -31.0539
 107   2.0000      -1.140911       -31.0458
 108   2.0000      -1.109657       -30.1953
 109   2.0000      -1.109318       -30.1861
 110   2.0000      -1.010838       -27.5063
 111   2.0000      -1.005751       -27.3679
 112   2.0000      -0.998920       -27.1820
 113   2.0000      -0.996853       -27.1258
 114   2.0000      -0.991244       -26.9731
 115   2.0000      -0.988327       -26.8937
 116   2.0000      -0.972171       -26.4541
 117   2.0000      -0.967912       -26.3382
 118   2.0000      -0.942771       -25.6541
 119   2.0000      -0.942599       -25.6494
 120   2.0000      -0.940206       -25.5843
 121   2.0000      -0.939797       -25.5732
 122   2.0000      -0.927013       -25.2253
 123   2.0000      -0.926467       -25.2105
 124   2.0000      -0.915760       -24.9191
 125   2.0000      -0.909254       -24.7421
 126   2.0000      -0.908983       -24.7347
 127   2.0000      -0.895081       -24.3564
 128   2.0000      -0.865071       -23.5398
 129   2.0000      -0.846746       -23.0411
 130   2.0000      -0.841218       -22.8907
 131   2.0000      -0.840610       -22.8742
 132   2.0000      -0.830042       -22.5866
 133   2.0000      -0.829632       -22.5754
 134   2.0000      -0.827495       -22.5173
 135   2.0000      -0.827369       -22.5139
 136   2.0000      -0.825820       -22.4717
 137   2.0000      -0.825565       -22.4648
 138   2.0000      -0.822083       -22.3700
 139   2.0000      -0.821939       -22.3661
 140   2.0000      -0.820592       -22.3295
 141   2.0000      -0.820121       -22.3166
 142   2.0000      -0.807376       -21.9698
 143   2.0000      -0.794041       -21.6069
 144   2.0000      -0.780063       -21.2266
 145   2.0000      -0.758299       -20.6344
 146   2.0000      -0.757930       -20.6243
 147   2.0000      -0.745388       -20.2830
 148   2.0000      -0.738236       -20.0884
 149   2.0000      -0.735273       -20.0078
 150   2.0000      -0.724548       -19.7160
 151   2.0000      -0.710728       -19.3399
 152   2.0000      -0.694467       -18.8974
 153   2.0000      -0.693733       -18.8774
 154   2.0000      -0.686605       -18.6835
 155   2.0000      -0.684284       -18.6203
 156   2.0000      -0.683498       -18.5989
 157   2.0000      -0.680294       -18.5117
 158   2.0000      -0.679903       -18.5011
 159   2.0000      -0.672039       -18.2871
 160   2.0000      -0.671967       -18.2851
 161   2.0000      -0.671651       -18.2765
 162   2.0000      -0.666452       -18.1351
 163   2.0000      -0.655881       -17.8474
 164   2.0000      -0.643178       -17.5018
 165   2.0000      -0.638675       -17.3792
 166   2.0000      -0.636750       -17.3269
 167   2.0000      -0.631876       -17.1942
 168   2.0000      -0.627809       -17.0836
 169   2.0000      -0.620923       -16.8962
 170   2.0000      -0.615871       -16.7587
 171   2.0000      -0.615476       -16.7479
 172   2.0000      -0.604248       -16.4424
 173   2.0000      -0.603451       -16.4207
 174   2.0000      -0.599734       -16.3196
 175   2.0000      -0.597234       -16.2516
 176   2.0000      -0.596679       -16.2365
 177   2.0000      -0.595875       -16.2146
 178   2.0000      -0.587020       -15.9736
 179   2.0000      -0.585839       -15.9415
 180   2.0000      -0.576011       -15.6741
 181   2.0000      -0.573559       -15.6073
 182   2.0000      -0.565856       -15.3977
 183   2.0000      -0.565575       -15.3901
 184   2.0000      -0.552675       -15.0391
 185   2.0000      -0.552463       -15.0333
 186   2.0000      -0.550624       -14.9832
 187   2.0000      -0.545473       -14.8431
 188   2.0000      -0.543204       -14.7813
 189   2.0000      -0.537108       -14.6154
 190   2.0000      -0.531053       -14.4507
 191   2.0000      -0.529826       -14.4173
 192   2.0000      -0.528137       -14.3713
 193   2.0000      -0.527843       -14.3633
 194   2.0000      -0.523007       -14.2317
 195   2.0000      -0.520630       -14.1671
 196   2.0000      -0.520514       -14.1639
 197   2.0000      -0.517169       -14.0729
 198   2.0000      -0.515991       -14.0408
 199   2.0000      -0.508121       -13.8267
 200   2.0000      -0.507520       -13.8103
 201   2.0000      -0.507262       -13.8033
 202   2.0000      -0.505548       -13.7567
 203   2.0000      -0.500255       -13.6126
 204   2.0000      -0.497913       -13.5489
 205   2.0000      -0.496106       -13.4997
 206   2.0000      -0.496011       -13.4972
 207   2.0000      -0.494373       -13.4526
 208   2.0000      -0.493023       -13.4158
 209   2.0000      -0.489208       -13.3120
 210   2.0000      -0.488964       -13.3054
 211   2.0000      -0.482200       -13.1213
 212   2.0000      -0.481085       -13.0910
 213   2.0000      -0.480030       -13.0623
 214   2.0000      -0.470036       -12.7903
 215   2.0000      -0.468936       -12.7604
 216   2.0000      -0.467658       -12.7256
 217   2.0000      -0.466900       -12.7050
 218   2.0000      -0.465379       -12.6636
 219   2.0000      -0.456819       -12.4307
 220   2.0000      -0.456210       -12.4141
 221   2.0000      -0.455874       -12.4050
 222   2.0000      -0.454980       -12.3806
 223   2.0000      -0.449881       -12.2419
 224   2.0000      -0.448940       -12.2163
 225   2.0000      -0.448689       -12.2094
 226   2.0000      -0.446910       -12.1610
 227   2.0000      -0.446650       -12.1540
 228   2.0000      -0.433066       -11.7843
 229   2.0000      -0.432392       -11.7660
 230   2.0000      -0.431720       -11.7477
 231   2.0000      -0.429174       -11.6784
 232   2.0000      -0.424985       -11.5644
 233   2.0000      -0.423994       -11.5375
 234   2.0000      -0.423270       -11.5178
 235   2.0000      -0.420486       -11.4420
 236   2.0000      -0.414868       -11.2891
 237   2.0000      -0.412887       -11.2352
 238   2.0000      -0.412626       -11.2281
 239   2.0000      -0.411987       -11.2107
 240   2.0000      -0.411578       -11.1996
 241   2.0000      -0.399168       -10.8619
 242   2.0000      -0.391182       -10.6446
 243   2.0000      -0.390382       -10.6228
 244   2.0000      -0.387980       -10.5575
 245   2.0000      -0.382284       -10.4025
 246   2.0000      -0.382008       -10.3950
 247   2.0000      -0.380591       -10.3564
 248   2.0000      -0.380009       -10.3406
 249   2.0000      -0.378669       -10.3041
 250   2.0000      -0.377763       -10.2795
 251   2.0000      -0.372787       -10.1440
 252   2.0000      -0.372700       -10.1417
 253   2.0000      -0.369631       -10.0582
 254   2.0000      -0.368886       -10.0379
 255   2.0000      -0.364947        -9.9307
 256   2.0000      -0.364657        -9.9228
 257   2.0000      -0.360921        -9.8212
 258   2.0000      -0.344258        -9.3677
 259   2.0000      -0.327800        -8.9199
 260   2.0000      -0.326568        -8.8864
 261   2.0000      -0.326426        -8.8825
 262   2.0000      -0.324242        -8.8231
 263   2.0000      -0.321711        -8.7542
 264   2.0000      -0.320460        -8.7202
 265   2.0000      -0.320169        -8.7122
 266   2.0000      -0.316901        -8.6233
 267   2.0000      -0.316562        -8.6141
 268   2.0000      -0.314884        -8.5684
 269   2.0000      -0.314409        -8.5555
 270   2.0000      -0.312728        -8.5098
 271   2.0000      -0.311950        -8.4886
 272   2.0000      -0.296130        -8.0581
 273   2.0000      -0.295865        -8.0509
 274   2.0000      -0.294069        -8.0020
 275   2.0000      -0.256673        -6.9844
 276   2.0000      -0.228017        -6.2047
 277   0.0000      -0.089432        -2.4336
 278   0.0000      -0.079799        -2.1714
 279   0.0000      -0.066363        -1.8058
 280   0.0000      -0.029169        -0.7937
 281   0.0000      -0.022776        -0.6198

MULLIKEN ATOMIC CHARGES
-----------------------
   0 C :    0.023810
   1 C :    0.026884
   2 C :   -0.008328
   3 C :   -0.128103
   4 Si:    0.654143
   5 C :   -0.128895
   6 C :   -0.009665
   7 C :    0.028693
   8 C :    0.021974
   9 C :    0.032070
  10 C :   -0.007504
  11 C :   -0.141087
  12 C :   -0.028048
  13 C :   -0.136602
  14 C :    0.044926
  15 N :   -0.083119
  16 N :   -0.033882
  17 C :   -0.031253
  18 C :    0.051316
  19 N :   -0.256685
  20 S :    0.525606
  21 N :   -0.262468
  22 C :    0.003839
  23 S :    0.205219
  24 C :   -0.064252
  25 C :   -0.073512
  26 S :    0.132611
  27 C :   -0.114729
  28 C :    0.171512
  29 C :   -0.072212
  30 C :   -0.067403
  31 C :    0.167210
  32 C :   -0.116663
  33 C :   -0.052149
  34 C :   -0.120317
  35 C :   -0.075193
  36 S :    0.133443
  37 C :   -0.065497
  38 S :    0.205509
  39 C :   -0.138347
  40 C :    0.047983
  41 N :   -0.082900
  42 N :   -0.034117
  43 C :   -0.028705
  44 C :    0.050698
  45 N :   -0.255154
  46 S :    0.525779
  47 N :   -0.261616
  48 C :    0.000861
  49 C :   -0.030298
  50 C :   -0.138305
  51 Si:    0.657478
  52 C :   -0.133334
  53 C :   -0.003407
  54 C :    0.027797
  55 C :    0.022992
  56 C :    0.030482
  57 C :   -0.010246
  58 C :   -0.126170
  59 C :   -0.011067
  60 C :    0.026153
  61 C :    0.023391
  62 C :    0.031243
  63 C :   -0.007562
  64 C :   -0.050665
  65 N :    0.037664
  66 O :   -0.091495
  67 N :    0.035805
  68 C :   -0.053370
  69 C :   -0.054074
  70 C :   -0.120638
  71 C :   -0.008750
  72 C :    0.032400
  73 H :   -0.012968
  74 H :   -0.016125
  75 H :   -0.012585
  76 H :   -0.009943
  77 H :   -0.015540
  78 H :   -0.012825
  79 H :   -0.014832
  80 H :   -0.007858
  81 H :   -0.006504
  82 H :    0.001686
  83 H :   -0.004464
  84 H :   -0.005021
  85 H :    0.001704
  86 H :   -0.000583
  87 H :   -0.005807
  88 H :   -0.008444
  89 H :   -0.013411
  90 H :   -0.012203
  91 H :   -0.015734
  92 H :   -0.012091
  93 H :   -0.012050
  94 H :   -0.015479
  95 H :   -0.012545
  96 H :   -0.014180
  97 H :   -0.005838
  98 H :    0.002932
  99 H :   -0.007336
 100 H :   -0.013661
Sum of atomic charges:   -0.0000000

LOEWDIN ATOMIC CHARGES
----------------------
   0 C :   -0.014960
   1 C :   -0.025923
   2 C :   -0.023510
   3 C :   -0.180071
   4 Si:    0.689635
   5 C :   -0.181078
   6 C :   -0.022406
   7 C :   -0.025238
   8 C :   -0.015103
   9 C :   -0.024838
  10 C :   -0.017463
  11 C :   -0.207512
  12 C :   -0.026597
  13 C :   -0.194138
  14 C :   -0.013469
  15 N :   -0.082742
  16 N :   -0.032549
  17 C :   -0.008519
  18 C :   -0.068101
  19 N :   -0.272003
  20 S :    0.661401
  21 N :   -0.271271
  22 C :   -0.058790
  23 S :    0.481844
  24 C :   -0.180792
  25 C :   -0.187751
  26 S :    0.439257
  27 C :   -0.168824
  28 C :   -0.041528
  29 C :   -0.018981
  30 C :   -0.018881
  31 C :   -0.041627
  32 C :   -0.168784
  33 C :   -0.040282
  34 C :   -0.196317
  35 C :   -0.188430
  36 S :    0.439580
  37 C :   -0.179749
  38 S :    0.483117
  39 C :   -0.193993
  40 C :   -0.013535
  41 N :   -0.082746
  42 N :   -0.032448
  43 C :   -0.008105
  44 C :   -0.068169
  45 N :   -0.271919
  46 S :    0.661499
  47 N :   -0.271478
  48 C :   -0.059059
  49 C :   -0.028062
  50 C :   -0.207828
  51 Si:    0.689707
  52 C :   -0.180342
  53 C :   -0.020650
  54 C :   -0.024359
  55 C :   -0.015084
  56 C :   -0.025145
  57 C :   -0.020211
  58 C :   -0.180347
  59 C :   -0.023305
  60 C :   -0.026334
  61 C :   -0.015242
  62 C :   -0.024211
  63 C :   -0.017195
  64 C :   -0.041308
  65 N :   -0.022452
  66 O :    0.072722
  67 N :   -0.022497
  68 C :   -0.041214
  69 C :   -0.040672
  70 C :   -0.197091
  71 C :   -0.017335
  72 C :   -0.023570
  73 H :    0.028106
  74 H :    0.027337
  75 H :    0.024752
  76 H :    0.026005
  77 H :    0.027744
  78 H :    0.028044
  79 H :    0.027917
  80 H :    0.027336
  81 H :    0.030979
  82 H :    0.033160
  83 H :    0.028301
  84 H :    0.028099
  85 H :    0.031629
  86 H :    0.032866
  87 H :    0.030777
  88 H :    0.026410
  89 H :    0.028340
  90 H :    0.028260
  91 H :    0.027708
  92 H :    0.026795
  93 H :    0.025216
  94 H :    0.027343
  95 H :    0.028025
  96 H :    0.028189
  97 H :    0.027756
  98 H :    0.031903
  99 H :    0.027866
 100 H :    0.028501

  Mayer bond orders larger than 0.100000
B(  0-C ,  1-C ) :   1.3860 B(  0-C , 72-C ) :   1.3883 B(  0-C , 73-H ) :   0.9918
B(  1-C ,  2-C ) :   1.3937 B(  1-C , 74-H ) :   0.9926 B(  2-C ,  3-C ) :   1.3639
B(  2-C , 75-H ) :   0.9902 B(  3-C ,  4-Si) :   0.9584 B(  3-C , 71-C ) :   1.3717
B(  4-Si,  5-C ) :   0.9593 B(  4-Si, 11-C ) :   0.8919 B(  4-Si, 70-C ) :   0.8881
B(  5-C ,  6-C ) :   1.3661 B(  5-C , 10-C ) :   1.3704 B(  6-C ,  7-C ) :   1.3925
B(  6-C , 76-H ) :   0.9914 B(  7-C ,  8-C ) :   1.3877 B(  7-C , 77-H ) :   0.9925
B(  8-C ,  9-C ) :   1.3851 B(  8-C , 78-H ) :   0.9922 B(  9-C , 10-C ) :   1.3932
B(  9-C , 79-H ) :   0.9929 B( 10-C , 80-H ) :   0.9928 B( 11-C , 12-C ) :   1.2488
B( 11-C , 24-C ) :   1.4874 B( 12-C , 13-C ) :   1.4894 B( 12-C , 81-H ) :   0.9874
B( 13-C , 14-C ) :   1.1586 B( 13-C , 23-S ) :   1.0897 B( 13-C , 24-C ) :   0.1038
B( 14-C , 15-N ) :   1.7314 B( 14-C , 17-C ) :   0.1013 B( 14-C , 22-C ) :   1.1082
B( 15-N , 16-N ) :   1.2011 B( 16-N , 17-C ) :   1.7381 B( 17-C , 18-C ) :   1.1218
B( 17-C , 82-H ) :   1.0158 B( 18-C , 19-N ) :   1.5056 B( 18-C , 22-C ) :   1.2001
B( 19-N , 20-S ) :   1.2892 B( 19-N , 21-N ) :   0.1471 B( 20-S , 21-N ) :   1.2629
B( 21-N , 22-C ) :   1.5527 B( 23-S , 24-C ) :   1.1209 B( 24-C , 25-C ) :   1.1524
B( 25-C , 26-S ) :   1.1133 B( 25-C , 70-C ) :   1.5079 B( 26-S , 27-C ) :   1.0953
B( 27-C , 28-C ) :   1.1330 B( 27-C , 69-C ) :   1.4960 B( 28-C , 29-C ) :   1.4532
B( 28-C , 31-C ) :   0.1106 B( 28-C , 68-C ) :   1.1418 B( 29-C , 30-C ) :   1.2468
B( 29-C , 83-H ) :   0.9858 B( 30-C , 31-C ) :   1.4556 B( 30-C , 84-H ) :   0.9845
B( 31-C , 32-C ) :   1.1328 B( 31-C , 64-C ) :   1.1407 B( 32-C , 33-C ) :   1.4977
B( 32-C , 36-S ) :   1.0959 B( 33-C , 34-C ) :   1.2229 B( 33-C , 85-H ) :   0.9880
B( 34-C , 35-C ) :   1.5075 B( 34-C , 51-Si) :   0.8870 B( 35-C , 36-S ) :   1.1139
B( 35-C , 37-C ) :   1.1533 B( 37-C , 38-S ) :   1.1218 B( 37-C , 39-C ) :   0.1041
B( 37-C , 50-C ) :   1.4911 B( 38-S , 39-C ) :   1.0914 B( 39-C , 40-C ) :   1.1570
B( 39-C , 49-C ) :   1.4877 B( 40-C , 41-N ) :   1.7309 B( 40-C , 43-C ) :   0.1016
B( 40-C , 48-C ) :   1.1093 B( 41-N , 42-N ) :   1.2013 B( 42-N , 43-C ) :   1.7368
B( 43-C , 44-C ) :   1.1234 B( 43-C , 86-H ) :   1.0161 B( 44-C , 45-N ) :   1.5072
B( 44-C , 48-C ) :   1.1993 B( 45-N , 46-S ) :   1.2886 B( 45-N , 47-N ) :   0.1472
B( 46-S , 47-N ) :   1.2627 B( 47-N , 48-C ) :   1.5534 B( 49-C , 50-C ) :   1.2445
B( 49-C , 87-H ) :   0.9885 B( 50-C , 51-Si) :   0.8904 B( 51-Si, 52-C ) :   0.9565
B( 51-Si, 58-C ) :   0.9608 B( 52-C , 53-C ) :   1.3631 B( 52-C , 57-C ) :   1.3754
B( 53-C , 54-C ) :   1.3941 B( 53-C , 88-H ) :   0.9902 B( 54-C , 55-C ) :   1.3852
B( 54-C , 89-H ) :   0.9928 B( 55-C , 56-C ) :   1.3886 B( 55-C , 90-H ) :   0.9926
B( 56-C , 57-C ) :   1.3900 B( 56-C , 91-H ) :   0.9930 B( 57-C , 92-H ) :   0.9942
B( 58-C , 59-C ) :   1.3676 B( 58-C , 63-C ) :   1.3708 B( 59-C , 60-C ) :   1.3916
B( 59-C , 93-H ) :   0.9921 B( 60-C , 61-C ) :   1.3888 B( 60-C , 94-H ) :   0.9921
B( 61-C , 62-C ) :   1.3848 B( 61-C , 95-H ) :   0.9923 B( 62-C , 63-C ) :   1.3932
B( 62-C , 96-H ) :   0.9932 B( 63-C , 97-H ) :   0.9924 B( 64-C , 65-N ) :   1.6036
B( 64-C , 68-C ) :   1.1425 B( 65-N , 66-O ) :   1.0590 B( 65-N , 67-N ) :   0.1793
B( 66-O , 67-N ) :   1.0602 B( 67-N , 68-C ) :   1.6030 B( 69-C , 70-C ) :   1.2194
B( 69-C , 98-H ) :   0.9895 B( 71-C , 72-C ) :   1.3923 B( 71-C , 99-H ) :   0.9937
B( 72-C ,100-H ) :   0.9925

-----------------------------------------------------------------------------
         ABSORPTION SPECTRUM VIA TRANSITION ELECTRIC DIPOLE MOMENTS
-----------------------------------------------------------------------------
State   Energy  Wavelength   fosc         T2         TX        TY        TZ
        (cm-1)    (nm)                  (au**2)     (au)      (au)      (au)
-----------------------------------------------------------------------------
   0   15869.5    630.1   2.081255762  43.17541   2.94509   3.64824  -4.60350
   1   19451.3    514.1   0.211002080   3.57120   0.42031  -1.57256  -0.95999
   2   20675.2    483.7   0.000000577   0.00001   0.00242  -0.00182  -0.00003
   3   20682.4    483.5   0.000002857   0.00005  -0.00541   0.00363   0.00175
   4   21138.1    473.1   0.004091021   0.06371  -0.08441  -0.13387   0.19665
   5   23736.1    421.3   0.027669721   0.38377   0.14967  -0.50654  -0.32371
   6   27516.6    363.4   0.001415185   0.01693   0.07507   0.06398  -0.08487
   7   28385.4    352.3   0.020061088   0.23267   0.16158  -0.40192  -0.21218
   8   29170.5    342.8   0.440908349   4.97599   0.99801   1.21312  -1.58377
   9   29899.8    334.5   0.053718831   0.59147   0.18317  -0.67062  -0.32892
  10   31908.5    313.4   0.010001446   0.10319  -0.13166  -0.17679   0.23367
  11   33373.2    299.6   0.003370568   0.03325  -0.04335   0.12879   0.12159
  12   33417.7    299.2   0.008691532   0.08562  -0.02880   0.24765   0.15318
  13   34572.6    289.2   0.002691521   0.02563   0.03060  -0.08220  -0.13393
  14   34633.5    288.7   0.001231596   0.01171  -0.02450  -0.05322  -0.09096
  15   34812.2    287.3   0.001342404   0.01269  -0.09432  -0.01321  -0.06021
  16   34950.2    286.1   0.003691951   0.03478  -0.09883  -0.08350   0.13430
  17   35179.5    284.3   0.036474286   0.34133  -0.21537   0.47666   0.26027
  18   35504.6    281.7   0.006277850   0.05821  -0.01239  -0.24083  -0.00746
  19   35667.4    280.4   0.031287291   0.28878   0.13174  -0.45619  -0.25164
  20   35960.2    278.1   0.001034340   0.00947  -0.07836  -0.01317   0.05618
  21   36564.5    273.5   0.000661991   0.00596   0.05212   0.00932  -0.05619
  22   36653.3    272.8   0.000668728   0.00601   0.02229  -0.05935  -0.04458
  23   37092.4    269.6   0.008145746   0.07230  -0.03809   0.03935   0.26325
  24   37094.1    269.6   0.012339733   0.10952  -0.18951  -0.17571   0.20671
  25   37173.3    269.0   0.026743801   0.23685   0.25788   0.37718  -0.16757
  26   37316.9    268.0   0.009336124   0.08236  -0.16165   0.21894   0.09109
  27   37609.3    265.9   0.010929159   0.09567   0.01942   0.07668  -0.29902
  28   37680.8    265.4   0.021720683   0.18977  -0.24568  -0.34580   0.09916
  29   37885.4    264.0   0.037335552   0.32443  -0.19774  -0.53317   0.03265
  30   38172.2    262.0   0.029168401   0.25156  -0.19999  -0.40748   0.21335
  31   38341.8    260.8   0.107115560   0.91972   0.34907   0.20700  -0.86892
  32   39083.8    255.9   0.002556854   0.02154   0.02152  -0.06747  -0.12854
  33   39203.6    255.1   0.046081397   0.38697   0.08029  -0.48232  -0.38457
  34   39417.0    253.7   0.000294543   0.00246  -0.04188   0.02583   0.00623
  35   39546.5    252.9   0.006844008   0.05697   0.05803  -0.17285  -0.15405
  36   39794.8    251.3   0.023755123   0.19652  -0.22961  -0.21296   0.31376

FINAL SINGLE POINT ENERGY     -5661.036270086894

DIPOLE MOMENT
-------------
                                X             Y             Z
Electronic contribution:     12.05386     -43.10489     -26.62073
Nuclear contribution   :    -12.68877      45.34495      27.99133
                        -----------------------------------------
Total Dipole Moment    :     -0.63491       2.24005       1.37060
                        -----------------------------------------
Magnitude (a.u.)       :      2.70176
Magnitude (Debye)      :      6.86732

Rotational constants in cm-1:     0.001577     0.000228     0.000212
Rotational constants in MHz :    47.273188     6.821038     6.350693

                             ****ORCA TERMINATED NORMALLY****
TOTAL RUN TIME: 0 days 0 hours 13 minutes 8 seconds 671 msec
