                         Program Version 4.2.0 -  RELEASE  -
|  1> # ORCA input file
|  2> # SCF done       -203.333559925633          0.000554531734
|  3> ! CAM-B3LYP def2-SVP def2/J RIJCOSX Grid4 TightSCF
|  4> %maxcore 5000
|  5> %tddft
|  6>     Mode sTDDFT
|  7>     Ethresh 5.0
|  8>     maxcore 5000
|  9> end
| 10>
| 11> %pal
| 12>   nprocs 6
| 13>   end
| 14> * xyz 0 1
| 15>    C       -8.43172        -0.09069         4.14067
| 16>    C       -7.14806        -0.79453         3.98392
| 17>    O       -6.31252        -0.58779         3.10489
| 18>    C       -7.09183        -1.78262         5.05677
| 19>    C       -8.30235        -1.74329         5.78115
| 20>    C       -9.17780        -0.70571         5.21790
| 21>    C      -10.44964        -0.39698         5.64860
| 22>    C      -11.36655        -1.32411         6.34963
| 23>    O      -11.23404        -2.51615         6.53296
| 24>    C      -12.58267        -0.54230         6.67570
| 25>    C      -12.44681         0.75783         6.18629
| 26>    C      -11.13951         0.90047         5.50603
| 27>    O      -10.72106         1.93256         5.01724
| 28>    C      -13.44761         1.69468         6.36355
| 29>    C      -14.59471         1.30065         7.04044
| 30>    C      -14.73110         0.00666         7.52507
| 31>    C      -13.72617        -0.93538         7.34462
| 32>    C       -8.42551        -2.53690         6.91044
| 33>    C       -7.37485        -3.37788         7.26053
| 34>    C       -6.20207        -3.42472         6.52323
| 35>    C       -6.04200        -2.60731         5.41272
| 36>    C       -8.78850         0.90658         3.26769
| 37>    N       -7.94358         1.26644         2.29027
| 38>    C       -8.10731         2.25004         1.38114
| 39>    S       -9.53526         3.23319         1.33683
| 40>    C       -8.85786         4.11159         0.00009
| 41>    N       -9.61729         5.14365        -0.55931
| 42>    O       -9.13115         5.76441        -1.48857
| 43>    O      -10.71780         5.34615        -0.07385
| 44>    C       -7.61733         3.67404        -0.37793
| 45>    C       -7.15533         2.59444         0.40248
| 46>    C       -5.90985         1.91154         0.24292
| 47>    C       -4.89033         2.34330        -0.54803
| 48>    C       -3.66635         1.67245        -0.73709
| 49>    C       -2.47003         2.24573        -1.17412
| 50>    C       -2.16382         3.55693        -1.59538
| 51>    C       -0.87565         3.87120        -1.91021
| 52>    C        0.16664         2.91627        -1.80489
| 53>    C       -0.08213         1.63672        -1.41159
| 54>    C       -1.40875         1.26589        -1.09874
| 55>    C       -1.93342         0.06993        -0.63016
| 56>    C       -3.38632         0.24576        -0.49684
| 57>    C       -4.28647        -0.74297        -0.52165
| 58>    N       -1.25794        -1.11253        -0.51191
| 59>    C       -1.50843        -2.08778         0.38744
| 60>    S       -2.33951        -1.76627         1.88369
| 61>    C       -1.98950        -3.39271         2.40539
| 62>    N       -2.46039        -3.79136         3.65039
| 63>    O       -2.23962        -4.93529         4.01362
| 64>    O       -3.07223        -2.95491         4.30376
| 65>    C       -1.27611        -4.11995         1.48967
| 66>    C       -1.01390        -3.40397         0.30874
| 67>    C       -0.35981        -3.98085        -0.82597
| 68>    C       -0.44299        -3.54716        -2.10637
| 69>    C        0.27620        -4.17685        -3.15168
| 70>    C        0.32068        -3.79362        -4.45364
| 71>    C        0.72941        -4.78680        -5.48563
| 72>    O        1.37777        -5.79204        -5.31140
| 73>    C        0.09996        -4.30605        -6.72947
| 74>    C       -0.49162        -3.04606        -6.50624
| 75>    C       -0.15279        -2.60609        -5.14429
| 76>    C        0.05950        -1.31382        -4.74104
| 77>    C       -0.19208        -0.08318        -5.53174
| 78>    O       -1.08779         0.13780        -6.31523
| 79>    C        0.84195         0.88737        -5.09888
| 80>    C        1.51377         0.37619        -3.98527
| 81>    C        0.89832        -0.91177        -3.59293
| 82>    O        1.04687        -1.45590        -2.51392
| 83>    C        2.57211         1.05823        -3.41491
| 84>    C        2.93777         2.27559        -3.97491
| 85>    C        2.25232         2.79715        -5.06383
| 86>    C        1.19265         2.10850        -5.64109
| 87>    C       -1.22865        -2.45812        -7.52081
| 88>    C       -1.32431        -3.11299        -8.74310
| 89>    C       -0.70977        -4.33604        -8.96392
| 90>    C        0.00565        -4.95194        -7.94646
| 91>    H      -13.33364         2.69661         5.97919
| 92>    H      -15.39456         2.01048         7.19118
| 93>    H      -15.63282        -0.27051         8.05096
| 94>    H      -13.82262        -1.94332         7.71812
| 95>    H       -9.31467        -2.52535         7.51602
| 96>    H       -7.47809        -4.00289         8.13532
| 97>    H       -5.40148        -4.08533         6.81850
| 98>    H       -5.11765        -2.59131         4.85604
| 99>    H       -9.71788         1.45284         3.34848
|100>    H       -7.06304         0.71278         2.28848
|101>    H       -7.08406         4.11735        -1.19831
|102>    H       -5.76113         1.01687         0.82908
|103>    H       -4.97691         3.30685        -1.03118
|104>    H       -2.94564         4.29746        -1.66613
|105>    H       -0.62581         4.86926        -2.23783
|106>    H        1.17387         3.22577        -2.04024
|107>    H        0.71404         0.91457        -1.31575
|108>    H       -4.00021        -1.78037        -0.47100
|109>    H       -5.33720        -0.54360        -0.63486
|110>    H       -0.41104        -1.22891        -1.07157
|111>    H       -0.98554        -5.14074         1.66071
|112>    H        0.23539        -4.86036        -0.61701
|113>    H       -1.09927        -2.73534        -2.38201
|114>    H        0.78490        -5.10594        -2.91738
|115>    H        3.09888         0.64959        -2.56582
|116>    H        3.76570         2.82734        -3.55433
|117>    H        2.55303         3.75064        -5.47184
|118>    H        0.66266         2.50204        -6.49452
|119>    H       -1.72968        -1.51633        -7.37254
|120>    H       -1.89691        -2.65598        -9.53649
|121>    H       -0.79822        -4.81626        -9.92686
|122>    H        0.47891        -5.91173        -8.08611
|123> *
|124>
|125>                          ****END OF INPUT****

CARTESIAN COORDINATES (ANGSTROEM)
---------------------------------
  C     -8.431720   -0.090690    4.140670
  C     -7.148060   -0.794530    3.983920
  O     -6.312520   -0.587790    3.104890
  C     -7.091830   -1.782620    5.056770
  C     -8.302350   -1.743290    5.781150
  C     -9.177800   -0.705710    5.217900
  C    -10.449640   -0.396980    5.648600
  C    -11.366550   -1.324110    6.349630
  O    -11.234040   -2.516150    6.532960
  C    -12.582670   -0.542300    6.675700
  C    -12.446810    0.757830    6.186290
  C    -11.139510    0.900470    5.506030
  O    -10.721060    1.932560    5.017240
  C    -13.447610    1.694680    6.363550
  C    -14.594710    1.300650    7.040440
  C    -14.731100    0.006660    7.525070
  C    -13.726170   -0.935380    7.344620
  C     -8.425510   -2.536900    6.910440
  C     -7.374850   -3.377880    7.260530
  C     -6.202070   -3.424720    6.523230
  C     -6.042000   -2.607310    5.412720
  C     -8.788500    0.906580    3.267690
  N     -7.943580    1.266440    2.290270
  C     -8.107310    2.250040    1.381140
  S     -9.535260    3.233190    1.336830
  C     -8.857860    4.111590    0.000090
  N     -9.617290    5.143650   -0.559310
  O     -9.131150    5.764410   -1.488570
  O    -10.717800    5.346150   -0.073850
  C     -7.617330    3.674040   -0.377930
  C     -7.155330    2.594440    0.402480
  C     -5.909850    1.911540    0.242920
  C     -4.890330    2.343300   -0.548030
  C     -3.666350    1.672450   -0.737090
  C     -2.470030    2.245730   -1.174120
  C     -2.163820    3.556930   -1.595380
  C     -0.875650    3.871200   -1.910210
  C      0.166640    2.916270   -1.804890
  C     -0.082130    1.636720   -1.411590
  C     -1.408750    1.265890   -1.098740
  C     -1.933420    0.069930   -0.630160
  C     -3.386320    0.245760   -0.496840
  C     -4.286470   -0.742970   -0.521650
  N     -1.257940   -1.112530   -0.511910
  C     -1.508430   -2.087780    0.387440
  S     -2.339510   -1.766270    1.883690
  C     -1.989500   -3.392710    2.405390
  N     -2.460390   -3.791360    3.650390
  O     -2.239620   -4.935290    4.013620
  O     -3.072230   -2.954910    4.303760
  C     -1.276110   -4.119950    1.489670
  C     -1.013900   -3.403970    0.308740
  C     -0.359810   -3.980850   -0.825970
  C     -0.442990   -3.547160   -2.106370
  C      0.276200   -4.176850   -3.151680
  C      0.320680   -3.793620   -4.453640
  C      0.729410   -4.786800   -5.485630
  O      1.377770   -5.792040   -5.311400
  C      0.099960   -4.306050   -6.729470
  C     -0.491620   -3.046060   -6.506240
  C     -0.152790   -2.606090   -5.144290
  C      0.059500   -1.313820   -4.741040
  C     -0.192080   -0.083180   -5.531740
  O     -1.087790    0.137800   -6.315230
  C      0.841950    0.887370   -5.098880
  C      1.513770    0.376190   -3.985270
  C      0.898320   -0.911770   -3.592930
  O      1.046870   -1.455900   -2.513920
  C      2.572110    1.058230   -3.414910
  C      2.937770    2.275590   -3.974910
  C      2.252320    2.797150   -5.063830
  C      1.192650    2.108500   -5.641090
  C     -1.228650   -2.458120   -7.520810
  C     -1.324310   -3.112990   -8.743100
  C     -0.709770   -4.336040   -8.963920
  C      0.005650   -4.951940   -7.946460
  H    -13.333640    2.696610    5.979190
  H    -15.394560    2.010480    7.191180
  H    -15.632820   -0.270510    8.050960
  H    -13.822620   -1.943320    7.718120
  H     -9.314670   -2.525350    7.516020
  H     -7.478090   -4.002890    8.135320
  H     -5.401480   -4.085330    6.818500
  H     -5.117650   -2.591310    4.856040
  H     -9.717880    1.452840    3.348480
  H     -7.063040    0.712780    2.288480
  H     -7.084060    4.117350   -1.198310
  H     -5.761130    1.016870    0.829080
  H     -4.976910    3.306850   -1.031180
  H     -2.945640    4.297460   -1.666130
  H     -0.625810    4.869260   -2.237830
  H      1.173870    3.225770   -2.040240
  H      0.714040    0.914570   -1.315750
  H     -4.000210   -1.780370   -0.471000
  H     -5.337200   -0.543600   -0.634860
  H     -0.411040   -1.228910   -1.071570
  H     -0.985540   -5.140740    1.660710
  H      0.235390   -4.860360   -0.617010
  H     -1.099270   -2.735340   -2.382010
  H      0.784900   -5.105940   -2.917380
  H      3.098880    0.649590   -2.565820
  H      3.765700    2.827340   -3.554330
  H      2.553030    3.750640   -5.471840
  H      0.662660    2.502040   -6.494520
  H     -1.729680   -1.516330   -7.372540
  H     -1.896910   -2.655980   -9.536490
  H     -0.798220   -4.816260   -9.926860
  H      0.478910   -5.911730   -8.086110

 Total Charge           Charge          ....    0
 Multiplicity           Mult            ....    1
 Number of Electrons    NEL             ....  532
 Basis Dimension        Dim             .... 1232

ORBITAL ENERGIES
----------------

  NO   OCC          E(Eh)            E(eV)
   0   2.0000     -88.978606     -2421.2310
   1   2.0000     -88.977634     -2421.2045
   2   2.0000     -19.235305      -523.4193
   3   2.0000     -19.234288      -523.3916
   4   2.0000     -19.233158      -523.3608
   5   2.0000     -19.229749      -523.2681
   6   2.0000     -19.228786      -523.2419
   7   2.0000     -19.224465      -523.1243
   8   2.0000     -19.217169      -522.9258
   9   2.0000     -19.209298      -522.7116
  10   2.0000     -19.203406      -522.5512
  11   2.0000     -19.198320      -522.4129
  12   2.0000     -14.645897      -398.5351
  13   2.0000     -14.641020      -398.4024
  14   2.0000     -14.476188      -393.9171
  15   2.0000     -14.475356      -393.8945
  16   2.0000     -10.384170      -282.5676
  17   2.0000     -10.376113      -282.3484
  18   2.0000     -10.368253      -282.1345
  19   2.0000     -10.360690      -281.9287
  20   2.0000     -10.359087      -281.8851
  21   2.0000     -10.358938      -281.8810
  22   2.0000     -10.356579      -281.8168
  23   2.0000     -10.352459      -281.7047
  24   2.0000     -10.344993      -281.5016
  25   2.0000     -10.336963      -281.2831
  26   2.0000     -10.336160      -281.2612
  27   2.0000     -10.333928      -281.2005
  28   2.0000     -10.323260      -280.9102
  29   2.0000     -10.320471      -280.8343
  30   2.0000     -10.308153      -280.4991
  31   2.0000     -10.307272      -280.4751
  32   2.0000     -10.305024      -280.4140
  33   2.0000     -10.302358      -280.3414
  34   2.0000     -10.301793      -280.3260
  35   2.0000     -10.301411      -280.3156
  36   2.0000     -10.301335      -280.3136
  37   2.0000     -10.300905      -280.3019
  38   2.0000     -10.300792      -280.2988
  39   2.0000     -10.300680      -280.2957
  40   2.0000     -10.299377      -280.2603
  41   2.0000     -10.298777      -280.2440
  42   2.0000     -10.297826      -280.2181
  43   2.0000     -10.297802      -280.2174
  44   2.0000     -10.297708      -280.2149
  45   2.0000     -10.294707      -280.1332
  46   2.0000     -10.288183      -279.9557
  47   2.0000     -10.287492      -279.9369
  48   2.0000     -10.286683      -279.9149
  49   2.0000     -10.286647      -279.9139
  50   2.0000     -10.286365      -279.9062
  51   2.0000     -10.284664      -279.8599
  52   2.0000     -10.283676      -279.8331
  53   2.0000     -10.282683      -279.8060
  54   2.0000     -10.282476      -279.8004
  55   2.0000     -10.282262      -279.7946
  56   2.0000     -10.281887      -279.7844
  57   2.0000     -10.281739      -279.7803
  58   2.0000     -10.281565      -279.7756
  59   2.0000     -10.280570      -279.7485
  60   2.0000     -10.279716      -279.7253
  61   2.0000     -10.279593      -279.7219
  62   2.0000     -10.279275      -279.7133
  63   2.0000     -10.278068      -279.6804
  64   2.0000     -10.277478      -279.6644
  65   2.0000     -10.277331      -279.6604
  66   2.0000     -10.277021      -279.6520
  67   2.0000     -10.277017      -279.6518
  68   2.0000     -10.276377      -279.6344
  69   2.0000     -10.276119      -279.6274
  70   2.0000     -10.273189      -279.5477
  71   2.0000     -10.271930      -279.5134
  72   2.0000     -10.271847      -279.5112
  73   2.0000     -10.271623      -279.5051
  74   2.0000     -10.270018      -279.4614
  75   2.0000     -10.269231      -279.4400
  76   2.0000      -8.073823      -219.6999
  77   2.0000      -8.072931      -219.6756
  78   2.0000      -6.043517      -164.4524
  79   2.0000      -6.042564      -164.4265
  80   2.0000      -6.039138      -164.3333
  81   2.0000      -6.038249      -164.3091
  82   2.0000      -6.035121      -164.2240
  83   2.0000      -6.034359      -164.2033
  84   2.0000      -1.313438       -35.7405
  85   2.0000      -1.309938       -35.6452
  86   2.0000      -1.148327       -31.2476
  87   2.0000      -1.138972       -30.9930
  88   2.0000      -1.131787       -30.7975
  89   2.0000      -1.131538       -30.7907
  90   2.0000      -1.128719       -30.7140
  91   2.0000      -1.124325       -30.5944
  92   2.0000      -1.120374       -30.4869
  93   2.0000      -1.113356       -30.2959
  94   2.0000      -1.085940       -29.5499
  95   2.0000      -1.085779       -29.5456
  96   2.0000      -1.003267       -27.3003
  97   2.0000      -0.998086       -27.1593
  98   2.0000      -0.996920       -27.1276
  99   2.0000      -0.989342       -26.9214
 100   2.0000      -0.980562       -26.6824
 101   2.0000      -0.980194       -26.6724
 102   2.0000      -0.969428       -26.3795
 103   2.0000      -0.944141       -25.6914
 104   2.0000      -0.930853       -25.3298
 105   2.0000      -0.927824       -25.2474
 106   2.0000      -0.925207       -25.1761
 107   2.0000      -0.916920       -24.9507
 108   2.0000      -0.909607       -24.7517
 109   2.0000      -0.901381       -24.5278
 110   2.0000      -0.891592       -24.2614
 111   2.0000      -0.881185       -23.9783
 112   2.0000      -0.869570       -23.6622
 113   2.0000      -0.866088       -23.5675
 114   2.0000      -0.862427       -23.4678
 115   2.0000      -0.859328       -23.3835
 116   2.0000      -0.855616       -23.2825
 117   2.0000      -0.849543       -23.1172
 118   2.0000      -0.846020       -23.0214
 119   2.0000      -0.844888       -22.9906
 120   2.0000      -0.842104       -22.9148
 121   2.0000      -0.835705       -22.7407
 122   2.0000      -0.830747       -22.6058
 123   2.0000      -0.823512       -22.4089
 124   2.0000      -0.800395       -21.7798
 125   2.0000      -0.788718       -21.4621
 126   2.0000      -0.781381       -21.2624
 127   2.0000      -0.770877       -20.9766
 128   2.0000      -0.766074       -20.8459
 129   2.0000      -0.757626       -20.6161
 130   2.0000      -0.752465       -20.4756
 131   2.0000      -0.747489       -20.3402
 132   2.0000      -0.735261       -20.0075
 133   2.0000      -0.724746       -19.7213
 134   2.0000      -0.720142       -19.5960
 135   2.0000      -0.715990       -19.4831
 136   2.0000      -0.713255       -19.4086
 137   2.0000      -0.701304       -19.0835
 138   2.0000      -0.698306       -19.0019
 139   2.0000      -0.694114       -18.8878
 140   2.0000      -0.684474       -18.6255
 141   2.0000      -0.679071       -18.4785
 142   2.0000      -0.669933       -18.2298
 143   2.0000      -0.667989       -18.1769
 144   2.0000      -0.665926       -18.1208
 145   2.0000      -0.660552       -17.9745
 146   2.0000      -0.655978       -17.8501
 147   2.0000      -0.653672       -17.7873
 148   2.0000      -0.646003       -17.5786
 149   2.0000      -0.643212       -17.5027
 150   2.0000      -0.637964       -17.3599
 151   2.0000      -0.633533       -17.2393
 152   2.0000      -0.631585       -17.1863
 153   2.0000      -0.628598       -17.1050
 154   2.0000      -0.627500       -17.0751
 155   2.0000      -0.625320       -17.0158
 156   2.0000      -0.622223       -16.9315
 157   2.0000      -0.621423       -16.9098
 158   2.0000      -0.619367       -16.8538
 159   2.0000      -0.610873       -16.6227
 160   2.0000      -0.596005       -16.2181
 161   2.0000      -0.593727       -16.1561
 162   2.0000      -0.590488       -16.0680
 163   2.0000      -0.589803       -16.0494
 164   2.0000      -0.583779       -15.8854
 165   2.0000      -0.582354       -15.8467
 166   2.0000      -0.580982       -15.8093
 167   2.0000      -0.577915       -15.7259
 168   2.0000      -0.574885       -15.6434
 169   2.0000      -0.569291       -15.4912
 170   2.0000      -0.567131       -15.4324
 171   2.0000      -0.564840       -15.3701
 172   2.0000      -0.558993       -15.2110
 173   2.0000      -0.555140       -15.1061
 174   2.0000      -0.554383       -15.0855
 175   2.0000      -0.551091       -14.9960
 176   2.0000      -0.549617       -14.9558
 177   2.0000      -0.547594       -14.9008
 178   2.0000      -0.543428       -14.7874
 179   2.0000      -0.541492       -14.7348
 180   2.0000      -0.539838       -14.6897
 181   2.0000      -0.538126       -14.6432
 182   2.0000      -0.535445       -14.5702
 183   2.0000      -0.533318       -14.5123
 184   2.0000      -0.531480       -14.4623
 185   2.0000      -0.529973       -14.4213
 186   2.0000      -0.527860       -14.3638
 187   2.0000      -0.526161       -14.3176
 188   2.0000      -0.523034       -14.2325
 189   2.0000      -0.520046       -14.1512
 190   2.0000      -0.519922       -14.1478
 191   2.0000      -0.519030       -14.1235
 192   2.0000      -0.516376       -14.0513
 193   2.0000      -0.513495       -13.9729
 194   2.0000      -0.511838       -13.9278
 195   2.0000      -0.510557       -13.8930
 196   2.0000      -0.510257       -13.8848
 197   2.0000      -0.507157       -13.8004
 198   2.0000      -0.505636       -13.7591
 199   2.0000      -0.504293       -13.7225
 200   2.0000      -0.503248       -13.6941
 201   2.0000      -0.498573       -13.5668
 202   2.0000      -0.496222       -13.5029
 203   2.0000      -0.494383       -13.4529
 204   2.0000      -0.489743       -13.3266
 205   2.0000      -0.487687       -13.2707
 206   2.0000      -0.484032       -13.1712
 207   2.0000      -0.482134       -13.1195
 208   2.0000      -0.480469       -13.0742
 209   2.0000      -0.477651       -12.9976
 210   2.0000      -0.471233       -12.8229
 211   2.0000      -0.469594       -12.7783
 212   2.0000      -0.465798       -12.6750
 213   2.0000      -0.460266       -12.5245
 214   2.0000      -0.459799       -12.5118
 215   2.0000      -0.457416       -12.4469
 216   2.0000      -0.454278       -12.3615
 217   2.0000      -0.452676       -12.3179
 218   2.0000      -0.451711       -12.2917
 219   2.0000      -0.449780       -12.2391
 220   2.0000      -0.448291       -12.1986
 221   2.0000      -0.445235       -12.1155
 222   2.0000      -0.445050       -12.1104
 223   2.0000      -0.441866       -12.0238
 224   2.0000      -0.440769       -11.9939
 225   2.0000      -0.436413       -11.8754
 226   2.0000      -0.434668       -11.8279
 227   2.0000      -0.431973       -11.7546
 228   2.0000      -0.431594       -11.7443
 229   2.0000      -0.425904       -11.5894
 230   2.0000      -0.422721       -11.5028
 231   2.0000      -0.418351       -11.3839
 232   2.0000      -0.416631       -11.3371
 233   2.0000      -0.412854       -11.2343
 234   2.0000      -0.402402       -10.9499
 235   2.0000      -0.395758       -10.7691
 236   2.0000      -0.389381       -10.5956
 237   2.0000      -0.383748       -10.4423
 238   2.0000      -0.377539       -10.2733
 239   2.0000      -0.375902       -10.2288
 240   2.0000      -0.369748       -10.0613
 241   2.0000      -0.366469        -9.9721
 242   2.0000      -0.363461        -9.8903
 243   2.0000      -0.359716        -9.7884
 244   2.0000      -0.358094        -9.7442
 245   2.0000      -0.354203        -9.6384
 246   2.0000      -0.349870        -9.5204
 247   2.0000      -0.348240        -9.4761
 248   2.0000      -0.345078        -9.3901
 249   2.0000      -0.338923        -9.2226
 250   2.0000      -0.336337        -9.1522
 251   2.0000      -0.334551        -9.1036
 252   2.0000      -0.334138        -9.0924
 253   2.0000      -0.331254        -9.0139
 254   2.0000      -0.330166        -8.9843
 255   2.0000      -0.329613        -8.9692
 256   2.0000      -0.327984        -8.9249
 257   2.0000      -0.323404        -8.8003
 258   2.0000      -0.319701        -8.6995
 259   2.0000      -0.314940        -8.5699
 260   2.0000      -0.311965        -8.4890
 261   2.0000      -0.308611        -8.3977
 262   2.0000      -0.294479        -8.0132
 263   2.0000      -0.278666        -7.5829
 264   2.0000      -0.264642        -7.2013
 265   2.0000      -0.215372        -5.8606
 266   0.0000      -0.092402        -2.5144
 267   0.0000      -0.081106        -2.2070
 268   0.0000      -0.074829        -2.0362
 269   0.0000      -0.058577        -1.5940
 270   0.0000      -0.056044        -1.5250

MULLIKEN ATOMIC CHARGES
-----------------------
   0 C :   -0.103979
   1 C :    0.160461
   2 O :   -0.236728
   3 C :   -0.016048
   4 C :    0.060323
   5 C :    0.200983
   6 C :   -0.257930
   7 C :    0.142196
   8 O :   -0.161427
   9 C :    0.008264
  10 C :    0.013137
  11 C :    0.153475
  12 O :   -0.183904
  13 C :   -0.028300
  14 C :    0.037673
  15 C :    0.040161
  16 C :   -0.028141
  17 C :   -0.019406
  18 C :    0.033931
  19 C :    0.040812
  20 C :   -0.014688
  21 C :    0.032157
  22 N :   -0.011549
  23 C :   -0.124604
  24 S :    0.169770
  25 C :    0.002324
  26 N :    0.275988
  27 O :   -0.256435
  28 O :   -0.264530
  29 C :   -0.001017
  30 C :    0.136321
  31 C :   -0.076613
  32 C :   -0.020129
  33 C :    0.046780
  34 C :    0.054246
  35 C :   -0.018611
  36 C :    0.030879
  37 C :    0.015650
  38 C :   -0.023823
  39 C :    0.038927
  40 C :   -0.003861
  41 C :   -0.035173
  42 C :    0.010855
  43 N :   -0.022128
  44 C :   -0.124223
  45 S :    0.191391
  46 C :   -0.023298
  47 N :    0.292828
  48 O :   -0.257169
  49 O :   -0.269957
  50 C :    0.013755
  51 C :    0.120664
  52 C :   -0.032063
  53 C :    0.050645
  54 C :    0.013116
  55 C :   -0.106900
  56 C :    0.141043
  57 O :   -0.147872
  58 C :   -0.007657
  59 C :    0.029175
  60 C :    0.118277
  61 C :   -0.162213
  62 C :    0.153491
  63 O :   -0.150114
  64 C :    0.029999
  65 C :    0.016458
  66 C :    0.159716
  67 O :   -0.196969
  68 C :   -0.033917
  69 C :    0.036725
  70 C :    0.040109
  71 C :   -0.026651
  72 C :   -0.043901
  73 C :    0.038436
  74 C :    0.041980
  75 C :   -0.028702
  76 H :   -0.007770
  77 H :   -0.003178
  78 H :   -0.004963
  79 H :   -0.009494
  80 H :   -0.008960
  81 H :   -0.006474
  82 H :    0.001537
  83 H :   -0.026930
  84 H :    0.045496
  85 H :    0.186763
  86 H :    0.008277
  87 H :   -0.009475
  88 H :   -0.026000
  89 H :   -0.026914
  90 H :   -0.015555
  91 H :   -0.019760
  92 H :   -0.032037
  93 H :    0.048436
  94 H :    0.046916
  95 H :    0.168254
  96 H :    0.009112
  97 H :    0.000636
  98 H :   -0.001810
  99 H :    0.011330
 100 H :   -0.000723
 101 H :    0.002677
 102 H :    0.001410
 103 H :   -0.001875
 104 H :    0.009850
 105 H :   -0.002835
 106 H :   -0.003370
 107 H :   -0.005061
Sum of atomic charges:   -0.0000000

LOEWDIN ATOMIC CHARGES
----------------------
   0 C :   -0.141381
   1 C :    0.100868
   2 O :   -0.180617
   3 C :   -0.051381
   4 C :   -0.009046
   5 C :    0.095126
   6 C :   -0.151972
   7 C :    0.078626
   8 O :   -0.152260
   9 C :   -0.042823
  10 C :   -0.044201
  11 C :    0.083540
  12 O :   -0.166166
  13 C :    0.008192
  14 C :   -0.006983
  15 C :   -0.006062
  16 C :    0.006644
  17 C :    0.012083
  18 C :   -0.006022
  19 C :   -0.001131
  20 C :    0.014739
  21 C :    0.116910
  22 N :    0.074746
  23 C :   -0.112649
  24 S :    0.465598
  25 C :   -0.205496
  26 N :    0.273842
  27 O :   -0.222388
  28 O :   -0.231011
  29 C :   -0.000103
  30 C :   -0.087065
  31 C :   -0.051625
  32 C :   -0.009228
  33 C :   -0.045419
  34 C :   -0.008078
  35 C :   -0.013760
  36 C :   -0.019794
  37 C :   -0.023072
  38 C :   -0.021958
  39 C :   -0.040504
  40 C :   -0.012715
  41 C :   -0.025418
  42 C :    0.056605
  43 N :    0.050460
  44 C :   -0.091443
  45 S :    0.470549
  46 C :   -0.218662
  47 N :    0.278612
  48 O :   -0.222531
  49 O :   -0.237635
  50 C :    0.007017
  51 C :   -0.111682
  52 C :    0.009324
  53 C :   -0.032239
  54 C :    0.064138
  55 C :   -0.090527
  56 C :    0.082223
  57 O :   -0.144489
  58 C :   -0.048715
  59 C :   -0.010087
  60 C :    0.070172
  61 C :   -0.121882
  62 C :    0.089037
  63 O :   -0.130970
  64 C :   -0.036298
  65 C :   -0.040343
  66 C :    0.099437
  67 O :   -0.154104
  68 C :    0.006284
  69 C :   -0.005247
  70 C :   -0.000868
  71 C :    0.012761
  72 C :   -0.002638
  73 C :   -0.004327
  74 C :   -0.007093
  75 C :    0.009169
  76 H :    0.037177
  77 H :    0.032505
  78 H :    0.032081
  79 H :    0.036457
  80 H :    0.031902
  81 H :    0.032258
  82 H :    0.035282
  83 H :    0.030266
  84 H :    0.027668
  85 H :    0.079178
  86 H :    0.042522
  87 H :    0.026781
  88 H :    0.028224
  89 H :    0.028571
  90 H :    0.028759
  91 H :    0.025378
  92 H :    0.022242
  93 H :    0.029837
  94 H :    0.036672
  95 H :    0.092233
  96 H :    0.045679
  97 H :    0.035982
  98 H :    0.022649
  99 H :    0.041458
 100 H :    0.037326
 101 H :    0.034573
 102 H :    0.034907
 103 H :    0.039586
 104 H :    0.032743
 105 H :    0.033613
 106 H :    0.032587
 107 H :    0.038310

  Mayer bond orders larger than 0.100000
B(  0-C ,  1-C ) :   1.0031 B(  0-C ,  5-C ) :   1.1508 B(  0-C , 21-C ) :   1.4670
B(  1-C ,  2-O ) :   1.9885 B(  1-C ,  3-C ) :   1.0020 B(  2-O , 85-H ) :   0.1532
B(  3-C ,  4-C ) :   1.3032 B(  3-C , 20-C ) :   1.3827 B(  4-C ,  5-C ) :   1.0405
B(  4-C , 17-C ) :   1.4000 B(  5-C ,  6-C ) :   1.4868 B(  6-C ,  7-C ) :   0.9787
B(  6-C , 11-C ) :   0.9928 B(  7-C ,  8-O ) :   2.2137 B(  7-C ,  9-C ) :   0.9123
B(  9-C , 10-C ) :   1.3528 B(  9-C , 16-C ) :   1.3898 B( 10-C , 11-C ) :   0.9305
B( 10-C , 13-C ) :   1.3821 B( 11-C , 12-O ) :   2.1483 B( 13-C , 14-C ) :   1.3568
B( 13-C , 76-H ) :   1.0042 B( 14-C , 15-C ) :   1.3832 B( 14-C , 77-H ) :   0.9880
B( 15-C , 16-C ) :   1.3556 B( 15-C , 78-H ) :   0.9878 B( 16-C , 79-H ) :   1.0032
B( 17-C , 18-C ) :   1.3705 B( 17-C , 80-H ) :   0.9823 B( 18-C , 19-C ) :   1.3757
B( 18-C , 81-H ) :   0.9868 B( 19-C , 20-C ) :   1.3398 B( 19-C , 82-H ) :   0.9906
B( 20-C , 83-H ) :   0.9938 B( 21-C , 22-N ) :   1.3198 B( 21-C , 84-H ) :   0.9209
B( 22-N , 23-C ) :   1.2195 B( 22-N , 85-H ) :   0.8127 B( 23-C , 24-S ) :   1.1330
B( 23-C , 30-C ) :   1.3459 B( 24-S , 25-C ) :   1.0753 B( 25-C , 26-N ) :   0.9739
B( 25-C , 29-C ) :   1.4912 B( 26-N , 27-O ) :   1.5281 B( 26-N , 28-O ) :   1.5114
B( 27-O , 28-O ) :   0.2566 B( 29-C , 30-C ) :   1.2191 B( 29-C , 86-H ) :   0.9996
B( 30-C , 31-C ) :   1.0888 B( 31-C , 32-C ) :   1.6295 B( 31-C , 87-H ) :   0.9697
B( 32-C , 33-C ) :   1.1927 B( 32-C , 88-H ) :   0.9623 B( 33-C , 34-C ) :   1.4114
B( 33-C , 41-C ) :   0.9955 B( 34-C , 35-C ) :   1.1759 B( 34-C , 39-C ) :   1.1295
B( 35-C , 36-C ) :   1.5907 B( 35-C , 89-H ) :   0.9921 B( 36-C , 37-C ) :   1.1649
B( 36-C , 90-H ) :   0.9835 B( 37-C , 38-C ) :   1.5888 B( 37-C , 91-H ) :   0.9788
B( 38-C , 39-C ) :   1.1498 B( 38-C , 92-H ) :   0.9829 B( 39-C , 40-C ) :   1.4549
B( 40-C , 41-C ) :   1.0445 B( 40-C , 43-N ) :   1.1475 B( 41-C , 42-C ) :   1.8689
B( 42-C , 93-H ) :   0.9380 B( 42-C , 94-H ) :   0.9331 B( 43-N , 44-C ) :   1.2411
B( 43-N , 95-H ) :   0.8679 B( 44-C , 45-S ) :   1.1415 B( 44-C , 51-C ) :   1.3196
B( 45-S , 46-C ) :   1.0632 B( 46-C , 47-N ) :   0.9960 B( 46-C , 50-C ) :   1.4649
B( 47-N , 48-O ) :   1.5283 B( 47-N , 49-O ) :   1.4459 B( 48-O , 49-O ) :   0.2411
B( 50-C , 51-C ) :   1.2297 B( 50-C , 96-H ) :   1.0062 B( 51-C , 52-C ) :   1.0827
B( 52-C , 53-C ) :   1.6709 B( 52-C , 97-H ) :   0.9766 B( 53-C , 54-C ) :   1.1364
B( 53-C , 98-H ) :   0.9604 B( 54-C , 55-C ) :   1.6385 B( 54-C , 99-H ) :   0.9598
B( 55-C , 56-C ) :   0.9392 B( 55-C , 60-C ) :   1.0566 B( 56-C , 57-O ) :   2.2527
B( 56-C , 58-C ) :   0.9270 B( 58-C , 59-C ) :   1.3193 B( 58-C , 75-C ) :   1.4024
B( 59-C , 60-C ) :   1.0261 B( 59-C , 72-C ) :   1.4010 B( 60-C , 61-C ) :   1.6347
B( 61-C , 62-C ) :   0.9390 B( 61-C , 66-C ) :   0.9880 B( 62-C , 63-O ) :   2.2001
B( 62-C , 64-C ) :   0.9236 B( 64-C , 65-C ) :   1.3529 B( 64-C , 71-C ) :   1.3910
B( 65-C , 66-C ) :   0.9331 B( 65-C , 68-C ) :   1.3912 B( 66-C , 67-O ) :   2.0704
B( 68-C , 69-C ) :   1.3580 B( 68-C ,100-H ) :   1.0023 B( 69-C , 70-C ) :   1.3773
B( 69-C ,101-H ) :   0.9891 B( 70-C , 71-C ) :   1.3586 B( 70-C ,102-H ) :   0.9901
B( 71-C ,103-H ) :   1.0042 B( 72-C , 73-C ) :   1.3506 B( 72-C ,104-H ) :   0.9835
B( 73-C , 74-C ) :   1.3836 B( 73-C ,105-H ) :   0.9874 B( 74-C , 75-C ) :   1.3445
B( 74-C ,106-H ) :   0.9911 B( 75-C ,107-H ) :   1.0051

-----------------------------------------------------------------------------
         ABSORPTION SPECTRUM VIA TRANSITION ELECTRIC DIPOLE MOMENTS
-----------------------------------------------------------------------------
State   Energy  Wavelength   fosc         T2         TX        TY        TZ
        (cm-1)    (nm)                  (au**2)     (au)      (au)      (au)
-----------------------------------------------------------------------------
   0    8957.8   1116.3   0.184857944   6.79381   2.07170  -1.38296  -0.76766
   1   13699.2    730.0   0.034875037   0.83810   0.04087   0.17561  -0.89755
   2   16864.9    592.9   0.297297040   5.80339   1.09436   1.10290  -1.84103
   3   18498.6    540.6   0.023357378   0.41568   0.16009  -0.47873  -0.40108
   4   20002.3    499.9   0.029814574   0.49071  -0.40425   0.45866  -0.34194
   5   20459.8    488.8   0.061330207   0.98684  -0.05040  -0.46020   0.87893
   6   21337.3    468.7   0.215148288   3.31950   0.61135   1.30785  -1.11143
   7   21515.7    464.8   0.104698999   1.60200  -0.50390   0.76564   0.87286
   8   23390.2    427.5   0.545821604   7.68233  -1.34631  -0.90596   2.24700
   9   24181.5    413.5   0.126554118   1.72293   0.24202  -0.94043   0.88315
  10   24798.6    403.2   0.024740554   0.32844   0.42822  -0.36976  -0.09136
  11   25482.7    392.4   0.291972928   3.77202   1.65765   0.25601  -0.97912
  12   25817.4    387.3   0.134156526   1.71070   0.12380  -0.95370   0.88647
  13   27952.4    357.8   0.288999923   3.40372   0.90285  -1.39244   0.80604
  14   28343.8    352.8   0.045011630   0.52281  -0.14801  -0.68459   0.17953
  15   28545.4    350.3   0.006326753   0.07297   0.21207   0.13181  -0.10304
  16   29083.2    343.8   0.161960247   1.83334   0.42198  -0.15037  -1.27776
  17   29548.8    338.4   0.141431580   1.57573  -0.72685  -0.50291   0.89135
  18   29686.6    336.9   0.051513963   0.57127  -0.44444   0.54917  -0.26862
  19   30242.7    330.7   0.016284460   0.17727  -0.11148  -0.29192   0.28217
  20   30311.6    329.9   0.033621812   0.36516   0.41170  -0.25707   0.35997
  21   30589.9    326.9   0.020631352   0.22204   0.26459  -0.38890  -0.02803
  22   30980.8    322.8   0.123496478   1.31231   1.07061   0.03320  -0.40620
  23   31179.2    320.7   0.456620084   4.82131   1.18433  -1.84668  -0.09203
  24   31452.2    317.9   0.386540055   4.04593  -0.14201  -0.48586  -1.94672
  25   31703.3    315.4   0.062630342   0.65036   0.31637   0.29779  -0.67941
  26   31791.2    314.6   0.061284361   0.63463  -0.23815   0.33347   0.68316
  27   31954.7    312.9   0.159873057   1.64708   1.11356  -0.56296   0.30023
  28   32656.5    306.2   0.402834126   4.06100  -1.34084   1.32820   0.70642
  29   32676.6    306.0   0.072172520   0.72713  -0.08762  -0.50363  -0.68250
  30   32807.3    304.8   0.062185414   0.62401   0.40516   0.55636   0.38772
  31   33029.3    302.8   0.069549799   0.69322  -0.81476  -0.17143  -0.00017
  32   33111.1    302.0   0.249209528   2.47780   1.51281  -0.26882   0.34195
  33   33548.6    298.1   0.010458622   0.10263   0.09268  -0.30422  -0.03863
  34   33685.1    296.9   0.006084192   0.05946  -0.11198   0.12250   0.17865
  35   33721.2    296.5   0.028864965   0.28180   0.05304   0.49968  -0.17119
  36   33975.2    294.3   0.040298875   0.39049  -0.42897   0.03040   0.45338
  37   34117.0    293.1   0.004521139   0.04363  -0.19678   0.04481   0.05381
  38   34380.7    290.9   0.017150916   0.16423   0.01874   0.29880   0.27312
  39   34574.7    289.2   0.013303564   0.12667  -0.27379   0.08358   0.21149
  40   34675.4    288.4   0.187865874   1.78362  -1.32352  -0.14709  -0.10143
  41   34748.0    287.8   0.002517155   0.02385   0.01923  -0.02806   0.15064
  42   34871.0    286.8   0.106500969   1.00546  -0.66288  -0.02257   0.75202
  43   34968.3    286.0   0.009995739   0.09411  -0.11774   0.19977  -0.20083
  44   35310.8    283.2   0.121675628   1.13441   0.83725  -0.01170  -0.65825
  45   35495.2    281.7   0.156948590   1.45567   0.10340   0.35974   1.14698
  46   35815.0    279.2   0.045421350   0.41751  -0.06366  -0.26425  -0.58620
  47   36052.9    277.4   0.083825973   0.76545  -0.43984  -0.64635   0.39270
  48   36200.6    276.2   0.062525975   0.56862   0.03380   0.59282  -0.46481
  49   36217.7    276.1   0.032528286   0.29568  -0.45675  -0.28525   0.07538
  50   36393.0    274.8   0.143226313   1.29563   0.94929   0.54300  -0.31564
  51   36740.5    272.2   0.082357833   0.73796  -0.51370  -0.63948  -0.25524
  52   36810.3    271.7   0.057174414   0.51134   0.51851   0.15200  -0.46838
  53   36984.2    270.4   0.049721380   0.44259   0.54446   0.33549  -0.18329
  54   37036.8    270.0   0.054670086   0.48595  -0.57748  -0.38622   0.05739
  55   37340.8    267.8   0.015797457   0.13928   0.32357   0.09959  -0.15705
  56   37618.5    265.8   0.071468787   0.62545   0.13531  -0.26619  -0.73231
  57   37628.4    265.8   0.020626873   0.18046   0.09574   0.37592   0.17315
  58   37910.0    263.8   0.006260587   0.05437  -0.14739  -0.17463   0.04635
  59   37964.6    263.4   0.045176042   0.39175  -0.11610   0.53611  -0.30143
  60   38061.9    262.7   0.028077305   0.24285   0.24782   0.42013   0.07021
  61   38217.1    261.7   0.016670537   0.14360   0.21296  -0.22254   0.22074
  62   38338.9    260.8   0.002098371   0.01802  -0.11854  -0.06285   0.00394
  63   38722.8    258.2   0.067223589   0.57152  -0.11576   0.63657   0.39101
  64   38915.8    257.0   0.015238758   0.12891   0.06238   0.21524   0.28053
  65   39206.5    255.1   0.027329997   0.22949  -0.36303  -0.04699  -0.30902
  66   39378.9    253.9   0.002872282   0.02401  -0.02848  -0.14736  -0.03854
  67   39605.7    252.5   0.002407727   0.02001   0.10746   0.02781  -0.08771
  68   39802.9    251.2   0.001927649   0.01594   0.11560  -0.01230  -0.04928
  69   39851.9    250.9   0.080507918   0.66507  -0.21601  -0.39345   0.68088
  70   39938.9    250.4   0.044835351   0.36957  -0.00837  -0.35638   0.49244
  71   40027.7    249.8   0.102871959   0.84608   0.06489  -0.82576   0.39999
  72   40131.1    249.2   0.022434712   0.18404   0.11477  -0.05737   0.40936
  73   40211.7    248.7   0.029084048   0.23811   0.32747  -0.13601  -0.33522

FINAL SINGLE POINT ENERGY     -4068.735129535107

DIPOLE MOMENT
-------------
                                X             Y             Z
Electronic contribution:    -14.44938       0.73698      11.65824
Nuclear contribution   :     16.61678      -0.67273     -13.24552
                        -----------------------------------------
Total Dipole Moment    :      2.16739       0.06424      -1.58728
                        -----------------------------------------
Magnitude (a.u.)       :      2.68723
Magnitude (Debye)      :      6.83038

Rotational constants in cm-1:     0.001332     0.000391     0.000342
Rotational constants in MHz :    39.928996    11.711706    10.249927

                             ****ORCA TERMINATED NORMALLY****
TOTAL RUN TIME: 0 days 0 hours 12 minutes 2 seconds 861 msec
