                         Program Version 4.2.0 -  RELEASE  -
|  1> # ORCA input file
|  2> # SCF done       -157.268740626548          0.000973061005
|  3> ! CAM-B3LYP def2-SVP def2/J RIJCOSX Grid4 TightSCF
|  4> %maxcore 5000
|  5> %tddft
|  6>     Mode sTDDFT
|  7>     Ethresh 5.0
|  8>     maxcore 5000
|  9> end
| 10>
| 11> %pal
| 12>   nprocs 6
| 13>   end
| 14> * xyz 0 1
| 15>    C       -3.20559         0.69330         5.94797
| 16>    C       -2.15042        -0.07863         5.52259
| 17>    C       -1.50405        -1.04353         6.32098
| 18>    N       -0.93416        -1.84261         6.91799
| 19>    C       -1.53545        -0.00329         4.25759
| 20>    N       -0.96601         0.00862         3.25856
| 21>    C       -3.79864         0.64403         7.28159
| 22>    C       -4.80631         1.63503         7.36710
| 23>    C       -5.53508         1.85671         8.50882
| 24>    C       -5.26621         1.05086         9.62095
| 25>    C       -4.26402         0.05790         9.52481
| 26>    C       -3.52035        -0.15983         8.37065
| 27>    S       -4.08999        -0.82045        11.01457
| 28>    C       -5.35037         0.14511        11.73482
| 29>    C       -5.87524         1.07779        10.90530
| 30>   Br       -5.85046        -0.16443        13.51618
| 31>    C       -4.89478         2.35220         6.08014
| 32>    O       -5.55296         3.34861         5.85681
| 33>    C       -3.92425         1.68810         5.18351
| 34>    C       -3.64952         2.06142         3.89153
| 35>    C       -4.44748         2.87279         3.05031
| 36>    S       -6.20046         2.66816         3.25110
| 37>    C       -6.74033         4.32842         3.09590
| 38>    C       -7.72503         4.91095         3.82655
| 39>    S       -7.98943         6.54088         3.34539
| 40>    C       -6.74601         6.44321         2.16039
| 41>    C       -6.17386         5.21063         2.14141
| 42>    S       -4.88991         4.73228         1.04139
| 43>    C       -3.89583         3.67071         2.06055
| 44>    C       -2.51482         3.72402         1.76975
| 45>    C       -1.91655         4.73989         1.07100
| 46>    C       -0.57015         4.77481         0.70928
| 47>    C        0.02388         5.89151         0.15783
| 48>    C        1.35728         6.04146        -0.28327
| 49>    C        1.65965         7.29016        -0.74578
| 50>    C        0.58183         8.19634        -0.67782
| 51>    S       -0.84156         7.40136        -0.04184
| 52>    C        0.55699         9.54258        -0.99299
| 53>    C        1.58759        10.35638        -1.51173
| 54>    C        1.24556        11.66672        -1.66136
| 55>    C       -0.07931        11.96659        -1.25948
| 56>    S       -0.88402        10.49168        -0.71305
| 57>    C       -0.70068        13.18201        -1.22812
| 58>    N       -1.96711        13.32545        -0.76961
| 59>    C       -2.68080        14.46832        -0.65286
| 60>    S       -2.09384        15.97106        -1.29515
| 61>    C       -3.58506        16.73121        -0.83102
| 62>    N       -3.71746        18.09177        -1.10146
| 63>    O       -4.75855        18.63957        -0.78288
| 64>    O       -2.76583        18.63565        -1.64317
| 65>    C       -4.46820        15.87282        -0.22906
| 66>    C       -3.96384        14.56803        -0.09347
| 67>    C       -4.71026        13.51043         0.54510
| 68>    C       -4.20535        12.43324         1.17455
| 69>    C       -4.99226        11.40692         1.78957
| 70>    O       -4.32956        10.39756         2.40773
| 71>    C       -5.24615         9.56069         2.90695
| 72>    C       -6.50775         9.99992         2.62818
| 73>    C       -6.34974        11.19659         1.90162
| 74>    H       -6.29147         2.62505         8.54389
| 75>    H       -2.76384        -0.92613         8.35157
| 76>    H       -6.65802         1.75854        11.18622
| 77>    H       -2.72667         1.69534         3.46216
| 78>    H       -8.30694         4.47206         4.60991
| 79>    H       -6.51662         7.28620         1.54152
| 80>    H       -1.88990         2.91766         2.12755
| 81>    H       -2.51419         5.60337         0.80300
| 82>    H        0.04494         3.89985         0.86866
| 83>    H        2.05386         5.22271        -0.24616
| 84>    H        2.62572         7.58056        -1.11799
| 85>    H        2.55264         9.95197        -1.75791
| 86>    H        1.90244        12.43020        -2.03720
| 87>    H       -0.18770        14.07731        -1.54566
| 88>    H       -2.45210        12.47297        -0.50290
| 89>    H       -5.43376        16.19166         0.11964
| 90>    H       -5.78191        13.65023         0.53688
| 91>    H       -3.14089        12.29393         1.30830
| 92>    H       -4.89028         8.69833         3.43543
| 93>    H       -7.42834         9.53031         2.90939
| 94>    H       -7.13059        11.81862         1.51618
| 95> *
| 96>
| 97>                          ****END OF INPUT****

CARTESIAN COORDINATES (ANGSTROEM)
---------------------------------
  C     -3.205590    0.693300    5.947970
  C     -2.150420   -0.078630    5.522590
  C     -1.504050   -1.043530    6.320980
  N     -0.934160   -1.842610    6.917990
  C     -1.535450   -0.003290    4.257590
  N     -0.966010    0.008620    3.258560
  C     -3.798640    0.644030    7.281590
  C     -4.806310    1.635030    7.367100
  C     -5.535080    1.856710    8.508820
  C     -5.266210    1.050860    9.620950
  C     -4.264020    0.057900    9.524810
  C     -3.520350   -0.159830    8.370650
  S     -4.089990   -0.820450   11.014570
  C     -5.350370    0.145110   11.734820
  C     -5.875240    1.077790   10.905300
  Br    -5.850460   -0.164430   13.516180
  C     -4.894780    2.352200    6.080140
  O     -5.552960    3.348610    5.856810
  C     -3.924250    1.688100    5.183510
  C     -3.649520    2.061420    3.891530
  C     -4.447480    2.872790    3.050310
  S     -6.200460    2.668160    3.251100
  C     -6.740330    4.328420    3.095900
  C     -7.725030    4.910950    3.826550
  S     -7.989430    6.540880    3.345390
  C     -6.746010    6.443210    2.160390
  C     -6.173860    5.210630    2.141410
  S     -4.889910    4.732280    1.041390
  C     -3.895830    3.670710    2.060550
  C     -2.514820    3.724020    1.769750
  C     -1.916550    4.739890    1.071000
  C     -0.570150    4.774810    0.709280
  C      0.023880    5.891510    0.157830
  C      1.357280    6.041460   -0.283270
  C      1.659650    7.290160   -0.745780
  C      0.581830    8.196340   -0.677820
  S     -0.841560    7.401360   -0.041840
  C      0.556990    9.542580   -0.992990
  C      1.587590   10.356380   -1.511730
  C      1.245560   11.666720   -1.661360
  C     -0.079310   11.966590   -1.259480
  S     -0.884020   10.491680   -0.713050
  C     -0.700680   13.182010   -1.228120
  N     -1.967110   13.325450   -0.769610
  C     -2.680800   14.468320   -0.652860
  S     -2.093840   15.971060   -1.295150
  C     -3.585060   16.731210   -0.831020
  N     -3.717460   18.091770   -1.101460
  O     -4.758550   18.639570   -0.782880
  O     -2.765830   18.635650   -1.643170
  C     -4.468200   15.872820   -0.229060
  C     -3.963840   14.568030   -0.093470
  C     -4.710260   13.510430    0.545100
  C     -4.205350   12.433240    1.174550
  C     -4.992260   11.406920    1.789570
  O     -4.329560   10.397560    2.407730
  C     -5.246150    9.560690    2.906950
  C     -6.507750    9.999920    2.628180
  C     -6.349740   11.196590    1.901620
  H     -6.291470    2.625050    8.543890
  H     -2.763840   -0.926130    8.351570
  H     -6.658020    1.758540   11.186220
  H     -2.726670    1.695340    3.462160
  H     -8.306940    4.472060    4.609910
  H     -6.516620    7.286200    1.541520
  H     -1.889900    2.917660    2.127550
  H     -2.514190    5.603370    0.803000
  H      0.044940    3.899850    0.868660
  H      2.053860    5.222710   -0.246160
  H      2.625720    7.580560   -1.117990
  H      2.552640    9.951970   -1.757910
  H      1.902440   12.430200   -2.037200
  H     -0.187700   14.077310   -1.545660
  H     -2.452100   12.472970   -0.502900
  H     -5.433760   16.191660    0.119640
  H     -5.781910   13.650230    0.536880
  H     -3.140890   12.293930    1.308300
  H     -4.890280    8.698330    3.435430
  H     -7.428340    9.530310    2.909390
  H     -7.130590   11.818620    1.516180

 Total Charge           Charge          ....    0
 Multiplicity           Mult            ....    1
 Number of Electrons    NEL             ....  486
 Basis Dimension        Dim             ....  977

ORBITAL ENERGIES
----------------

  NO   OCC          E(Eh)            E(eV)
   0   2.0000    -482.881148    -13139.8641
   1   2.0000     -88.990215     -2421.5469
   2   2.0000     -88.969112     -2420.9726
   3   2.0000     -88.967470     -2420.9279
   4   2.0000     -88.962261     -2420.7862
   5   2.0000     -88.956139     -2420.6196
   6   2.0000     -88.951158     -2420.4841
   7   2.0000     -88.930189     -2419.9135
   8   2.0000     -62.558840     -1702.3126
   9   2.0000     -56.392783     -1534.5256
  10   2.0000     -56.390083     -1534.4522
  11   2.0000     -56.390045     -1534.4511
  12   2.0000     -19.295648      -525.0613
  13   2.0000     -19.235360      -523.4208
  14   2.0000     -19.235028      -523.4117
  15   2.0000     -19.202371      -522.5231
  16   2.0000     -14.647384      -398.5756
  17   2.0000     -14.499499      -394.5514
  18   2.0000     -14.410559      -392.1312
  19   2.0000     -14.406052      -392.0086
  20   2.0000     -10.376075      -282.3474
  21   2.0000     -10.354129      -281.7502
  22   2.0000     -10.353225      -281.7256
  23   2.0000     -10.353089      -281.7219
  24   2.0000     -10.343210      -281.4530
  25   2.0000     -10.333530      -281.1896
  26   2.0000     -10.332933      -281.1734
  27   2.0000     -10.332629      -281.1651
  28   2.0000     -10.331246      -281.1275
  29   2.0000     -10.330595      -281.1098
  30   2.0000     -10.326637      -281.0021
  31   2.0000     -10.325610      -280.9741
  32   2.0000     -10.322288      -280.8837
  33   2.0000     -10.320264      -280.8286
  34   2.0000     -10.317948      -280.7656
  35   2.0000     -10.314532      -280.6727
  36   2.0000     -10.312669      -280.6220
  37   2.0000     -10.309929      -280.5474
  38   2.0000     -10.309450      -280.5344
  39   2.0000     -10.309002      -280.5222
  40   2.0000     -10.308715      -280.5144
  41   2.0000     -10.305667      -280.4315
  42   2.0000     -10.304666      -280.4042
  43   2.0000     -10.302676      -280.3501
  44   2.0000     -10.302507      -280.3455
  45   2.0000     -10.301130      -280.3080
  46   2.0000     -10.300490      -280.2906
  47   2.0000     -10.299723      -280.2697
  48   2.0000     -10.299719      -280.2696
  49   2.0000     -10.299492      -280.2634
  50   2.0000     -10.298851      -280.2460
  51   2.0000     -10.297832      -280.2183
  52   2.0000     -10.295664      -280.1593
  53   2.0000     -10.293104      -280.0896
  54   2.0000     -10.292720      -280.0792
  55   2.0000     -10.291909      -280.0571
  56   2.0000     -10.291131      -280.0359
  57   2.0000     -10.286327      -279.9052
  58   2.0000     -10.284933      -279.8672
  59   2.0000     -10.283213      -279.8204
  60   2.0000     -10.282738      -279.8075
  61   2.0000     -10.276850      -279.6473
  62   2.0000     -10.274913      -279.5946
  63   2.0000      -8.788252      -239.1405
  64   2.0000      -8.085523      -220.0183
  65   2.0000      -8.065191      -219.4650
  66   2.0000      -8.063772      -219.4264
  67   2.0000      -8.057910      -219.2669
  68   2.0000      -8.052570      -219.1216
  69   2.0000      -8.046238      -218.9493
  70   2.0000      -8.025258      -218.3784
  71   2.0000      -6.624508      -180.2620
  72   2.0000      -6.609996      -179.8671
  73   2.0000      -6.609825      -179.8625
  74   2.0000      -6.055233      -164.7713
  75   2.0000      -6.050822      -164.6512
  76   2.0000      -6.046950      -164.5459
  77   2.0000      -6.034894      -164.2178
  78   2.0000      -6.033581      -164.1821
  79   2.0000      -6.030611      -164.1013
  80   2.0000      -6.029588      -164.0734
  81   2.0000      -6.027250      -164.0098
  82   2.0000      -6.026374      -163.9860
  83   2.0000      -6.024542      -163.9361
  84   2.0000      -6.022917      -163.8919
  85   2.0000      -6.022218      -163.8729
  86   2.0000      -6.020186      -163.8176
  87   2.0000      -6.018297      -163.7662
  88   2.0000      -6.016432      -163.7154
  89   2.0000      -6.013508      -163.6359
  90   2.0000      -6.012343      -163.6042
  91   2.0000      -6.006381      -163.4419
  92   2.0000      -5.995885      -163.1563
  93   2.0000      -5.991802      -163.0452
  94   2.0000      -5.984514      -162.8469
  95   2.0000      -2.740410       -74.5703
  96   2.0000      -2.736313       -74.4589
  97   2.0000      -2.736163       -74.4548
  98   2.0000      -2.724637       -74.1412
  99   2.0000      -2.724631       -74.1410
 100   2.0000      -1.315267       -35.7902
 101   2.0000      -1.214532       -33.0491
 102   2.0000      -1.134408       -30.8688
 103   2.0000      -1.116407       -30.3790
 104   2.0000      -1.107201       -30.1285
 105   2.0000      -1.015374       -27.6297
 106   2.0000      -1.015048       -27.6209
 107   2.0000      -1.006773       -27.3957
 108   2.0000      -1.006311       -27.3831
 109   2.0000      -0.999608       -27.2007
 110   2.0000      -0.987220       -26.8636
 111   2.0000      -0.986766       -26.8513
 112   2.0000      -0.981440       -26.7064
 113   2.0000      -0.961380       -26.1605
 114   2.0000      -0.935079       -25.4448
 115   2.0000      -0.931190       -25.3390
 116   2.0000      -0.917568       -24.9683
 117   2.0000      -0.906236       -24.6599
 118   2.0000      -0.901215       -24.5233
 119   2.0000      -0.897769       -24.4295
 120   2.0000      -0.894534       -24.3415
 121   2.0000      -0.884543       -24.0696
 122   2.0000      -0.878723       -23.9113
 123   2.0000      -0.876253       -23.8441
 124   2.0000      -0.871649       -23.7188
 125   2.0000      -0.866370       -23.5751
 126   2.0000      -0.861486       -23.4422
 127   2.0000      -0.847317       -23.0567
 128   2.0000      -0.836562       -22.7640
 129   2.0000      -0.828221       -22.5371
 130   2.0000      -0.822600       -22.3841
 131   2.0000      -0.821555       -22.3557
 132   2.0000      -0.805994       -21.9322
 133   2.0000      -0.794282       -21.6135
 134   2.0000      -0.774758       -21.0822
 135   2.0000      -0.767815       -20.8933
 136   2.0000      -0.756384       -20.5822
 137   2.0000      -0.749772       -20.4023
 138   2.0000      -0.739518       -20.1233
 139   2.0000      -0.729051       -19.8385
 140   2.0000      -0.718226       -19.5439
 141   2.0000      -0.705770       -19.2050
 142   2.0000      -0.696784       -18.9604
 143   2.0000      -0.693061       -18.8592
 144   2.0000      -0.683402       -18.5963
 145   2.0000      -0.675063       -18.3694
 146   2.0000      -0.666565       -18.1382
 147   2.0000      -0.663316       -18.0497
 148   2.0000      -0.659145       -17.9363
 149   2.0000      -0.651364       -17.7245
 150   2.0000      -0.649225       -17.6663
 151   2.0000      -0.643253       -17.5038
 152   2.0000      -0.641072       -17.4445
 153   2.0000      -0.632988       -17.2245
 154   2.0000      -0.631062       -17.1721
 155   2.0000      -0.628989       -17.1157
 156   2.0000      -0.628488       -17.1020
 157   2.0000      -0.622072       -16.9274
 158   2.0000      -0.615472       -16.7479
 159   2.0000      -0.613325       -16.6894
 160   2.0000      -0.605687       -16.4816
 161   2.0000      -0.600544       -16.3416
 162   2.0000      -0.592542       -16.1239
 163   2.0000      -0.588279       -16.0079
 164   2.0000      -0.585786       -15.9400
 165   2.0000      -0.575594       -15.6627
 166   2.0000      -0.573064       -15.5939
 167   2.0000      -0.565460       -15.3869
 168   2.0000      -0.558069       -15.1858
 169   2.0000      -0.555917       -15.1273
 170   2.0000      -0.553843       -15.0708
 171   2.0000      -0.547004       -14.8847
 172   2.0000      -0.544236       -14.8094
 173   2.0000      -0.540713       -14.7136
 174   2.0000      -0.534686       -14.5495
 175   2.0000      -0.530141       -14.4259
 176   2.0000      -0.529311       -14.4033
 177   2.0000      -0.525382       -14.2964
 178   2.0000      -0.521606       -14.1936
 179   2.0000      -0.520361       -14.1597
 180   2.0000      -0.512741       -13.9524
 181   2.0000      -0.509983       -13.8774
 182   2.0000      -0.509551       -13.8656
 183   2.0000      -0.506129       -13.7725
 184   2.0000      -0.502941       -13.6857
 185   2.0000      -0.501408       -13.6440
 186   2.0000      -0.500023       -13.6063
 187   2.0000      -0.497393       -13.5348
 188   2.0000      -0.491969       -13.3872
 189   2.0000      -0.489343       -13.3157
 190   2.0000      -0.487540       -13.2666
 191   2.0000      -0.486834       -13.2474
 192   2.0000      -0.485048       -13.1988
 193   2.0000      -0.484568       -13.1858
 194   2.0000      -0.481121       -13.0920
 195   2.0000      -0.474064       -12.9000
 196   2.0000      -0.473099       -12.8737
 197   2.0000      -0.467493       -12.7211
 198   2.0000      -0.460969       -12.5436
 199   2.0000      -0.459390       -12.5006
 200   2.0000      -0.455164       -12.3856
 201   2.0000      -0.451805       -12.2942
 202   2.0000      -0.448824       -12.2131
 203   2.0000      -0.447362       -12.1733
 204   2.0000      -0.444388       -12.0924
 205   2.0000      -0.443385       -12.0651
 206   2.0000      -0.440890       -11.9972
 207   2.0000      -0.439576       -11.9615
 208   2.0000      -0.437466       -11.9041
 209   2.0000      -0.433790       -11.8040
 210   2.0000      -0.430410       -11.7121
 211   2.0000      -0.422521       -11.4974
 212   2.0000      -0.420310       -11.4372
 213   2.0000      -0.415896       -11.3171
 214   2.0000      -0.415035       -11.2937
 215   2.0000      -0.413650       -11.2560
 216   2.0000      -0.410230       -11.1629
 217   2.0000      -0.406617       -11.0646
 218   2.0000      -0.400078       -10.8867
 219   2.0000      -0.394362       -10.7311
 220   2.0000      -0.383835       -10.4447
 221   2.0000      -0.381628       -10.3846
 222   2.0000      -0.376359       -10.2413
 223   2.0000      -0.374601       -10.1934
 224   2.0000      -0.370562       -10.0835
 225   2.0000      -0.366841        -9.9823
 226   2.0000      -0.365531        -9.9466
 227   2.0000      -0.364178        -9.9098
 228   2.0000      -0.356199        -9.6927
 229   2.0000      -0.355495        -9.6735
 230   2.0000      -0.350700        -9.5430
 231   2.0000      -0.347001        -9.4424
 232   2.0000      -0.337089        -9.1727
 233   2.0000      -0.328731        -8.9452
 234   2.0000      -0.323101        -8.7920
 235   2.0000      -0.312205        -8.4955
 236   2.0000      -0.308056        -8.3826
 237   2.0000      -0.293948        -7.9987
 238   2.0000      -0.288963        -7.8631
 239   2.0000      -0.285130        -7.7588
 240   2.0000      -0.270001        -7.3471
 241   2.0000      -0.255386        -6.9494
 242   2.0000      -0.217503        -5.9186
 243   0.0000      -0.105286        -2.8650
 244   0.0000      -0.075225        -2.0470
 245   0.0000      -0.055314        -1.5052
 246   0.0000      -0.044620        -1.2142
 247   0.0000      -0.031501        -0.8572

MULLIKEN ATOMIC CHARGES
-----------------------
   0 C :    0.306108
   1 C :   -0.353479
   2 C :   -0.186939
   3 N :    0.141882
   4 C :   -0.190628
   5 N :    0.135253
   6 C :    0.018522
   7 C :   -0.001788
   8 C :   -0.082528
   9 C :    0.120940
  10 C :   -0.089013
  11 C :   -0.029660
  12 S :    0.181336
  13 C :   -0.121995
  14 C :    0.034992
  15 Br:    0.017889
  16 C :    0.133251
  17 O :   -0.149071
  18 C :   -0.096026
  19 C :   -0.041322
  20 C :   -0.069247
  21 S :    0.110900
  22 C :    0.013536
  23 C :   -0.099459
  24 S :    0.101719
  25 C :   -0.127734
  26 C :   -0.015744
  27 S :    0.112623
  28 C :    0.008600
  29 C :   -0.028515
  30 C :    0.009195
  31 C :   -0.019652
  32 C :   -0.007517
  33 C :    0.028890
  34 C :    0.035822
  35 C :   -0.051814
  36 S :    0.072678
  37 C :   -0.035576
  38 C :    0.023297
  39 C :    0.053036
  40 C :   -0.054836
  41 S :    0.049142
  42 C :    0.045670
  43 N :   -0.030791
  44 C :   -0.120604
  45 S :    0.154239
  46 C :   -0.007122
  47 N :    0.278944
  48 O :   -0.255201
  49 O :   -0.271928
  50 C :    0.011682
  51 C :    0.113277
  52 C :   -0.029422
  53 C :   -0.000634
  54 C :    0.136603
  55 O :   -0.188169
  56 C :    0.126970
  57 C :   -0.003279
  58 C :   -0.065166
  59 H :   -0.015357
  60 H :   -0.007303
  61 H :   -0.005886
  62 H :    0.032190
  63 H :    0.027949
  64 H :    0.024815
  65 H :    0.005126
  66 H :    0.022403
  67 H :   -0.002015
  68 H :   -0.004334
  69 H :   -0.008383
  70 H :   -0.008009
  71 H :   -0.003421
  72 H :    0.029382
  73 H :    0.149251
  74 H :    0.009397
  75 H :   -0.002197
  76 H :   -0.002666
  77 H :    0.023495
  78 H :   -0.006433
  79 H :   -0.010142
Sum of atomic charges:   -0.0000000

LOEWDIN ATOMIC CHARGES
----------------------
   0 C :    0.077400
   1 C :   -0.151996
   2 C :   -0.018657
   3 N :   -0.062396
   4 C :   -0.018477
   5 N :   -0.066345
   6 C :   -0.021367
   7 C :   -0.046579
   8 C :    0.016194
   9 C :   -0.033569
  10 C :   -0.146228
  11 C :   -0.011207
  12 S :    0.428909
  13 C :   -0.273173
  14 C :   -0.071415
  15 Br:    0.132627
  16 C :    0.070222
  17 O :   -0.153391
  18 C :   -0.105463
  19 C :    0.043838
  20 C :   -0.199985
  21 S :    0.369388
  22 C :   -0.208240
  23 C :   -0.190404
  24 S :    0.441407
  25 C :   -0.204436
  26 C :   -0.219296
  27 S :    0.389007
  28 C :   -0.113718
  29 C :   -0.062117
  30 C :   -0.005312
  31 C :   -0.071317
  32 C :   -0.121115
  33 C :   -0.041214
  34 C :   -0.017022
  35 C :   -0.192697
  36 S :    0.379889
  37 C :   -0.157238
  38 C :   -0.043464
  39 C :   -0.017381
  40 C :   -0.188426
  41 S :    0.356588
  42 C :    0.005742
  43 N :    0.055062
  44 C :   -0.101359
  45 S :    0.452597
  46 C :   -0.214680
  47 N :    0.274021
  48 O :   -0.220854
  49 O :   -0.238971
  50 C :    0.005488
  51 C :   -0.102402
  52 C :   -0.020177
  53 C :   -0.048669
  54 C :    0.012475
  55 O :    0.020791
  56 C :    0.039655
  57 C :   -0.075755
  58 C :   -0.061142
  59 H :    0.038476
  60 H :    0.040380
  61 H :    0.037739
  62 H :    0.040820
  63 H :    0.028303
  64 H :    0.022474
  65 H :    0.037335
  66 H :    0.012979
  67 H :    0.037363
  68 H :    0.036745
  69 H :    0.034170
  70 H :    0.034907
  71 H :    0.037272
  72 H :    0.033848
  73 H :    0.083779
  74 H :    0.046640
  75 H :    0.034492
  76 H :    0.028847
  77 H :    0.025726
  78 H :    0.025537
  79 H :    0.028520

  Mayer bond orders larger than 0.100000
B(  0-C ,  1-C ) :   1.6017 B(  0-C ,  6-C ) :   0.9992 B(  0-C , 18-C ) :   1.0962
B(  1-C ,  2-C ) :   1.1476 B(  1-C ,  4-C ) :   1.1483 B(  2-C ,  3-N ) :   2.9644
B(  4-C ,  5-N ) :   2.9664 B(  6-C ,  7-C ) :   1.2716 B(  6-C , 11-C ) :   1.4107
B(  7-C ,  8-C ) :   1.4284 B(  7-C , 16-C ) :   0.9256 B(  8-C ,  9-C ) :   1.2396
B(  8-C , 59-H ) :   1.0177 B(  9-C , 10-C ) :   1.3115 B(  9-C , 14-C ) :   1.1617
B( 10-C , 11-C ) :   1.3252 B( 10-C , 12-S ) :   1.0820 B( 11-C , 60-H ) :   0.9811
B( 12-S , 13-C ) :   1.0868 B( 13-C , 14-C ) :   1.6181 B( 13-C , 15-Br) :   1.0159
B( 14-C , 61-H ) :   1.0012 B( 16-C , 17-O ) :   2.2277 B( 16-C , 18-C ) :   0.9592
B( 18-C , 19-C ) :   1.5509 B( 19-C , 20-C ) :   1.2481 B( 19-C , 62-H ) :   0.9268
B( 20-C , 21-S ) :   1.0305 B( 20-C , 28-C ) :   1.4510 B( 21-S , 22-C ) :   0.9868
B( 22-C , 23-C ) :   1.6106 B( 22-C , 26-C ) :   1.2579 B( 23-C , 24-S ) :   1.1639
B( 23-C , 63-H ) :   0.9683 B( 24-S , 25-C ) :   1.1718 B( 25-C , 26-C ) :   1.5966
B( 25-C , 64-H ) :   0.9654 B( 26-C , 27-S ) :   0.9825 B( 27-S , 28-C ) :   1.0593
B( 28-C , 29-C ) :   1.2374 B( 29-C , 30-C ) :   1.5577 B( 29-C , 65-H ) :   0.9684
B( 30-C , 31-C ) :   1.2022 B( 30-C , 66-H ) :   0.9533 B( 31-C , 32-C ) :   1.5059
B( 31-C , 67-H ) :   0.9886 B( 32-C , 33-C ) :   1.1634 B( 32-C , 36-S ) :   1.0583
B( 33-C , 34-C ) :   1.5646 B( 33-C , 68-H ) :   1.0010 B( 34-C , 35-C ) :   1.2077
B( 34-C , 69-H ) :   0.9945 B( 35-C , 36-S ) :   1.0386 B( 35-C , 37-C ) :   1.4917
B( 37-C , 38-C ) :   1.1962 B( 37-C , 41-S ) :   1.0626 B( 38-C , 39-C ) :   1.6006
B( 38-C , 70-H ) :   0.9927 B( 39-C , 40-C ) :   1.1611 B( 39-C , 71-H ) :   0.9940
B( 40-C , 41-S ) :   1.0101 B( 40-C , 42-C ) :   1.5876 B( 42-C , 43-N ) :   1.1601
B( 42-C , 72-H ) :   0.9613 B( 43-N , 44-C ) :   1.2269 B( 43-N , 73-H ) :   0.8925
B( 44-C , 45-S ) :   1.1340 B( 44-C , 51-C ) :   1.3598 B( 45-S , 46-C ) :   1.0667
B( 46-C , 47-N ) :   0.9835 B( 46-C , 50-C ) :   1.4768 B( 47-N , 48-O ) :   1.5285
B( 47-N , 49-O ) :   1.5019 B( 48-O , 49-O ) :   0.2534 B( 50-C , 51-C ) :   1.2363
B( 50-C , 74-H ) :   1.0072 B( 51-C , 52-C ) :   1.0789 B( 52-C , 53-C ) :   1.7064
B( 52-C , 75-H ) :   0.9656 B( 53-C , 54-C ) :   1.1138 B( 53-C , 76-H ) :   0.9472
B( 54-C , 55-O ) :   1.1412 B( 54-C , 58-C ) :   1.5217 B( 55-O , 56-C ) :   1.1584
B( 56-C , 57-C ) :   1.5273 B( 56-C , 77-H ) :   1.0021 B( 57-C , 58-C ) :   1.2388
B( 57-C , 78-H ) :   0.9986 B( 58-C , 79-H ) :   1.0070

-----------------------------------------------------------------------------
         ABSORPTION SPECTRUM VIA TRANSITION ELECTRIC DIPOLE MOMENTS
-----------------------------------------------------------------------------
State   Energy  Wavelength   fosc         T2         TX        TY        TZ
        (cm-1)    (nm)                  (au**2)     (au)      (au)      (au)
-----------------------------------------------------------------------------
   0   10533.9    949.3   1.271931581  39.75109  -0.82694  -5.51228   2.94653
   1   17451.4    573.0   0.219703403   4.14460   0.78168  -1.29227  -1.36514
   2   18229.0    548.6   0.054140489   0.97777  -0.21003   0.95855  -0.12179
   3   21161.0    472.6   0.083949823   1.30605   0.03890  -1.03400   0.48517
   4   21880.0    457.0   0.376142381   5.65954   1.95680   0.07527  -1.35085
   5   23280.1    429.6   0.043651022   0.61728  -0.36238   0.29177  -0.63312
   6   24498.6    408.2   0.154647892   2.07816  -1.20646   0.65120  -0.44558
   7   25706.1    389.0   0.238184113   3.05036   1.21604  -1.21294   0.31685
   8   25940.1    385.5   0.257242410   3.26472   1.39609   0.99220  -0.57550
   9   26356.3    379.4   0.012422504   0.15517   0.26118   0.24543  -0.16345
  10   26695.9    374.6   0.327007153   4.03263  -1.17120   0.24402   1.61288
  11   28200.3    354.6   0.070810850   0.82665   0.57412  -0.61279   0.34859
  12   28740.7    347.9   0.050604083   0.57965  -0.63828   0.24095   0.33791
  13   29341.4    340.8   0.009064045   0.10170  -0.11889   0.19450  -0.22301
  14   29668.6    337.1   0.029337710   0.32554   0.43677  -0.35106   0.10737
  15   30315.7    329.9   0.035421564   0.38466  -0.57547   0.22942   0.02927
  16   30617.8    326.6   0.039148771   0.42094   0.13587  -0.49408   0.39794
  17   30756.5    325.1   0.078365320   0.83881   0.51594  -0.51290   0.55637
  18   31477.9    317.7   0.229222179   2.39733  -0.89145  -0.17889   1.25325
  19   32265.8    309.9   0.260550608   2.65843   0.00440   1.60252  -0.30059
  20   32459.4    308.1   0.092886745   0.94208   0.62438   0.23543  -0.70484
  21   32641.6    306.4   0.142745271   1.43968   0.75006  -0.49355  -0.79593
  22   32733.5    305.5   0.294987121   2.96679   0.55870   0.27056  -1.60669
  23   33880.5    295.2   0.072652553   0.70595  -0.25297  -0.56455   0.56855
  24   34147.5    292.8   0.174738632   1.68463  -0.27081  -1.25180   0.21047
  25   34916.5    286.4   0.189464222   1.78637  -0.07369   0.86387  -1.01718
  26   35128.7    284.7   0.092046849   0.86263   0.06946  -0.89842  -0.22505
  27   35402.8    282.5   0.131922484   1.22675  -1.00268  -0.32119   0.34383
  28   35711.6    280.0   0.034825927   0.32105  -0.21379   0.32541  -0.41165
  29   35814.6    279.2   0.050892117   0.46781  -0.03913  -0.31345   0.60665
  30   36121.3    276.8   0.020077533   0.18299  -0.30417  -0.16819   0.24936
  31   36725.3    272.3   0.083677039   0.75010   0.68195   0.17752  -0.50351
  32   37235.6    268.6   0.020774408   0.18367   0.22941   0.25460  -0.25734
  33   37530.4    266.5   0.001428589   0.01253   0.07017  -0.08721  -0.00086
  34   37632.1    265.7   0.215290801   1.88340   0.42540  -1.22229   0.45656
  35   37876.9    264.0   0.111118340   0.96580   0.92726   0.14034  -0.29375
  36   38487.2    259.8   0.120603262   1.03162   0.79457  -0.63245  -0.01703
  37   38517.2    259.6   0.125361757   1.07149   0.42221  -0.94483  -0.02290
  38   39073.3    255.9   0.121503298   1.02372   0.62004   0.40965  -0.68663
  39   39404.7    253.8   0.047415549   0.39614  -0.19995   0.58158   0.13387
  40   39565.9    252.7   0.026141360   0.21751  -0.33862  -0.10158   0.30418
  41   40148.4    249.1   0.009778119   0.08018   0.16831   0.22216  -0.04997

FINAL SINGLE POINT ENERGY     -7528.603074579739

DIPOLE MOMENT
-------------
                                X             Y             Z
Electronic contribution:    -30.78047     -87.58158     120.79512
Nuclear contribution   :     31.02390      89.06886    -121.31853
                        -----------------------------------------
Total Dipole Moment    :      0.24343       1.48728      -0.52340
                        -----------------------------------------
Magnitude (a.u.)       :      1.59537
Magnitude (Debye)      :      4.05511

Rotational constants in cm-1:     0.001623     0.000327     0.000299
Rotational constants in MHz :    48.642475     9.806076     8.955378

                             ****ORCA TERMINATED NORMALLY****
TOTAL RUN TIME: 0 days 0 hours 15 minutes 58 seconds 798 msec
