                         Program Version 4.2.0 -  RELEASE  -
|  1> # ORCA input file
|  2> # SCF done       -176.949547184054          0.000454039378
|  3> ! CAM-B3LYP def2-SVP def2/J RIJCOSX Grid4 TightSCF
|  4> %maxcore 5000
|  5> %tddft
|  6>     Mode sTDDFT
|  7>     Ethresh 5.0
|  8>     maxcore 5000
|  9> end
| 10>
| 11> %pal
| 12>   nprocs 6
| 13>   end
| 14> * xyz 0 1
| 15>    C      -15.50017        -9.68727        -2.74833
| 16>    C      -16.40654        -8.66655        -2.83215
| 17>    F      -17.71165        -8.90533        -2.63070
| 18>    C      -15.98700        -7.35729        -3.13154
| 19>    F      -16.89591        -6.37025        -3.18475
| 20>    C      -14.66650        -7.08764        -3.35970
| 21>    C      -13.70965        -8.11465        -3.27335
| 22>    C      -14.12945        -9.43831        -2.95618
| 23>    C      -13.17970       -10.48176        -2.84380
| 24>    C      -11.85231       -10.20599        -3.03504
| 25>    C      -11.44471        -8.87832        -3.35646
| 26>    C      -12.33632        -7.85285        -3.48018
| 27>    C       -9.98531        -8.85584        -3.49587
| 28>    O       -9.28132        -7.88338        -3.77070
| 29>    C       -9.52323       -10.21816        -3.23596
| 30>    C      -10.66466       -11.05606        -2.96473
| 31>    C      -10.65898       -12.40252        -2.69186
| 32>    C      -11.81639       -13.16195        -2.43516
| 33>    N      -12.72557       -13.82971        -2.21847
| 34>    C       -9.49253       -13.18966        -2.63962
| 35>    N       -8.56690       -13.86785        -2.58903
| 36>    C       -8.18009       -10.53465        -3.25568
| 37>    N       -7.29369        -9.57272        -3.53298
| 38>    C       -5.94475        -9.64103        -3.58063
| 39>    S       -5.06732       -11.09853        -3.23390
| 40>    C       -3.58418       -10.23418        -3.49562
| 41>    N       -2.38476       -10.93461        -3.35341
| 42>    O       -1.34582       -10.32129        -3.53719
| 43>    O       -2.46592       -12.11527        -3.05306
| 44>    C       -3.76246        -8.91551        -3.82653
| 45>    C       -5.11748        -8.54734        -3.88602
| 46>    C       -5.63548        -7.24820        -4.21938
| 47>    C       -4.91641        -6.12111        -4.37702
| 48>    C       -5.56280        -4.88376        -4.70680
| 49>    C       -4.99348        -3.67489        -4.80599
| 50>    C       -3.54048        -3.39024        -4.58550
| 51>    C       -5.80666        -2.44800        -5.16593
| 52>    N       -7.11287        -2.70026        -5.71435
| 53>    C       -8.22084        -3.00062        -4.99665
| 54>    C       -8.31459        -3.03564        -3.63856
| 55>    C       -9.48531        -3.27506        -2.88998
| 56>    C      -10.78208        -3.48174        -3.29095
| 57>    C      -11.87787        -3.65376        -2.40812
| 58>    C      -13.09008        -3.78930        -3.01483
| 59>    C      -13.03241        -3.74864        -4.42550
| 60>    S      -11.37495        -3.53492        -4.94955
| 61>    C      -14.07203        -3.85194        -5.33112
| 62>    C      -15.45025        -4.00722        -5.06699
| 63>    C      -16.22977        -4.08168        -6.18157
| 64>    C      -15.51604        -3.95760        -7.39847
| 65>    S      -13.79967        -3.77569        -7.06105
| 66>    C      -15.98084        -3.87508        -8.68681
| 67>    C      -17.31758        -4.05276        -9.10820
| 68>    S      -17.89444        -2.99473       -10.37688
| 69>    C      -19.49974        -3.53005       -10.19900
| 70>    C      -19.61215        -4.52133        -9.24942
| 71>    C      -18.35785        -4.87331        -8.64990
| 72>    C      -18.29039        -6.01766        -7.80380
| 73>    C      -19.47822        -6.62836        -7.46863
| 74>    C      -20.72723        -6.20587        -7.95253
| 75>    C      -20.81478        -5.18516        -8.86298
| 76>    O      -21.94567        -4.73814        -9.46639
| 77>    C      -23.16439        -5.36390        -9.14278
| 78>    C      -17.01163        -6.60509        -7.42443
| 79>    C      -16.79266        -7.35556        -6.35184
| 80>    H      -15.83964       -10.68453        -2.51598
| 81>    H      -14.35617        -6.08562        -3.60577
| 82>    H      -13.52848       -11.47216        -2.60047
| 83>    H      -12.00172        -6.85560        -3.72273
| 84>    H       -7.80450       -11.52840        -3.05188
| 85>    H       -7.74372        -8.65219        -3.70963
| 86>    H       -2.93302        -8.26246        -4.02455
| 87>    H       -6.70742        -7.17267        -4.34755
| 88>    H       -3.84510        -6.12918        -4.25122
| 89>    H       -6.62882        -4.96822        -4.87416
| 90>    H       -3.09327        -4.09975        -3.89642
| 91>    H       -3.40729        -2.38705        -4.18518
| 92>    H       -2.99916        -3.44607        -5.53091
| 93>    H       -5.24415        -1.86075        -5.89967
| 94>    H       -5.92002        -1.82389        -4.27164
| 95>    H       -7.14291        -2.90413        -6.70021
| 96>    H       -9.09111        -3.19337        -5.60521
| 97>    H       -7.41987        -2.88052        -3.05328
| 98>    H       -9.34831        -3.28533        -1.81523
| 99>    H      -11.73513        -3.65754        -1.34146
|100>    H      -14.01969        -3.90014        -2.48484
|101>    H      -15.84041        -4.04380        -4.06565
|102>    H      -17.30057        -4.16425        -6.16178
|103>    H      -15.28541        -3.52868        -9.44106
|104>    H      -20.28593        -3.10221       -10.78648
|105>    H      -19.45585        -7.50307        -6.83752
|106>    H      -21.60586        -6.73966        -7.62747
|107>    H      -23.92352        -4.85681        -9.73607
|108>    H      -23.40071        -5.25331        -8.07977
|109>    H      -23.14925        -6.42695        -9.40329
|110>    H      -16.20224        -6.42232        -8.11919
|111>    H      -17.55876        -7.53999        -5.61828
|112>    H      -15.82947        -7.79858        -6.16161
|113> *
|114>
|115>                          ****END OF INPUT****

CARTESIAN COORDINATES (ANGSTROEM)
---------------------------------
  C    -15.500170   -9.687270   -2.748330
  C    -16.406540   -8.666550   -2.832150
  F    -17.711650   -8.905330   -2.630700
  C    -15.987000   -7.357290   -3.131540
  F    -16.895910   -6.370250   -3.184750
  C    -14.666500   -7.087640   -3.359700
  C    -13.709650   -8.114650   -3.273350
  C    -14.129450   -9.438310   -2.956180
  C    -13.179700  -10.481760   -2.843800
  C    -11.852310  -10.205990   -3.035040
  C    -11.444710   -8.878320   -3.356460
  C    -12.336320   -7.852850   -3.480180
  C     -9.985310   -8.855840   -3.495870
  O     -9.281320   -7.883380   -3.770700
  C     -9.523230  -10.218160   -3.235960
  C    -10.664660  -11.056060   -2.964730
  C    -10.658980  -12.402520   -2.691860
  C    -11.816390  -13.161950   -2.435160
  N    -12.725570  -13.829710   -2.218470
  C     -9.492530  -13.189660   -2.639620
  N     -8.566900  -13.867850   -2.589030
  C     -8.180090  -10.534650   -3.255680
  N     -7.293690   -9.572720   -3.532980
  C     -5.944750   -9.641030   -3.580630
  S     -5.067320  -11.098530   -3.233900
  C     -3.584180  -10.234180   -3.495620
  N     -2.384760  -10.934610   -3.353410
  O     -1.345820  -10.321290   -3.537190
  O     -2.465920  -12.115270   -3.053060
  C     -3.762460   -8.915510   -3.826530
  C     -5.117480   -8.547340   -3.886020
  C     -5.635480   -7.248200   -4.219380
  C     -4.916410   -6.121110   -4.377020
  C     -5.562800   -4.883760   -4.706800
  C     -4.993480   -3.674890   -4.805990
  C     -3.540480   -3.390240   -4.585500
  C     -5.806660   -2.448000   -5.165930
  N     -7.112870   -2.700260   -5.714350
  C     -8.220840   -3.000620   -4.996650
  C     -8.314590   -3.035640   -3.638560
  C     -9.485310   -3.275060   -2.889980
  C    -10.782080   -3.481740   -3.290950
  C    -11.877870   -3.653760   -2.408120
  C    -13.090080   -3.789300   -3.014830
  C    -13.032410   -3.748640   -4.425500
  S    -11.374950   -3.534920   -4.949550
  C    -14.072030   -3.851940   -5.331120
  C    -15.450250   -4.007220   -5.066990
  C    -16.229770   -4.081680   -6.181570
  C    -15.516040   -3.957600   -7.398470
  S    -13.799670   -3.775690   -7.061050
  C    -15.980840   -3.875080   -8.686810
  C    -17.317580   -4.052760   -9.108200
  S    -17.894440   -2.994730  -10.376880
  C    -19.499740   -3.530050  -10.199000
  C    -19.612150   -4.521330   -9.249420
  C    -18.357850   -4.873310   -8.649900
  C    -18.290390   -6.017660   -7.803800
  C    -19.478220   -6.628360   -7.468630
  C    -20.727230   -6.205870   -7.952530
  C    -20.814780   -5.185160   -8.862980
  O    -21.945670   -4.738140   -9.466390
  C    -23.164390   -5.363900   -9.142780
  C    -17.011630   -6.605090   -7.424430
  C    -16.792660   -7.355560   -6.351840
  H    -15.839640  -10.684530   -2.515980
  H    -14.356170   -6.085620   -3.605770
  H    -13.528480  -11.472160   -2.600470
  H    -12.001720   -6.855600   -3.722730
  H     -7.804500  -11.528400   -3.051880
  H     -7.743720   -8.652190   -3.709630
  H     -2.933020   -8.262460   -4.024550
  H     -6.707420   -7.172670   -4.347550
  H     -3.845100   -6.129180   -4.251220
  H     -6.628820   -4.968220   -4.874160
  H     -3.093270   -4.099750   -3.896420
  H     -3.407290   -2.387050   -4.185180
  H     -2.999160   -3.446070   -5.530910
  H     -5.244150   -1.860750   -5.899670
  H     -5.920020   -1.823890   -4.271640
  H     -7.142910   -2.904130   -6.700210
  H     -9.091110   -3.193370   -5.605210
  H     -7.419870   -2.880520   -3.053280
  H     -9.348310   -3.285330   -1.815230
  H    -11.735130   -3.657540   -1.341460
  H    -14.019690   -3.900140   -2.484840
  H    -15.840410   -4.043800   -4.065650
  H    -17.300570   -4.164250   -6.161780
  H    -15.285410   -3.528680   -9.441060
  H    -20.285930   -3.102210  -10.786480
  H    -19.455850   -7.503070   -6.837520
  H    -21.605860   -6.739660   -7.627470
  H    -23.923520   -4.856810   -9.736070
  H    -23.400710   -5.253310   -8.079770
  H    -23.149250   -6.426950   -9.403290
  H    -16.202240   -6.422320   -8.119190
  H    -17.558760   -7.539990   -5.618280
  H    -15.829470   -7.798580   -6.161610

 Total Charge           Charge          ....    0
 Multiplicity           Mult            ....    1
 Number of Electrons    NEL             ....  482
 Basis Dimension        Dim             .... 1091

ORBITAL ENERGIES
----------------

  NO   OCC          E(Eh)            E(eV)
   0   2.0000     -88.992156     -2421.5997
   1   2.0000     -88.951565     -2420.4951
   2   2.0000     -88.937147     -2420.1028
   3   2.0000     -88.929543     -2419.8959
   4   2.0000     -24.800808      -674.8643
   5   2.0000     -24.798535      -674.8024
   6   2.0000     -19.245157      -523.6873
   7   2.0000     -19.240567      -523.5624
   8   2.0000     -19.239487      -523.5330
   9   2.0000     -19.233892      -523.3808
  10   2.0000     -14.651568      -398.6894
  11   2.0000     -14.497639      -394.5008
  12   2.0000     -14.444015      -393.0416
  13   2.0000     -14.420245      -392.3948
  14   2.0000     -14.415338      -392.2613
  15   2.0000     -10.380960      -282.4803
  16   2.0000     -10.380525      -282.4684
  17   2.0000     -10.379795      -282.4486
  18   2.0000     -10.373916      -282.2886
  19   2.0000     -10.373420      -282.2751
  20   2.0000     -10.350159      -281.6422
  21   2.0000     -10.347360      -281.5660
  22   2.0000     -10.342234      -281.4265
  23   2.0000     -10.327408      -281.0231
  24   2.0000     -10.322689      -280.8947
  25   2.0000     -10.321776      -280.8698
  26   2.0000     -10.320744      -280.8417
  27   2.0000     -10.318676      -280.7854
  28   2.0000     -10.317143      -280.7437
  29   2.0000     -10.314047      -280.6595
  30   2.0000     -10.310524      -280.5636
  31   2.0000     -10.309224      -280.5283
  32   2.0000     -10.308857      -280.5183
  33   2.0000     -10.308781      -280.5162
  34   2.0000     -10.303506      -280.3726
  35   2.0000     -10.303069      -280.3608
  36   2.0000     -10.302033      -280.3326
  37   2.0000     -10.300499      -280.2908
  38   2.0000     -10.300383      -280.2877
  39   2.0000     -10.297326      -280.2045
  40   2.0000     -10.295922      -280.1663
  41   2.0000     -10.295082      -280.1434
  42   2.0000     -10.295021      -280.1418
  43   2.0000     -10.291607      -280.0489
  44   2.0000     -10.291035      -280.0333
  45   2.0000     -10.289953      -280.0039
  46   2.0000     -10.288329      -279.9597
  47   2.0000     -10.288284      -279.9584
  48   2.0000     -10.283091      -279.8171
  49   2.0000     -10.279027      -279.7066
  50   2.0000     -10.276872      -279.6479
  51   2.0000     -10.275938      -279.6225
  52   2.0000     -10.272858      -279.5387
  53   2.0000     -10.272760      -279.5360
  54   2.0000     -10.272139      -279.5191
  55   2.0000     -10.271708      -279.5074
  56   2.0000     -10.270685      -279.4796
  57   2.0000     -10.268087      -279.4089
  58   2.0000     -10.267290      -279.3872
  59   2.0000     -10.262343      -279.2526
  60   2.0000     -10.260965      -279.2151
  61   2.0000     -10.257565      -279.1225
  62   2.0000     -10.256282      -279.0876
  63   2.0000     -10.255898      -279.0772
  64   2.0000     -10.248148      -278.8663
  65   2.0000      -8.087380      -220.0688
  66   2.0000      -8.047308      -218.9784
  67   2.0000      -8.032766      -218.5827
  68   2.0000      -8.026115      -218.4017
  69   2.0000      -6.056986      -164.8190
  70   2.0000      -6.052689      -164.7020
  71   2.0000      -6.048854      -164.5977
  72   2.0000      -6.016255      -163.7106
  73   2.0000      -6.012052      -163.5962
  74   2.0000      -6.010229      -163.5466
  75   2.0000      -6.002500      -163.3363
  76   2.0000      -5.998591      -163.2300
  77   2.0000      -5.995921      -163.1573
  78   2.0000      -5.993726      -163.0976
  79   2.0000      -5.991946      -163.0491
  80   2.0000      -5.986813      -162.9095
  81   2.0000      -1.320775       -35.9401
  82   2.0000      -1.319438       -35.9037
  83   2.0000      -1.305955       -35.5368
  84   2.0000      -1.148637       -31.2560
  85   2.0000      -1.147930       -31.2368
  86   2.0000      -1.138422       -30.9780
  87   2.0000      -1.105642       -30.0860
  88   2.0000      -1.042366       -28.3642
  89   2.0000      -1.022642       -27.8275
  90   2.0000      -1.012116       -27.5411
  91   2.0000      -1.006189       -27.3798
  92   2.0000      -0.996111       -27.1056
  93   2.0000      -0.984257       -26.7830
  94   2.0000      -0.982793       -26.7432
  95   2.0000      -0.979049       -26.6413
  96   2.0000      -0.958543       -26.0833
  97   2.0000      -0.934884       -25.4395
  98   2.0000      -0.930526       -25.3209
  99   2.0000      -0.919559       -25.0225
 100   2.0000      -0.916204       -24.9312
 101   2.0000      -0.903088       -24.5743
 102   2.0000      -0.894287       -24.3348
 103   2.0000      -0.891058       -24.2469
 104   2.0000      -0.887930       -24.1618
 105   2.0000      -0.879712       -23.9382
 106   2.0000      -0.864026       -23.5114
 107   2.0000      -0.860275       -23.4093
 108   2.0000      -0.853957       -23.2374
 109   2.0000      -0.841296       -22.8928
 110   2.0000      -0.838632       -22.8203
 111   2.0000      -0.826484       -22.4898
 112   2.0000      -0.821620       -22.3574
 113   2.0000      -0.818157       -22.2632
 114   2.0000      -0.816980       -22.2312
 115   2.0000      -0.810396       -22.0520
 116   2.0000      -0.802400       -21.8344
 117   2.0000      -0.789943       -21.4954
 118   2.0000      -0.781950       -21.2779
 119   2.0000      -0.771383       -20.9904
 120   2.0000      -0.766582       -20.8598
 121   2.0000      -0.763111       -20.7653
 122   2.0000      -0.748067       -20.3559
 123   2.0000      -0.740540       -20.1511
 124   2.0000      -0.733052       -19.9474
 125   2.0000      -0.718602       -19.5541
 126   2.0000      -0.716652       -19.5011
 127   2.0000      -0.707071       -19.2404
 128   2.0000      -0.694693       -18.9036
 129   2.0000      -0.689089       -18.7511
 130   2.0000      -0.681487       -18.5442
 131   2.0000      -0.676512       -18.4088
 132   2.0000      -0.666830       -18.1454
 133   2.0000      -0.662489       -18.0272
 134   2.0000      -0.660685       -17.9781
 135   2.0000      -0.658155       -17.9093
 136   2.0000      -0.650581       -17.7032
 137   2.0000      -0.648002       -17.6330
 138   2.0000      -0.642384       -17.4802
 139   2.0000      -0.637383       -17.3441
 140   2.0000      -0.635302       -17.2875
 141   2.0000      -0.632307       -17.2059
 142   2.0000      -0.626342       -17.0436
 143   2.0000      -0.622823       -16.9479
 144   2.0000      -0.619519       -16.8580
 145   2.0000      -0.614025       -16.7085
 146   2.0000      -0.610034       -16.5999
 147   2.0000      -0.607247       -16.5240
 148   2.0000      -0.604195       -16.4410
 149   2.0000      -0.600771       -16.3478
 150   2.0000      -0.595107       -16.1937
 151   2.0000      -0.586863       -15.9694
 152   2.0000      -0.585224       -15.9248
 153   2.0000      -0.581725       -15.8295
 154   2.0000      -0.578012       -15.7285
 155   2.0000      -0.571976       -15.5643
 156   2.0000      -0.567701       -15.4479
 157   2.0000      -0.565385       -15.3849
 158   2.0000      -0.560558       -15.2535
 159   2.0000      -0.559740       -15.2313
 160   2.0000      -0.555970       -15.1287
 161   2.0000      -0.553270       -15.0553
 162   2.0000      -0.551598       -15.0097
 163   2.0000      -0.547974       -14.9111
 164   2.0000      -0.543739       -14.7959
 165   2.0000      -0.541162       -14.7258
 166   2.0000      -0.538682       -14.6583
 167   2.0000      -0.535041       -14.5592
 168   2.0000      -0.534074       -14.5329
 169   2.0000      -0.529913       -14.4197
 170   2.0000      -0.527783       -14.3617
 171   2.0000      -0.525163       -14.2904
 172   2.0000      -0.524148       -14.2628
 173   2.0000      -0.517724       -14.0880
 174   2.0000      -0.515843       -14.0368
 175   2.0000      -0.513651       -13.9771
 176   2.0000      -0.507524       -13.8104
 177   2.0000      -0.507378       -13.8065
 178   2.0000      -0.505193       -13.7470
 179   2.0000      -0.501426       -13.6445
 180   2.0000      -0.501068       -13.6348
 181   2.0000      -0.491253       -13.3677
 182   2.0000      -0.489815       -13.3285
 183   2.0000      -0.486295       -13.2328
 184   2.0000      -0.484705       -13.1895
 185   2.0000      -0.481969       -13.1150
 186   2.0000      -0.480675       -13.0798
 187   2.0000      -0.479481       -13.0473
 188   2.0000      -0.477164       -12.9843
 189   2.0000      -0.475524       -12.9397
 190   2.0000      -0.471935       -12.8420
 191   2.0000      -0.469291       -12.7700
 192   2.0000      -0.467439       -12.7197
 193   2.0000      -0.466866       -12.7041
 194   2.0000      -0.464717       -12.6456
 195   2.0000      -0.457573       -12.4512
 196   2.0000      -0.455184       -12.3862
 197   2.0000      -0.452081       -12.3017
 198   2.0000      -0.451533       -12.2868
 199   2.0000      -0.449577       -12.2336
 200   2.0000      -0.446755       -12.1568
 201   2.0000      -0.444878       -12.1057
 202   2.0000      -0.439727       -11.9656
 203   2.0000      -0.435322       -11.8457
 204   2.0000      -0.434475       -11.8227
 205   2.0000      -0.431541       -11.7428
 206   2.0000      -0.429142       -11.6775
 207   2.0000      -0.428727       -11.6662
 208   2.0000      -0.427161       -11.6236
 209   2.0000      -0.420839       -11.4516
 210   2.0000      -0.418516       -11.3884
 211   2.0000      -0.416887       -11.3441
 212   2.0000      -0.413586       -11.2543
 213   2.0000      -0.411785       -11.2052
 214   2.0000      -0.410160       -11.1610
 215   2.0000      -0.405709       -11.0399
 216   2.0000      -0.400631       -10.9017
 217   2.0000      -0.398478       -10.8431
 218   2.0000      -0.396291       -10.7836
 219   2.0000      -0.387795       -10.5524
 220   2.0000      -0.387748       -10.5512
 221   2.0000      -0.383963       -10.4482
 222   2.0000      -0.379810       -10.3352
 223   2.0000      -0.378605       -10.3024
 224   2.0000      -0.368513       -10.0277
 225   2.0000      -0.360626        -9.8131
 226   2.0000      -0.356982        -9.7140
 227   2.0000      -0.347270        -9.4497
 228   2.0000      -0.345344        -9.3973
 229   2.0000      -0.340944        -9.2776
 230   2.0000      -0.324430        -8.8282
 231   2.0000      -0.320628        -8.7247
 232   2.0000      -0.315386        -8.5821
 233   2.0000      -0.309322        -8.4171
 234   2.0000      -0.305486        -8.3127
 235   2.0000      -0.300306        -8.1717
 236   2.0000      -0.295803        -8.0492
 237   2.0000      -0.272403        -7.4125
 238   2.0000      -0.263932        -7.1819
 239   2.0000      -0.238767        -6.4972
 240   2.0000      -0.189722        -5.1626
 241   0.0000      -0.093137        -2.5344
 242   0.0000      -0.069452        -1.8899
 243   0.0000      -0.060961        -1.6588
 244   0.0000      -0.048814        -1.3283
 245   0.0000      -0.028920        -0.7869

MULLIKEN ATOMIC CHARGES
-----------------------
   0 C :   -0.107715
   1 C :    0.245651
   2 F :   -0.174816
   3 C :    0.244386
   4 F :   -0.172885
   5 C :   -0.074231
   6 C :    0.123177
   7 C :    0.103318
   8 C :   -0.083317
   9 C :    0.042992
  10 C :    0.007196
  11 C :   -0.072644
  12 C :    0.171401
  13 O :   -0.224657
  14 C :   -0.142679
  15 C :    0.333392
  16 C :   -0.344148
  17 C :   -0.180597
  18 N :    0.145755
  19 C :   -0.199716
  20 N :    0.144377
  21 C :    0.039090
  22 N :   -0.004988
  23 C :   -0.126293
  24 S :    0.183525
  25 C :   -0.003679
  26 N :    0.276745
  27 O :   -0.250974
  28 O :   -0.257530
  29 C :    0.005197
  30 C :    0.152886
  31 C :   -0.059876
  32 C :    0.011888
  33 C :    0.016963
  34 C :   -0.219062
  35 C :    0.080582
  36 C :    0.199542
  37 N :   -0.152782
  38 C :    0.058579
  39 C :   -0.054237
  40 C :    0.014149
  41 C :   -0.040863
  42 C :    0.032367
  43 C :   -0.004932
  44 C :   -0.043267
  45 S :    0.023795
  46 C :   -0.048564
  47 C :   -0.013635
  48 C :    0.088773
  49 C :   -0.089675
  50 S :    0.064616
  51 C :    0.024624
  52 C :   -0.220480
  53 S :    0.142407
  54 C :   -0.135330
  55 C :    0.042584
  56 C :    0.142210
  57 C :    0.032913
  58 C :   -0.042189
  59 C :   -0.122653
  60 C :    0.228710
  61 O :   -0.305669
  62 C :    0.180137
  63 C :   -0.013215
  64 C :   -0.028848
  65 H :    0.006345
  66 H :   -0.039483
  67 H :   -0.006506
  68 H :   -0.002173
  69 H :    0.044544
  70 H :    0.188774
  71 H :    0.010559
  72 H :   -0.001990
  73 H :   -0.017065
  74 H :   -0.012313
  75 H :    0.026891
  76 H :    0.017906
  77 H :    0.036939
  78 H :    0.019670
  79 H :    0.036440
  80 H :    0.127416
  81 H :    0.017286
  82 H :   -0.025823
  83 H :   -0.017547
  84 H :   -0.018115
  85 H :   -0.015099
  86 H :   -0.020020
  87 H :   -0.000926
  88 H :   -0.014172
  89 H :    0.020029
  90 H :   -0.028253
  91 H :   -0.038091
  92 H :    0.035817
  93 H :    0.024838
  94 H :    0.024569
  95 H :    0.010795
  96 H :    0.009459
  97 H :    0.011524
Sum of atomic charges:   -0.0000000

LOEWDIN ATOMIC CHARGES
----------------------
   0 C :   -0.030309
   1 C :    0.067888
   2 F :   -0.051187
   3 C :    0.067545
   4 F :   -0.046451
   5 C :   -0.023369
   6 C :   -0.009078
   7 C :   -0.006351
   8 C :    0.018523
   9 C :   -0.021094
  10 C :   -0.054324
  11 C :    0.040718
  12 C :    0.098025
  13 O :   -0.175501
  14 C :   -0.145712
  15 C :    0.079247
  16 C :   -0.150461
  17 C :   -0.018697
  18 N :   -0.056144
  19 C :   -0.020718
  20 N :   -0.055600
  21 C :    0.115769
  22 N :    0.083403
  23 C :   -0.116929
  24 S :    0.470606
  25 C :   -0.199999
  26 N :    0.274858
  27 O :   -0.217689
  28 O :   -0.224504
  29 C :    0.003287
  30 C :   -0.081387
  31 C :   -0.036828
  32 C :   -0.008248
  33 C :   -0.053615
  34 C :   -0.037132
  35 C :   -0.048616
  36 C :    0.038127
  37 N :    0.005586
  38 C :    0.042044
  39 C :   -0.136612
  40 C :   -0.033534
  41 C :   -0.179983
  42 C :   -0.026758
  43 C :   -0.072743
  44 C :   -0.186666
  45 S :    0.356674
  46 C :   -0.196828
  47 C :   -0.038901
  48 C :   -0.028149
  49 C :   -0.145144
  50 S :    0.351150
  51 C :   -0.096142
  52 C :   -0.181845
  53 S :    0.469468
  54 C :   -0.189819
  55 C :   -0.067333
  56 C :   -0.045191
  57 C :   -0.049754
  58 C :   -0.009372
  59 C :   -0.100414
  60 C :    0.065236
  61 O :   -0.096580
  62 C :    0.077983
  63 C :   -0.009333
  64 C :   -0.056276
  65 H :    0.047506
  66 H :    0.045681
  67 H :    0.040238
  68 H :    0.045874
  69 H :    0.037419
  70 H :    0.082667
  71 H :    0.044703
  72 H :    0.031725
  73 H :    0.023082
  74 H :    0.030994
  75 H :    0.032762
  76 H :    0.032499
  77 H :    0.041143
  78 H :    0.032645
  79 H :    0.037089
  80 H :    0.082573
  81 H :    0.012743
  82 H :    0.023479
  83 H :    0.034464
  84 H :    0.031062
  85 H :    0.027808
  86 H :    0.026022
  87 H :    0.037580
  88 H :    0.025438
  89 H :    0.024727
  90 H :    0.027300
  91 H :    0.025603
  92 H :    0.028088
  93 H :    0.016075
  94 H :    0.016279
  95 H :    0.032612
  96 H :    0.013301
  97 H :    0.020003

  Mayer bond orders larger than 0.100000
B(  0-C ,  1-C ) :   1.4368 B(  0-C ,  5-C ) :   0.1120 B(  0-C ,  7-C ) :   1.1959
B(  0-C , 65-H ) :   1.0075 B(  1-C ,  2-F ) :   1.1284 B(  1-C ,  3-C ) :   1.2034
B(  3-C ,  4-F ) :   1.1073 B(  3-C ,  5-C ) :   1.4242 B(  5-C ,  6-C ) :   1.2176
B(  5-C , 66-H ) :   1.0015 B(  6-C ,  7-C ) :   1.2468 B(  6-C , 11-C ) :   1.1810
B(  7-C ,  8-C ) :   1.2041 B(  8-C ,  9-C ) :   1.4678 B(  8-C , 67-H ) :   0.9900
B(  9-C , 10-C ) :   1.2127 B(  9-C , 15-C ) :   0.9896 B( 10-C , 11-C ) :   1.4658
B( 10-C , 12-C ) :   0.9850 B( 11-C , 68-H ) :   1.0223 B( 12-C , 13-O ) :   2.0112
B( 12-C , 14-C ) :   1.0136 B( 13-O , 70-H ) :   0.1523 B( 14-C , 15-C ) :   1.0987
B( 14-C , 21-C ) :   1.4348 B( 15-C , 16-C ) :   1.6213 B( 16-C , 17-C ) :   1.1495
B( 16-C , 19-C ) :   1.1494 B( 17-C , 18-N ) :   2.9584 B( 19-C , 20-N ) :   2.9552
B( 21-C , 22-N ) :   1.3499 B( 21-C , 69-H ) :   0.9344 B( 22-N , 23-C ) :   1.2002
B( 22-N , 70-H ) :   0.8122 B( 23-C , 24-S ) :   1.1317 B( 23-C , 30-C ) :   1.3694
B( 24-S , 25-C ) :   1.0850 B( 25-C , 26-N ) :   0.9707 B( 25-C , 29-C ) :   1.4945
B( 26-N , 27-O ) :   1.5284 B( 26-N , 28-O ) :   1.5125 B( 27-O , 28-O ) :   0.2623
B( 29-C , 30-C ) :   1.2279 B( 29-C , 71-H ) :   1.0006 B( 30-C , 31-C ) :   1.0351
B( 31-C , 32-C ) :   1.7408 B( 31-C , 72-H ) :   0.9773 B( 32-C , 33-C ) :   1.0977
B( 32-C , 73-H ) :   0.9768 B( 33-C , 34-C ) :   1.7911 B( 33-C , 74-H ) :   0.9656
B( 34-C , 35-C ) :   1.0772 B( 34-C , 36-C ) :   0.9986 B( 35-C , 75-H ) :   0.9513
B( 35-C , 76-H ) :   0.9542 B( 35-C , 77-H ) :   0.9481 B( 36-C , 37-N ) :   1.0412
B( 36-C , 78-H ) :   0.9421 B( 36-C , 79-H ) :   0.9104 B( 37-N , 38-C ) :   1.2326
B( 37-N , 80-H ) :   0.9406 B( 38-C , 39-C ) :   1.5894 B( 38-C , 81-H ) :   0.9491
B( 39-C , 40-C ) :   1.2173 B( 39-C , 82-H ) :   0.9548 B( 40-C , 41-C ) :   1.5892
B( 40-C , 83-H ) :   0.9578 B( 41-C , 42-C ) :   1.1560 B( 41-C , 45-S ) :   1.0046
B( 42-C , 43-C ) :   1.5833 B( 42-C , 84-H ) :   0.9994 B( 43-C , 44-C ) :   1.1737
B( 43-C , 85-H ) :   0.9891 B( 44-C , 45-S ) :   1.0372 B( 44-C , 46-C ) :   1.4977
B( 46-C , 47-C ) :   1.1810 B( 46-C , 50-S ) :   1.0353 B( 47-C , 48-C ) :   1.6085
B( 47-C , 86-H ) :   0.9910 B( 48-C , 49-C ) :   1.1572 B( 48-C , 87-H ) :   0.9809
B( 49-C , 50-S ) :   1.0312 B( 49-C , 51-C ) :   1.5995 B( 51-C , 52-C ) :   1.1501
B( 51-C , 88-H ) :   0.9364 B( 52-C , 53-S ) :   1.1566 B( 52-C , 54-C ) :   0.1024
B( 52-C , 56-C ) :   1.3645 B( 53-S , 54-C ) :   1.1906 B( 54-C , 55-C ) :   1.4363
B( 54-C , 89-H ) :   0.9705 B( 55-C , 56-C ) :   1.2187 B( 55-C , 60-C ) :   1.1589
B( 56-C , 57-C ) :   1.1547 B( 57-C , 58-C ) :   1.5368 B( 57-C , 63-C ) :   1.0686
B( 58-C , 59-C ) :   1.1753 B( 58-C , 90-H ) :   0.9847 B( 59-C , 60-C ) :   1.4522
B( 59-C , 91-H ) :   0.9971 B( 60-C , 61-O ) :   1.2047 B( 61-O , 62-C ) :   0.9633
B( 62-C , 92-H ) :   0.9795 B( 62-C , 93-H ) :   0.9689 B( 62-C , 94-H ) :   0.9689
B( 63-C , 64-C ) :   1.9566 B( 63-C , 95-H ) :   0.9527 B( 64-C , 96-H ) :   0.9426
B( 64-C , 97-H ) :   0.9460

-----------------------------------------------------------------------------
         ABSORPTION SPECTRUM VIA TRANSITION ELECTRIC DIPOLE MOMENTS
-----------------------------------------------------------------------------
State   Energy  Wavelength   fosc         T2         TX        TY        TZ
        (cm-1)    (nm)                  (au**2)     (au)      (au)      (au)
-----------------------------------------------------------------------------
   0    9403.8   1063.4   0.002260307   0.07913  -0.19199   0.13706  -0.15324
   1   12810.9    780.6   0.005190116   0.13337   0.31012   0.04483   0.18759
   2   14604.1    684.7   1.198026797  27.00649   4.50467   0.48705   2.54503
   3   19546.8    511.6   0.009598879   0.16167  -0.31707  -0.18152   0.16787
   4   20592.8    485.6   0.439191443   7.02124  -2.50637  -0.85921   0.03337
   5   21373.9    467.9   0.476242686   7.33532  -2.63271  -0.61784   0.14971
   6   21650.2    461.9   0.004742833   0.07212   0.00935  -0.25361   0.08784
   7   22208.1    450.3   0.013023169   0.19305   0.26998   0.34383  -0.04414
   8   24243.0    412.5   0.034132760   0.46351   0.49462   0.24119  -0.40086
   9   24625.4    406.1   0.003994699   0.05340   0.05323  -0.21549  -0.06431
  10   25788.6    387.8   0.084168530   1.07448   0.62261  -0.80687   0.18921
  11   26677.8    374.8   0.023334905   0.28796  -0.49537   0.12533  -0.16390
  12   27511.7    363.5   0.053198291   0.63658  -0.79116   0.04630   0.09226
  13   28032.2    356.7   0.012859079   0.15102  -0.36797   0.06392  -0.10738
  14   28283.4    353.6   0.034274488   0.39895   0.02034  -0.63004   0.03981
  15   29448.7    339.6   0.060899189   0.68080  -0.63005  -0.04309  -0.53102
  16   29694.5    336.8   0.097981128   1.08628  -0.81255   0.53139   0.37904
  17   30074.0    332.5   0.258210845   2.82656   1.37751   0.60263  -0.75224
  18   30744.8    325.3   0.432485009   4.63100   1.77946  -1.19895   0.16440
  19   31005.6    322.5   0.033689366   0.35771   0.09474   0.22845  -0.54456
  20   31148.2    321.0   0.011880633   0.12557   0.26493  -0.23299   0.03317
  21   31449.9    318.0   0.028171613   0.29490   0.18808  -0.50898   0.02146
  22   32218.9    310.4   0.001017871   0.01040  -0.02727  -0.04995  -0.08463
  23   32863.3    304.3   0.127489046   1.27714   0.95593  -0.57162   0.19126
  24   33001.9    303.0   0.002140968   0.02136   0.09808  -0.09704   0.04818
  25   33186.0    301.3   0.020591290   0.20427  -0.34054   0.21778  -0.20217
  26   33534.9    298.2   0.008060929   0.07913  -0.04996   0.08501   0.26346
  27   33787.7    296.0   0.853146630   8.31266   2.13873  -1.90379   0.33778
  28   33904.3    294.9   0.000577624   0.00561  -0.04330   0.05820   0.01861
  29   34258.2    291.9   0.047122426   0.45283  -0.19303   0.63967  -0.07997
  30   34553.2    289.4   0.002739738   0.02610  -0.08353   0.04927  -0.12922
  31   34638.9    288.7   0.014932648   0.14192   0.26337  -0.13379  -0.23379
  32   35567.1    281.2   0.045454219   0.42073  -0.11600   0.18824   0.60979
  33   35973.7    278.0   0.031638894   0.28954  -0.10540   0.52572  -0.04531
  34   36191.7    276.3   0.699171961   6.35991   0.15610  -2.48085   0.42535
  35   36280.0    275.6   0.005210721   0.04728  -0.06748   0.20654  -0.00837
  36   36556.3    273.6   0.024623545   0.22175   0.30045   0.28652  -0.22222
  37   36759.7    272.0   0.089471294   0.80128   0.26427   0.83403  -0.18933
  38   36934.5    270.7   0.022503201   0.20058   0.06372  -0.43582   0.08115
  39   37120.8    269.4   0.054378000   0.48226   0.62298  -0.09229   0.29265
  40   37232.6    268.6   0.144480534   1.27750  -0.85924  -0.65996   0.32194
  41   37718.7    265.1   0.059606689   0.52025   0.33515   0.21135   0.60271
  42   37739.1    265.0   0.006182797   0.05393   0.03454  -0.21363   0.08429
  43   37967.2    263.4   0.039757239   0.34473   0.17349   0.14175  -0.54272
  44   38007.7    263.1   0.026469744   0.22927  -0.02508   0.47649  -0.04004
  45   38363.5    260.7   0.004423530   0.03796  -0.09893  -0.01487  -0.16719
  46   38676.6    258.6   0.010936728   0.09309   0.28915   0.09726  -0.00534
  47   38686.6    258.5   0.000093887   0.00080   0.02519   0.00850  -0.00960
  48   39060.6    256.0   0.034960785   0.29466   0.29296   0.43106  -0.15173
  49   39446.9    253.5   0.004459017   0.03721   0.08590  -0.15009   0.08549
  50   39837.5    251.0   0.009708239   0.08023   0.26611  -0.05280   0.08141
  51   39986.4    250.1   0.020053802   0.16510  -0.14827   0.37216  -0.06794
  52   40241.6    248.5   0.057794780   0.47281  -0.36241  -0.48054  -0.33250

FINAL SINGLE POINT ENERGY     -4288.212489904110

DIPOLE MOMENT
-------------
                                X             Y             Z
Electronic contribution:     -4.89471     -40.73742      13.26155
Nuclear contribution   :      4.37319      44.19485     -13.93258
                        -----------------------------------------
Total Dipole Moment    :     -0.52152       3.45743      -0.67103
                        -----------------------------------------
Magnitude (a.u.)       :      3.56035
Magnitude (Debye)      :      9.04970

Rotational constants in cm-1:     0.001511     0.000491     0.000407
Rotational constants in MHz :    45.296620    14.726955    12.211736

                             ****ORCA TERMINATED NORMALLY****
TOTAL RUN TIME: 0 days 0 hours 9 minutes 12 seconds 399 msec
