                         Program Version 4.2.0 -  RELEASE  -
|  1> # ORCA input file
|  2> # SCF done       -194.135543240552          0.000616652540
|  3> ! CAM-B3LYP def2-SVP def2/J RIJCOSX Grid4 TightSCF
|  4> %maxcore 5000
|  5> %tddft
|  6>     Mode sTDDFT
|  7>     Ethresh 5.0
|  8>     maxcore 5000
|  9> end
| 10>
| 11> %pal
| 12>   nprocs 6
| 13>   end
| 14> * xyz 0 1
| 15>    C       -7.27133         1.51324         3.04186
| 16>    C       -8.54297         1.82984         2.65330
| 17>    F       -9.01226         3.07186         2.83217
| 18>    C       -9.37493         0.85860         2.06178
| 19>    F      -10.61758         1.19650         1.69047
| 20>    C       -8.92343        -0.41674         1.86677
| 21>    C       -7.61814        -0.77346         2.25630
| 22>    C       -6.77568         0.20737         2.85467
| 23>    C       -5.46123        -0.12751         3.25504
| 24>    C       -5.00284        -1.40399         3.06261
| 25>    C       -5.85218        -2.37516         2.46334
| 26>    C       -7.12477        -2.08369         2.06683
| 27>    C       -5.12660        -3.65436         2.36566
| 28>    O       -5.55875        -4.69010         1.89007
| 29>    C       -3.80218        -3.41983         2.94769
| 30>    C       -3.72167        -2.03666         3.37395
| 31>    C       -2.65811        -1.40224         3.96509
| 32>    C       -2.65668        -0.03988         4.33157
| 33>    N       -2.58708         1.06002         4.65355
| 34>    C       -1.42386        -1.99108         4.30837
| 35>    N       -0.39541        -2.38709         4.63418
| 36>    C       -2.80664        -4.35777         3.08544
| 37>    C       -2.76121        -5.69908         2.68661
| 38>    S       -3.93404        -6.50985         1.68085
| 39>    C       -2.94204        -7.92186         1.56625
| 40>    C       -1.76681        -7.78435         2.30684
| 41>    C       -1.65841        -6.53770         2.94118
| 42>    C       -0.49344        -6.16610         3.73477
| 43>    C       -0.52576        -5.56098         4.91531
| 44>    O       -0.82224        -8.77431         2.37906
| 45>    C       -0.59940        -9.31864         3.66741
| 46>    C       -3.40706        -9.01089         0.77134
| 47>    C       -2.68833       -10.11042         0.46021
| 48>    C       -3.11274       -11.20234        -0.37508
| 49>    C       -4.35432       -11.65514        -0.61203
| 50>    C       -5.60283       -11.15345         0.03950
| 51>    C       -4.56547       -12.77295        -1.60307
| 52>    N       -5.16212       -13.94563        -0.99884
| 53>    C       -4.81353       -14.43444         0.20370
| 54>    C       -5.24244       -15.63462         0.68616
| 55>    C       -4.92897       -16.11220         1.96661
| 56>    C       -5.32538       -17.33125         2.45829
| 57>    C       -5.06806       -17.86748         3.74003
| 58>    C       -5.59007       -19.11059         3.94340
| 59>    C       -6.28302       -19.62986         2.82829
| 60>    S       -6.26483       -18.48643         1.51445
| 61>    C       -6.90019       -20.86662         2.71478
| 62>    C       -7.00404       -21.87302         3.69307
| 63>    C       -7.66087       -22.99394         3.26853
| 64>    C       -8.10225       -22.92915         1.93065
| 65>    S       -7.67287       -21.38912         1.23267
| 66>    C       -8.78180       -23.87460         1.17660
| 67>    C       -9.09397       -25.14752         1.62711
| 68>    C       -9.75139       -26.14986         0.93507
| 69>    C       -9.56938       -27.54940         1.36518
| 70>    O       -9.07132       -27.93809         2.40341
| 71>    C      -10.06988       -28.37395         0.24475
| 72>    C      -10.03425       -29.72763         0.08782
| 73>    C      -10.52945       -30.29672        -1.10849
| 74>    C      -11.05415       -29.44239        -2.11998
| 75>    C      -11.53319       -30.01349        -3.31454
| 76>    C      -11.48592       -31.37007        -3.47662
| 77>    C      -10.97620       -32.22716        -2.49361
| 78>    C      -10.50704       -31.68846        -1.32721
| 79>    F      -11.94243       -31.91790        -4.62140
| 80>    C      -11.09062       -28.04073        -1.92194
| 81>    C      -10.60830       -27.51523        -0.75572
| 82>    C      -10.52650       -26.13514        -0.26978
| 83>    C      -11.24394       -25.07904        -0.78913
| 84>    C      -11.40590       -23.83805        -0.14512
| 85>    N      -11.61751       -22.82514         0.35506
| 86>    C      -12.00223       -25.15135        -1.97143
| 87>    N      -12.61748       -25.14076        -2.94252
| 88>    H       -6.64762         2.26897         3.49328
| 89>    H       -9.57258        -1.14898         1.41270
| 90>    H       -4.85205         0.63913         3.70510
| 91>    H       -7.74615        -2.84213         1.61549
| 92>    H       -1.89540        -4.02704         3.56787
| 93>    H        0.45440        -6.45596         3.29622
| 94>    H       -1.45126        -5.30958         5.40660
| 95>    H        0.37756        -5.30752         5.44114
| 96>    H        0.23261       -10.01167         3.55867
| 97>    H       -1.48545        -9.86138         4.01474
| 98>    H       -0.34254        -8.54736         4.39771
| 99>    H       -4.39484        -8.86661         0.35975
|100>    H       -1.66701       -10.16685         0.80983
|101>    H       -2.29321       -11.72325        -0.85785
|102>    H       -5.39743       -10.76420         1.03342
|103>    H       -6.33391       -11.95615         0.11720
|104>    H       -6.04945       -10.35584        -0.55497
|105>    H       -3.61198       -13.03377        -2.08302
|106>    H       -5.25085       -12.42461        -2.38317
|107>    H       -5.69601       -14.55192        -1.60395
|108>    H       -4.18268       -13.78961         0.80052
|109>    H       -5.86063       -16.26321         0.05851
|110>    H       -4.33577       -15.48277         2.61729
|111>    H       -4.50616       -17.31754         4.47460
|112>    H       -5.49040       -19.66600         4.85824
|113>    H       -6.59928       -21.75270         4.68209
|114>    H       -7.83386       -23.85576         3.88670
|115>    H       -9.03765       -23.59376         0.16556
|116>    H       -8.69926       -25.46392         2.58569
|117>    H       -9.62899       -30.36001         0.86364
|118>    H      -11.93570       -29.38389        -4.09277
|119>    H      -10.96402       -33.28995        -2.67689
|120>    H      -10.10844       -32.32833        -0.55404
|121>    H      -11.49040       -27.41922        -2.70742
|122> *
|123>
|124>                          ****END OF INPUT****

CARTESIAN COORDINATES (ANGSTROEM)
---------------------------------
  C     -7.271330    1.513240    3.041860
  C     -8.542970    1.829840    2.653300
  F     -9.012260    3.071860    2.832170
  C     -9.374930    0.858600    2.061780
  F    -10.617580    1.196500    1.690470
  C     -8.923430   -0.416740    1.866770
  C     -7.618140   -0.773460    2.256300
  C     -6.775680    0.207370    2.854670
  C     -5.461230   -0.127510    3.255040
  C     -5.002840   -1.403990    3.062610
  C     -5.852180   -2.375160    2.463340
  C     -7.124770   -2.083690    2.066830
  C     -5.126600   -3.654360    2.365660
  O     -5.558750   -4.690100    1.890070
  C     -3.802180   -3.419830    2.947690
  C     -3.721670   -2.036660    3.373950
  C     -2.658110   -1.402240    3.965090
  C     -2.656680   -0.039880    4.331570
  N     -2.587080    1.060020    4.653550
  C     -1.423860   -1.991080    4.308370
  N     -0.395410   -2.387090    4.634180
  C     -2.806640   -4.357770    3.085440
  C     -2.761210   -5.699080    2.686610
  S     -3.934040   -6.509850    1.680850
  C     -2.942040   -7.921860    1.566250
  C     -1.766810   -7.784350    2.306840
  C     -1.658410   -6.537700    2.941180
  C     -0.493440   -6.166100    3.734770
  C     -0.525760   -5.560980    4.915310
  O     -0.822240   -8.774310    2.379060
  C     -0.599400   -9.318640    3.667410
  C     -3.407060   -9.010890    0.771340
  C     -2.688330  -10.110420    0.460210
  C     -3.112740  -11.202340   -0.375080
  C     -4.354320  -11.655140   -0.612030
  C     -5.602830  -11.153450    0.039500
  C     -4.565470  -12.772950   -1.603070
  N     -5.162120  -13.945630   -0.998840
  C     -4.813530  -14.434440    0.203700
  C     -5.242440  -15.634620    0.686160
  C     -4.928970  -16.112200    1.966610
  C     -5.325380  -17.331250    2.458290
  C     -5.068060  -17.867480    3.740030
  C     -5.590070  -19.110590    3.943400
  C     -6.283020  -19.629860    2.828290
  S     -6.264830  -18.486430    1.514450
  C     -6.900190  -20.866620    2.714780
  C     -7.004040  -21.873020    3.693070
  C     -7.660870  -22.993940    3.268530
  C     -8.102250  -22.929150    1.930650
  S     -7.672870  -21.389120    1.232670
  C     -8.781800  -23.874600    1.176600
  C     -9.093970  -25.147520    1.627110
  C     -9.751390  -26.149860    0.935070
  C     -9.569380  -27.549400    1.365180
  O     -9.071320  -27.938090    2.403410
  C    -10.069880  -28.373950    0.244750
  C    -10.034250  -29.727630    0.087820
  C    -10.529450  -30.296720   -1.108490
  C    -11.054150  -29.442390   -2.119980
  C    -11.533190  -30.013490   -3.314540
  C    -11.485920  -31.370070   -3.476620
  C    -10.976200  -32.227160   -2.493610
  C    -10.507040  -31.688460   -1.327210
  F    -11.942430  -31.917900   -4.621400
  C    -11.090620  -28.040730   -1.921940
  C    -10.608300  -27.515230   -0.755720
  C    -10.526500  -26.135140   -0.269780
  C    -11.243940  -25.079040   -0.789130
  C    -11.405900  -23.838050   -0.145120
  N    -11.617510  -22.825140    0.355060
  C    -12.002230  -25.151350   -1.971430
  N    -12.617480  -25.140760   -2.942520
  H     -6.647620    2.268970    3.493280
  H     -9.572580   -1.148980    1.412700
  H     -4.852050    0.639130    3.705100
  H     -7.746150   -2.842130    1.615490
  H     -1.895400   -4.027040    3.567870
  H      0.454400   -6.455960    3.296220
  H     -1.451260   -5.309580    5.406600
  H      0.377560   -5.307520    5.441140
  H      0.232610  -10.011670    3.558670
  H     -1.485450   -9.861380    4.014740
  H     -0.342540   -8.547360    4.397710
  H     -4.394840   -8.866610    0.359750
  H     -1.667010  -10.166850    0.809830
  H     -2.293210  -11.723250   -0.857850
  H     -5.397430  -10.764200    1.033420
  H     -6.333910  -11.956150    0.117200
  H     -6.049450  -10.355840   -0.554970
  H     -3.611980  -13.033770   -2.083020
  H     -5.250850  -12.424610   -2.383170
  H     -5.696010  -14.551920   -1.603950
  H     -4.182680  -13.789610    0.800520
  H     -5.860630  -16.263210    0.058510
  H     -4.335770  -15.482770    2.617290
  H     -4.506160  -17.317540    4.474600
  H     -5.490400  -19.666000    4.858240
  H     -6.599280  -21.752700    4.682090
  H     -7.833860  -23.855760    3.886700
  H     -9.037650  -23.593760    0.165560
  H     -8.699260  -25.463920    2.585690
  H     -9.628990  -30.360010    0.863640
  H    -11.935700  -29.383890   -4.092770
  H    -10.964020  -33.289950   -2.676890
  H    -10.108440  -32.328330   -0.554040
  H    -11.490400  -27.419220   -2.707420

 Total Charge           Charge          ....    0
 Multiplicity           Mult            ....    1
 Number of Electrons    NEL             ....  522
 Basis Dimension        Dim             .... 1204

ORBITAL ENERGIES
----------------

  NO   OCC          E(Eh)            E(eV)
   0   2.0000     -88.973465     -2421.0911
   1   2.0000     -88.958717     -2420.6898
   2   2.0000     -88.949539     -2420.4400
   3   2.0000     -24.801687      -674.8882
   4   2.0000     -24.800608      -674.8588
   5   2.0000     -24.765893      -673.9142
   6   2.0000     -19.259446      -524.0762
   7   2.0000     -19.226618      -523.1829
   8   2.0000     -19.179331      -521.8961
   9   2.0000     -14.470782      -393.7700
  10   2.0000     -14.423010      -392.4700
  11   2.0000     -14.418239      -392.3402
  12   2.0000     -14.384237      -391.4150
  13   2.0000     -14.381543      -391.3417
  14   2.0000     -10.385092      -282.5927
  15   2.0000     -10.384170      -282.5676
  16   2.0000     -10.374820      -282.3132
  17   2.0000     -10.349656      -281.6285
  18   2.0000     -10.347543      -281.5710
  19   2.0000     -10.347156      -281.5604
  20   2.0000     -10.346814      -281.5511
  21   2.0000     -10.345271      -281.5091
  22   2.0000     -10.339657      -281.3564
  23   2.0000     -10.335372      -281.2398
  24   2.0000     -10.331129      -281.1243
  25   2.0000     -10.330951      -281.1195
  26   2.0000     -10.328310      -281.0476
  27   2.0000     -10.325982      -280.9842
  28   2.0000     -10.325424      -280.9691
  29   2.0000     -10.321688      -280.8674
  30   2.0000     -10.319919      -280.8193
  31   2.0000     -10.316461      -280.7252
  32   2.0000     -10.314259      -280.6653
  33   2.0000     -10.313855      -280.6543
  34   2.0000     -10.312078      -280.6059
  35   2.0000     -10.311330      -280.5856
  36   2.0000     -10.311008      -280.5768
  37   2.0000     -10.310532      -280.5638
  38   2.0000     -10.308826      -280.5174
  39   2.0000     -10.307243      -280.4743
  40   2.0000     -10.306675      -280.4589
  41   2.0000     -10.306383      -280.4509
  42   2.0000     -10.306001      -280.4405
  43   2.0000     -10.305261      -280.4204
  44   2.0000     -10.304911      -280.4109
  45   2.0000     -10.303951      -280.3848
  46   2.0000     -10.302401      -280.3426
  47   2.0000     -10.302087      -280.3340
  48   2.0000     -10.302023      -280.3323
  49   2.0000     -10.297163      -280.2000
  50   2.0000     -10.296373      -280.1785
  51   2.0000     -10.295938      -280.1667
  52   2.0000     -10.294784      -280.1353
  53   2.0000     -10.294290      -280.1219
  54   2.0000     -10.291881      -280.0563
  55   2.0000     -10.289022      -279.9785
  56   2.0000     -10.288615      -279.9675
  57   2.0000     -10.286963      -279.9225
  58   2.0000     -10.285751      -279.8895
  59   2.0000     -10.283701      -279.8337
  60   2.0000     -10.282861      -279.8109
  61   2.0000     -10.281460      -279.7727
  62   2.0000     -10.277706      -279.6706
  63   2.0000     -10.277576      -279.6670
  64   2.0000     -10.276568      -279.6396
  65   2.0000     -10.276049      -279.6255
  66   2.0000     -10.273095      -279.5451
  67   2.0000     -10.272779      -279.5365
  68   2.0000     -10.270371      -279.4710
  69   2.0000     -10.267400      -279.3902
  70   2.0000     -10.263746      -279.2907
  71   2.0000     -10.261697      -279.2350
  72   2.0000     -10.255548      -279.0676
  73   2.0000      -8.066993      -219.5140
  74   2.0000      -8.054801      -219.1823
  75   2.0000      -8.045806      -218.9375
  76   2.0000      -6.036348      -164.2574
  77   2.0000      -6.031945      -164.1376
  78   2.0000      -6.029174      -164.0622
  79   2.0000      -6.024393      -163.9321
  80   2.0000      -6.020453      -163.8249
  81   2.0000      -6.015971      -163.7029
  82   2.0000      -6.015397      -163.6873
  83   2.0000      -6.011299      -163.5758
  84   2.0000      -6.007092      -163.4613
  85   2.0000      -1.323952       -36.0266
  86   2.0000      -1.309100       -35.6224
  87   2.0000      -1.279767       -34.8242
  88   2.0000      -1.161224       -31.5985
  89   2.0000      -1.141939       -31.0737
  90   2.0000      -1.093150       -29.7461
  91   2.0000      -1.069459       -29.1014
  92   2.0000      -1.024719       -27.8840
  93   2.0000      -1.009201       -27.4617
  94   2.0000      -1.004856       -27.3435
  95   2.0000      -1.003435       -27.3048
  96   2.0000      -0.998924       -27.1821
  97   2.0000      -0.986979       -26.8571
  98   2.0000      -0.985309       -26.8116
  99   2.0000      -0.979321       -26.6487
 100   2.0000      -0.972458       -26.4619
 101   2.0000      -0.962049       -26.1787
 102   2.0000      -0.948340       -25.8056
 103   2.0000      -0.945563       -25.7301
 104   2.0000      -0.936318       -25.4785
 105   2.0000      -0.924033       -25.1442
 106   2.0000      -0.915367       -24.9084
 107   2.0000      -0.905856       -24.6496
 108   2.0000      -0.902601       -24.5610
 109   2.0000      -0.896648       -24.3990
 110   2.0000      -0.890851       -24.2413
 111   2.0000      -0.887255       -24.1434
 112   2.0000      -0.879431       -23.9305
 113   2.0000      -0.868214       -23.6253
 114   2.0000      -0.861439       -23.4409
 115   2.0000      -0.854830       -23.2611
 116   2.0000      -0.850936       -23.1552
 117   2.0000      -0.846155       -23.0251
 118   2.0000      -0.843518       -22.9533
 119   2.0000      -0.836030       -22.7495
 120   2.0000      -0.832606       -22.6564
 121   2.0000      -0.823017       -22.3954
 122   2.0000      -0.811889       -22.0926
 123   2.0000      -0.810120       -22.0445
 124   2.0000      -0.804252       -21.8848
 125   2.0000      -0.796161       -21.6646
 126   2.0000      -0.783134       -21.3102
 127   2.0000      -0.772841       -21.0301
 128   2.0000      -0.768763       -20.9191
 129   2.0000      -0.756348       -20.5813
 130   2.0000      -0.742252       -20.1977
 131   2.0000      -0.735830       -20.0229
 132   2.0000      -0.729371       -19.8472
 133   2.0000      -0.722965       -19.6729
 134   2.0000      -0.717616       -19.5273
 135   2.0000      -0.713954       -19.4277
 136   2.0000      -0.710453       -19.3324
 137   2.0000      -0.696874       -18.9629
 138   2.0000      -0.695170       -18.9165
 139   2.0000      -0.686319       -18.6757
 140   2.0000      -0.683180       -18.5903
 141   2.0000      -0.681119       -18.5342
 142   2.0000      -0.666189       -18.1279
 143   2.0000      -0.664578       -18.0841
 144   2.0000      -0.657609       -17.8945
 145   2.0000      -0.651066       -17.7164
 146   2.0000      -0.648588       -17.6490
 147   2.0000      -0.646426       -17.5902
 148   2.0000      -0.645410       -17.5625
 149   2.0000      -0.639335       -17.3972
 150   2.0000      -0.636894       -17.3308
 151   2.0000      -0.628291       -17.0967
 152   2.0000      -0.622437       -16.9374
 153   2.0000      -0.618121       -16.8199
 154   2.0000      -0.616403       -16.7732
 155   2.0000      -0.608232       -16.5508
 156   2.0000      -0.607956       -16.5433
 157   2.0000      -0.607601       -16.5337
 158   2.0000      -0.601098       -16.3567
 159   2.0000      -0.597192       -16.2504
 160   2.0000      -0.593107       -16.1393
 161   2.0000      -0.588636       -16.0176
 162   2.0000      -0.587769       -15.9940
 163   2.0000      -0.585566       -15.9341
 164   2.0000      -0.579410       -15.7665
 165   2.0000      -0.575403       -15.6575
 166   2.0000      -0.570968       -15.5368
 167   2.0000      -0.569509       -15.4971
 168   2.0000      -0.565537       -15.3890
 169   2.0000      -0.559430       -15.2229
 170   2.0000      -0.556803       -15.1514
 171   2.0000      -0.554126       -15.0785
 172   2.0000      -0.550173       -14.9710
 173   2.0000      -0.548814       -14.9340
 174   2.0000      -0.546688       -14.8761
 175   2.0000      -0.544085       -14.8053
 176   2.0000      -0.542753       -14.7690
 177   2.0000      -0.538219       -14.6457
 178   2.0000      -0.537796       -14.6342
 179   2.0000      -0.536778       -14.6065
 180   2.0000      -0.534236       -14.5373
 181   2.0000      -0.533191       -14.5089
 182   2.0000      -0.527613       -14.3571
 183   2.0000      -0.525180       -14.2909
 184   2.0000      -0.522029       -14.2051
 185   2.0000      -0.520722       -14.1696
 186   2.0000      -0.517535       -14.0829
 187   2.0000      -0.517220       -14.0743
 188   2.0000      -0.508904       -13.8480
 189   2.0000      -0.507470       -13.8090
 190   2.0000      -0.505074       -13.7438
 191   2.0000      -0.503349       -13.6968
 192   2.0000      -0.502905       -13.6847
 193   2.0000      -0.501849       -13.6560
 194   2.0000      -0.500445       -13.6178
 195   2.0000      -0.500084       -13.6080
 196   2.0000      -0.497538       -13.5387
 197   2.0000      -0.495824       -13.4921
 198   2.0000      -0.493650       -13.4329
 199   2.0000      -0.489182       -13.3113
 200   2.0000      -0.487493       -13.2654
 201   2.0000      -0.486327       -13.2336
 202   2.0000      -0.485084       -13.1998
 203   2.0000      -0.480616       -13.0782
 204   2.0000      -0.474610       -12.9148
 205   2.0000      -0.474204       -12.9038
 206   2.0000      -0.471202       -12.8220
 207   2.0000      -0.468718       -12.7545
 208   2.0000      -0.467432       -12.7195
 209   2.0000      -0.465610       -12.6699
 210   2.0000      -0.463939       -12.6244
 211   2.0000      -0.458194       -12.4681
 212   2.0000      -0.456483       -12.4215
 213   2.0000      -0.455626       -12.3982
 214   2.0000      -0.451428       -12.2840
 215   2.0000      -0.451009       -12.2726
 216   2.0000      -0.450028       -12.2459
 217   2.0000      -0.448053       -12.1921
 218   2.0000      -0.445453       -12.1214
 219   2.0000      -0.443831       -12.0773
 220   2.0000      -0.438097       -11.9212
 221   2.0000      -0.437502       -11.9050
 222   2.0000      -0.433778       -11.8037
 223   2.0000      -0.433467       -11.7952
 224   2.0000      -0.432687       -11.7740
 225   2.0000      -0.432302       -11.7635
 226   2.0000      -0.426201       -11.5975
 227   2.0000      -0.425202       -11.5703
 228   2.0000      -0.420363       -11.4387
 229   2.0000      -0.416751       -11.3404
 230   2.0000      -0.415296       -11.3008
 231   2.0000      -0.412471       -11.2239
 232   2.0000      -0.410623       -11.1736
 233   2.0000      -0.409078       -11.1316
 234   2.0000      -0.407230       -11.0813
 235   2.0000      -0.406318       -11.0565
 236   2.0000      -0.400857       -10.9079
 237   2.0000      -0.395269       -10.7558
 238   2.0000      -0.392928       -10.6921
 239   2.0000      -0.390962       -10.6386
 240   2.0000      -0.389499       -10.5988
 241   2.0000      -0.383535       -10.4365
 242   2.0000      -0.374289       -10.1849
 243   2.0000      -0.373623       -10.1668
 244   2.0000      -0.360423        -9.8076
 245   2.0000      -0.358269        -9.7490
 246   2.0000      -0.351109        -9.5542
 247   2.0000      -0.343664        -9.3516
 248   2.0000      -0.340933        -9.2773
 249   2.0000      -0.330720        -8.9994
 250   2.0000      -0.327928        -8.9234
 251   2.0000      -0.323530        -8.8037
 252   2.0000      -0.318236        -8.6597
 253   2.0000      -0.313680        -8.5357
 254   2.0000      -0.305028        -8.3002
 255   2.0000      -0.304656        -8.2901
 256   2.0000      -0.288612        -7.8535
 257   2.0000      -0.277460        -7.5501
 258   2.0000      -0.271250        -7.3811
 259   2.0000      -0.267383        -7.2759
 260   2.0000      -0.211419        -5.7530
 261   0.0000      -0.104191        -2.8352
 262   0.0000      -0.093440        -2.5426
 263   0.0000      -0.066714        -1.8154
 264   0.0000      -0.046537        -1.2663
 265   0.0000      -0.043022        -1.1707

MULLIKEN ATOMIC CHARGES
-----------------------
   0 C :   -0.108503
   1 C :    0.242674
   2 F :   -0.170665
   3 C :    0.237554
   4 F :   -0.171293
   5 C :   -0.104758
   6 C :    0.117763
   7 C :    0.113712
   8 C :   -0.086864
   9 C :    0.045424
  10 C :    0.000500
  11 C :   -0.086576
  12 C :    0.160943
  13 O :   -0.178250
  14 C :   -0.100479
  15 C :    0.338569
  16 C :   -0.364880
  17 C :   -0.184698
  18 N :    0.146351
  19 C :   -0.193081
  20 N :    0.149841
  21 C :   -0.041288
  22 C :   -0.091497
  23 S :    0.197584
  24 C :   -0.102498
  25 C :    0.146082
  26 C :    0.060506
  27 C :   -0.078133
  28 C :    0.025095
  29 O :   -0.339493
  30 C :    0.191513
  31 C :    0.027928
  32 C :    0.005507
  33 C :    0.025254
  34 C :   -0.251999
  35 C :    0.090074
  36 C :    0.228931
  37 N :   -0.160392
  38 C :    0.077446
  39 C :   -0.032683
  40 C :    0.018274
  41 C :   -0.053917
  42 C :    0.058564
  43 C :    0.006579
  44 C :   -0.019197
  45 S :    0.089284
  46 C :   -0.074961
  47 C :    0.036592
  48 C :    0.013761
  49 C :   -0.045717
  50 S :    0.128694
  51 C :    0.036268
  52 C :    0.026948
  53 C :   -0.144713
  54 C :    0.136810
  55 O :   -0.171796
  56 C :    0.007878
  57 C :   -0.090469
  58 C :    0.101864
  59 C :    0.102340
  60 C :   -0.099998
  61 C :    0.300436
  62 C :   -0.038034
  63 C :   -0.012177
  64 F :   -0.199442
  65 C :   -0.094050
  66 C :    0.041670
  67 C :    0.294152
  68 C :   -0.356819
  69 C :   -0.222820
  70 N :    0.150995
  71 C :   -0.180344
  72 N :    0.123021
  73 H :    0.008460
  74 H :   -0.001476
  75 H :   -0.006554
  76 H :   -0.012622
  77 H :    0.004920
  78 H :    0.031171
  79 H :    0.033829
  80 H :    0.045063
  81 H :    0.037698
  82 H :    0.015270
  83 H :    0.030576
  84 H :   -0.022116
  85 H :    0.015593
  86 H :   -0.011685
  87 H :    0.032135
  88 H :    0.023738
  89 H :    0.042279
  90 H :    0.017518
  91 H :    0.025714
  92 H :    0.131465
  93 H :    0.024197
  94 H :   -0.004480
  95 H :   -0.010135
  96 H :   -0.009706
  97 H :   -0.011448
  98 H :   -0.012082
  99 H :   -0.001104
 100 H :   -0.003480
 101 H :   -0.003734
 102 H :   -0.021531
 103 H :   -0.006995
 104 H :   -0.003849
 105 H :   -0.016133
 106 H :   -0.011395
Sum of atomic charges:   -0.0000000

LOEWDIN ATOMIC CHARGES
----------------------
   0 C :   -0.028719
   1 C :    0.066625
   2 F :   -0.048802
   3 C :    0.067852
   4 F :   -0.049410
   5 C :   -0.033767
   6 C :   -0.009023
   7 C :   -0.007060
   8 C :    0.018111
   9 C :   -0.022716
  10 C :   -0.051436
  11 C :    0.028111
  12 C :    0.081829
  13 O :   -0.169641
  14 C :   -0.115304
  15 C :    0.078221
  16 C :   -0.146961
  17 C :   -0.017701
  18 N :   -0.056990
  19 C :   -0.020797
  20 N :   -0.054093
  21 C :    0.058330
  22 C :   -0.184670
  23 S :    0.515207
  24 C :   -0.173494
  25 C :    0.005399
  26 C :   -0.035306
  27 C :   -0.033600
  28 C :   -0.003571
  29 O :   -0.123171
  30 C :    0.081435
  31 C :   -0.040733
  32 C :   -0.012639
  33 C :   -0.047191
  34 C :   -0.032922
  35 C :   -0.054126
  36 C :    0.048482
  37 N :    0.013085
  38 C :    0.072108
  39 C :   -0.125364
  40 C :    0.001517
  41 C :   -0.187633
  42 C :   -0.006106
  43 C :   -0.058096
  44 C :   -0.135976
  45 S :    0.387535
  46 C :   -0.214787
  47 C :   -0.005033
  48 C :   -0.058656
  49 C :   -0.098299
  50 S :    0.410946
  51 C :   -0.081582
  52 C :    0.057123
  53 C :   -0.123028
  54 C :    0.075155
  55 O :   -0.173039
  56 C :   -0.053846
  57 C :    0.023115
  58 C :   -0.021889
  59 C :    0.000843
  60 C :   -0.044711
  61 C :    0.088216
  62 C :   -0.045632
  63 C :    0.000701
  64 F :   -0.073114
  65 C :    0.001922
  66 C :   -0.011992
  67 C :    0.067246
  68 C :   -0.165551
  69 C :   -0.024798
  70 N :   -0.071935
  71 C :   -0.019620
  72 N :   -0.078695
  73 H :    0.048038
  74 H :    0.044419
  75 H :    0.040087
  76 H :    0.039355
  77 H :    0.049867
  78 H :    0.038878
  79 H :    0.026515
  80 H :    0.035399
  81 H :    0.026681
  82 H :    0.014036
  83 H :    0.016413
  84 H :    0.027404
  85 H :    0.032962
  86 H :    0.029641
  87 H :    0.036446
  88 H :    0.030749
  89 H :    0.041298
  90 H :    0.023435
  91 H :    0.036295
  92 H :    0.086405
  93 H :    0.034916
  94 H :    0.020801
  95 H :    0.035663
  96 H :    0.035100
  97 H :    0.032340
  98 H :    0.033432
  99 H :    0.035585
 100 H :    0.030760
 101 H :    0.035995
 102 H :    0.035696
 103 H :    0.041202
 104 H :    0.038406
 105 H :    0.032839
 106 H :    0.037054

  Mayer bond orders larger than 0.100000
B(  0-C ,  1-C ) :   1.4392 B(  0-C ,  5-C ) :   0.1084 B(  0-C ,  7-C ) :   1.1911
B(  0-C , 73-H ) :   1.0058 B(  1-C ,  2-F ) :   1.1355 B(  1-C ,  3-C ) :   1.1927
B(  3-C ,  4-F ) :   1.1340 B(  3-C ,  5-C ) :   1.4425 B(  5-C ,  6-C ) :   1.1932
B(  5-C , 74-H ) :   1.0059 B(  6-C ,  7-C ) :   1.2578 B(  6-C , 11-C ) :   1.1844
B(  7-C ,  8-C ) :   1.2135 B(  8-C ,  9-C ) :   1.4551 B(  8-C , 75-H ) :   0.9879
B(  9-C , 10-C ) :   1.2233 B(  9-C , 15-C ) :   0.9771 B( 10-C , 11-C ) :   1.4713
B( 10-C , 12-C ) :   0.9527 B( 11-C , 76-H ) :   1.0164 B( 12-C , 13-O ) :   2.1412
B( 12-C , 14-C ) :   0.9756 B( 14-C , 15-C ) :   1.0872 B( 14-C , 21-C ) :   1.4924
B( 15-C , 16-C ) :   1.6124 B( 16-C , 17-C ) :   1.1521 B( 16-C , 19-C ) :   1.1491
B( 17-C , 18-N ) :   2.9581 B( 19-C , 20-N ) :   2.9682 B( 21-C , 22-C ) :   1.2848
B( 21-C , 77-H ) :   0.9314 B( 22-C , 23-S ) :   1.0860 B( 22-C , 26-C ) :   1.3466
B( 23-S , 24-C ) :   1.1255 B( 24-C , 25-C ) :   1.3871 B( 24-C , 31-C ) :   1.1351
B( 25-C , 26-C ) :   1.3139 B( 25-C , 29-O ) :   1.1443 B( 26-C , 27-C ) :   1.0361
B( 27-C , 28-C ) :   1.9231 B( 27-C , 78-H ) :   0.9585 B( 28-C , 79-H ) :   0.9653
B( 28-C , 80-H ) :   0.9501 B( 29-O , 30-C ) :   0.9304 B( 30-C , 81-H ) :   0.9821
B( 30-C , 82-H ) :   0.9673 B( 30-C , 83-H ) :   0.9642 B( 31-C , 32-C ) :   1.7214
B( 31-C , 84-H ) :   0.9494 B( 32-C , 33-C ) :   1.0995 B( 32-C , 85-H ) :   0.9516
B( 33-C , 34-C ) :   1.7993 B( 33-C , 86-H ) :   0.9512 B( 34-C , 35-C ) :   1.0772
B( 34-C , 36-C ) :   1.0416 B( 35-C , 87-H ) :   0.9467 B( 35-C , 88-H ) :   0.9451
B( 35-C , 89-H ) :   0.9394 B( 36-C , 37-N ) :   0.9762 B( 36-C , 90-H ) :   0.9402
B( 36-C , 91-H ) :   0.9321 B( 37-N , 38-C ) :   1.2674 B( 37-N , 92-H ) :   0.9359
B( 38-C , 39-C ) :   1.5387 B( 38-C , 93-H ) :   0.9658 B( 39-C , 40-C ) :   1.2182
B( 39-C , 94-H ) :   0.9643 B( 40-C , 41-C ) :   1.5371 B( 40-C , 95-H ) :   0.9782
B( 41-C , 42-C ) :   1.1751 B( 41-C , 45-S ) :   1.0122 B( 42-C , 43-C ) :   1.5509
B( 42-C , 96-H ) :   0.9983 B( 43-C , 44-C ) :   1.2228 B( 43-C , 97-H ) :   0.9944
B( 44-C , 45-S ) :   1.0998 B( 44-C , 46-C ) :   1.4267 B( 46-C , 47-C ) :   1.2475
B( 46-C , 50-S ) :   1.0414 B( 47-C , 48-C ) :   1.5247 B( 47-C , 98-H ) :   0.9927
B( 48-C , 49-C ) :   1.2257 B( 48-C , 99-H ) :   0.9904 B( 49-C , 50-S ) :   1.1146
B( 49-C , 51-C ) :   1.4044 B( 51-C , 52-C ) :   1.3214 B( 51-C ,100-H ) :   0.9486
B( 52-C , 53-C ) :   1.4574 B( 52-C ,101-H ) :   0.9423 B( 53-C , 54-C ) :   0.9815
B( 53-C , 67-C ) :   1.1126 B( 54-C , 55-O ) :   2.2265 B( 54-C , 56-C ) :   0.9176
B( 56-C , 57-C ) :   1.4883 B( 56-C , 66-C ) :   1.2159 B( 57-C , 58-C ) :   1.1748
B( 57-C ,102-H ) :   1.0143 B( 58-C , 59-C ) :   1.2649 B( 58-C , 63-C ) :   1.2423
B( 59-C , 60-C ) :   1.2036 B( 59-C , 65-C ) :   1.1916 B( 60-C , 61-C ) :   1.4386
B( 60-C ,103-H ) :   1.0061 B( 61-C , 62-C ) :   1.2613 B( 61-C , 64-F ) :   1.0783
B( 62-C , 63-C ) :   1.4510 B( 62-C ,104-H ) :   0.9937 B( 63-C ,105-H ) :   0.9959
B( 65-C , 66-C ) :   1.4742 B( 65-C ,106-H ) :   0.9923 B( 66-C , 67-C ) :   0.9869
B( 67-C , 68-C ) :   1.5724 B( 68-C , 69-C ) :   1.1703 B( 68-C , 71-C ) :   1.1431
B( 69-C , 70-N ) :   3.0101 B( 71-C , 72-N ) :   2.9666

-----------------------------------------------------------------------------
         ABSORPTION SPECTRUM VIA TRANSITION ELECTRIC DIPOLE MOMENTS
-----------------------------------------------------------------------------
State   Energy  Wavelength   fosc         T2         TX        TY        TZ
        (cm-1)    (nm)                  (au**2)     (au)      (au)      (au)
-----------------------------------------------------------------------------
   0   12201.7    819.6   1.722737949  46.48081   2.95594   6.06862   0.95658
   1   16239.0    615.8   0.000115480   0.00234   0.01901   0.03074   0.03217
   2   20247.1    493.9   1.093387321  17.77819  -0.77011   4.05213   0.87484
   3   22030.3    453.9   0.074430681   1.11226  -0.13079   0.66797  -0.80559
   4   23921.5    418.0   0.308169175   4.24108   0.29515  -1.45521   1.42700
   5   25282.2    395.5   0.001284698   0.01673   0.02594  -0.05235   0.11539
   6   25574.5    391.0   0.055203097   0.71061  -0.09556   0.40741  -0.73178
   7   26744.2    373.9   0.001052956   0.01296   0.03136   0.02613  -0.10628
   8   27251.6    367.0   0.006507793   0.07862  -0.04850  -0.24265   0.13185
   9   27328.9    365.9   0.130338233   1.57009   0.27877   0.32070   1.17879
  10   27679.4    361.3   0.000451951   0.00538   0.06104  -0.02839   0.02904
  11   27820.7    359.4   0.040804497   0.48285  -0.21302  -0.35929  -0.55533
  12   28003.4    357.1   0.203215537   2.38903  -1.14399   1.02474   0.17386
  13   28178.7    354.9   0.045317082   0.52944   0.55470  -0.40594   0.23867
  14   29009.7    344.7   0.001359908   0.01543   0.00946   0.12349  -0.00973
  15   29084.9    343.8   0.043261340   0.48967   0.09188  -0.69271  -0.03721
  16   29514.7    338.8   0.000283381   0.00316  -0.04443  -0.01804  -0.02935
  17   29867.0    334.8   0.151267310   1.66736   1.16985  -0.34144   0.42689
  18   30913.5    323.5   0.029077548   0.30966  -0.04437  -0.06258  -0.55116
  19   32089.6    311.6   0.116842484   1.19870   0.15990   0.35859   1.02203
  20   32346.5    309.2   0.099736762   1.01509  -0.20947   0.98544   0.01130
  21   32917.2    303.8   0.000388937   0.00389  -0.04970   0.02276  -0.03003
  22   33087.5    302.2   0.019514806   0.19417   0.36506  -0.24462  -0.03251
  23   33177.0    301.4   0.022478608   0.22305   0.09838   0.38858   0.24975
  24   33324.8    300.1   0.399169260   3.94335  -1.43994   1.36731   0.01919
  25   33463.0    298.8   0.004624455   0.04550   0.01898   0.17728   0.11708
  26   33517.8    298.3   0.073208153   0.71905   0.71360  -0.45806  -0.00225
  27   34136.3    292.9   0.425704067   4.10551   0.44763   1.73857   0.93942
  28   34192.9    292.5   0.032268941   0.31069   0.00056   0.51300   0.21799
  29   34450.0    290.3   0.704603345   6.73335  -2.20348  -0.54907  -1.25561
  30   35115.3    284.8   0.030578036   0.28667  -0.08191  -0.31282  -0.42674
  31   35479.4    281.9   0.000664400   0.00616   0.04963   0.04912   0.03590
  32   36319.0    275.3   0.044371320   0.40220  -0.57505  -0.11638  -0.24079
  33   36436.3    274.5   0.035100046   0.31714   0.48735  -0.08567   0.26887
  34   36912.0    270.9   0.095410670   0.85095   0.36340  -0.83214  -0.16260
  35   37430.1    267.2   0.166019554   1.46021   0.10152   1.16887  -0.28922
  36   37699.6    265.3   0.001019926   0.00891  -0.02849   0.08752  -0.02087
  37   37900.8    263.8   0.060373672   0.52441  -0.49885   0.44652  -0.27601
  38   37986.8    263.2   0.173724312   1.50558  -0.39869  -0.89790  -0.73511
  39   38389.1    260.5   0.348568900   2.98921   0.59284  -1.45538   0.72085
  40   38940.4    256.8   0.070874655   0.59919  -0.02852  -0.76302  -0.12723
  41   38972.2    256.6   0.075055591   0.63402   0.00242  -0.78859  -0.11017
  42   39702.1    251.9   0.002149891   0.01783   0.08283  -0.10179   0.02460
  43   39788.0    251.3   0.000295040   0.00244  -0.02081   0.03437  -0.02875
  44   39971.9    250.2   0.011807870   0.09725   0.04476   0.28729  -0.11274
  45   40283.8    248.2   0.013656405   0.11160  -0.33373   0.00994  -0.01141

FINAL SINGLE POINT ENERGY     -4257.904456424056

DIPOLE MOMENT
-------------
                                X             Y             Z
Electronic contribution:    -44.43200      25.02561      -6.39098
Nuclear contribution   :     48.54253     -21.01517       7.08651
                        -----------------------------------------
Total Dipole Moment    :      4.11054       4.01044       0.69553
                        -----------------------------------------
Magnitude (a.u.)       :      5.78480
Magnitude (Debye)      :     14.70379

Rotational constants in cm-1:     0.001784     0.000128     0.000123
Rotational constants in MHz :    53.495010     3.829612     3.677363

                             ****ORCA TERMINATED NORMALLY****
TOTAL RUN TIME: 0 days 0 hours 10 minutes 5 seconds 121 msec
