                         Program Version 4.2.0 -  RELEASE  -
|  1> # ORCA input file
|  2> # SCF done       -208.640998587766          0.000891878903
|  3> ! CAM-B3LYP def2-SVP def2/J RIJCOSX Grid4 TightSCF
|  4> %maxcore 5000
|  5> %tddft
|  6>     Mode sTDDFT
|  7>     Ethresh 5.0
|  8>     maxcore 5000
|  9> end
| 10>
| 11> %pal
| 12>   nprocs 6
| 13>   end
| 14> * xyz 0 1
| 15>    C        0.11086         1.37179        -2.79387
| 16>    C        1.41686         1.39911        -3.19685
| 17>    F        1.94742         2.52869        -3.68638
| 18>    C        2.22010         0.24606        -3.10314
| 19>    F        3.49858         0.30046        -3.50483
| 20>    C        1.70603        -0.91966        -2.60780
| 21>    C        0.36458        -0.97939        -2.18456
| 22>    C       -0.44871         0.18657        -2.27692
| 23>    C       -1.79764         0.15111        -1.85166
| 24>    C       -2.31243        -1.01321        -1.34812
| 25>    C       -1.49524        -2.17465        -1.26571
| 26>    C       -0.19264        -2.17234        -1.67055
| 27>    C       -2.28258        -3.29035        -0.70201
| 28>    O       -1.89807        -4.43303        -0.54732
| 29>    C       -3.63229        -2.74409        -0.46857
| 30>    C       -3.63367        -1.34581        -0.82268
| 31>    C       -4.65690        -0.45578        -0.60406
| 32>    C       -5.86744        -0.78127         0.04031
| 33>    N       -6.86145        -0.97226         0.58390
| 34>    C       -4.60156         0.90805        -0.95126
| 35>    N       -4.61206         2.02510        -1.21825
| 36>    C       -4.74484        -3.50013        -0.18025
| 37>    C       -4.77097        -4.81067         0.32363
| 38>    S       -6.10584        -5.83574        -0.12413
| 39>    C       -5.42434        -7.18970         0.71906
| 40>    C       -4.23274        -6.81439         1.38455
| 41>    C       -3.87946        -5.47236         1.18140
| 42>    C       -2.83553        -4.71970         1.88356
| 43>    C       -3.10015        -3.61477         2.56487
| 44>    O       -3.63716        -7.74911         2.15372
| 45>    C       -2.34573        -7.53852         2.67987
| 46>    C       -6.07380        -8.43129         0.66371
| 47>    C       -5.60522        -9.60699         1.19763
| 48>    C       -6.28307       -10.82115         1.12031
| 49>    C       -5.77470       -12.00430         1.62116
| 50>    C       -6.38429       -13.27564         1.61875
| 51>    C       -5.62506       -14.26283         2.18259
| 52>    C       -4.37369       -13.81762         2.65027
| 53>    S       -4.19074       -12.10563         2.36676
| 54>    C       -3.36882       -14.56496         3.25055
| 55>    C       -3.37823       -15.93615         3.56977
| 56>    C       -2.22689       -16.38304         4.15469
| 57>    C       -1.24183       -15.38600         4.32118
| 58>    S       -1.84766       -13.85062         3.71927
| 59>    C        0.02920       -15.42785         4.85738
| 60>    C        0.73092       -16.52533         5.35859
| 61>    S        0.16219       -18.16984         5.24644
| 62>    C        1.61520       -18.80737         5.95661
| 63>    C        2.50590       -17.75754         6.24191
| 64>    C        2.01910       -16.48353         5.92749
| 65>    C        2.80463       -15.27105         6.12468
| 66>    C        2.35057       -14.13095         6.62900
| 67>    O        3.73357       -18.03156         6.76651
| 68>    C        4.01897       -17.47177         8.03572
| 69>    C        1.89801       -20.15954         6.20237
| 70>    C        1.09923       -21.26055         6.03071
| 71>    C       -0.26357       -21.24797         5.70345
| 72>    C       -1.06277       -22.32574         5.41455
| 73>    C       -2.53153       -22.20151         5.54081
| 74>    O       -3.17066       -21.17695         5.65584
| 75>    C       -3.04156       -23.58997         5.54385
| 76>    C       -4.31399       -24.03858         5.74513
| 77>    C       -4.56039       -25.43056         5.74583
| 78>    C       -3.47676       -26.33167         5.53807
| 79>    C       -3.72738       -27.71813         5.54856
| 80>    C       -4.99447       -28.18798         5.75312
| 81>    C       -6.06529       -27.29608         5.95682
| 82>    C       -5.85438       -25.94566         5.95334
| 83>    F       -7.29881       -27.78420         6.15611
| 84>    F       -5.23041       -29.50783         5.76241
| 85>    C       -2.16949       -25.83633         5.32164
| 86>    C       -1.95613       -24.48480         5.32041
| 87>    C       -0.74430       -23.69448         5.10174
| 88>    C        0.40588       -24.15548         4.50826
| 89>    C        1.42852       -23.31544         4.02225
| 90>    N        2.25854       -22.67349         3.55595
| 91>    C        0.64156       -25.51091         4.20736
| 92>    N        0.88870       -26.60534         3.96169
| 93>    H       -0.49009         2.26437        -2.87124
| 94>    H        2.33398        -1.79449        -2.54328
| 95>    H       -2.39005         1.04758        -1.93911
| 96>    H        0.40701        -3.06698        -1.59786
| 97>    H       -5.71450        -3.08819        -0.43546
| 98>    H       -1.82189        -5.08291         1.80633
| 99>    H       -4.10073        -3.22330         2.65178
|100>    H       -2.32385        -3.06483         3.06843
|101>    H       -2.09698        -8.46508         3.19703
|102>    H       -2.33244        -6.70889         3.39146
|103>    H       -1.61841        -7.36227         1.88398
|104>    H       -7.01608        -8.44498         0.13000
|105>    H       -4.65298        -9.60449         1.70594
|106>    H       -7.25666       -10.85586         0.64910
|107>    H       -7.36510       -13.42762         1.20396
|108>    H       -5.93308       -15.28934         2.26538
|109>    H       -4.22769       -16.56339         3.36877
|110>    H       -2.07923       -17.39992         4.46701
|111>    H        0.56662       -14.48881         4.88053
|112>    H        3.84767       -15.36542         5.84445
|113>    H        1.33491       -14.01804         6.96993
|114>    H        2.99366       -13.27562         6.74595
|115>    H        3.40059       -17.94096         8.80883
|116>    H        3.85631       -16.39137         8.05459
|117>    H        5.06760       -17.68999         8.22734
|118>    H        2.91074       -20.32522         6.54907
|119>    H        1.55922       -22.22134         6.21643
|120>    H       -0.80213       -20.31109         5.79285
|121>    H       -5.12314       -23.34221         5.90496
|122>    H       -2.91885       -28.41484         5.39128
|123>    H       -6.68496       -25.27563         6.11149
|124>    H       -1.36741       -26.54126         5.17157
|125> *
|126>
|127>                          ****END OF INPUT****

CARTESIAN COORDINATES (ANGSTROEM)
---------------------------------
  C      0.110860    1.371790   -2.793870
  C      1.416860    1.399110   -3.196850
  F      1.947420    2.528690   -3.686380
  C      2.220100    0.246060   -3.103140
  F      3.498580    0.300460   -3.504830
  C      1.706030   -0.919660   -2.607800
  C      0.364580   -0.979390   -2.184560
  C     -0.448710    0.186570   -2.276920
  C     -1.797640    0.151110   -1.851660
  C     -2.312430   -1.013210   -1.348120
  C     -1.495240   -2.174650   -1.265710
  C     -0.192640   -2.172340   -1.670550
  C     -2.282580   -3.290350   -0.702010
  O     -1.898070   -4.433030   -0.547320
  C     -3.632290   -2.744090   -0.468570
  C     -3.633670   -1.345810   -0.822680
  C     -4.656900   -0.455780   -0.604060
  C     -5.867440   -0.781270    0.040310
  N     -6.861450   -0.972260    0.583900
  C     -4.601560    0.908050   -0.951260
  N     -4.612060    2.025100   -1.218250
  C     -4.744840   -3.500130   -0.180250
  C     -4.770970   -4.810670    0.323630
  S     -6.105840   -5.835740   -0.124130
  C     -5.424340   -7.189700    0.719060
  C     -4.232740   -6.814390    1.384550
  C     -3.879460   -5.472360    1.181400
  C     -2.835530   -4.719700    1.883560
  C     -3.100150   -3.614770    2.564870
  O     -3.637160   -7.749110    2.153720
  C     -2.345730   -7.538520    2.679870
  C     -6.073800   -8.431290    0.663710
  C     -5.605220   -9.606990    1.197630
  C     -6.283070  -10.821150    1.120310
  C     -5.774700  -12.004300    1.621160
  C     -6.384290  -13.275640    1.618750
  C     -5.625060  -14.262830    2.182590
  C     -4.373690  -13.817620    2.650270
  S     -4.190740  -12.105630    2.366760
  C     -3.368820  -14.564960    3.250550
  C     -3.378230  -15.936150    3.569770
  C     -2.226890  -16.383040    4.154690
  C     -1.241830  -15.386000    4.321180
  S     -1.847660  -13.850620    3.719270
  C      0.029200  -15.427850    4.857380
  C      0.730920  -16.525330    5.358590
  S      0.162190  -18.169840    5.246440
  C      1.615200  -18.807370    5.956610
  C      2.505900  -17.757540    6.241910
  C      2.019100  -16.483530    5.927490
  C      2.804630  -15.271050    6.124680
  C      2.350570  -14.130950    6.629000
  O      3.733570  -18.031560    6.766510
  C      4.018970  -17.471770    8.035720
  C      1.898010  -20.159540    6.202370
  C      1.099230  -21.260550    6.030710
  C     -0.263570  -21.247970    5.703450
  C     -1.062770  -22.325740    5.414550
  C     -2.531530  -22.201510    5.540810
  O     -3.170660  -21.176950    5.655840
  C     -3.041560  -23.589970    5.543850
  C     -4.313990  -24.038580    5.745130
  C     -4.560390  -25.430560    5.745830
  C     -3.476760  -26.331670    5.538070
  C     -3.727380  -27.718130    5.548560
  C     -4.994470  -28.187980    5.753120
  C     -6.065290  -27.296080    5.956820
  C     -5.854380  -25.945660    5.953340
  F     -7.298810  -27.784200    6.156110
  F     -5.230410  -29.507830    5.762410
  C     -2.169490  -25.836330    5.321640
  C     -1.956130  -24.484800    5.320410
  C     -0.744300  -23.694480    5.101740
  C      0.405880  -24.155480    4.508260
  C      1.428520  -23.315440    4.022250
  N      2.258540  -22.673490    3.555950
  C      0.641560  -25.510910    4.207360
  N      0.888700  -26.605340    3.961690
  H     -0.490090    2.264370   -2.871240
  H      2.333980   -1.794490   -2.543280
  H     -2.390050    1.047580   -1.939110
  H      0.407010   -3.066980   -1.597860
  H     -5.714500   -3.088190   -0.435460
  H     -1.821890   -5.082910    1.806330
  H     -4.100730   -3.223300    2.651780
  H     -2.323850   -3.064830    3.068430
  H     -2.096980   -8.465080    3.197030
  H     -2.332440   -6.708890    3.391460
  H     -1.618410   -7.362270    1.883980
  H     -7.016080   -8.444980    0.130000
  H     -4.652980   -9.604490    1.705940
  H     -7.256660  -10.855860    0.649100
  H     -7.365100  -13.427620    1.203960
  H     -5.933080  -15.289340    2.265380
  H     -4.227690  -16.563390    3.368770
  H     -2.079230  -17.399920    4.467010
  H      0.566620  -14.488810    4.880530
  H      3.847670  -15.365420    5.844450
  H      1.334910  -14.018040    6.969930
  H      2.993660  -13.275620    6.745950
  H      3.400590  -17.940960    8.808830
  H      3.856310  -16.391370    8.054590
  H      5.067600  -17.689990    8.227340
  H      2.910740  -20.325220    6.549070
  H      1.559220  -22.221340    6.216430
  H     -0.802130  -20.311090    5.792850
  H     -5.123140  -23.342210    5.904960
  H     -2.918850  -28.414840    5.391280
  H     -6.684960  -25.275630    6.111490
  H     -1.367410  -26.541260    5.171570

 Total Charge           Charge          ....    0
 Multiplicity           Mult            ....    1
 Number of Electrons    NEL             ....  564
 Basis Dimension        Dim             .... 1268

ORBITAL ENERGIES
----------------

  NO   OCC          E(Eh)            E(eV)
   0   2.0000     -88.970903     -2421.0214
   1   2.0000     -88.968228     -2420.9486
   2   2.0000     -88.960635     -2420.7419
   3   2.0000     -88.958507     -2420.6840
   4   2.0000     -24.796583      -674.7493
   5   2.0000     -24.795196      -674.7116
   6   2.0000     -24.792867      -674.6482
   7   2.0000     -24.791963      -674.6236
   8   2.0000     -19.267291      -524.2896
   9   2.0000     -19.255576      -523.9709
  10   2.0000     -19.213453      -522.8246
  11   2.0000     -19.206259      -522.6289
  12   2.0000     -14.411206      -392.1489
  13   2.0000     -14.411043      -392.1444
  14   2.0000     -14.407288      -392.0422
  15   2.0000     -14.402609      -391.9149
  16   2.0000     -10.379241      -282.4335
  17   2.0000     -10.378348      -282.4092
  18   2.0000     -10.375158      -282.3224
  19   2.0000     -10.374591      -282.3070
  20   2.0000     -10.363590      -282.0076
  21   2.0000     -10.357010      -281.8286
  22   2.0000     -10.354726      -281.7664
  23   2.0000     -10.349852      -281.6338
  24   2.0000     -10.336585      -281.2728
  25   2.0000     -10.335978      -281.2563
  26   2.0000     -10.335935      -281.2551
  27   2.0000     -10.332661      -281.1660
  28   2.0000     -10.330901      -281.1181
  29   2.0000     -10.329994      -281.0934
  30   2.0000     -10.328314      -281.0477
  31   2.0000     -10.326722      -281.0044
  32   2.0000     -10.325148      -280.9616
  33   2.0000     -10.324108      -280.9333
  34   2.0000     -10.322039      -280.8770
  35   2.0000     -10.321780      -280.8699
  36   2.0000     -10.321562      -280.8640
  37   2.0000     -10.318325      -280.7759
  38   2.0000     -10.314565      -280.6736
  39   2.0000     -10.314365      -280.6681
  40   2.0000     -10.310366      -280.5593
  41   2.0000     -10.308031      -280.4958
  42   2.0000     -10.307834      -280.4904
  43   2.0000     -10.307454      -280.4801
  44   2.0000     -10.307043      -280.4689
  45   2.0000     -10.305341      -280.4226
  46   2.0000     -10.303757      -280.3795
  47   2.0000     -10.303588      -280.3749
  48   2.0000     -10.303534      -280.3734
  49   2.0000     -10.303271      -280.3663
  50   2.0000     -10.303014      -280.3593
  51   2.0000     -10.302651      -280.3494
  52   2.0000     -10.301816      -280.3267
  53   2.0000     -10.299627      -280.2671
  54   2.0000     -10.299517      -280.2641
  55   2.0000     -10.299406      -280.2611
  56   2.0000     -10.299253      -280.2569
  57   2.0000     -10.299031      -280.2509
  58   2.0000     -10.298254      -280.2297
  59   2.0000     -10.297331      -280.2046
  60   2.0000     -10.295414      -280.1524
  61   2.0000     -10.295304      -280.1495
  62   2.0000     -10.295205      -280.1468
  63   2.0000     -10.294593      -280.1301
  64   2.0000     -10.294402      -280.1249
  65   2.0000     -10.294262      -280.1211
  66   2.0000     -10.294154      -280.1182
  67   2.0000     -10.293893      -280.1111
  68   2.0000     -10.293547      -280.1017
  69   2.0000     -10.293210      -280.0925
  70   2.0000     -10.290111      -280.0082
  71   2.0000     -10.288403      -279.9617
  72   2.0000     -10.285748      -279.8894
  73   2.0000     -10.285744      -279.8893
  74   2.0000     -10.283433      -279.8264
  75   2.0000     -10.282177      -279.7923
  76   2.0000     -10.279473      -279.7187
  77   2.0000     -10.272457      -279.5278
  78   2.0000      -8.066737      -219.5071
  79   2.0000      -8.063071      -219.4073
  80   2.0000      -8.056947      -219.2407
  81   2.0000      -8.054979      -219.1871
  82   2.0000      -6.035945      -164.2464
  83   2.0000      -6.032382      -164.1495
  84   2.0000      -6.032131      -164.1426
  85   2.0000      -6.028600      -164.0466
  86   2.0000      -6.028433      -164.0420
  87   2.0000      -6.026585      -163.9917
  88   2.0000      -6.024956      -163.9474
  89   2.0000      -6.024705      -163.9405
  90   2.0000      -6.022627      -163.8840
  91   2.0000      -6.020641      -163.8300
  92   2.0000      -6.017963      -163.7571
  93   2.0000      -6.015934      -163.7019
  94   2.0000      -1.318400       -35.8755
  95   2.0000      -1.314813       -35.7779
  96   2.0000      -1.303585       -35.4723
  97   2.0000      -1.300020       -35.3754
  98   2.0000      -1.171727       -31.8843
  99   2.0000      -1.158937       -31.5363
 100   2.0000      -1.127692       -30.6861
 101   2.0000      -1.120092       -30.4793
 102   2.0000      -1.015826       -27.6420
 103   2.0000      -1.011118       -27.5139
 104   2.0000      -1.009944       -27.4820
 105   2.0000      -1.002059       -27.2674
 106   2.0000      -1.000798       -27.2331
 107   2.0000      -0.998891       -27.1812
 108   2.0000      -0.995632       -27.0925
 109   2.0000      -0.989849       -26.9352
 110   2.0000      -0.986156       -26.8347
 111   2.0000      -0.983597       -26.7650
 112   2.0000      -0.977761       -26.6062
 113   2.0000      -0.972777       -26.4706
 114   2.0000      -0.933302       -25.3964
 115   2.0000      -0.930160       -25.3109
 116   2.0000      -0.925014       -25.1709
 117   2.0000      -0.918753       -25.0005
 118   2.0000      -0.907427       -24.6924
 119   2.0000      -0.897888       -24.4328
 120   2.0000      -0.896014       -24.3818
 121   2.0000      -0.892580       -24.2883
 122   2.0000      -0.889481       -24.2040
 123   2.0000      -0.887148       -24.1405
 124   2.0000      -0.881492       -23.9866
 125   2.0000      -0.880176       -23.9508
 126   2.0000      -0.867187       -23.5973
 127   2.0000      -0.858172       -23.3521
 128   2.0000      -0.853108       -23.2143
 129   2.0000      -0.847848       -23.0711
 130   2.0000      -0.842049       -22.9133
 131   2.0000      -0.837646       -22.7935
 132   2.0000      -0.833259       -22.6741
 133   2.0000      -0.832563       -22.6552
 134   2.0000      -0.825235       -22.4558
 135   2.0000      -0.813749       -22.1432
 136   2.0000      -0.805844       -21.9281
 137   2.0000      -0.797354       -21.6971
 138   2.0000      -0.790363       -21.5069
 139   2.0000      -0.776596       -21.1323
 140   2.0000      -0.763081       -20.7645
 141   2.0000      -0.761037       -20.7089
 142   2.0000      -0.756722       -20.5914
 143   2.0000      -0.750059       -20.4101
 144   2.0000      -0.733200       -19.9514
 145   2.0000      -0.728791       -19.8314
 146   2.0000      -0.717787       -19.5320
 147   2.0000      -0.711584       -19.3632
 148   2.0000      -0.709960       -19.3190
 149   2.0000      -0.705165       -19.1885
 150   2.0000      -0.704530       -19.1712
 151   2.0000      -0.697391       -18.9770
 152   2.0000      -0.691944       -18.8288
 153   2.0000      -0.684137       -18.6163
 154   2.0000      -0.680695       -18.5227
 155   2.0000      -0.674410       -18.3516
 156   2.0000      -0.673563       -18.3286
 157   2.0000      -0.659880       -17.9563
 158   2.0000      -0.655775       -17.8446
 159   2.0000      -0.652328       -17.7507
 160   2.0000      -0.651157       -17.7189
 161   2.0000      -0.648584       -17.6489
 162   2.0000      -0.644954       -17.5501
 163   2.0000      -0.639754       -17.4086
 164   2.0000      -0.638970       -17.3873
 165   2.0000      -0.633757       -17.2454
 166   2.0000      -0.633253       -17.2317
 167   2.0000      -0.626939       -17.0599
 168   2.0000      -0.623068       -16.9546
 169   2.0000      -0.619129       -16.8474
 170   2.0000      -0.609660       -16.5897
 171   2.0000      -0.608070       -16.5464
 172   2.0000      -0.605085       -16.4652
 173   2.0000      -0.597529       -16.2596
 174   2.0000      -0.591380       -16.0923
 175   2.0000      -0.587078       -15.9752
 176   2.0000      -0.585111       -15.9217
 177   2.0000      -0.583184       -15.8692
 178   2.0000      -0.579689       -15.7741
 179   2.0000      -0.579000       -15.7554
 180   2.0000      -0.577981       -15.7277
 181   2.0000      -0.575212       -15.6523
 182   2.0000      -0.573838       -15.6149
 183   2.0000      -0.572410       -15.5761
 184   2.0000      -0.569669       -15.5015
 185   2.0000      -0.562506       -15.3066
 186   2.0000      -0.561018       -15.2661
 187   2.0000      -0.551999       -15.0207
 188   2.0000      -0.551779       -15.0147
 189   2.0000      -0.551249       -15.0002
 190   2.0000      -0.547253       -14.8915
 191   2.0000      -0.544853       -14.8262
 192   2.0000      -0.541488       -14.7346
 193   2.0000      -0.540538       -14.7088
 194   2.0000      -0.538255       -14.6467
 195   2.0000      -0.536151       -14.5894
 196   2.0000      -0.535133       -14.5617
 197   2.0000      -0.533588       -14.5197
 198   2.0000      -0.532419       -14.4879
 199   2.0000      -0.529015       -14.3952
 200   2.0000      -0.527187       -14.3455
 201   2.0000      -0.526336       -14.3223
 202   2.0000      -0.525118       -14.2892
 203   2.0000      -0.523171       -14.2362
 204   2.0000      -0.517724       -14.0880
 205   2.0000      -0.515456       -14.0263
 206   2.0000      -0.512444       -13.9443
 207   2.0000      -0.511461       -13.9176
 208   2.0000      -0.510492       -13.8912
 209   2.0000      -0.508890       -13.8476
 210   2.0000      -0.508293       -13.8313
 211   2.0000      -0.503399       -13.6982
 212   2.0000      -0.499131       -13.5820
 213   2.0000      -0.497219       -13.5300
 214   2.0000      -0.495696       -13.4886
 215   2.0000      -0.493675       -13.4336
 216   2.0000      -0.492624       -13.4050
 217   2.0000      -0.491782       -13.3821
 218   2.0000      -0.491713       -13.3802
 219   2.0000      -0.488533       -13.2937
 220   2.0000      -0.485214       -13.2033
 221   2.0000      -0.483562       -13.1584
 222   2.0000      -0.478918       -13.0320
 223   2.0000      -0.478105       -13.0099
 224   2.0000      -0.474791       -12.9197
 225   2.0000      -0.472879       -12.8677
 226   2.0000      -0.470592       -12.8054
 227   2.0000      -0.466575       -12.6962
 228   2.0000      -0.464580       -12.6419
 229   2.0000      -0.461145       -12.5484
 230   2.0000      -0.458387       -12.4733
 231   2.0000      -0.457318       -12.4443
 232   2.0000      -0.448273       -12.1981
 233   2.0000      -0.446657       -12.1542
 234   2.0000      -0.446302       -12.1445
 235   2.0000      -0.443880       -12.0786
 236   2.0000      -0.443390       -12.0653
 237   2.0000      -0.443233       -12.0610
 238   2.0000      -0.440841       -11.9959
 239   2.0000      -0.440206       -11.9786
 240   2.0000      -0.437916       -11.9163
 241   2.0000      -0.435617       -11.8537
 242   2.0000      -0.434650       -11.8274
 243   2.0000      -0.432510       -11.7692
 244   2.0000      -0.429626       -11.6907
 245   2.0000      -0.429032       -11.6746
 246   2.0000      -0.427082       -11.6215
 247   2.0000      -0.425531       -11.5793
 248   2.0000      -0.423001       -11.5104
 249   2.0000      -0.420016       -11.4292
 250   2.0000      -0.419272       -11.4090
 251   2.0000      -0.418028       -11.3751
 252   2.0000      -0.416337       -11.3291
 253   2.0000      -0.414842       -11.2884
 254   2.0000      -0.409935       -11.1549
 255   2.0000      -0.409059       -11.1311
 256   2.0000      -0.406926       -11.0730
 257   2.0000      -0.402478       -10.9520
 258   2.0000      -0.397427       -10.8145
 259   2.0000      -0.393902       -10.7186
 260   2.0000      -0.389976       -10.6118
 261   2.0000      -0.383293       -10.4299
 262   2.0000      -0.379221       -10.3191
 263   2.0000      -0.374067       -10.1789
 264   2.0000      -0.361966        -9.8496
 265   2.0000      -0.360033        -9.7970
 266   2.0000      -0.355199        -9.6655
 267   2.0000      -0.350606        -9.5405
 268   2.0000      -0.338648        -9.2151
 269   2.0000      -0.336841        -9.1659
 270   2.0000      -0.335359        -9.1256
 271   2.0000      -0.328688        -8.9440
 272   2.0000      -0.317917        -8.6509
 273   2.0000      -0.314711        -8.5637
 274   2.0000      -0.311372        -8.4729
 275   2.0000      -0.309176        -8.4131
 276   2.0000      -0.303609        -8.2616
 277   2.0000      -0.297273        -8.0892
 278   2.0000      -0.293738        -7.9930
 279   2.0000      -0.281067        -7.6482
 280   2.0000      -0.257257        -7.0003
 281   2.0000      -0.212717        -5.7883
 282   0.0000      -0.118590        -3.2270
 283   0.0000      -0.092504        -2.5172
 284   0.0000      -0.074227        -2.0198
 285   0.0000      -0.058679        -1.5967
 286   0.0000      -0.050781        -1.3818

MULLIKEN ATOMIC CHARGES
-----------------------
   0 C :   -0.112168
   1 C :    0.241975
   2 F :   -0.173275
   3 C :    0.240874
   4 F :   -0.174066
   5 C :   -0.110518
   6 C :    0.120596
   7 C :    0.117361
   8 C :   -0.094018
   9 C :    0.056893
  10 C :   -0.001444
  11 C :   -0.093380
  12 C :    0.156251
  13 O :   -0.164202
  14 C :   -0.101084
  15 C :    0.305021
  16 C :   -0.349753
  17 C :   -0.212568
  18 N :    0.159500
  19 C :   -0.180373
  20 N :    0.141200
  21 C :    0.006588
  22 C :   -0.149206
  23 S :    0.163503
  24 C :   -0.116844
  25 C :    0.174884
  26 C :    0.074218
  27 C :   -0.053867
  28 C :    0.000216
  29 O :   -0.312661
  30 C :    0.173067
  31 C :    0.027810
  32 C :    0.005689
  33 C :    0.007935
  34 C :   -0.026395
  35 C :    0.044029
  36 C :    0.024039
  37 C :   -0.034016
  38 S :    0.080550
  39 C :   -0.045483
  40 C :    0.019856
  41 C :    0.018126
  42 C :   -0.067665
  43 S :    0.095132
  44 C :    0.012817
  45 C :   -0.065435
  46 S :    0.086682
  47 C :   -0.113003
  48 C :    0.172413
  49 C :    0.052443
  50 C :   -0.068609
  51 C :   -0.013369
  52 O :   -0.324633
  53 C :    0.189425
  54 C :    0.050945
  55 C :   -0.002718
  56 C :    0.024782
  57 C :   -0.121382
  58 C :    0.139663
  59 O :   -0.161425
  60 C :    0.007306
  61 C :   -0.085277
  62 C :    0.112409
  63 C :    0.111782
  64 C :   -0.107167
  65 C :    0.239120
  66 C :    0.236227
  67 C :   -0.105159
  68 F :   -0.175476
  69 F :   -0.174714
  70 C :   -0.085200
  71 C :    0.041075
  72 C :    0.277088
  73 C :   -0.334724
  74 C :   -0.222909
  75 N :    0.169475
  76 C :   -0.173946
  77 N :    0.137511
  78 H :    0.006966
  79 H :   -0.003314
  80 H :   -0.007139
  81 H :   -0.016620
  82 H :    0.029326
  83 H :    0.021121
  84 H :    0.034764
  85 H :    0.025711
  86 H :    0.037761
  87 H :    0.043640
  88 H :    0.040289
  89 H :   -0.017533
  90 H :    0.022921
  91 H :   -0.012523
  92 H :   -0.006946
  93 H :   -0.006031
  94 H :   -0.003125
  95 H :    0.016474
  96 H :   -0.011257
  97 H :    0.026985
  98 H :    0.033603
  99 H :    0.031094
 100 H :    0.019559
 101 H :    0.027701
 102 H :    0.041260
 103 H :    0.013111
 104 H :    0.007984
 105 H :    0.015128
 106 H :   -0.014678
 107 H :    0.004738
 108 H :   -0.003206
 109 H :   -0.006111
Sum of atomic charges:   -0.0000000

LOEWDIN ATOMIC CHARGES
----------------------
   0 C :   -0.029689
   1 C :    0.065308
   2 F :   -0.050875
   3 C :    0.066454
   4 F :   -0.051783
   5 C :   -0.034917
   6 C :   -0.009785
   7 C :   -0.007757
   8 C :    0.014946
   9 C :   -0.021338
  10 C :   -0.048553
  11 C :    0.023892
  12 C :    0.083688
  13 O :   -0.147820
  14 C :   -0.102827
  15 C :    0.073347
  16 C :   -0.147912
  17 C :   -0.026284
  18 N :   -0.057994
  19 C :   -0.018461
  20 N :   -0.059865
  21 C :    0.047096
  22 C :   -0.174084
  23 S :    0.462316
  24 C :   -0.169300
  25 C :    0.028615
  26 C :   -0.041276
  27 C :   -0.023581
  28 C :   -0.034493
  29 O :   -0.086198
  30 C :    0.082773
  31 C :   -0.039969
  32 C :   -0.017022
  33 C :   -0.043486
  34 C :   -0.141455
  35 C :   -0.027324
  36 C :   -0.029572
  37 C :   -0.167600
  38 S :    0.387039
  39 C :   -0.183104
  40 C :   -0.012144
  41 C :   -0.049395
  42 C :   -0.134808
  43 S :    0.384504
  44 C :   -0.085011
  45 C :   -0.132692
  46 S :    0.462486
  47 C :   -0.207210
  48 C :    0.045967
  49 C :   -0.087389
  50 C :   -0.019914
  51 C :   -0.038007
  52 O :   -0.114711
  53 C :    0.084034
  54 C :    0.026216
  55 C :   -0.055862
  56 C :    0.052720
  57 C :   -0.102932
  58 C :    0.079636
  59 O :   -0.160649
  60 C :   -0.051697
  61 C :    0.024820
  62 C :   -0.011059
  63 C :   -0.006885
  64 C :   -0.030671
  65 C :    0.064928
  66 C :    0.064782
  67 C :   -0.034760
  68 F :   -0.053033
  69 F :   -0.051964
  70 C :    0.010437
  71 C :   -0.017707
  72 C :    0.067149
  73 C :   -0.145146
  74 C :   -0.025469
  75 N :   -0.052751
  76 C :   -0.018609
  77 N :   -0.060831
  78 H :    0.047409
  79 H :    0.043556
  80 H :    0.039559
  81 H :    0.037644
  82 H :    0.044776
  83 H :    0.030841
  84 H :    0.027436
  85 H :    0.026179
  86 H :    0.029914
  87 H :    0.022737
  88 H :    0.021967
  89 H :    0.030003
  90 H :    0.023236
  91 H :    0.034145
  92 H :    0.036394
  93 H :    0.034829
  94 H :    0.036957
  95 H :    0.025945
  96 H :    0.035685
  97 H :    0.036382
  98 H :    0.025955
  99 H :    0.027975
 100 H :    0.015917
 101 H :    0.015967
 102 H :    0.028853
 103 H :    0.046961
 104 H :    0.036113
 105 H :    0.021791
 106 H :    0.038195
 107 H :    0.046736
 108 H :    0.043402
 109 H :    0.039015

  Mayer bond orders larger than 0.100000
B(  0-C ,  1-C ) :   1.4369 B(  0-C ,  5-C ) :   0.1089 B(  0-C ,  7-C ) :   1.1911
B(  0-C , 78-H ) :   1.0074 B(  1-C ,  2-F ) :   1.1321 B(  1-C ,  3-C ) :   1.1945
B(  3-C ,  4-F ) :   1.1316 B(  3-C ,  5-C ) :   1.4394 B(  5-C ,  6-C ) :   1.1929
B(  5-C , 79-H ) :   1.0078 B(  6-C ,  7-C ) :   1.2613 B(  6-C , 11-C ) :   1.1820
B(  7-C ,  8-C ) :   1.2057 B(  8-C ,  9-C ) :   1.4556 B(  8-C , 80-H ) :   0.9921
B(  9-C , 10-C ) :   1.2198 B(  9-C , 15-C ) :   0.9821 B( 10-C , 11-C ) :   1.4745
B( 10-C , 12-C ) :   0.9362 B( 11-C , 81-H ) :   1.0172 B( 12-C , 13-O ) :   2.1822
B( 12-C , 14-C ) :   0.9791 B( 14-C , 15-C ) :   1.0938 B( 14-C , 21-C ) :   1.5196
B( 15-C , 16-C ) :   1.6193 B( 16-C , 17-C ) :   1.1491 B( 16-C , 19-C ) :   1.1456
B( 17-C , 18-N ) :   2.9955 B( 19-C , 20-N ) :   2.9622 B( 21-C , 22-C ) :   1.2337
B( 21-C , 82-H ) :   0.9337 B( 22-C , 23-S ) :   1.0877 B( 22-C , 26-C ) :   1.3869
B( 23-S , 24-C ) :   1.1408 B( 24-C , 25-C ) :   1.3363 B( 24-C , 31-C ) :   1.1895
B( 25-C , 26-C ) :   1.3203 B( 25-C , 29-O ) :   1.1724 B( 26-C , 27-C ) :   1.0184
B( 27-C , 28-C ) :   1.9937 B( 27-C , 83-H ) :   0.9250 B( 28-C , 84-H ) :   0.9556
B( 28-C , 85-H ) :   0.9543 B( 29-O , 30-C ) :   0.9316 B( 30-C , 86-H ) :   0.9739
B( 30-C , 87-H ) :   0.9651 B( 30-C , 88-H ) :   0.9719 B( 31-C , 32-C ) :   1.5756
B( 31-C , 89-H ) :   0.9590 B( 32-C , 33-C ) :   1.1965 B( 32-C , 90-H ) :   0.9593
B( 33-C , 34-C ) :   1.5021 B( 33-C , 91-H ) :   0.9852 B( 34-C , 35-C ) :   1.1729
B( 34-C , 38-S ) :   1.0425 B( 35-C , 36-C ) :   1.5515 B( 35-C , 92-H ) :   0.9994
B( 36-C , 37-C ) :   1.2205 B( 36-C , 93-H ) :   0.9949 B( 37-C , 38-S ) :   1.0633
B( 37-C , 39-C ) :   1.4450 B( 39-C , 40-C ) :   1.2208 B( 39-C , 43-S ) :   1.0571
B( 40-C , 41-C ) :   1.5752 B( 40-C , 94-H ) :   0.9945 B( 41-C , 42-C ) :   1.1761
B( 41-C , 95-H ) :   0.9805 B( 42-C , 43-S ) :   1.0598 B( 42-C , 44-C ) :   1.4951
B( 44-C , 45-C ) :   1.2870 B( 44-C , 96-H ) :   0.9361 B( 45-C , 46-S ) :   1.1107
B( 45-C , 49-C ) :   1.3699 B( 46-S , 47-C ) :   1.0638 B( 47-C , 48-C ) :   1.3859
B( 47-C , 54-C ) :   1.2434 B( 48-C , 49-C ) :   1.2938 B( 48-C , 52-O ) :   1.1842
B( 49-C , 50-C ) :   1.0288 B( 50-C , 51-C ) :   1.9390 B( 50-C , 97-H ) :   0.9601
B( 51-C , 98-H ) :   0.9614 B( 51-C , 99-H ) :   0.9528 B( 52-O , 53-C ) :   0.9313
B( 53-C ,100-H ) :   0.9676 B( 53-C ,101-H ) :   0.9633 B( 53-C ,102-H ) :   0.9823
B( 54-C , 55-C ) :   1.5587 B( 54-C ,103-H ) :   0.9575 B( 55-C , 56-C ) :   1.1819
B( 55-C ,104-H ) :   0.9580 B( 56-C , 57-C ) :   1.5815 B( 56-C ,105-H ) :   0.9203
B( 57-C , 58-C ) :   0.9628 B( 57-C , 72-C ) :   1.0676 B( 58-C , 59-O ) :   2.2349
B( 58-C , 60-C ) :   0.9204 B( 60-C , 61-C ) :   1.4829 B( 60-C , 71-C ) :   1.2188
B( 61-C , 62-C ) :   1.1902 B( 61-C ,106-H ) :   1.0146 B( 62-C , 63-C ) :   1.2590
B( 62-C , 67-C ) :   1.1945 B( 63-C , 64-C ) :   1.1938 B( 63-C , 70-C ) :   1.2072
B( 64-C , 65-C ) :   1.4390 B( 64-C , 67-C ) :   0.1090 B( 64-C ,107-H ) :   1.0064
B( 65-C , 66-C ) :   1.1952 B( 65-C , 69-F ) :   1.1310 B( 66-C , 67-C ) :   1.4426
B( 66-C , 68-F ) :   1.1299 B( 67-C ,108-H ) :   1.0062 B( 70-C , 71-C ) :   1.4671
B( 70-C ,109-H ) :   0.9922 B( 71-C , 72-C ) :   0.9917 B( 72-C , 73-C ) :   1.6225
B( 73-C , 74-C ) :   1.1632 B( 73-C , 76-C ) :   1.1327 B( 74-C , 75-N ) :   3.0181
B( 76-C , 77-N ) :   2.9743

-----------------------------------------------------------------------------
         ABSORPTION SPECTRUM VIA TRANSITION ELECTRIC DIPOLE MOMENTS
-----------------------------------------------------------------------------
State   Energy  Wavelength   fosc         T2         TX        TY        TZ
        (cm-1)    (nm)                  (au**2)     (au)      (au)      (au)
-----------------------------------------------------------------------------
   0    8278.2   1208.0   1.830535357  72.79768  -1.92982   7.87111  -2.66817
   1   14199.1    704.3   0.021039150   0.48780   0.45192   0.07585  -0.52708
   2   17409.4    574.4   0.065570162   1.23993  -0.50055  -0.79264   0.60091
   3   18725.2    534.0   0.317644163   5.58457  -2.01679  -1.03034  -0.67492
   4   22089.4    452.7   0.459183577   6.84351   1.77650   1.88313   0.37602
   5   22191.3    450.6   0.078173848   1.15972  -0.10791  -1.06077  -0.15115
   6   23099.3    432.9   0.085397815   1.21709  -1.02104  -0.39299   0.14191
   7   24318.1    411.2   0.331907731   4.49327  -1.71910  -0.88733  -0.86637
   8   24884.5    401.9   0.007321914   0.09687  -0.03567   0.29095  -0.10460
   9   25570.2    391.1   0.027978771   0.36022   0.44373   0.33912   0.21982
  10   26343.1    379.6   0.022479105   0.28092   0.49216   0.03690  -0.19323
  11   26712.2    374.4   0.080431060   0.99127   0.83316   0.32796  -0.43538
  12   27013.8    370.2   0.382467320   4.66106  -1.60771  -1.40853  -0.30393
  13   27434.9    364.5   0.061128147   0.73352   0.48484   0.47700  -0.52050
  14   27919.5    358.2   0.021077332   0.24853   0.19248   0.32071   0.32959
  15   28182.7    354.8   0.052714743   0.61578  -0.60353  -0.19128  -0.46362
  16   28892.7    346.1   0.030448340   0.34694  -0.19448   0.55465  -0.03839
  17   29072.5    344.0   0.012970778   0.14688  -0.09815  -0.19625  -0.31421
  18   29357.9    340.6   0.005407417   0.06064   0.02501   0.09505  -0.22578
  19   29913.1    334.3   0.052413837   0.57685   0.01007  -0.73969  -0.17205
  20   30532.6    327.5   0.282130010   3.04201   1.62131   0.30013  -0.56859
  21   30744.0    325.3   0.026507246   0.28384  -0.43195  -0.27505   0.14699
  22   31175.2    320.8   0.048540670   0.51259  -0.46950  -0.50476  -0.19334
  23   31553.4    316.9   0.108213719   1.12904   1.01911   0.28370  -0.09986
  24   31764.7    314.8   0.060978115   0.63198  -0.51946  -0.53846   0.26870
  25   32172.2    310.8   0.218023757   2.23099  -1.00345  -1.09514  -0.15727
  26   32751.7    305.3   0.046998900   0.47242  -0.58851  -0.35266   0.04136
  27   32872.3    304.2   0.044081532   0.44147  -0.33329  -0.03082   0.57397
  28   32968.4    303.3   0.141645762   1.41443   1.16688   0.07383  -0.21764
  29   33200.6    301.2   0.071311049   0.70711  -0.74985   0.27433   0.26377
  30   33331.5    300.0   0.045865700   0.45301  -0.61338  -0.03273  -0.27514
  31   33370.2    299.7   0.039631002   0.39098   0.28848  -0.36711  -0.41592
  32   33561.1    298.0   0.004881151   0.04788   0.20862   0.03916  -0.05314
  33   33813.1    295.7   0.402913326   3.92286  -1.82147  -0.60776   0.48553
  34   33930.7    294.7   0.020031903   0.19436  -0.13106  -0.42063  -0.01585
  35   34531.3    289.6   0.096250779   0.91763   0.83892   0.44911  -0.11024
  36   34986.4    285.8   0.002493596   0.02346   0.13567   0.01809  -0.06879
  37   35315.0    283.2   0.014194043   0.13232  -0.01212  -0.25334  -0.26075
  38   35544.4    281.3   0.008755549   0.08109  -0.22582  -0.12134   0.12400
  39   36269.4    275.7   0.183228723   1.66314  -1.25163  -0.04928   0.30682
  40   36620.8    273.1   0.147097342   1.32237   0.88383   0.69453  -0.24257
  41   37015.4    270.2   0.357419441   3.17886  -1.67295   0.16786   0.59324
  42   37178.9    269.0   0.311495644   2.75823  -1.55992  -0.33649   0.46005
  43   37323.5    267.9   0.011292931   0.09961   0.20703   0.11069   0.21095
  44   37539.3    266.4   0.101723066   0.89209  -0.33002   0.88441  -0.03151
  45   37663.4    265.5   0.062260739   0.54422   0.73715   0.02859   0.00301
  46   38236.5    261.5   0.020095410   0.17302   0.07110   0.36813  -0.18012
  47   38310.8    261.0   0.018385655   0.15799  -0.34012   0.13711   0.15333
  48   38410.7    260.3   0.016954072   0.14531  -0.31960   0.18567  -0.09323
  49   38825.2    257.6   0.023871154   0.20241   0.11725  -0.28229   0.33012
  50   38866.7    257.3   0.069014424   0.58457   0.51508   0.55954  -0.07858
  51   39208.7    255.0   0.017835373   0.14975   0.36704  -0.11161   0.05078
  52   39297.5    254.5   0.037192864   0.31158  -0.16404   0.52755  -0.07975
  53   39494.1    253.2   0.040489722   0.33751  -0.56161  -0.13664   0.05858
  54   39719.6    251.8   0.007382195   0.06119  -0.02506  -0.24246   0.04212
  55   39798.0    251.3   0.114683126   0.94867  -0.47320   0.85127  -0.00998
  56   40163.5    249.0   0.094101346   0.77133  -0.12625  -0.84590   0.19959

FINAL SINGLE POINT ENERGY     -4889.099486031210

DIPOLE MOMENT
-------------
                                X             Y             Z
Electronic contribution:    -15.10944      -5.91554     -30.03999
Nuclear contribution   :     15.37198       6.36795      31.86065
                        -----------------------------------------
Total Dipole Moment    :      0.26254       0.45241       1.82065
                        -----------------------------------------
Magnitude (a.u.)       :      1.89430
Magnitude (Debye)      :      4.81494

Rotational constants in cm-1:     0.001396     0.000150     0.000139
Rotational constants in MHz :    41.851590     4.489378     4.180623

                             ****ORCA TERMINATED NORMALLY****
TOTAL RUN TIME: 0 days 0 hours 12 minutes 15 seconds 521 msec
