                         Program Version 4.2.0 -  RELEASE  -
|  1> # ORCA input file
|  2> # SCF done       -191.504685448579          0.000523333114
|  3> ! CAM-B3LYP def2-SVP def2/J RIJCOSX Grid4 TightSCF
|  4> %maxcore 5000
|  5> %tddft
|  6>     Mode sTDDFT
|  7>     Ethresh 5.0
|  8>     maxcore 5000
|  9> end
| 10>
| 11> %pal
| 12>   nprocs 6
| 13>   end
| 14> * xyz 0 1
| 15>    C       -4.99310        -2.10266         0.78727
| 16>    C       -4.12634        -2.60364        -0.14917
| 17>    C       -3.51920        -3.87309        -0.06539
| 18>    N       -2.99921        -4.89671        -0.04992
| 19>    C       -3.68822        -1.89997        -1.29094
| 20>    N       -3.25899        -1.38101        -2.22105
| 21>    C       -5.36943        -2.74494         2.03910
| 22>    C       -6.15092        -1.83762         2.79761
| 23>    C       -6.65521        -2.15446         4.03573
| 24>    C       -6.37004        -3.42149         4.55380
| 25>    C       -5.59035        -4.32068         3.78811
| 26>    C       -5.08392        -4.00363         2.53322
| 27>    S       -5.37127        -5.82812         4.62060
| 28>    C       -6.30396        -5.25260         5.95914
| 29>    C       -6.76194        -3.99218         5.79779
| 30>    C       -6.33196        -0.58480         2.04075
| 31>    O       -7.03003         0.35317         2.36289
| 32>    C       -5.60324        -0.78840         0.76050
| 33>    C       -5.68752         0.04581        -0.31180
| 34>    C       -6.10945         1.40664        -0.24555
| 35>    C       -6.84634         1.98934        -1.29706
| 36>    C       -7.32294         3.34957        -1.23183
| 37>    N       -8.14723         3.80034        -2.19047
| 38>    C       -8.44465         3.02790        -3.20709
| 39>    C       -7.88871         1.71183        -3.31696
| 40>    N       -7.13896         1.22147        -2.36168
| 41>    C       -8.16794         0.92508        -4.46207
| 42>    N       -8.42584         0.32739        -5.40488
| 43>    C       -9.32192         3.53043        -4.19895
| 44>    N      -10.01472         3.93696        -5.01645
| 45>    C       -7.00785         4.20513        -0.14803
| 46>    C       -6.21242         3.63659         0.86611
| 47>    C       -5.76316         2.26333         0.81699
| 48>    N       -4.95244         1.96767         1.83212
| 49>    S       -4.80567         3.25663         2.77229
| 50>    N       -5.72627         4.26930         1.93980
| 51>    C       -7.48404         5.57062        -0.08077
| 52>    C       -7.66218         6.33114        -1.24885
| 53>    C       -8.16060         7.60386        -1.15544
| 54>    C       -8.47948         8.16409         0.09604
| 55>    C       -8.28613         7.42745         1.25949
| 56>    C       -7.79077         6.14598         1.16326
| 57>    C       -8.97777         9.49931        -0.11327
| 58>    C       -8.98696         9.76576        -1.49714
| 59>    C       -8.45385         8.58113        -2.26852
| 60>    C       -7.17517         8.95153        -3.04346
| 61>    C       -6.08090         9.51793        -2.14644
| 62>    C       -9.50160         8.01302        -3.24441
| 63>    C      -10.79076         7.59011        -2.55147
| 64>    C       -9.42818        10.97392        -1.96932
| 65>    C       -9.84857        11.97116        -1.06717
| 66>    C       -9.82940        11.68604         0.31072
| 67>    C       -9.40751        10.46656         0.78889
| 68>    C      -10.27372        13.23636        -1.58643
| 69>    C      -10.49048        14.36909        -0.86342
| 70>    C      -10.89812        15.59216        -1.41995
| 71>    C      -11.04244        16.74848        -0.69325
| 72>    C      -11.44744        18.02035        -1.16483
| 73>    C      -11.47203        18.99209        -0.21023
| 74>    C      -11.08389        18.54531         1.07225
| 75>    S      -10.70208        16.83852         1.02873
| 76>    C      -10.97281        19.27994         2.23674
| 77>    C      -11.22750        20.65822         2.42579
| 78>    C      -10.99927        21.09345         3.69390
| 79>    C      -10.54947        20.08633         4.58769
| 80>    S      -10.44010        18.54972         3.73341
| 81>    C      -10.22316        20.23420         5.90641
| 82>    C       -9.77605        19.17063         6.72841
| 83>    C       -9.42641        19.26543         8.03028
| 84>    C       -9.43474        20.55720         8.78882
| 85>    C       -8.88154        18.06376         8.75538
| 86>    N       -7.43484        18.12897         8.85432
| 87>    C       -6.65976        17.87227         7.74609
| 88>    C       -5.44014        18.35723         7.54154
| 89>    H       -7.25047        -1.44418         4.58853
| 90>    H       -4.50255        -4.72514         1.98357
| 91>    H       -6.45404        -5.90551         6.79693
| 92>    H       -7.35914        -3.47087         6.52401
| 93>    H       -5.46984        -0.32546        -1.30537
| 94>    H       -7.39091         5.91803        -2.20625
| 95>    H       -8.53146         7.84659         2.22377
| 96>    H       -7.65773         5.55506         2.05490
| 97>    H       -7.43162         9.68519        -3.81054
| 98>    H       -6.80410         8.05753        -3.54838
| 99>    H       -6.41958        10.42538        -1.65097
|100>    H       -5.19991         9.75740        -2.73749
|101>    H       -5.79745         8.79638        -1.38329
|102>    H       -9.07295         7.14953        -3.75639
|103>    H       -9.72516         8.77160        -3.99746
|104>    H      -10.59368         6.80912        -1.82079
|105>    H      -11.49367         7.20167        -3.28418
|106>    H      -11.25130         8.43360        -2.04077
|107>    H       -9.44178        11.18300        -3.02966
|108>    H      -10.16889        12.43419         1.00984
|109>    H       -9.40902        10.26458         1.84965
|110>    H      -10.39997        13.28873        -2.66134
|111>    H      -10.32636        14.36675         0.20598
|112>    H      -11.10554        15.63823        -2.48099
|113>    H      -11.70618        18.17602        -2.19744
|114>    H      -11.75299        20.01362        -0.39430
|115>    H      -11.56839        21.28612         1.62212
|116>    H      -11.13533        22.10877         4.02277
|117>    H      -10.31313        21.22375         6.33110
|118>    H       -9.72387        18.20076         6.24865
|119>    H      -10.41124        21.03480         8.72312
|120>    H       -8.69897        21.25180         8.38151
|121>    H       -9.20647        20.39086         9.83913
|122>    H       -9.14016        17.14415         8.22529
|123>    H       -9.28630        18.00825         9.77102
|124>    H       -7.09305        18.89383         9.42182
|125>    H       -7.10272        17.16766         7.05528
|126>    H       -4.98664        19.05807         8.22188
|127>    H       -4.85044        18.04512         6.70118
|128> *
|129>
|130>                          ****END OF INPUT****

CARTESIAN COORDINATES (ANGSTROEM)
---------------------------------
  C     -4.993100   -2.102660    0.787270
  C     -4.126340   -2.603640   -0.149170
  C     -3.519200   -3.873090   -0.065390
  N     -2.999210   -4.896710   -0.049920
  C     -3.688220   -1.899970   -1.290940
  N     -3.258990   -1.381010   -2.221050
  C     -5.369430   -2.744940    2.039100
  C     -6.150920   -1.837620    2.797610
  C     -6.655210   -2.154460    4.035730
  C     -6.370040   -3.421490    4.553800
  C     -5.590350   -4.320680    3.788110
  C     -5.083920   -4.003630    2.533220
  S     -5.371270   -5.828120    4.620600
  C     -6.303960   -5.252600    5.959140
  C     -6.761940   -3.992180    5.797790
  C     -6.331960   -0.584800    2.040750
  O     -7.030030    0.353170    2.362890
  C     -5.603240   -0.788400    0.760500
  C     -5.687520    0.045810   -0.311800
  C     -6.109450    1.406640   -0.245550
  C     -6.846340    1.989340   -1.297060
  C     -7.322940    3.349570   -1.231830
  N     -8.147230    3.800340   -2.190470
  C     -8.444650    3.027900   -3.207090
  C     -7.888710    1.711830   -3.316960
  N     -7.138960    1.221470   -2.361680
  C     -8.167940    0.925080   -4.462070
  N     -8.425840    0.327390   -5.404880
  C     -9.321920    3.530430   -4.198950
  N    -10.014720    3.936960   -5.016450
  C     -7.007850    4.205130   -0.148030
  C     -6.212420    3.636590    0.866110
  C     -5.763160    2.263330    0.816990
  N     -4.952440    1.967670    1.832120
  S     -4.805670    3.256630    2.772290
  N     -5.726270    4.269300    1.939800
  C     -7.484040    5.570620   -0.080770
  C     -7.662180    6.331140   -1.248850
  C     -8.160600    7.603860   -1.155440
  C     -8.479480    8.164090    0.096040
  C     -8.286130    7.427450    1.259490
  C     -7.790770    6.145980    1.163260
  C     -8.977770    9.499310   -0.113270
  C     -8.986960    9.765760   -1.497140
  C     -8.453850    8.581130   -2.268520
  C     -7.175170    8.951530   -3.043460
  C     -6.080900    9.517930   -2.146440
  C     -9.501600    8.013020   -3.244410
  C    -10.790760    7.590110   -2.551470
  C     -9.428180   10.973920   -1.969320
  C     -9.848570   11.971160   -1.067170
  C     -9.829400   11.686040    0.310720
  C     -9.407510   10.466560    0.788890
  C    -10.273720   13.236360   -1.586430
  C    -10.490480   14.369090   -0.863420
  C    -10.898120   15.592160   -1.419950
  C    -11.042440   16.748480   -0.693250
  C    -11.447440   18.020350   -1.164830
  C    -11.472030   18.992090   -0.210230
  C    -11.083890   18.545310    1.072250
  S    -10.702080   16.838520    1.028730
  C    -10.972810   19.279940    2.236740
  C    -11.227500   20.658220    2.425790
  C    -10.999270   21.093450    3.693900
  C    -10.549470   20.086330    4.587690
  S    -10.440100   18.549720    3.733410
  C    -10.223160   20.234200    5.906410
  C     -9.776050   19.170630    6.728410
  C     -9.426410   19.265430    8.030280
  C     -9.434740   20.557200    8.788820
  C     -8.881540   18.063760    8.755380
  N     -7.434840   18.128970    8.854320
  C     -6.659760   17.872270    7.746090
  C     -5.440140   18.357230    7.541540
  H     -7.250470   -1.444180    4.588530
  H     -4.502550   -4.725140    1.983570
  H     -6.454040   -5.905510    6.796930
  H     -7.359140   -3.470870    6.524010
  H     -5.469840   -0.325460   -1.305370
  H     -7.390910    5.918030   -2.206250
  H     -8.531460    7.846590    2.223770
  H     -7.657730    5.555060    2.054900
  H     -7.431620    9.685190   -3.810540
  H     -6.804100    8.057530   -3.548380
  H     -6.419580   10.425380   -1.650970
  H     -5.199910    9.757400   -2.737490
  H     -5.797450    8.796380   -1.383290
  H     -9.072950    7.149530   -3.756390
  H     -9.725160    8.771600   -3.997460
  H    -10.593680    6.809120   -1.820790
  H    -11.493670    7.201670   -3.284180
  H    -11.251300    8.433600   -2.040770
  H     -9.441780   11.183000   -3.029660
  H    -10.168890   12.434190    1.009840
  H     -9.409020   10.264580    1.849650
  H    -10.399970   13.288730   -2.661340
  H    -10.326360   14.366750    0.205980
  H    -11.105540   15.638230   -2.480990
  H    -11.706180   18.176020   -2.197440
  H    -11.752990   20.013620   -0.394300
  H    -11.568390   21.286120    1.622120
  H    -11.135330   22.108770    4.022770
  H    -10.313130   21.223750    6.331100
  H     -9.723870   18.200760    6.248650
  H    -10.411240   21.034800    8.723120
  H     -8.698970   21.251800    8.381510
  H     -9.206470   20.390860    9.839130
  H     -9.140160   17.144150    8.225290
  H     -9.286300   18.008250    9.771020
  H     -7.093050   18.893830    9.421820
  H     -7.102720   17.167660    7.055280
  H     -4.986640   19.058070    8.221880
  H     -4.850440   18.045120    6.701180

 Total Charge           Charge          ....    0
 Multiplicity           Mult            ....    1
 Number of Electrons    NEL             ....  534
 Basis Dimension        Dim             .... 1247

ORBITAL ENERGIES
----------------

  NO   OCC          E(Eh)            E(eV)
   0   2.0000     -89.047391     -2423.1027
   1   2.0000     -88.966523     -2420.9022
   2   2.0000     -88.939395     -2420.1640
   3   2.0000     -88.939284     -2420.1610
   4   2.0000     -19.214604      -522.8560
   5   2.0000     -14.464832      -393.6081
   6   2.0000     -14.464129      -393.5890
   7   2.0000     -14.455382      -393.3509
   8   2.0000     -14.449333      -393.1863
   9   2.0000     -14.431561      -392.7027
  10   2.0000     -14.430014      -392.6606
  11   2.0000     -14.414124      -392.2283
  12   2.0000     -14.412230      -392.1767
  13   2.0000     -14.405766      -392.0008
  14   2.0000     -10.386456      -282.6298
  15   2.0000     -10.380882      -282.4781
  16   2.0000     -10.365898      -282.0704
  17   2.0000     -10.353881      -281.7434
  18   2.0000     -10.350539      -281.6525
  19   2.0000     -10.343523      -281.4616
  20   2.0000     -10.343212      -281.4531
  21   2.0000     -10.341701      -281.4120
  22   2.0000     -10.338640      -281.3287
  23   2.0000     -10.329513      -281.0803
  24   2.0000     -10.323973      -280.9296
  25   2.0000     -10.323787      -280.9245
  26   2.0000     -10.320444      -280.8336
  27   2.0000     -10.316522      -280.7268
  28   2.0000     -10.315709      -280.7047
  29   2.0000     -10.314640      -280.6756
  30   2.0000     -10.314485      -280.6714
  31   2.0000     -10.311911      -280.6014
  32   2.0000     -10.307350      -280.4773
  33   2.0000     -10.305620      -280.4302
  34   2.0000     -10.305212      -280.4191
  35   2.0000     -10.303059      -280.3605
  36   2.0000     -10.302818      -280.3539
  37   2.0000     -10.301795      -280.3261
  38   2.0000     -10.301642      -280.3219
  39   2.0000     -10.299714      -280.2695
  40   2.0000     -10.298691      -280.2416
  41   2.0000     -10.298160      -280.2272
  42   2.0000     -10.291421      -280.0438
  43   2.0000     -10.289778      -279.9991
  44   2.0000     -10.289377      -279.9882
  45   2.0000     -10.285392      -279.8798
  46   2.0000     -10.285142      -279.8729
  47   2.0000     -10.284774      -279.8629
  48   2.0000     -10.282394      -279.7982
  49   2.0000     -10.280612      -279.7497
  50   2.0000     -10.279850      -279.7289
  51   2.0000     -10.279309      -279.7142
  52   2.0000     -10.278058      -279.6802
  53   2.0000     -10.276581      -279.6400
  54   2.0000     -10.276543      -279.6389
  55   2.0000     -10.274919      -279.5948
  56   2.0000     -10.274645      -279.5873
  57   2.0000     -10.274203      -279.5753
  58   2.0000     -10.273282      -279.5502
  59   2.0000     -10.273211      -279.5483
  60   2.0000     -10.272801      -279.5371
  61   2.0000     -10.270694      -279.4798
  62   2.0000     -10.270364      -279.4708
  63   2.0000     -10.269367      -279.4437
  64   2.0000     -10.269096      -279.4363
  65   2.0000     -10.268638      -279.4239
  66   2.0000     -10.268459      -279.4190
  67   2.0000     -10.268006      -279.4066
  68   2.0000     -10.263311      -279.2789
  69   2.0000     -10.261805      -279.2379
  70   2.0000     -10.258374      -279.1446
  71   2.0000     -10.245259      -278.7877
  72   2.0000     -10.240559      -278.6598
  73   2.0000     -10.226428      -278.2753
  74   2.0000      -8.138446      -221.4584
  75   2.0000      -8.062788      -219.3996
  76   2.0000      -8.035678      -218.6619
  77   2.0000      -8.035532      -218.6579
  78   2.0000      -6.109357      -166.2440
  79   2.0000      -6.101649      -166.0343
  80   2.0000      -6.101572      -166.0322
  81   2.0000      -6.032296      -164.1471
  82   2.0000      -6.028003      -164.0303
  83   2.0000      -6.024447      -163.9335
  84   2.0000      -6.005411      -163.4156
  85   2.0000      -6.005287      -163.4122
  86   2.0000      -6.001486      -163.3087
  87   2.0000      -6.001337      -163.3047
  88   2.0000      -5.996497      -163.1730
  89   2.0000      -5.996357      -163.1692
  90   2.0000      -1.143129       -31.1061
  91   2.0000      -1.128688       -30.7132
  92   2.0000      -1.122950       -30.5570
  93   2.0000      -1.049740       -28.5649
  94   2.0000      -1.018775       -27.7223
  95   2.0000      -1.014992       -27.6193
  96   2.0000      -1.009777       -27.4774
  97   2.0000      -1.007088       -27.4043
  98   2.0000      -1.005008       -27.3477
  99   2.0000      -0.997550       -27.1447
 100   2.0000      -0.991553       -26.9815
 101   2.0000      -0.990923       -26.9644
 102   2.0000      -0.990257       -26.9463
 103   2.0000      -0.984849       -26.7991
 104   2.0000      -0.979638       -26.6573
 105   2.0000      -0.969039       -26.3689
 106   2.0000      -0.947069       -25.7710
 107   2.0000      -0.931057       -25.3353
 108   2.0000      -0.922850       -25.1120
 109   2.0000      -0.910841       -24.7853
 110   2.0000      -0.909664       -24.7532
 111   2.0000      -0.904778       -24.6203
 112   2.0000      -0.898287       -24.4436
 113   2.0000      -0.889371       -24.2010
 114   2.0000      -0.880822       -23.9684
 115   2.0000      -0.877114       -23.8675
 116   2.0000      -0.866120       -23.5683
 117   2.0000      -0.852801       -23.2059
 118   2.0000      -0.845068       -22.9955
 119   2.0000      -0.836889       -22.7729
 120   2.0000      -0.835779       -22.7427
 121   2.0000      -0.833862       -22.6905
 122   2.0000      -0.833057       -22.6686
 123   2.0000      -0.829224       -22.5643
 124   2.0000      -0.822606       -22.3842
 125   2.0000      -0.820185       -22.3184
 126   2.0000      -0.816180       -22.2094
 127   2.0000      -0.808482       -21.9999
 128   2.0000      -0.799195       -21.7472
 129   2.0000      -0.788809       -21.4646
 130   2.0000      -0.775894       -21.1132
 131   2.0000      -0.763100       -20.7650
 132   2.0000      -0.760335       -20.6898
 133   2.0000      -0.755852       -20.5678
 134   2.0000      -0.748330       -20.3631
 135   2.0000      -0.740705       -20.1556
 136   2.0000      -0.729140       -19.8409
 137   2.0000      -0.722049       -19.6480
 138   2.0000      -0.715767       -19.4770
 139   2.0000      -0.707310       -19.2469
 140   2.0000      -0.696522       -18.9533
 141   2.0000      -0.695411       -18.9231
 142   2.0000      -0.688727       -18.7412
 143   2.0000      -0.683969       -18.6117
 144   2.0000      -0.676281       -18.4025
 145   2.0000      -0.674846       -18.3635
 146   2.0000      -0.671013       -18.2592
 147   2.0000      -0.669201       -18.2099
 148   2.0000      -0.664682       -18.0869
 149   2.0000      -0.661199       -17.9921
 150   2.0000      -0.657894       -17.9022
 151   2.0000      -0.655069       -17.8253
 152   2.0000      -0.646405       -17.5896
 153   2.0000      -0.635918       -17.3042
 154   2.0000      -0.631477       -17.1834
 155   2.0000      -0.626239       -17.0408
 156   2.0000      -0.619021       -16.8444
 157   2.0000      -0.617661       -16.8074
 158   2.0000      -0.614171       -16.7124
 159   2.0000      -0.608877       -16.5684
 160   2.0000      -0.606480       -16.5032
 161   2.0000      -0.600444       -16.3389
 162   2.0000      -0.595230       -16.1970
 163   2.0000      -0.593415       -16.1476
 164   2.0000      -0.592099       -16.1118
 165   2.0000      -0.581562       -15.8251
 166   2.0000      -0.576033       -15.6747
 167   2.0000      -0.569911       -15.5081
 168   2.0000      -0.565479       -15.3875
 169   2.0000      -0.561084       -15.2679
 170   2.0000      -0.559217       -15.2171
 171   2.0000      -0.556645       -15.1471
 172   2.0000      -0.550160       -14.9706
 173   2.0000      -0.545876       -14.8540
 174   2.0000      -0.541838       -14.7442
 175   2.0000      -0.540670       -14.7124
 176   2.0000      -0.538760       -14.6604
 177   2.0000      -0.537954       -14.6385
 178   2.0000      -0.535496       -14.5716
 179   2.0000      -0.532146       -14.4804
 180   2.0000      -0.530644       -14.4396
 181   2.0000      -0.526511       -14.3271
 182   2.0000      -0.521426       -14.1887
 183   2.0000      -0.519575       -14.1384
 184   2.0000      -0.517504       -14.0820
 185   2.0000      -0.516087       -14.0434
 186   2.0000      -0.514586       -14.0026
 187   2.0000      -0.510059       -13.8794
 188   2.0000      -0.507683       -13.8147
 189   2.0000      -0.500752       -13.6262
 190   2.0000      -0.499770       -13.5994
 191   2.0000      -0.498715       -13.5707
 192   2.0000      -0.494529       -13.4568
 193   2.0000      -0.492383       -13.3984
 194   2.0000      -0.491053       -13.3622
 195   2.0000      -0.489462       -13.3189
 196   2.0000      -0.487237       -13.2584
 197   2.0000      -0.484445       -13.1824
 198   2.0000      -0.483806       -13.1650
 199   2.0000      -0.483284       -13.1508
 200   2.0000      -0.483042       -13.1442
 201   2.0000      -0.478564       -13.0224
 202   2.0000      -0.474197       -12.9036
 203   2.0000      -0.473208       -12.8767
 204   2.0000      -0.471216       -12.8224
 205   2.0000      -0.467698       -12.7267
 206   2.0000      -0.466178       -12.6854
 207   2.0000      -0.463803       -12.6207
 208   2.0000      -0.462045       -12.5729
 209   2.0000      -0.456732       -12.4283
 210   2.0000      -0.456382       -12.4188
 211   2.0000      -0.454457       -12.3664
 212   2.0000      -0.453674       -12.3451
 213   2.0000      -0.453365       -12.3367
 214   2.0000      -0.452044       -12.3007
 215   2.0000      -0.449669       -12.2361
 216   2.0000      -0.446273       -12.1437
 217   2.0000      -0.444833       -12.1045
 218   2.0000      -0.443503       -12.0683
 219   2.0000      -0.443098       -12.0573
 220   2.0000      -0.441364       -12.0101
 221   2.0000      -0.438819       -11.9409
 222   2.0000      -0.437737       -11.9114
 223   2.0000      -0.434609       -11.8263
 224   2.0000      -0.433864       -11.8060
 225   2.0000      -0.432027       -11.7561
 226   2.0000      -0.428802       -11.6683
 227   2.0000      -0.428136       -11.6502
 228   2.0000      -0.427717       -11.6388
 229   2.0000      -0.424465       -11.5503
 230   2.0000      -0.422422       -11.4947
 231   2.0000      -0.421577       -11.4717
 232   2.0000      -0.420485       -11.4420
 233   2.0000      -0.418104       -11.3772
 234   2.0000      -0.414848       -11.2886
 235   2.0000      -0.412778       -11.2323
 236   2.0000      -0.412502       -11.2248
 237   2.0000      -0.411572       -11.1994
 238   2.0000      -0.408767       -11.1231
 239   2.0000      -0.406501       -11.0614
 240   2.0000      -0.403457       -10.9786
 241   2.0000      -0.397703       -10.8220
 242   2.0000      -0.392865       -10.6904
 243   2.0000      -0.391982       -10.6664
 244   2.0000      -0.387107       -10.5337
 245   2.0000      -0.385301       -10.4846
 246   2.0000      -0.383373       -10.4321
 247   2.0000      -0.381456       -10.3799
 248   2.0000      -0.379724       -10.3328
 249   2.0000      -0.375088       -10.2067
 250   2.0000      -0.365069        -9.9340
 251   2.0000      -0.360397        -9.8069
 252   2.0000      -0.351590        -9.5673
 253   2.0000      -0.345168        -9.3925
 254   2.0000      -0.337527        -9.1846
 255   2.0000      -0.333878        -9.0853
 256   2.0000      -0.327743        -8.9183
 257   2.0000      -0.321335        -8.7440
 258   2.0000      -0.320433        -8.7194
 259   2.0000      -0.314951        -8.5703
 260   2.0000      -0.312544        -8.5048
 261   2.0000      -0.302953        -8.2438
 262   2.0000      -0.294114        -8.0032
 263   2.0000      -0.278842        -7.5877
 264   2.0000      -0.260220        -7.0810
 265   2.0000      -0.253851        -6.9076
 266   2.0000      -0.204055        -5.5526
 267   0.0000      -0.127200        -3.4613
 268   0.0000      -0.080541        -2.1916
 269   0.0000      -0.074444        -2.0257
 270   0.0000      -0.056346        -1.5333
 271   0.0000      -0.048062        -1.3078

MULLIKEN ATOMIC CHARGES
-----------------------
   0 C :    0.294147
   1 C :   -0.333950
   2 C :   -0.187432
   3 N :    0.152734
   4 C :   -0.200762
   5 N :    0.165865
   6 C :    0.025579
   7 C :   -0.019917
   8 C :   -0.071690
   9 C :    0.118954
  10 C :   -0.093075
  11 C :   -0.028894
  12 S :    0.140786
  13 C :   -0.048962
  14 C :    0.022516
  15 C :    0.159422
  16 O :   -0.158105
  17 C :   -0.059521
  18 C :   -0.071509
  19 C :    0.065014
  20 C :   -0.034748
  21 C :   -0.067645
  22 N :    0.040932
  23 C :   -0.146124
  24 C :   -0.121354
  25 N :    0.059135
  26 C :   -0.203908
  27 N :    0.239896
  28 C :   -0.200172
  29 N :    0.231807
  30 C :    0.124499
  31 C :    0.001588
  32 C :    0.034510
  33 N :   -0.275683
  34 S :    0.555314
  35 N :   -0.278021
  36 C :   -0.007511
  37 C :   -0.032059
  38 C :   -0.011486
  39 C :    0.124829
  40 C :   -0.063003
  41 C :    0.030984
  42 C :    0.101157
  43 C :    0.030414
  44 C :   -0.137252
  45 C :    0.069379
  46 C :    0.024845
  47 C :    0.068613
  48 C :    0.024037
  49 C :   -0.114791
  50 C :    0.132322
  51 C :   -0.011334
  52 C :   -0.041746
  53 C :   -0.020019
  54 C :    0.020200
  55 C :   -0.016882
  56 C :   -0.015899
  57 C :    0.034017
  58 C :    0.027852
  59 C :   -0.046079
  60 S :    0.057933
  61 C :   -0.046150
  62 C :    0.026376
  63 C :    0.034984
  64 C :   -0.013704
  65 S :    0.065440
  66 C :   -0.023127
  67 C :    0.005775
  68 C :   -0.193876
  69 C :    0.081661
  70 C :    0.191271
  71 N :   -0.183903
  72 C :    0.053242
  73 C :   -0.083273
  74 H :   -0.015089
  75 H :   -0.006079
  76 H :    0.039288
  77 H :   -0.006988
  78 H :    0.047511
  79 H :   -0.031079
  80 H :   -0.033585
  81 H :   -0.013856
  82 H :   -0.000052
  83 H :   -0.002694
  84 H :    0.022644
  85 H :    0.009152
  86 H :    0.018630
  87 H :    0.003966
  88 H :   -0.001733
  89 H :    0.019766
  90 H :    0.017210
  91 H :    0.017959
  92 H :   -0.039432
  93 H :   -0.028315
  94 H :   -0.034744
  95 H :   -0.024995
  96 H :    0.002999
  97 H :   -0.019225
  98 H :   -0.014553
  99 H :   -0.015281
 100 H :   -0.015506
 101 H :   -0.015080
 102 H :   -0.023276
 103 H :   -0.020810
 104 H :    0.033950
 105 H :    0.037917
 106 H :    0.004499
 107 H :    0.007292
 108 H :    0.005692
 109 H :    0.102068
 110 H :   -0.003608
 111 H :   -0.009583
 112 H :    0.010557
Sum of atomic charges:    0.0000000

LOEWDIN ATOMIC CHARGES
----------------------
   0 C :    0.074109
   1 C :   -0.132225
   2 C :   -0.017673
   3 N :   -0.050496
   4 C :   -0.023629
   5 N :   -0.046000
   6 C :   -0.021577
   7 C :   -0.051172
   8 C :    0.021734
   9 C :   -0.034802
  10 C :   -0.144895
  11 C :   -0.008713
  12 S :    0.429670
  13 C :   -0.148899
  14 C :   -0.058561
  15 C :    0.085472
  16 O :   -0.149053
  17 C :   -0.072182
  18 C :    0.078931
  19 C :   -0.044153
  20 C :    0.012390
  21 C :   -0.015950
  22 N :    0.015709
  23 C :   -0.038239
  24 C :   -0.016663
  25 N :   -0.002290
  26 C :   -0.034504
  27 N :    0.002964
  28 C :   -0.036493
  29 N :   -0.009550
  30 C :    0.028979
  31 C :   -0.044626
  32 C :   -0.023319
  33 N :   -0.275510
  34 S :    0.693707
  35 N :   -0.273055
  36 C :   -0.031258
  37 C :    0.007522
  38 C :   -0.002953
  39 C :    0.007361
  40 C :   -0.026635
  41 C :    0.010552
  42 C :   -0.026747
  43 C :    0.009709
  44 C :   -0.035615
  45 C :   -0.010820
  46 C :   -0.057999
  47 C :   -0.010388
  48 C :   -0.057474
  49 C :   -0.023128
  50 C :   -0.015264
  51 C :   -0.015564
  52 C :   -0.011577
  53 C :   -0.023330
  54 C :   -0.024957
  55 C :   -0.060259
  56 C :   -0.141042
  57 C :   -0.038351
  58 C :   -0.029927
  59 C :   -0.183538
  60 S :    0.363547
  61 C :   -0.176084
  62 C :   -0.034702
  63 C :   -0.031879
  64 C :   -0.143578
  65 S :    0.363276
  66 C :   -0.053424
  67 C :   -0.058748
  68 C :   -0.032212
  69 C :   -0.055974
  70 C :    0.038364
  71 N :   -0.041652
  72 C :    0.023442
  73 C :   -0.151969
  74 H :    0.039055
  75 H :    0.040852
  76 H :    0.029574
  77 H :    0.035007
  78 H :    0.049138
  79 H :    0.023960
  80 H :    0.028116
  81 H :    0.028420
  82 H :    0.020924
  83 H :    0.019841
  84 H :    0.025874
  85 H :    0.024259
  86 H :    0.024146
  87 H :    0.022531
  88 H :    0.020401
  89 H :    0.024574
  90 H :    0.027660
  91 H :    0.023867
  92 H :    0.024439
  93 H :    0.026786
  94 H :    0.027553
  95 H :    0.026373
  96 H :    0.019833
  97 H :    0.031421
  98 H :    0.032679
  99 H :    0.031148
 100 H :    0.031089
 101 H :    0.032456
 102 H :    0.029083
 103 H :    0.017266
 104 H :    0.038482
 105 H :    0.039318
 106 H :    0.025088
 107 H :    0.026881
 108 H :    0.023003
 109 H :    0.066822
 110 H :    0.022214
 111 H :    0.012204
 112 H :    0.021507

  Mayer bond orders larger than 0.100000
B(  0-C ,  1-C ) :   1.6501 B(  0-C ,  6-C ) :   1.0081 B(  0-C , 17-C ) :   1.0556
B(  1-C ,  2-C ) :   1.1414 B(  1-C ,  4-C ) :   1.1431 B(  2-C ,  3-N ) :   2.9728
B(  4-C ,  5-N ) :   2.9918 B(  6-C ,  7-C ) :   1.2666 B(  6-C , 11-C ) :   1.4087
B(  7-C ,  8-C ) :   1.4252 B(  7-C , 15-C ) :   0.9518 B(  8-C ,  9-C ) :   1.2468
B(  8-C , 74-H ) :   1.0167 B(  9-C , 10-C ) :   1.2990 B(  9-C , 14-C ) :   1.1709
B( 10-C , 11-C ) :   1.3248 B( 10-C , 12-S ) :   1.0988 B( 11-C , 75-H ) :   0.9835
B( 12-S , 13-C ) :   1.1265 B( 13-C , 14-C ) :   1.6288 B( 13-C , 76-H ) :   0.9687
B( 14-C , 77-H ) :   0.9997 B( 15-C , 16-O ) :   2.2135 B( 15-C , 17-C ) :   0.9387
B( 17-C , 18-C ) :   1.6228 B( 18-C , 19-C ) :   1.1477 B( 18-C , 78-H ) :   0.9314
B( 19-C , 20-C ) :   1.2716 B( 19-C , 30-C ) :   0.1259 B( 19-C , 32-C ) :   1.2127
B( 20-C , 21-C ) :   1.1075 B( 20-C , 25-N ) :   1.4495 B( 21-C , 22-N ) :   1.4326
B( 21-C , 30-C ) :   1.2630 B( 22-N , 23-C ) :   1.7254 B( 23-C , 24-C ) :   1.2008
B( 23-C , 28-C ) :   1.1561 B( 24-C , 25-N ) :   1.7496 B( 24-C , 26-C ) :   1.1502
B( 26-C , 27-N ) :   3.0437 B( 28-C , 29-N ) :   3.0304 B( 30-C , 31-C ) :   1.2332
B( 30-C , 36-C ) :   1.0588 B( 31-C , 32-C ) :   1.1048 B( 31-C , 35-N ) :   1.4851
B( 32-C , 33-N ) :   1.4995 B( 33-N , 34-S ) :   1.2886 B( 33-N , 35-N ) :   0.1547
B( 34-S , 35-N ) :   1.3084 B( 36-C , 37-C ) :   1.2783 B( 36-C , 41-C ) :   1.3353
B( 37-C , 38-C ) :   1.4259 B( 37-C , 79-H ) :   0.9905 B( 38-C , 39-C ) :   1.3456
B( 38-C , 44-C ) :   0.9101 B( 39-C , 40-C ) :   1.3207 B( 39-C , 42-C ) :   1.0110
B( 40-C , 41-C ) :   1.4018 B( 40-C , 80-H ) :   0.9935 B( 41-C , 81-H ) :   0.9786
B( 42-C , 43-C ) :   1.3570 B( 42-C , 52-C ) :   1.3126 B( 43-C , 44-C ) :   0.9141
B( 43-C , 49-C ) :   1.3861 B( 44-C , 45-C ) :   1.0363 B( 44-C , 47-C ) :   1.0385
B( 45-C , 46-C ) :   1.1004 B( 45-C , 82-H ) :   0.9397 B( 45-C , 83-H ) :   0.9397
B( 46-C , 84-H ) :   0.9644 B( 46-C , 85-H ) :   0.9640 B( 46-C , 86-H ) :   0.9644
B( 47-C , 48-C ) :   1.1030 B( 47-C , 87-H ) :   0.9382 B( 47-C , 88-H ) :   0.9391
B( 48-C , 89-H ) :   0.9630 B( 48-C , 90-H ) :   0.9636 B( 48-C , 91-H ) :   0.9649
B( 49-C , 50-C ) :   1.2743 B( 49-C , 92-H ) :   1.0143 B( 50-C , 51-C ) :   1.3269
B( 50-C , 53-C ) :   1.0780 B( 51-C , 52-C ) :   1.4146 B( 51-C , 93-H ) :   0.9832
B( 52-C , 94-H ) :   0.9910 B( 53-C , 54-C ) :   1.6381 B( 53-C , 95-H ) :   0.9892
B( 54-C , 55-C ) :   1.1568 B( 54-C , 96-H ) :   0.9621 B( 55-C , 56-C ) :   1.5582
B( 55-C , 97-H ) :   0.9858 B( 56-C , 57-C ) :   1.1431 B( 56-C , 60-S ) :   1.0317
B( 57-C , 58-C ) :   1.5877 B( 57-C , 98-H ) :   0.9991 B( 58-C , 59-C ) :   1.1910
B( 58-C , 99-H ) :   0.9934 B( 59-C , 60-S ) :   1.0398 B( 59-C , 61-C ) :   1.5121
B( 61-C , 62-C ) :   1.1840 B( 61-C , 65-S ) :   1.0460 B( 62-C , 63-C ) :   1.6016
B( 62-C ,100-H ) :   0.9928 B( 63-C , 64-C ) :   1.1273 B( 63-C ,101-H ) :   0.9984
B( 64-C , 65-S ) :   1.0226 B( 64-C , 66-C ) :   1.6251 B( 66-C , 67-C ) :   1.1148
B( 66-C ,102-H ) :   0.9682 B( 67-C , 68-C ) :   1.7599 B( 67-C ,103-H ) :   0.9648
B( 68-C , 69-C ) :   1.0745 B( 68-C , 70-C ) :   1.0434 B( 69-C ,104-H ) :   0.9436
B( 69-C ,105-H ) :   0.9481 B( 69-C ,106-H ) :   0.9534 B( 70-C , 71-N ) :   1.0456
B( 70-C ,107-H ) :   0.9414 B( 70-C ,108-H ) :   0.9350 B( 71-N , 72-C ) :   1.1447
B( 71-N ,109-H ) :   0.9463 B( 72-C , 73-C ) :   1.9125 B( 72-C ,110-H ) :   0.9614
B( 73-C ,111-H ) :   0.9573 B( 73-C ,112-H ) :   0.9538

-----------------------------------------------------------------------------
         ABSORPTION SPECTRUM VIA TRANSITION ELECTRIC DIPOLE MOMENTS
-----------------------------------------------------------------------------
State   Energy  Wavelength   fosc         T2         TX        TY        TZ
        (cm-1)    (nm)                  (au**2)     (au)      (au)      (au)
-----------------------------------------------------------------------------
   0    8335.0   1199.8   0.552645252  21.82821   1.08640  -4.47379  -0.79570
   1   14316.6    698.5   0.533363180  12.26473  -0.85961   3.37820   0.33701
   2   15702.9    636.8   1.080059307  22.64346   0.26830   2.98921   3.69271
   3   20081.5    498.0   0.035643194   0.58433   0.23956  -0.69673   0.20373
   4   20234.2    494.2   0.063718085   1.03670  -0.41755   0.74613  -0.55285
   5   21835.1    458.0   0.002260006   0.03407  -0.15111   0.06403   0.08451
   6   22669.8    441.1   0.028163872   0.40900   0.19050   0.39319  -0.46702
   7   23044.4    433.9   0.011548934   0.16499   0.03630   0.34930  -0.20410
   8   23597.2    423.8   0.011549418   0.16113  -0.01022  -0.16245  -0.36693
   9   23894.5    418.5   0.037695373   0.51936   0.33346  -0.33787   0.54223
  10   24343.1    410.8   0.343747725   4.64878   0.82434  -1.80173   0.85029
  11   24919.9    401.3   0.072138927   0.95301  -0.48614   0.82386  -0.19476
  12   25469.5    392.6   0.190061965   2.45669   0.78639  -1.19667   0.63740
  13   25654.4    389.8   0.042228095   0.54189  -0.45620   0.48262  -0.31758
  14   26261.5    380.8   0.030319081   0.38008  -0.09159  -0.34559   0.50225
  15   26565.0    376.4   0.051164778   0.63407   0.12960  -0.13832   0.77340
  16   27129.3    368.6   0.006048768   0.07340  -0.03506  -0.01312   0.26833
  17   28327.2    353.0   0.201173109   2.33799  -0.76875   0.84133  -1.01939
  18   28422.1    351.8   0.016935697   0.19617   0.01795   0.43729   0.06797
  19   28698.8    348.4   0.615359615   7.05896   0.80710  -2.11100   1.39687
  20   28789.9    347.3   0.043161131   0.49355   0.13001   0.39515  -0.56613
  21   29526.5    338.7   0.057553458   0.64170  -0.16739   0.36349  -0.69394
  22   29998.8    333.3   0.045758908   0.50217   0.20531   0.33938  -0.58723
  23   30258.7    330.5   0.254012583   2.76363   0.48071   0.72854  -1.41484
  24   30920.7    323.4   0.020657579   0.21994  -0.40858  -0.22015   0.06736
  25   31230.1    320.2   0.141770259   1.49447  -0.17514   0.23855  -1.18612
  26   31718.6    315.3   0.094230773   0.97804  -0.43264  -0.74009  -0.49308
  27   31856.0    313.9   0.173622944   1.79429  -0.54050   0.34826  -1.17510
  28   32457.5    308.1   0.080954573   0.82111   0.10729  -0.27815  -0.85570
  29   32510.6    307.6   0.042984247   0.43527   0.58125   0.04789  -0.30843
  30   33091.3    302.2   0.180165825   1.79240   0.66080   0.09179   1.16074
  31   33156.1    301.6   0.000372460   0.00370   0.00052  -0.04295  -0.04305
  32   33322.9    300.1   0.013607902   0.13444   0.19431   0.09025   0.29755
  33   33580.7    297.8   0.098819443   0.96879  -0.60406  -0.43788  -0.64199
  34   33979.6    294.3   0.246980939   2.39288   0.79912   0.32412   1.28422
  35   34086.1    293.4   0.095960482   0.92681  -0.00768   0.43931  -0.85659
  36   34247.0    292.0   0.016299599   0.15669  -0.15171  -0.34400   0.12384
  37   35106.8    284.8   0.483003095   4.52934   0.93779  -0.16648  -1.90320
  38   35186.6    284.2   0.027085235   0.25341   0.30392  -0.28296   0.28457
  39   35874.2    278.8   0.010315289   0.09466   0.11837  -0.23092   0.16530
  40   36215.0    276.1   0.068027491   0.61840  -0.19412  -0.02717  -0.76156
  41   36736.5    272.2   0.063455619   0.56865   0.54233  -0.28496   0.43969
  42   36883.4    271.1   0.035220461   0.31437   0.13202   0.29985   0.45500
  43   37120.2    269.4   0.087815238   0.77882  -0.33215   0.21708  -0.78827
  44   37321.8    267.9   0.055206761   0.48697  -0.27450  -0.35712  -0.53300
  45   37911.3    263.8   0.085353293   0.74119   0.62373   0.11597   0.58198
  46   38067.1    262.7   0.112445308   0.97245  -0.62776   0.70111  -0.29464
  47   38320.2    261.0   0.005225496   0.04489   0.00852  -0.04484   0.20690
  48   38420.4    260.3   0.020295677   0.17391  -0.01120  -0.22349  -0.35190
  49   38461.4    260.0   0.064065895   0.54837  -0.07966   0.36354   0.64021
  50   38619.8    258.9   0.054830839   0.46740   0.11127  -0.64242  -0.20571
  51   38710.6    258.3   0.025112667   0.21357   0.10722  -0.21573   0.39437
  52   38898.0    257.1   0.087075217   0.73696   0.22617  -0.32472   0.76181
  53   39139.7    255.5   0.116374502   0.97885  -0.27319   0.91191   0.26952
  54   39446.0    253.5   0.049716053   0.41493  -0.27147   0.57036   0.12617
  55   39713.7    251.8   0.059857291   0.49620  -0.41983   0.56563   0.00035
  56   39922.5    250.5   0.025620048   0.21127  -0.15444   0.40710  -0.14726
  57   40208.0    248.7   0.018258160   0.14949   0.28020  -0.26626   0.00946

FINAL SINGLE POINT ENERGY     -4466.299075211126

DIPOLE MOMENT
-------------
                                X             Y             Z
Electronic contribution:     27.93084    -159.51865     -28.06929
Nuclear contribution   :    -29.19092     163.11855      32.26717
                        -----------------------------------------
Total Dipole Moment    :     -1.26008       3.59990       4.19788
                        -----------------------------------------
Magnitude (a.u.)       :      5.67179
Magnitude (Debye)      :     14.41656

Rotational constants in cm-1:     0.001275     0.000214     0.000189
Rotational constants in MHz :    38.216782     6.412967     5.675112

                             ****ORCA TERMINATED NORMALLY****
TOTAL RUN TIME: 0 days 0 hours 12 minutes 14 seconds 100 msec
