                         Program Version 4.2.0 -  RELEASE  -
|  1> # ORCA input file
|  2> # SCF done       -191.645504975874          0.000492695138
|  3> ! CAM-B3LYP def2-SVP def2/J RIJCOSX Grid4 TightSCF
|  4> %maxcore 5000
|  5> %tddft
|  6>     Mode sTDDFT
|  7>     Ethresh 5.0
|  8>     maxcore 5000
|  9> end
| 10>
| 11> %pal
| 12>   nprocs 6
| 13>   end
| 14> * xyz 0 1
| 15>    C      -17.82058       -11.73635         1.06104
| 16>    C      -16.47354       -11.99698         0.94208
| 17>    C      -15.93157       -13.28113         0.74264
| 18>    N      -15.42223       -14.29850         0.58014
| 19>    C      -15.43920       -11.04327         1.00601
| 20>    N      -14.52978       -10.34091         1.04836
| 21>    C      -18.87650       -12.74693         1.00471
| 22>    C      -20.12522       -12.10720         1.19253
| 23>    C      -21.31589       -12.78968         1.19161
| 24>    C      -21.27441       -14.17466         0.99387
| 25>    C      -20.02340       -14.80479         0.80586
| 26>    C      -18.81747       -14.11285         0.80792
| 27>    S      -20.19916       -16.51950         0.57784
| 28>    C      -21.92873       -16.36572         0.73583
| 29>    C      -22.35466       -15.09878         0.94878
| 30>   Br      -23.00928       -17.89455         0.60657
| 31>    C      -19.90497       -10.65514         1.37162
| 32>    O      -20.76795        -9.81844         1.55984
| 33>    C      -18.44812       -10.45883         1.27013
| 34>    C      -17.81481        -9.23227         1.34585
| 35>    C      -18.45130        -8.01455         1.54982
| 36>    C      -17.77257        -6.80998         1.59074
| 37>    C      -18.33687        -5.52975         1.78724
| 38>    C      -17.42978        -4.51018         1.76602
| 39>    C      -16.10336        -4.93822         1.55184
| 40>    S      -16.04213        -6.68005         1.38412
| 41>    C      -14.95867        -4.16635         1.46113
| 42>    C      -14.84425        -2.75937         1.55198
| 43>    C      -13.57257        -2.30440         1.40321
| 44>    C      -12.59644        -3.31908         1.18976
| 45>    S      -13.39526        -4.88723         1.19190
| 46>    C      -11.26545        -3.06993         1.00151
| 47>    C      -10.16734        -3.95610         0.78835
| 48>    C       -8.89913        -3.38046         0.55418
| 49>    C       -7.81092        -4.18267         0.33859
| 50>    C       -7.94160        -5.58455         0.36151
| 51>    C       -9.17996        -6.16821         0.60160
| 52>    C      -10.27415        -5.35854         0.80942
| 53>    C       -6.65254        -6.17016         0.08619
| 54>    C       -5.71939        -5.13502        -0.11297
| 55>    C       -6.36795        -3.78671         0.10447
| 56>    C       -6.20697        -2.85905        -1.10828
| 57>    C       -6.79418        -3.46029        -2.38017
| 58>    C       -5.86910        -3.11620         1.40728
| 59>    C       -4.37632        -2.82323         1.47481
| 60>    C       -4.43024        -5.43266        -0.48060
| 61>    C       -4.02464        -6.77270        -0.59784
| 62>    C       -4.96119        -7.78993        -0.36457
| 63>    C       -6.26846        -7.49960        -0.03781
| 64>    C       -2.65411        -7.03993        -0.95818
| 65>    C       -2.02843        -8.23156        -0.91844
| 66>    C       -0.66158        -8.42490        -1.27131
| 67>    S        0.35907        -7.16645        -1.90058
| 68>    C        1.70312        -8.22914        -1.99232
| 69>    C        1.40768        -9.48178        -1.56476
| 70>    C        0.06067        -9.59673        -1.14743
| 71>    O       -0.52745       -10.76162        -0.72232
| 72>    C        0.03517       -11.47207         0.26511
| 73>    C        0.91014       -10.94590         1.23803
| 74>    C        1.43837       -11.78083         2.29833
| 75>    N        2.29080       -11.24286         3.20072
| 76>    C        2.57682        -9.97375         3.12819
| 77>    C        2.00913        -9.13500         2.10309
| 78>    N        1.22064        -9.64019         1.19070
| 79>    C        2.31419        -7.75417         2.04230
| 80>    N        2.57234        -6.63860         2.00150
| 81>    C        3.47779        -9.40298         4.06452
| 82>    N        4.19683        -8.89679         4.79800
| 83>    C        1.09201       -13.11729         2.41716
| 84>    C        0.20909       -13.63837         1.47776
| 85>    C       -0.32189       -12.82424         0.40308
| 86>    N       -1.14723       -13.51746        -0.38845
| 87>    S       -1.24285       -15.01653         0.15745
| 88>    N       -0.25956       -14.89085         1.41343
| 89>    H      -22.25149       -12.27271         1.33723
| 90>    H      -17.89086       -14.64123         0.65906
| 91>    H      -23.38679       -14.82442         1.06943
| 92>    H      -16.73790        -9.20528         1.23153
| 93>    H      -19.52386        -7.99666         1.67769
| 94>    H      -19.39436        -5.40279         1.93612
| 95>    H      -17.68177        -3.47310         1.89736
| 96>    H      -15.69862        -2.12884         1.71946
| 97>    H      -13.29350        -1.26588         1.43946
| 98>    H      -11.00248        -2.01756         1.01225
| 99>    H       -8.80463        -2.30386         0.53817
|100>    H       -9.28722        -7.24176         0.62535
|101>    H      -11.22956        -5.81855         0.99962
|102>    H       -5.14675        -2.65904        -1.26692
|103>    H       -6.69926        -1.90818        -0.89327
|104>    H       -6.30031        -4.39846        -2.62326
|105>    H       -6.66157        -2.77545        -3.21449
|106>    H       -7.85764        -3.65513        -2.26015
|107>    H       -6.13475        -3.76969         2.24260
|108>    H       -6.42249        -2.18251         1.53138
|109>    H       -3.79879        -3.74331         1.45968
|110>    H       -4.15480        -2.30247         2.40396
|111>    H       -4.05699        -2.19027         0.65123
|112>    H       -3.71372        -4.65159        -0.68681
|113>    H       -4.66162        -8.82113        -0.46845
|114>    H       -6.98482        -8.29316         0.11267
|115>    H       -2.07403        -6.17753        -1.26596
|116>    H       -2.53775        -9.12752        -0.59129
|117>    H        2.63804        -7.86267        -2.36574
|118>    H        2.10599       -10.29965        -1.54914
|119>    H        1.48822       -13.71724         3.21755
|120> *
|121>
|122>                          ****END OF INPUT****

CARTESIAN COORDINATES (ANGSTROEM)
---------------------------------
  C    -17.820580  -11.736350    1.061040
  C    -16.473540  -11.996980    0.942080
  C    -15.931570  -13.281130    0.742640
  N    -15.422230  -14.298500    0.580140
  C    -15.439200  -11.043270    1.006010
  N    -14.529780  -10.340910    1.048360
  C    -18.876500  -12.746930    1.004710
  C    -20.125220  -12.107200    1.192530
  C    -21.315890  -12.789680    1.191610
  C    -21.274410  -14.174660    0.993870
  C    -20.023400  -14.804790    0.805860
  C    -18.817470  -14.112850    0.807920
  S    -20.199160  -16.519500    0.577840
  C    -21.928730  -16.365720    0.735830
  C    -22.354660  -15.098780    0.948780
  Br   -23.009280  -17.894550    0.606570
  C    -19.904970  -10.655140    1.371620
  O    -20.767950   -9.818440    1.559840
  C    -18.448120  -10.458830    1.270130
  C    -17.814810   -9.232270    1.345850
  C    -18.451300   -8.014550    1.549820
  C    -17.772570   -6.809980    1.590740
  C    -18.336870   -5.529750    1.787240
  C    -17.429780   -4.510180    1.766020
  C    -16.103360   -4.938220    1.551840
  S    -16.042130   -6.680050    1.384120
  C    -14.958670   -4.166350    1.461130
  C    -14.844250   -2.759370    1.551980
  C    -13.572570   -2.304400    1.403210
  C    -12.596440   -3.319080    1.189760
  S    -13.395260   -4.887230    1.191900
  C    -11.265450   -3.069930    1.001510
  C    -10.167340   -3.956100    0.788350
  C     -8.899130   -3.380460    0.554180
  C     -7.810920   -4.182670    0.338590
  C     -7.941600   -5.584550    0.361510
  C     -9.179960   -6.168210    0.601600
  C    -10.274150   -5.358540    0.809420
  C     -6.652540   -6.170160    0.086190
  C     -5.719390   -5.135020   -0.112970
  C     -6.367950   -3.786710    0.104470
  C     -6.206970   -2.859050   -1.108280
  C     -6.794180   -3.460290   -2.380170
  C     -5.869100   -3.116200    1.407280
  C     -4.376320   -2.823230    1.474810
  C     -4.430240   -5.432660   -0.480600
  C     -4.024640   -6.772700   -0.597840
  C     -4.961190   -7.789930   -0.364570
  C     -6.268460   -7.499600   -0.037810
  C     -2.654110   -7.039930   -0.958180
  C     -2.028430   -8.231560   -0.918440
  C     -0.661580   -8.424900   -1.271310
  S      0.359070   -7.166450   -1.900580
  C      1.703120   -8.229140   -1.992320
  C      1.407680   -9.481780   -1.564760
  C      0.060670   -9.596730   -1.147430
  O     -0.527450  -10.761620   -0.722320
  C      0.035170  -11.472070    0.265110
  C      0.910140  -10.945900    1.238030
  C      1.438370  -11.780830    2.298330
  N      2.290800  -11.242860    3.200720
  C      2.576820   -9.973750    3.128190
  C      2.009130   -9.135000    2.103090
  N      1.220640   -9.640190    1.190700
  C      2.314190   -7.754170    2.042300
  N      2.572340   -6.638600    2.001500
  C      3.477790   -9.402980    4.064520
  N      4.196830   -8.896790    4.798000
  C      1.092010  -13.117290    2.417160
  C      0.209090  -13.638370    1.477760
  C     -0.321890  -12.824240    0.403080
  N     -1.147230  -13.517460   -0.388450
  S     -1.242850  -15.016530    0.157450
  N     -0.259560  -14.890850    1.413430
  H    -22.251490  -12.272710    1.337230
  H    -17.890860  -14.641230    0.659060
  H    -23.386790  -14.824420    1.069430
  H    -16.737900   -9.205280    1.231530
  H    -19.523860   -7.996660    1.677690
  H    -19.394360   -5.402790    1.936120
  H    -17.681770   -3.473100    1.897360
  H    -15.698620   -2.128840    1.719460
  H    -13.293500   -1.265880    1.439460
  H    -11.002480   -2.017560    1.012250
  H     -8.804630   -2.303860    0.538170
  H     -9.287220   -7.241760    0.625350
  H    -11.229560   -5.818550    0.999620
  H     -5.146750   -2.659040   -1.266920
  H     -6.699260   -1.908180   -0.893270
  H     -6.300310   -4.398460   -2.623260
  H     -6.661570   -2.775450   -3.214490
  H     -7.857640   -3.655130   -2.260150
  H     -6.134750   -3.769690    2.242600
  H     -6.422490   -2.182510    1.531380
  H     -3.798790   -3.743310    1.459680
  H     -4.154800   -2.302470    2.403960
  H     -4.056990   -2.190270    0.651230
  H     -3.713720   -4.651590   -0.686810
  H     -4.661620   -8.821130   -0.468450
  H     -6.984820   -8.293160    0.112670
  H     -2.074030   -6.177530   -1.265960
  H     -2.537750   -9.127520   -0.591290
  H      2.638040   -7.862670   -2.365740
  H      2.105990  -10.299650   -1.549140
  H      1.488220  -13.717240    3.217550

 Total Charge           Charge          ....    0
 Multiplicity           Mult            ....    1
 Number of Electrons    NEL             ....  566
 Basis Dimension        Dim             .... 1229

ORBITAL ENERGIES
----------------

  NO   OCC          E(Eh)            E(eV)
   0   2.0000    -482.875435    -13139.7086
   1   2.0000     -89.052210     -2423.2338
   2   2.0000     -88.962610     -2420.7957
   3   2.0000     -88.962477     -2420.7921
   4   2.0000     -88.958152     -2420.6744
   5   2.0000     -88.955617     -2420.6054
   6   2.0000     -62.553140     -1702.1575
   7   2.0000     -56.387075     -1534.3703
   8   2.0000     -56.384388     -1534.2972
   9   2.0000     -56.384349     -1534.2961
  10   2.0000     -19.301942      -525.2325
  11   2.0000     -19.196381      -522.3601
  12   2.0000     -14.467626      -393.6841
  13   2.0000     -14.464051      -393.5868
  14   2.0000     -14.460880      -393.5006
  15   2.0000     -14.454925      -393.3385
  16   2.0000     -14.432631      -392.7319
  17   2.0000     -14.430276      -392.6678
  18   2.0000     -14.397891      -391.7865
  19   2.0000     -14.395424      -391.7194
  20   2.0000     -10.390392      -282.7369
  21   2.0000     -10.386535      -282.6320
  22   2.0000     -10.382680      -282.5271
  23   2.0000     -10.353124      -281.7228
  24   2.0000     -10.352680      -281.7107
  25   2.0000     -10.349205      -281.6162
  26   2.0000     -10.348715      -281.6029
  27   2.0000     -10.346647      -281.5466
  28   2.0000     -10.346307      -281.5373
  29   2.0000     -10.343077      -281.4494
  30   2.0000     -10.333665      -281.1933
  31   2.0000     -10.325316      -280.9661
  32   2.0000     -10.324067      -280.9321
  33   2.0000     -10.323618      -280.9199
  34   2.0000     -10.320628      -280.8386
  35   2.0000     -10.319638      -280.8116
  36   2.0000     -10.318161      -280.7714
  37   2.0000     -10.317821      -280.7622
  38   2.0000     -10.310543      -280.5641
  39   2.0000     -10.304949      -280.4119
  40   2.0000     -10.303793      -280.3805
  41   2.0000     -10.303065      -280.3607
  42   2.0000     -10.302516      -280.3457
  43   2.0000     -10.302077      -280.3338
  44   2.0000     -10.301914      -280.3293
  45   2.0000     -10.300839      -280.3001
  46   2.0000     -10.300070      -280.2792
  47   2.0000     -10.299211      -280.2558
  48   2.0000     -10.294094      -280.1165
  49   2.0000     -10.292441      -280.0716
  50   2.0000     -10.290853      -280.0283
  51   2.0000     -10.289615      -279.9947
  52   2.0000     -10.288976      -279.9773
  53   2.0000     -10.288894      -279.9750
  54   2.0000     -10.285049      -279.8704
  55   2.0000     -10.284622      -279.8588
  56   2.0000     -10.283591      -279.8307
  57   2.0000     -10.282592      -279.8036
  58   2.0000     -10.282504      -279.8012
  59   2.0000     -10.281545      -279.7751
  60   2.0000     -10.280453      -279.7453
  61   2.0000     -10.279848      -279.7289
  62   2.0000     -10.279241      -279.7124
  63   2.0000     -10.277222      -279.6574
  64   2.0000     -10.276019      -279.6247
  65   2.0000     -10.274837      -279.5925
  66   2.0000     -10.274708      -279.5890
  67   2.0000     -10.274398      -279.5806
  68   2.0000     -10.273568      -279.5580
  69   2.0000     -10.272808      -279.5373
  70   2.0000     -10.271968      -279.5145
  71   2.0000     -10.271810      -279.5102
  72   2.0000     -10.271615      -279.5049
  73   2.0000     -10.268907      -279.4312
  74   2.0000     -10.267683      -279.3979
  75   2.0000     -10.267345      -279.3887
  76   2.0000     -10.253888      -279.0225
  77   2.0000     -10.250282      -278.9244
  78   2.0000      -8.782555      -238.9855
  79   2.0000      -8.143552      -221.5973
  80   2.0000      -8.058586      -219.2853
  81   2.0000      -8.058217      -219.2752
  82   2.0000      -8.053953      -219.1592
  83   2.0000      -8.051577      -219.0946
  84   2.0000      -6.618787      -180.1063
  85   2.0000      -6.604316      -179.7126
  86   2.0000      -6.604142      -179.7078
  87   2.0000      -6.114403      -166.3814
  88   2.0000      -6.106808      -166.1747
  89   2.0000      -6.106589      -166.1687
  90   2.0000      -6.028288      -164.0381
  91   2.0000      -6.027953      -164.0289
  92   2.0000      -6.024018      -163.9219
  93   2.0000      -6.023813      -163.9163
  94   2.0000      -6.023262      -163.9013
  95   2.0000      -6.021182      -163.8447
  96   2.0000      -6.019800      -163.8071
  97   2.0000      -6.019238      -163.7918
  98   2.0000      -6.019132      -163.7889
  99   2.0000      -6.017137      -163.7346
 100   2.0000      -6.015984      -163.7032
 101   2.0000      -6.012765      -163.6156
 102   2.0000      -2.734678       -74.4144
 103   2.0000      -2.730584       -74.3030
 104   2.0000      -2.730493       -74.3005
 105   2.0000      -2.718975       -73.9871
 106   2.0000      -2.718958       -73.9866
 107   2.0000      -1.212295       -32.9882
 108   2.0000      -1.147117       -31.2146
 109   2.0000      -1.122807       -30.5531
 110   2.0000      -1.109553       -30.1925
 111   2.0000      -1.049654       -28.5625
 112   2.0000      -1.015401       -27.6305
 113   2.0000      -1.009452       -27.4686
 114   2.0000      -1.006849       -27.3978
 115   2.0000      -1.005239       -27.3540
 116   2.0000      -0.999379       -27.1945
 117   2.0000      -0.996326       -27.1114
 118   2.0000      -0.992846       -27.0167
 119   2.0000      -0.989232       -26.9184
 120   2.0000      -0.985816       -26.8254
 121   2.0000      -0.975881       -26.5551
 122   2.0000      -0.974192       -26.5091
 123   2.0000      -0.971561       -26.4375
 124   2.0000      -0.951891       -25.9023
 125   2.0000      -0.928382       -25.2626
 126   2.0000      -0.926560       -25.2130
 127   2.0000      -0.911817       -24.8118
 128   2.0000      -0.906740       -24.6737
 129   2.0000      -0.897778       -24.4298
 130   2.0000      -0.892805       -24.2944
 131   2.0000      -0.889808       -24.2129
 132   2.0000      -0.883249       -24.0344
 133   2.0000      -0.873195       -23.7609
 134   2.0000      -0.870298       -23.6820
 135   2.0000      -0.861041       -23.4301
 136   2.0000      -0.857544       -23.3349
 137   2.0000      -0.844322       -22.9752
 138   2.0000      -0.841706       -22.9040
 139   2.0000      -0.839422       -22.8418
 140   2.0000      -0.837185       -22.7810
 141   2.0000      -0.835135       -22.7252
 142   2.0000      -0.834211       -22.7000
 143   2.0000      -0.832796       -22.6615
 144   2.0000      -0.820224       -22.3194
 145   2.0000      -0.814083       -22.1523
 146   2.0000      -0.800914       -21.7940
 147   2.0000      -0.793953       -21.6046
 148   2.0000      -0.780184       -21.2299
 149   2.0000      -0.769099       -20.9282
 150   2.0000      -0.758091       -20.6287
 151   2.0000      -0.750521       -20.4227
 152   2.0000      -0.741388       -20.1742
 153   2.0000      -0.734590       -19.9892
 154   2.0000      -0.725831       -19.7509
 155   2.0000      -0.719480       -19.5781
 156   2.0000      -0.715304       -19.4644
 157   2.0000      -0.710916       -19.3450
 158   2.0000      -0.699158       -19.0251
 159   2.0000      -0.694727       -18.9045
 160   2.0000      -0.693184       -18.8625
 161   2.0000      -0.685378       -18.6501
 162   2.0000      -0.681102       -18.5337
 163   2.0000      -0.677890       -18.4463
 164   2.0000      -0.673435       -18.3251
 165   2.0000      -0.665300       -18.1037
 166   2.0000      -0.658432       -17.9168
 167   2.0000      -0.655202       -17.8289
 168   2.0000      -0.654312       -17.8047
 169   2.0000      -0.651437       -17.7265
 170   2.0000      -0.644050       -17.5255
 171   2.0000      -0.642163       -17.4741
 172   2.0000      -0.629472       -17.1288
 173   2.0000      -0.627492       -17.0749
 174   2.0000      -0.624680       -16.9984
 175   2.0000      -0.616855       -16.7855
 176   2.0000      -0.615918       -16.7600
 177   2.0000      -0.609232       -16.5780
 178   2.0000      -0.607181       -16.5222
 179   2.0000      -0.604075       -16.4377
 180   2.0000      -0.596377       -16.2282
 181   2.0000      -0.586645       -15.9634
 182   2.0000      -0.584487       -15.9047
 183   2.0000      -0.581006       -15.8100
 184   2.0000      -0.578279       -15.7358
 185   2.0000      -0.568640       -15.4735
 186   2.0000      -0.563659       -15.3379
 187   2.0000      -0.562478       -15.3058
 188   2.0000      -0.556252       -15.1364
 189   2.0000      -0.550294       -14.9743
 190   2.0000      -0.547677       -14.9031
 191   2.0000      -0.547046       -14.8859
 192   2.0000      -0.541586       -14.7373
 193   2.0000      -0.538448       -14.6519
 194   2.0000      -0.534672       -14.5492
 195   2.0000      -0.532113       -14.4795
 196   2.0000      -0.530159       -14.4264
 197   2.0000      -0.528610       -14.3842
 198   2.0000      -0.523936       -14.2570
 199   2.0000      -0.522231       -14.2106
 200   2.0000      -0.521497       -14.1907
 201   2.0000      -0.519804       -14.1446
 202   2.0000      -0.516346       -14.0505
 203   2.0000      -0.512047       -13.9335
 204   2.0000      -0.511008       -13.9052
 205   2.0000      -0.510434       -13.8896
 206   2.0000      -0.505019       -13.7423
 207   2.0000      -0.503886       -13.7114
 208   2.0000      -0.500348       -13.6151
 209   2.0000      -0.496843       -13.5198
 210   2.0000      -0.494116       -13.4456
 211   2.0000      -0.492542       -13.4027
 212   2.0000      -0.489690       -13.3251
 213   2.0000      -0.489018       -13.3069
 214   2.0000      -0.484791       -13.1918
 215   2.0000      -0.482273       -13.1233
 216   2.0000      -0.481245       -13.0954
 217   2.0000      -0.479794       -13.0559
 218   2.0000      -0.479295       -13.0423
 219   2.0000      -0.477157       -12.9841
 220   2.0000      -0.475502       -12.9391
 221   2.0000      -0.473002       -12.8710
 222   2.0000      -0.469385       -12.7726
 223   2.0000      -0.467852       -12.7309
 224   2.0000      -0.462393       -12.5823
 225   2.0000      -0.458596       -12.4790
 226   2.0000      -0.457558       -12.4508
 227   2.0000      -0.456137       -12.4121
 228   2.0000      -0.455579       -12.3969
 229   2.0000      -0.454655       -12.3718
 230   2.0000      -0.451488       -12.2856
 231   2.0000      -0.450313       -12.2536
 232   2.0000      -0.446707       -12.1555
 233   2.0000      -0.445552       -12.1241
 234   2.0000      -0.443795       -12.0763
 235   2.0000      -0.442063       -12.0291
 236   2.0000      -0.438563       -11.9339
 237   2.0000      -0.436915       -11.8891
 238   2.0000      -0.434878       -11.8336
 239   2.0000      -0.433088       -11.7849
 240   2.0000      -0.432027       -11.7560
 241   2.0000      -0.430848       -11.7240
 242   2.0000      -0.429036       -11.6747
 243   2.0000      -0.427157       -11.6235
 244   2.0000      -0.426634       -11.6093
 245   2.0000      -0.424602       -11.5540
 246   2.0000      -0.423797       -11.5321
 247   2.0000      -0.419646       -11.4191
 248   2.0000      -0.417115       -11.3503
 249   2.0000      -0.415683       -11.3113
 250   2.0000      -0.414851       -11.2887
 251   2.0000      -0.414023       -11.2661
 252   2.0000      -0.409412       -11.1407
 253   2.0000      -0.406778       -11.0690
 254   2.0000      -0.405624       -11.0376
 255   2.0000      -0.404942       -11.0190
 256   2.0000      -0.404331       -11.0024
 257   2.0000      -0.395742       -10.7687
 258   2.0000      -0.392388       -10.6774
 259   2.0000      -0.389849       -10.6083
 260   2.0000      -0.388154       -10.5622
 261   2.0000      -0.387485       -10.5440
 262   2.0000      -0.383759       -10.4426
 263   2.0000      -0.378042       -10.2871
 264   2.0000      -0.371230       -10.1017
 265   2.0000      -0.369322       -10.0498
 266   2.0000      -0.365019        -9.9327
 267   2.0000      -0.356966        -9.7135
 268   2.0000      -0.352357        -9.5881
 269   2.0000      -0.349510        -9.5107
 270   2.0000      -0.341415        -9.2904
 271   2.0000      -0.332711        -9.0535
 272   2.0000      -0.327008        -8.8983
 273   2.0000      -0.318933        -8.6786
 274   2.0000      -0.316846        -8.6218
 275   2.0000      -0.314480        -8.5574
 276   2.0000      -0.312810        -8.5120
 277   2.0000      -0.300956        -8.1894
 278   2.0000      -0.295922        -8.0524
 279   2.0000      -0.285946        -7.7810
 280   2.0000      -0.278324        -7.5736
 281   2.0000      -0.252858        -6.8806
 282   2.0000      -0.222822        -6.0633
 283   0.0000      -0.114861        -3.1255
 284   0.0000      -0.104411        -2.8412
 285   0.0000      -0.056695        -1.5428
 286   0.0000      -0.051332        -1.3968
 287   0.0000      -0.042821        -1.1652

MULLIKEN ATOMIC CHARGES
-----------------------
   0 C :    0.328989
   1 C :   -0.365932
   2 C :   -0.191371
   3 N :    0.133247
   4 C :   -0.192686
   5 N :    0.131015
   6 C :    0.012385
   7 C :   -0.008152
   8 C :   -0.077364
   9 C :    0.117922
  10 C :   -0.091156
  11 C :   -0.025751
  12 S :    0.177223
  13 C :   -0.124142
  14 C :    0.035558
  15 Br:    0.012580
  16 C :    0.134320
  17 O :   -0.168432
  18 C :   -0.089143
  19 C :   -0.039063
  20 C :   -0.027714
  21 C :    0.007534
  22 C :    0.022243
  23 C :    0.045385
  24 C :   -0.056708
  25 S :    0.108600
  26 C :   -0.013705
  27 C :    0.022356
  28 C :    0.048892
  29 C :   -0.017824
  30 S :    0.088421
  31 C :   -0.018800
  32 C :    0.113309
  33 C :   -0.110194
  34 C :    0.021820
  35 C :    0.111315
  36 C :   -0.052857
  37 C :   -0.011632
  38 C :    0.098913
  39 C :    0.023649
  40 C :   -0.130330
  41 C :    0.051795
  42 C :    0.023726
  43 C :    0.080677
  44 C :    0.029332
  45 C :   -0.111982
  46 C :    0.131751
  47 C :   -0.017158
  48 C :   -0.041874
  49 C :   -0.020589
  50 C :    0.023593
  51 C :   -0.128358
  52 S :    0.123288
  53 C :   -0.057647
  54 C :    0.027407
  55 C :    0.203032
  56 O :   -0.215053
  57 C :    0.201713
  58 C :   -0.108364
  59 C :    0.069508
  60 N :    0.057836
  61 C :   -0.141342
  62 C :   -0.143214
  63 N :    0.059227
  64 C :   -0.204795
  65 N :    0.240798
  66 C :   -0.203676
  67 N :    0.233533
  68 C :   -0.139956
  69 C :    0.152257
  70 C :   -0.046548
  71 N :   -0.263564
  72 S :    0.552068
  73 N :   -0.269471
  74 H :   -0.016943
  75 H :   -0.011398
  76 H :   -0.006498
  77 H :    0.013223
  78 H :    0.015194
  79 H :   -0.000991
  80 H :   -0.006563
  81 H :   -0.007945
  82 H :   -0.003516
  83 H :   -0.013762
  84 H :   -0.037137
  85 H :   -0.022707
  86 H :   -0.009708
  87 H :    0.007706
  88 H :   -0.004506
  89 H :    0.022563
  90 H :    0.010826
  91 H :    0.020434
  92 H :    0.006007
  93 H :   -0.006857
  94 H :    0.024641
  95 H :    0.013669
  96 H :    0.003582
  97 H :   -0.037211
  98 H :   -0.026556
  99 H :   -0.029643
 100 H :   -0.018182
 101 H :   -0.007525
 102 H :    0.035178
 103 H :   -0.012570
 104 H :   -0.023472
Sum of atomic charges:   -0.0000000

LOEWDIN ATOMIC CHARGES
----------------------
   0 C :    0.073512
   1 C :   -0.159911
   2 C :   -0.018835
   3 N :   -0.072564
   4 C :   -0.020869
   5 N :   -0.071187
   6 C :   -0.017864
   7 C :   -0.048078
   8 C :    0.016346
   9 C :   -0.036509
  10 C :   -0.146153
  11 C :   -0.014186
  12 S :    0.425706
  13 C :   -0.275382
  14 C :   -0.071315
  15 Br:    0.128112
  16 C :    0.081594
  17 O :   -0.160818
  18 C :   -0.112217
  19 C :    0.049979
  20 C :   -0.077634
  21 C :   -0.101879
  22 C :   -0.045539
  23 C :   -0.006590
  24 C :   -0.197938
  25 S :    0.411031
  26 C :   -0.144595
  27 C :   -0.046513
  28 C :   -0.004669
  29 C :   -0.159629
  30 S :    0.410087
  31 C :   -0.010033
  32 C :   -0.039230
  33 C :   -0.010616
  34 C :    0.003048
  35 C :   -0.002366
  36 C :   -0.014031
  37 C :   -0.012720
  38 C :   -0.021775
  39 C :    0.005784
  40 C :   -0.034341
  41 C :   -0.015494
  42 C :   -0.056695
  43 C :   -0.009020
  44 C :   -0.058591
  45 C :   -0.022017
  46 C :   -0.019277
  47 C :   -0.014282
  48 C :   -0.012238
  49 C :   -0.025650
  50 C :   -0.031803
  51 C :   -0.192108
  52 S :    0.446675
  53 C :   -0.166698
  54 C :   -0.080574
  55 C :    0.011701
  56 O :   -0.006717
  57 C :    0.072715
  58 C :   -0.054514
  59 C :   -0.005314
  60 N :   -0.000267
  61 C :   -0.023416
  62 C :   -0.035771
  63 N :    0.021218
  64 C :   -0.036420
  65 N :   -0.008226
  66 C :   -0.034838
  67 N :   -0.001628
  68 C :   -0.023176
  69 C :   -0.042069
  70 C :   -0.072124
  71 N :   -0.271099
  72 S :    0.696228
  73 N :   -0.289124
  74 H :    0.038250
  75 H :    0.039596
  76 H :    0.037308
  77 H :    0.031021
  78 H :    0.037999
  79 H :    0.038186
  80 H :    0.034760
  81 H :    0.034044
  82 H :    0.036955
  83 H :    0.037413
  84 H :    0.024187
  85 H :    0.032328
  86 H :    0.014100
  87 H :    0.020554
  88 H :    0.019216
  89 H :    0.026337
  90 H :    0.024474
  91 H :    0.024781
  92 H :    0.026998
  93 H :    0.018757
  94 H :    0.025660
  95 H :    0.028457
  96 H :    0.019898
  97 H :    0.024348
  98 H :    0.026741
  99 H :    0.029224
 100 H :    0.020856
 101 H :    0.032159
 102 H :    0.027930
 103 H :    0.030424
 104 H :    0.048442

  Mayer bond orders larger than 0.100000
B(  0-C ,  1-C ) :   1.5757 B(  0-C ,  6-C ) :   0.9885 B(  0-C , 18-C ) :   1.1201
B(  1-C ,  2-C ) :   1.1518 B(  1-C ,  4-C ) :   1.1555 B(  2-C ,  3-N ) :   2.9601
B(  4-C ,  5-N ) :   2.9576 B(  6-C ,  7-C ) :   1.2788 B(  6-C , 11-C ) :   1.4200
B(  7-C ,  8-C ) :   1.4320 B(  7-C , 16-C ) :   0.9346 B(  8-C ,  9-C ) :   1.2383
B(  8-C , 74-H ) :   1.0168 B(  9-C , 10-C ) :   1.3182 B(  9-C , 14-C ) :   1.1583
B( 10-C , 11-C ) :   1.3194 B( 10-C , 12-S ) :   1.0816 B( 11-C , 75-H ) :   0.9801
B( 12-S , 13-C ) :   1.0854 B( 13-C , 14-C ) :   1.6213 B( 13-C , 15-Br) :   1.0123
B( 14-C , 76-H ) :   1.0008 B( 16-C , 17-O ) :   2.1830 B( 16-C , 18-C ) :   0.9709
B( 18-C , 19-C ) :   1.4654 B( 19-C , 20-C ) :   1.2736 B( 19-C , 77-H ) :   0.9429
B( 20-C , 21-C ) :   1.4032 B( 20-C , 78-H ) :   0.9785 B( 21-C , 22-C ) :   1.1846
B( 21-C , 25-S ) :   1.0914 B( 22-C , 23-C ) :   1.5346 B( 22-C , 79-H ) :   1.0022
B( 23-C , 24-C ) :   1.2195 B( 23-C , 80-H ) :   0.9949 B( 24-C , 25-S ) :   1.0412
B( 24-C , 26-C ) :   1.4674 B( 26-C , 27-C ) :   1.1876 B( 26-C , 30-S ) :   1.0793
B( 27-C , 28-C ) :   1.5891 B( 27-C , 81-H ) :   0.9935 B( 28-C , 29-C ) :   1.1355
B( 28-C , 82-H ) :   1.0001 B( 29-C , 30-S ) :   1.0178 B( 29-C , 31-C ) :   1.5779
B( 31-C , 32-C ) :   1.1189 B( 31-C , 83-H ) :   0.9722 B( 32-C , 33-C ) :   1.2524
B( 32-C , 37-C ) :   1.3072 B( 33-C , 34-C ) :   1.3964 B( 33-C , 84-H ) :   1.0110
B( 34-C , 35-C ) :   1.3619 B( 34-C , 40-C ) :   0.9231 B( 35-C , 36-C ) :   1.3210
B( 35-C , 38-C ) :   1.0096 B( 36-C , 37-C ) :   1.4273 B( 36-C , 85-H ) :   0.9923
B( 37-C , 86-H ) :   0.9719 B( 38-C , 39-C ) :   1.3811 B( 38-C , 48-C ) :   1.3215
B( 39-C , 40-C ) :   0.9183 B( 39-C , 45-C ) :   1.3814 B( 40-C , 41-C ) :   1.0330
B( 40-C , 43-C ) :   1.0139 B( 41-C , 42-C ) :   1.1051 B( 41-C , 87-H ) :   0.9378
B( 41-C , 88-H ) :   0.9390 B( 42-C , 89-H ) :   0.9645 B( 42-C , 90-H ) :   0.9648
B( 42-C , 91-H ) :   0.9634 B( 43-C , 44-C ) :   1.1146 B( 43-C , 92-H ) :   0.9388
B( 43-C , 93-H ) :   0.9362 B( 44-C , 94-H ) :   0.9608 B( 44-C , 95-H ) :   0.9595
B( 44-C , 96-H ) :   0.9632 B( 45-C , 46-C ) :   1.2861 B( 45-C , 97-H ) :   1.0072
B( 46-C , 47-C ) :   1.3423 B( 46-C , 49-C ) :   1.0728 B( 47-C , 48-C ) :   1.4009
B( 47-C , 98-H ) :   0.9865 B( 48-C , 99-H ) :   0.9905 B( 49-C , 50-C ) :   1.6792
B( 49-C ,100-H ) :   0.9808 B( 50-C , 51-C ) :   1.1507 B( 50-C ,101-H ) :   0.9710
B( 51-C , 52-S ) :   1.1122 B( 51-C , 55-C ) :   1.5195 B( 52-S , 53-C ) :   1.1661
B( 53-C , 54-C ) :   1.5745 B( 53-C ,102-H ) :   0.9689 B( 54-C , 55-C ) :   1.2273
B( 54-C ,103-H ) :   0.9954 B( 55-C , 56-O ) :   1.0026 B( 56-O , 57-C ) :   1.2558
B( 57-C , 58-C ) :   1.2382 B( 57-C , 68-C ) :   0.1422 B( 57-C , 70-C ) :   1.2522
B( 58-C , 59-C ) :   1.1279 B( 58-C , 63-N ) :   1.3943 B( 59-C , 60-N ) :   1.3281
B( 59-C , 68-C ) :   1.3009 B( 60-N , 61-C ) :   1.8018 B( 61-C , 62-C ) :   1.1703
B( 61-C , 66-C ) :   1.1533 B( 62-C , 63-N ) :   1.7508 B( 62-C , 64-C ) :   1.1571
B( 64-C , 65-N ) :   3.0496 B( 66-C , 67-N ) :   3.0488 B( 68-C , 69-C ) :   1.1430
B( 68-C ,104-H ) :   1.0815 B( 69-C , 70-C ) :   1.1722 B( 69-C , 73-N ) :   1.4670
B( 70-C , 71-N ) :   1.4841 B( 71-N , 72-S ) :   1.3136 B( 71-N , 73-N ) :   0.1601
B( 72-S , 73-N ) :   1.3047

-----------------------------------------------------------------------------
         ABSORPTION SPECTRUM VIA TRANSITION ELECTRIC DIPOLE MOMENTS
-----------------------------------------------------------------------------
State   Energy  Wavelength   fosc         T2         TX        TY        TZ
        (cm-1)    (nm)                  (au**2)     (au)      (au)      (au)
-----------------------------------------------------------------------------
   0   11911.5    839.5   1.279176947  35.35408   4.85168   3.43428  -0.14513
   1   12979.3    770.5   0.119708963   3.03635   0.15664   1.63353  -0.58599
   2   17683.8    565.5   0.013498616   0.25130  -0.14221   0.34290  -0.33689
   3   20424.0    489.6   0.035531289   0.57272  -0.45949   0.44174  -0.40799
   4   21447.0    466.3   0.514303553   7.89459   1.76374  -2.14270  -0.43895
   5   21863.5    457.4   0.575910612   8.67183  -2.56992   1.35925   0.46883
   6   23571.4    424.2   0.055820760   0.77962  -0.34284   0.48684  -0.65198
   7   24676.2    405.2   0.300127468   4.00408   1.50091  -1.24794  -0.44045
   8   25209.5    396.7   0.256583157   3.35073   1.66292   0.76343  -0.05094
   9   26971.9    370.8   0.018318993   0.22360  -0.27440   0.32744   0.20269
  10   27267.1    366.7   0.001879223   0.02269  -0.07624   0.12749   0.02497
  11   27420.0    364.7   0.016641082   0.19980   0.35699  -0.23300  -0.13442
  12   27798.4    359.7   0.398365364   4.71778   1.26684  -1.71837  -0.40016
  13   28905.2    346.0   0.005342464   0.06085   0.23532  -0.07256  -0.01445
  14   29185.8    342.6   0.048516515   0.54726  -0.63881   0.36751  -0.06421
  15   30065.4    332.6   0.135820964   1.48722  -0.92900   0.67391   0.41233
  16   30379.4    329.2   0.022454207   0.24333   0.12648   0.37550   0.29382
  17   30428.4    328.6   0.047811977   0.51729  -0.52549  -0.46248  -0.16510
  18   30724.6    325.5   0.150715547   1.61490  -0.80235   0.96784   0.18555
  19   30795.6    324.7   0.032586622   0.34836   0.45828   0.33657   0.15831
  20   31774.1    314.7   0.031028206   0.32148   0.27732   0.49199   0.05021
  21   31845.4    314.0   0.210738694   2.17857   1.19145  -0.83436  -0.25074
  22   32298.9    309.6   0.054508743   0.55559   0.44457   0.53971   0.25819
  23   32398.2    308.7   0.310908751   3.15928   1.50021   0.95223   0.04344
  24   32429.2    308.4   0.392616521   3.98573   1.67097   1.09201   0.03319
  25   32575.0    307.0   0.020220858   0.20436  -0.28525  -0.34872   0.03718
  26   32789.2    305.0   0.000098856   0.00099   0.01389   0.01504   0.02394
  27   32938.7    303.6   0.024960830   0.24948   0.35397   0.33856  -0.09778
  28   33629.5    297.4   0.005781464   0.05660  -0.21425  -0.01836   0.10177
  29   33970.1    294.4   0.040496952   0.39246   0.60547  -0.14990   0.05835
  30   34026.3    293.9   0.024132749   0.23349  -0.00529   0.46722  -0.12315
  31   34615.6    288.9   0.113580440   1.08021   0.77420  -0.65813  -0.21837
  32   34739.1    287.9   0.056056378   0.53123  -0.72453  -0.07348   0.02977
  33   35037.1    285.4   0.056819654   0.53388   0.66831   0.29349   0.03320
  34   35415.0    282.4   0.001069946   0.00995   0.09846  -0.00713   0.01415
  35   35468.6    281.9   0.012095536   0.11227  -0.28853  -0.16939   0.01799
  36   35806.7    279.3   0.042855299   0.39402   0.40975  -0.46363   0.10571
  37   35905.3    278.5   0.295981485   2.71382   0.77837   1.42534   0.27633
  38   36242.7    275.9   0.063547894   0.57724   0.30981   0.39084   0.57315
  39   36279.3    275.6   0.102305216   0.92836   0.95324  -0.10397  -0.09427
  40   36911.0    270.9   0.000096913   0.00086   0.01680  -0.01896  -0.01493
  41   37413.8    267.3   0.016617995   0.14623   0.36853   0.08791   0.05181
  42   37919.8    263.7   0.135153765   1.17338   0.99290  -0.37374  -0.21877
  43   37996.6    263.2   0.006416357   0.05559  -0.19901   0.12198   0.03333
  44   38301.7    261.1   0.010521225   0.09043   0.20462  -0.17152   0.13836
  45   38811.8    257.7   0.033204426   0.28165  -0.12603  -0.47502   0.20031
  46   38845.3    257.4   0.000736802   0.00624  -0.00140   0.07896  -0.00272
  47   38942.3    256.8   0.087103080   0.73636   0.49708  -0.66080  -0.22937
  48   39431.2    253.6   1.354620371  11.30976   1.63233   2.60328   1.36683
  49   39482.4    253.3   0.262971488   2.19271   1.35392   0.57573   0.16774
  50   39530.8    253.0   0.057866054   0.48191  -0.05739  -0.61273  -0.32121
  51   39932.4    250.4   0.107672910   0.88768   0.45520   0.82389   0.04101
  52   40076.3    249.5   0.131989825   1.08425   0.25638   1.00891   0.02490

FINAL SINGLE POINT ENERGY     -7377.904490496860

DIPOLE MOMENT
-------------
                                X             Y             Z
Electronic contribution:   -148.58446    -176.70978       9.39247
Nuclear contribution   :    148.61020     178.99787     -10.41612
                        -----------------------------------------
Total Dipole Moment    :      0.02574       2.28809      -1.02365
                        -----------------------------------------
Magnitude (a.u.)       :      2.50676
Magnitude (Debye)      :      6.37168

Rotational constants in cm-1:     0.000773     0.000185     0.000154
Rotational constants in MHz :    23.187661     5.553134     4.620714

                             ****ORCA TERMINATED NORMALLY****
TOTAL RUN TIME: 0 days 0 hours 12 minutes 24 seconds 554 msec
