                         Program Version 4.2.0 -  RELEASE  -
|  1> # ORCA input file
|  2> # SCF done       -181.863594358048          0.000485215644
|  3> ! CAM-B3LYP def2-SVP def2/J RIJCOSX Grid4 TightSCF
|  4> %maxcore 5000
|  5> %tddft
|  6>     Mode sTDDFT
|  7>     Ethresh 5.0
|  8>     maxcore 5000
|  9> end
| 10>
| 11> %pal
| 12>   nprocs 6
| 13>   end
| 14> * xyz 0 1
| 15>    C       -3.82627        -2.02111        -0.83517
| 16>    C       -2.65046        -2.19720        -0.15610
| 17>    C       -1.86689        -3.36849        -0.22545
| 18>    N       -1.18997        -4.29497        -0.24849
| 19>    C       -2.08156        -1.25598         0.72873
| 20>    N       -1.56826        -0.54818         1.47298
| 21>    C       -4.48148        -3.01024        -1.67814
| 22>    C       -5.75241        -2.51328        -2.05664
| 23>    C       -6.61570        -3.22063        -2.85811
| 24>    C       -6.20471        -4.47899        -3.30862
| 25>    C       -4.93036        -4.96625        -2.92883
| 26>    C       -4.05825        -4.25166        -2.11797
| 27>    S       -4.61979        -6.53668        -3.60441
| 28>    C       -6.18383        -6.51880        -4.37524
| 29>    C       -6.90361        -5.39577        -4.14033
| 30>   Br       -6.71732        -7.98245        -5.41912
| 31>    C       -5.95950        -1.17172        -1.47477
| 32>    O       -6.93942        -0.47633        -1.61903
| 33>    C       -4.68820        -0.84931        -0.76858
| 34>    C       -4.30532         0.38551        -0.35359
| 35>    C       -5.13292         1.55446        -0.20786
| 36>    C       -4.57607         2.80783        -0.51683
| 37>    C       -5.35266         3.93322        -0.41363
| 38>    C       -6.67906         3.84379         0.05003
| 39>    C       -7.21788         2.61703         0.41320
| 40>    C       -6.44700         1.48157         0.27336
| 41>    C       -7.25259         5.17060         0.05499
| 42>    C       -6.28803         6.07835        -0.41917
| 43>    C       -4.99628         5.36429        -0.74028
| 44>    C       -3.84261         5.87307         0.14525
| 45>    C       -4.13935         5.74978         1.63492
| 46>    C       -4.61705         5.52113        -2.22474
| 47>    C       -5.71271         5.04230        -3.16972
| 48>    C       -6.58885         7.41118        -0.54219
| 49>    C       -7.86522         7.87709        -0.18022
| 50>    C       -8.80965         6.95915         0.30580
| 51>    C       -8.51569         5.61727         0.42193
| 52>    C       -8.15373         9.27637        -0.34896
| 53>    C       -9.26026         9.93542         0.06056
| 54>    C       -9.49169        11.31568        -0.17738
| 55>    S       -8.40308        12.30166        -1.11486
| 56>    C       -9.43738        13.68407        -0.93381
| 57>    C      -10.55143        13.38612        -0.14850
| 58>    C      -10.57994        12.05385         0.25784
| 59>    C      -11.51733        14.39685         0.34743
| 60>    O      -12.69233        14.20307         0.54784
| 61>    C       -9.18971        14.88618        -1.63626
| 62>    C      -10.19823        15.85997        -1.82507
| 63>    C       -9.97644        17.06686        -2.59202
| 64>    N      -10.98165        17.95193        -2.70396
| 65>    C      -12.15083        17.69133        -2.18335
| 66>    C      -12.40341        16.45930        -1.49241
| 67>    N      -11.41478        15.61639        -1.31857
| 68>    C      -13.71514        16.18321        -1.03510
| 69>    N      -14.82201        16.08371        -0.75613
| 70>    C      -13.18155        18.65659        -2.32660
| 71>    N      -14.01068        19.43754        -2.44090
| 72>    C       -8.73633        17.33947        -3.21205
| 73>    C       -7.74400        16.34922        -3.04304
| 74>    C       -7.96340        15.14852        -2.27992
| 75>    N       -6.88989        14.35971        -2.26790
| 76>    S       -5.72239        15.05157        -3.12390
| 77>    N       -6.51108        16.38052        -3.55266
| 78>    C       -8.46251        18.51892        -3.97627
| 79>    S       -6.88736        18.73572        -4.71439
| 80>    C       -7.35673        20.22749        -5.37676
| 81>    C       -8.65430        20.56878        -5.06208
| 82>    C       -9.27835        19.58811        -4.26166
| 83>    C       -9.30024        21.79911        -5.50946
| 84>    O       -8.78439        22.64546        -6.19455
| 85>    H       -7.57783        -2.81463        -3.12864
| 86>    H       -3.09561        -4.66155        -1.86166
| 87>    H       -7.88638        -5.21894        -4.53762
| 88>    H       -3.25216         0.54642        -0.15159
| 89>    H       -3.55534         2.86315        -0.86727
| 90>    H       -8.22533         2.54794         0.79358
| 91>    H       -6.84702         0.52596         0.56970
| 92>    H       -3.65002         6.91939        -0.10073
| 93>    H       -2.94248         5.30292        -0.09280
| 94>    H       -5.02058         6.32902         1.90217
| 95>    H       -3.29663         6.11911         2.21426
| 96>    H       -4.31479         4.71178         1.90846
| 97>    H       -3.70268         4.95467        -2.41274
| 98>    H       -4.40278         6.57368        -2.42125
| 99>    H       -5.93187         3.98959        -3.00529
|100>    H       -5.39670         5.17011        -4.20241
|101>    H       -6.62797         5.61019        -3.01764
|102>    H       -5.85621         8.11334        -0.91373
|103>    H       -9.79379         7.30572         0.57915
|104>    H       -9.25848         4.92452         0.78738
|105>    H       -7.38958         9.85193        -0.85924
|106>    H      -10.04301         9.42751         0.60626
|107>    H      -11.37258        11.64604         0.85919
|108>    H      -10.98293        15.24571         0.84057
|109>    H       -6.67674        20.80490        -5.97225
|110>    H      -10.28918        19.66322        -3.90804
|111>    H      -10.34470        21.89985        -5.15675
|112> *
|113>
|114>                          ****END OF INPUT****

CARTESIAN COORDINATES (ANGSTROEM)
---------------------------------
  C     -3.826270   -2.021110   -0.835170
  C     -2.650460   -2.197200   -0.156100
  C     -1.866890   -3.368490   -0.225450
  N     -1.189970   -4.294970   -0.248490
  C     -2.081560   -1.255980    0.728730
  N     -1.568260   -0.548180    1.472980
  C     -4.481480   -3.010240   -1.678140
  C     -5.752410   -2.513280   -2.056640
  C     -6.615700   -3.220630   -2.858110
  C     -6.204710   -4.478990   -3.308620
  C     -4.930360   -4.966250   -2.928830
  C     -4.058250   -4.251660   -2.117970
  S     -4.619790   -6.536680   -3.604410
  C     -6.183830   -6.518800   -4.375240
  C     -6.903610   -5.395770   -4.140330
  Br    -6.717320   -7.982450   -5.419120
  C     -5.959500   -1.171720   -1.474770
  O     -6.939420   -0.476330   -1.619030
  C     -4.688200   -0.849310   -0.768580
  C     -4.305320    0.385510   -0.353590
  C     -5.132920    1.554460   -0.207860
  C     -4.576070    2.807830   -0.516830
  C     -5.352660    3.933220   -0.413630
  C     -6.679060    3.843790    0.050030
  C     -7.217880    2.617030    0.413200
  C     -6.447000    1.481570    0.273360
  C     -7.252590    5.170600    0.054990
  C     -6.288030    6.078350   -0.419170
  C     -4.996280    5.364290   -0.740280
  C     -3.842610    5.873070    0.145250
  C     -4.139350    5.749780    1.634920
  C     -4.617050    5.521130   -2.224740
  C     -5.712710    5.042300   -3.169720
  C     -6.588850    7.411180   -0.542190
  C     -7.865220    7.877090   -0.180220
  C     -8.809650    6.959150    0.305800
  C     -8.515690    5.617270    0.421930
  C     -8.153730    9.276370   -0.348960
  C     -9.260260    9.935420    0.060560
  C     -9.491690   11.315680   -0.177380
  S     -8.403080   12.301660   -1.114860
  C     -9.437380   13.684070   -0.933810
  C    -10.551430   13.386120   -0.148500
  C    -10.579940   12.053850    0.257840
  C    -11.517330   14.396850    0.347430
  O    -12.692330   14.203070    0.547840
  C     -9.189710   14.886180   -1.636260
  C    -10.198230   15.859970   -1.825070
  C     -9.976440   17.066860   -2.592020
  N    -10.981650   17.951930   -2.703960
  C    -12.150830   17.691330   -2.183350
  C    -12.403410   16.459300   -1.492410
  N    -11.414780   15.616390   -1.318570
  C    -13.715140   16.183210   -1.035100
  N    -14.822010   16.083710   -0.756130
  C    -13.181550   18.656590   -2.326600
  N    -14.010680   19.437540   -2.440900
  C     -8.736330   17.339470   -3.212050
  C     -7.744000   16.349220   -3.043040
  C     -7.963400   15.148520   -2.279920
  N     -6.889890   14.359710   -2.267900
  S     -5.722390   15.051570   -3.123900
  N     -6.511080   16.380520   -3.552660
  C     -8.462510   18.518920   -3.976270
  S     -6.887360   18.735720   -4.714390
  C     -7.356730   20.227490   -5.376760
  C     -8.654300   20.568780   -5.062080
  C     -9.278350   19.588110   -4.261660
  C     -9.300240   21.799110   -5.509460
  O     -8.784390   22.645460   -6.194550
  H     -7.577830   -2.814630   -3.128640
  H     -3.095610   -4.661550   -1.861660
  H     -7.886380   -5.218940   -4.537620
  H     -3.252160    0.546420   -0.151590
  H     -3.555340    2.863150   -0.867270
  H     -8.225330    2.547940    0.793580
  H     -6.847020    0.525960    0.569700
  H     -3.650020    6.919390   -0.100730
  H     -2.942480    5.302920   -0.092800
  H     -5.020580    6.329020    1.902170
  H     -3.296630    6.119110    2.214260
  H     -4.314790    4.711780    1.908460
  H     -3.702680    4.954670   -2.412740
  H     -4.402780    6.573680   -2.421250
  H     -5.931870    3.989590   -3.005290
  H     -5.396700    5.170110   -4.202410
  H     -6.627970    5.610190   -3.017640
  H     -5.856210    8.113340   -0.913730
  H     -9.793790    7.305720    0.579150
  H     -9.258480    4.924520    0.787380
  H     -7.389580    9.851930   -0.859240
  H    -10.043010    9.427510    0.606260
  H    -11.372580   11.646040    0.859190
  H    -10.982930   15.245710    0.840570
  H     -6.676740   20.804900   -5.972250
  H    -10.289180   19.663220   -3.908040
  H    -10.344700   21.899850   -5.156750

 Total Charge           Charge          ....    0
 Multiplicity           Mult            ....    1
 Number of Electrons    NEL             ....  530
 Basis Dimension        Dim             .... 1149

ORBITAL ENERGIES
----------------

  NO   OCC          E(Eh)            E(eV)
   0   2.0000    -482.889207    -13140.0834
   1   2.0000     -89.061691     -2423.4918
   2   2.0000     -88.979487     -2421.2549
   3   2.0000     -88.972207     -2421.0568
   4   2.0000     -88.971085     -2421.0263
   5   2.0000     -62.566931     -1702.5327
   6   2.0000     -56.400888     -1534.7462
   7   2.0000     -56.398159     -1534.6719
   8   2.0000     -56.398129     -1534.6711
   9   2.0000     -19.220353      -523.0124
  10   2.0000     -19.206783      -522.6431
  11   2.0000     -19.185535      -522.0649
  12   2.0000     -14.485911      -394.1817
  13   2.0000     -14.472203      -393.8087
  14   2.0000     -14.471511      -393.7898
  15   2.0000     -14.468663      -393.7123
  16   2.0000     -14.436444      -392.8356
  17   2.0000     -14.426776      -392.5725
  18   2.0000     -14.419084      -392.3632
  19   2.0000     -14.418490      -392.3470
  20   2.0000     -10.394004      -282.8352
  21   2.0000     -10.393740      -282.8280
  22   2.0000     -10.372821      -282.2588
  23   2.0000     -10.365292      -282.0539
  24   2.0000     -10.363099      -281.9943
  25   2.0000     -10.363081      -281.9938
  26   2.0000     -10.361546      -281.9520
  27   2.0000     -10.357891      -281.8525
  28   2.0000     -10.357032      -281.8292
  29   2.0000     -10.352927      -281.7175
  30   2.0000     -10.346618      -281.5458
  31   2.0000     -10.344900      -281.4990
  32   2.0000     -10.336388      -281.2674
  33   2.0000     -10.331923      -281.1459
  34   2.0000     -10.330098      -281.0963
  35   2.0000     -10.329352      -281.0760
  36   2.0000     -10.326093      -280.9873
  37   2.0000     -10.321954      -280.8746
  38   2.0000     -10.321730      -280.8685
  39   2.0000     -10.321312      -280.8572
  40   2.0000     -10.320688      -280.8402
  41   2.0000     -10.319818      -280.8165
  42   2.0000     -10.319195      -280.7996
  43   2.0000     -10.312532      -280.6183
  44   2.0000     -10.312217      -280.6097
  45   2.0000     -10.310118      -280.5526
  46   2.0000     -10.309052      -280.5236
  47   2.0000     -10.305330      -280.4223
  48   2.0000     -10.302272      -280.3391
  49   2.0000     -10.300670      -280.2955
  50   2.0000     -10.296810      -280.1904
  51   2.0000     -10.296756      -280.1890
  52   2.0000     -10.295609      -280.1578
  53   2.0000     -10.294936      -280.1395
  54   2.0000     -10.293619      -280.1036
  55   2.0000     -10.292765      -280.0804
  56   2.0000     -10.288768      -279.9716
  57   2.0000     -10.288391      -279.9614
  58   2.0000     -10.287692      -279.9423
  59   2.0000     -10.287293      -279.9315
  60   2.0000     -10.287077      -279.9256
  61   2.0000     -10.285327      -279.8780
  62   2.0000     -10.284591      -279.8580
  63   2.0000     -10.284137      -279.8456
  64   2.0000     -10.283979      -279.8413
  65   2.0000     -10.283520      -279.8288
  66   2.0000     -10.281246      -279.7669
  67   2.0000     -10.280889      -279.7572
  68   2.0000     -10.280405      -279.7441
  69   2.0000     -10.279943      -279.7315
  70   2.0000     -10.272471      -279.5282
  71   2.0000     -10.271866      -279.5117
  72   2.0000     -10.254316      -279.0341
  73   2.0000     -10.253385      -279.0088
  74   2.0000      -8.796365      -239.3613
  75   2.0000      -8.152712      -221.8466
  76   2.0000      -8.075556      -219.7470
  77   2.0000      -8.066788      -219.5085
  78   2.0000      -8.065829      -219.4824
  79   2.0000      -6.632705      -180.4851
  80   2.0000      -6.618081      -180.0871
  81   2.0000      -6.617873      -180.0815
  82   2.0000      -6.123764      -166.6361
  83   2.0000      -6.116009      -166.4251
  84   2.0000      -6.115532      -166.4121
  85   2.0000      -6.045219      -164.4988
  86   2.0000      -6.040978      -164.3834
  87   2.0000      -6.036769      -164.2688
  88   2.0000      -6.036111      -164.2509
  89   2.0000      -6.035059      -164.2223
  90   2.0000      -6.031933      -164.1373
  91   2.0000      -6.030408      -164.0958
  92   2.0000      -6.028897      -164.0546
  93   2.0000      -6.028525      -164.0445
  94   2.0000      -2.748542       -74.7916
  95   2.0000      -2.744482       -74.6811
  96   2.0000      -2.744320       -74.6767
  97   2.0000      -2.732699       -74.3605
  98   2.0000      -2.732691       -74.3603
  99   2.0000      -1.159243       -31.5446
 100   2.0000      -1.138084       -30.9688
 101   2.0000      -1.136463       -30.9247
 102   2.0000      -1.119860       -30.4729
 103   2.0000      -1.109557       -30.1926
 104   2.0000      -1.062461       -28.9110
 105   2.0000      -1.027040       -27.9472
 106   2.0000      -1.020954       -27.7816
 107   2.0000      -1.019967       -27.7547
 108   2.0000      -1.017079       -27.6761
 109   2.0000      -1.008613       -27.4457
 110   2.0000      -1.002749       -27.2862
 111   2.0000      -1.000753       -27.2319
 112   2.0000      -0.997447       -27.1419
 113   2.0000      -0.993556       -27.0360
 114   2.0000      -0.993344       -27.0303
 115   2.0000      -0.979829       -26.6625
 116   2.0000      -0.961908       -26.1749
 117   2.0000      -0.947113       -25.7723
 118   2.0000      -0.934500       -25.4290
 119   2.0000      -0.921680       -25.0802
 120   2.0000      -0.918618       -24.9969
 121   2.0000      -0.912409       -24.8279
 122   2.0000      -0.904773       -24.6201
 123   2.0000      -0.899111       -24.4661
 124   2.0000      -0.890235       -24.2245
 125   2.0000      -0.881370       -23.9833
 126   2.0000      -0.863251       -23.4903
 127   2.0000      -0.857793       -23.3417
 128   2.0000      -0.854590       -23.2546
 129   2.0000      -0.850022       -23.1303
 130   2.0000      -0.845957       -23.0197
 131   2.0000      -0.845432       -23.0054
 132   2.0000      -0.843061       -22.9409
 133   2.0000      -0.836100       -22.7514
 134   2.0000      -0.833135       -22.6708
 135   2.0000      -0.825947       -22.4752
 136   2.0000      -0.809652       -22.0318
 137   2.0000      -0.798852       -21.7379
 138   2.0000      -0.774895       -21.0860
 139   2.0000      -0.770709       -20.9721
 140   2.0000      -0.763122       -20.7656
 141   2.0000      -0.759270       -20.6608
 142   2.0000      -0.744500       -20.2589
 143   2.0000      -0.739407       -20.1203
 144   2.0000      -0.731187       -19.8966
 145   2.0000      -0.721271       -19.6268
 146   2.0000      -0.716846       -19.5064
 147   2.0000      -0.714342       -19.4382
 148   2.0000      -0.708440       -19.2776
 149   2.0000      -0.695745       -18.9322
 150   2.0000      -0.695029       -18.9127
 151   2.0000      -0.690283       -18.7835
 152   2.0000      -0.682531       -18.5726
 153   2.0000      -0.681933       -18.5563
 154   2.0000      -0.675637       -18.3850
 155   2.0000      -0.671046       -18.2601
 156   2.0000      -0.668047       -18.1785
 157   2.0000      -0.661778       -18.0079
 158   2.0000      -0.655399       -17.8343
 159   2.0000      -0.645676       -17.5697
 160   2.0000      -0.639894       -17.4124
 161   2.0000      -0.635164       -17.2837
 162   2.0000      -0.629625       -17.1330
 163   2.0000      -0.627459       -17.0740
 164   2.0000      -0.619691       -16.8626
 165   2.0000      -0.612134       -16.6570
 166   2.0000      -0.607017       -16.5178
 167   2.0000      -0.604410       -16.4468
 168   2.0000      -0.601031       -16.3549
 169   2.0000      -0.597493       -16.2586
 170   2.0000      -0.592042       -16.1103
 171   2.0000      -0.587439       -15.9850
 172   2.0000      -0.581625       -15.8268
 173   2.0000      -0.572216       -15.5708
 174   2.0000      -0.570741       -15.5307
 175   2.0000      -0.563021       -15.3206
 176   2.0000      -0.553303       -15.0561
 177   2.0000      -0.552790       -15.0422
 178   2.0000      -0.552161       -15.0251
 179   2.0000      -0.550216       -14.9721
 180   2.0000      -0.546010       -14.8577
 181   2.0000      -0.542158       -14.7529
 182   2.0000      -0.541351       -14.7309
 183   2.0000      -0.539131       -14.6705
 184   2.0000      -0.533321       -14.5124
 185   2.0000      -0.529908       -14.4195
 186   2.0000      -0.528602       -14.3840
 187   2.0000      -0.526469       -14.3259
 188   2.0000      -0.524191       -14.2640
 189   2.0000      -0.520772       -14.1709
 190   2.0000      -0.518749       -14.1159
 191   2.0000      -0.513575       -13.9751
 192   2.0000      -0.511367       -13.9150
 193   2.0000      -0.509931       -13.8759
 194   2.0000      -0.508205       -13.8290
 195   2.0000      -0.504309       -13.7229
 196   2.0000      -0.502436       -13.6720
 197   2.0000      -0.499730       -13.5984
 198   2.0000      -0.498956       -13.5773
 199   2.0000      -0.497250       -13.5309
 200   2.0000      -0.495133       -13.4733
 201   2.0000      -0.491838       -13.3836
 202   2.0000      -0.489995       -13.3334
 203   2.0000      -0.488041       -13.2803
 204   2.0000      -0.484410       -13.1815
 205   2.0000      -0.481056       -13.0902
 206   2.0000      -0.479810       -13.0563
 207   2.0000      -0.478785       -13.0284
 208   2.0000      -0.478048       -13.0083
 209   2.0000      -0.476789       -12.9741
 210   2.0000      -0.472410       -12.8549
 211   2.0000      -0.470846       -12.8124
 212   2.0000      -0.463540       -12.6136
 213   2.0000      -0.462586       -12.5876
 214   2.0000      -0.460991       -12.5442
 215   2.0000      -0.458645       -12.4804
 216   2.0000      -0.456574       -12.4240
 217   2.0000      -0.454781       -12.3752
 218   2.0000      -0.452214       -12.3054
 219   2.0000      -0.451092       -12.2748
 220   2.0000      -0.450890       -12.2693
 221   2.0000      -0.450126       -12.2485
 222   2.0000      -0.447657       -12.1814
 223   2.0000      -0.446782       -12.1575
 224   2.0000      -0.445075       -12.1111
 225   2.0000      -0.443247       -12.0614
 226   2.0000      -0.442935       -12.0529
 227   2.0000      -0.435848       -11.8600
 228   2.0000      -0.432947       -11.7811
 229   2.0000      -0.431548       -11.7430
 230   2.0000      -0.430514       -11.7149
 231   2.0000      -0.427569       -11.6348
 232   2.0000      -0.426102       -11.5948
 233   2.0000      -0.425909       -11.5896
 234   2.0000      -0.423183       -11.5154
 235   2.0000      -0.420734       -11.4488
 236   2.0000      -0.415454       -11.3051
 237   2.0000      -0.412802       -11.2329
 238   2.0000      -0.409904       -11.1541
 239   2.0000      -0.408719       -11.1218
 240   2.0000      -0.400403       -10.8955
 241   2.0000      -0.399334       -10.8664
 242   2.0000      -0.398503       -10.8438
 243   2.0000      -0.393370       -10.7041
 244   2.0000      -0.392385       -10.6773
 245   2.0000      -0.383671       -10.4402
 246   2.0000      -0.381666       -10.3857
 247   2.0000      -0.378546       -10.3008
 248   2.0000      -0.369770       -10.0620
 249   2.0000      -0.361583        -9.8392
 250   2.0000      -0.356982        -9.7140
 251   2.0000      -0.354588        -9.6488
 252   2.0000      -0.347103        -9.4452
 253   2.0000      -0.337796        -9.1919
 254   2.0000      -0.335781        -9.1371
 255   2.0000      -0.331858        -9.0303
 256   2.0000      -0.330646        -8.9973
 257   2.0000      -0.327223        -8.9042
 258   2.0000      -0.323544        -8.8041
 259   2.0000      -0.319657        -8.6983
 260   2.0000      -0.315741        -8.5917
 261   2.0000      -0.308655        -8.3989
 262   2.0000      -0.297623        -8.0987
 263   2.0000      -0.280535        -7.6337
 264   2.0000      -0.249093        -6.7782
 265   0.0000      -0.135593        -3.6897
 266   0.0000      -0.092274        -2.5109
 267   0.0000      -0.067185        -1.8282
 268   0.0000      -0.062072        -1.6891
 269   0.0000      -0.058463        -1.5908

MULLIKEN ATOMIC CHARGES
-----------------------
   0 C :    0.287349
   1 C :   -0.336219
   2 C :   -0.186170
   3 N :    0.153685
   4 C :   -0.202729
   5 N :    0.159366
   6 C :    0.016955
   7 C :   -0.019546
   8 C :   -0.068822
   9 C :    0.118183
  10 C :   -0.089304
  11 C :   -0.018511
  12 S :    0.188754
  13 C :   -0.123488
  14 C :    0.039985
  15 Br:    0.026490
  16 C :    0.139663
  17 O :   -0.138375
  18 C :   -0.079592
  19 C :   -0.030708
  20 C :    0.068842
  21 C :   -0.085276
  22 C :    0.008857
  23 C :    0.122411
  24 C :   -0.060585
  25 C :    0.078853
  26 C :    0.105089
  27 C :    0.018303
  28 C :   -0.141717
  29 C :    0.071399
  30 C :    0.024207
  31 C :    0.066677
  32 C :    0.025772
  33 C :   -0.104194
  34 C :    0.125005
  35 C :   -0.010178
  36 C :   -0.036490
  37 C :   -0.009745
  38 C :    0.033880
  39 C :   -0.008137
  40 S :    0.157483
  41 C :   -0.172688
  42 C :    0.026954
  43 C :   -0.036881
  44 C :    0.221291
  45 O :   -0.223153
  46 C :    0.140980
  47 C :   -0.014550
  48 C :   -0.085788
  49 N :    0.050564
  50 C :   -0.142152
  51 C :   -0.039308
  52 N :   -0.046287
  53 C :   -0.204619
  54 N :    0.235290
  55 C :   -0.225216
  56 N :    0.246999
  57 C :    0.222534
  58 C :   -0.019537
  59 C :   -0.029447
  60 N :   -0.292206
  61 S :    0.564850
  62 N :   -0.321357
  63 C :   -0.213469
  64 S :    0.179844
  65 C :   -0.058659
  66 C :    0.011981
  67 C :    0.016044
  68 C :    0.160623
  69 O :   -0.182343
  70 H :   -0.010373
  71 H :   -0.005047
  72 H :   -0.003237
  73 H :    0.033132
  74 H :   -0.031436
  75 H :   -0.029517
  76 H :   -0.017029
  77 H :   -0.002584
  78 H :    0.000999
  79 H :    0.020844
  80 H :    0.013000
  81 H :    0.023823
  82 H :   -0.000827
  83 H :   -0.002704
  84 H :    0.025180
  85 H :    0.010496
  86 H :    0.020152
  87 H :   -0.039275
  88 H :   -0.025916
  89 H :   -0.029784
  90 H :   -0.010903
  91 H :   -0.006691
  92 H :   -0.003326
  93 H :   -0.014000
  94 H :    0.040477
  95 H :    0.004552
  96 H :   -0.017721
Sum of atomic charges:   -0.0000000

LOEWDIN ATOMIC CHARGES
----------------------
   0 C :    0.075571
   1 C :   -0.138250
   2 C :   -0.018563
   3 N :   -0.051160
   4 C :   -0.024755
   5 N :   -0.049285
   6 C :   -0.022224
   7 C :   -0.050909
   8 C :    0.022663
   9 C :   -0.031720
  10 C :   -0.143225
  11 C :   -0.008942
  12 S :    0.433863
  13 C :   -0.270442
  14 C :   -0.070201
  15 Br:    0.139041
  16 C :    0.082189
  17 O :   -0.132286
  18 C :   -0.094135
  19 C :    0.083201
  20 C :   -0.040639
  21 C :   -0.002044
  22 C :   -0.001443
  23 C :    0.002133
  24 C :   -0.019106
  25 C :    0.026577
  26 C :   -0.015535
  27 C :    0.007386
  28 C :   -0.035917
  29 C :   -0.010889
  30 C :   -0.057123
  31 C :   -0.011879
  32 C :   -0.057422
  33 C :   -0.017175
  34 C :   -0.023703
  35 C :   -0.009420
  36 C :   -0.010160
  37 C :   -0.005518
  38 C :   -0.039005
  39 C :   -0.145198
  40 S :    0.471390
  41 C :   -0.169974
  42 C :   -0.068411
  43 C :   -0.037381
  44 C :    0.102999
  45 O :   -0.189375
  46 C :   -0.035396
  47 C :    0.002297
  48 C :   -0.006764
  49 N :    0.009745
  50 C :   -0.016786
  51 C :   -0.006061
  52 N :    0.042105
  53 C :   -0.043025
  54 N :    0.012893
  55 C :   -0.037938
  56 N :    0.003068
  57 C :   -0.036004
  58 C :   -0.045007
  59 C :   -0.048522
  60 N :   -0.286573
  61 S :    0.688511
  62 N :   -0.296842
  63 C :   -0.177955
  64 S :    0.499584
  65 C :   -0.133897
  66 C :   -0.133406
  67 C :   -0.019922
  68 C :    0.107544
  69 O :   -0.137722
  70 H :    0.041080
  71 H :    0.041314
  72 H :    0.039140
  73 H :    0.045692
  74 H :    0.028066
  75 H :    0.029913
  76 H :    0.031293
  77 H :    0.019850
  78 H :    0.021239
  79 H :    0.025002
  80 H :    0.026094
  81 H :    0.026209
  82 H :    0.020592
  83 H :    0.019612
  84 H :    0.026752
  85 H :    0.024899
  86 H :    0.025092
  87 H :    0.024863
  88 H :    0.027224
  89 H :    0.029983
  90 H :    0.022471
  91 H :    0.035063
  92 H :    0.038770
  93 H :   -0.008225
  94 H :    0.033294
  95 H :    0.030691
  96 H :   -0.003496

  Mayer bond orders larger than 0.100000
B(  0-C ,  1-C ) :   1.6532 B(  0-C ,  6-C ) :   1.0107 B(  0-C , 18-C ) :   1.0449
B(  1-C ,  2-C ) :   1.1367 B(  1-C ,  4-C ) :   1.1391 B(  2-C ,  3-N ) :   2.9763
B(  4-C ,  5-N ) :   2.9948 B(  6-C ,  7-C ) :   1.2716 B(  6-C , 11-C ) :   1.4042
B(  7-C ,  8-C ) :   1.4214 B(  7-C , 16-C ) :   0.9451 B(  8-C ,  9-C ) :   1.2476
B(  8-C , 70-H ) :   1.0172 B(  9-C , 10-C ) :   1.3030 B(  9-C , 14-C ) :   1.1631
B( 10-C , 11-C ) :   1.3328 B( 10-C , 12-S ) :   1.0867 B( 11-C , 71-H ) :   0.9811
B( 12-S , 13-C ) :   1.0873 B( 13-C , 14-C ) :   1.6173 B( 13-C , 15-Br) :   1.0201
B( 14-C , 72-H ) :   1.0003 B( 16-C , 17-O ) :   2.2337 B( 16-C , 18-C ) :   0.9312
B( 18-C , 19-C ) :   1.6470 B( 19-C , 20-C ) :   1.0736 B( 19-C , 73-H ) :   0.9524
B( 20-C , 21-C ) :   1.2651 B( 20-C , 25-C ) :   1.3531 B( 21-C , 22-C ) :   1.3999
B( 21-C , 74-H ) :   1.0113 B( 22-C , 23-C ) :   1.3516 B( 22-C , 28-C ) :   0.9152
B( 23-C , 24-C ) :   1.3307 B( 23-C , 26-C ) :   1.0054 B( 24-C , 25-C ) :   1.4011
B( 24-C , 75-H ) :   0.9929 B( 25-C , 76-H ) :   0.9767 B( 26-C , 27-C ) :   1.3673
B( 26-C , 36-C ) :   1.3229 B( 27-C , 28-C ) :   0.9147 B( 27-C , 33-C ) :   1.3808
B( 28-C , 29-C ) :   1.0380 B( 28-C , 31-C ) :   1.0382 B( 29-C , 30-C ) :   1.1001
B( 29-C , 77-H ) :   0.9390 B( 29-C , 78-H ) :   0.9391 B( 30-C , 79-H ) :   0.9647
B( 30-C , 80-H ) :   0.9639 B( 30-C , 81-H ) :   0.9646 B( 31-C , 32-C ) :   1.1017
B( 31-C , 82-H ) :   0.9392 B( 31-C , 83-H ) :   0.9390 B( 32-C , 84-H ) :   0.9645
B( 32-C , 85-H ) :   0.9639 B( 32-C , 86-H ) :   0.9638 B( 33-C , 34-C ) :   1.2804
B( 33-C , 87-H ) :   1.0128 B( 34-C , 35-C ) :   1.3387 B( 34-C , 37-C ) :   1.0850
B( 35-C , 36-C ) :   1.4083 B( 35-C , 88-H ) :   0.9832 B( 36-C , 89-H ) :   0.9894
B( 37-C , 38-C ) :   1.6460 B( 37-C , 90-H ) :   0.9789 B( 38-C , 39-C ) :   1.1661
B( 38-C , 91-H ) :   0.9740 B( 39-C , 40-S ) :   1.0998 B( 39-C , 43-C ) :   1.4042
B( 40-S , 41-C ) :   1.1225 B( 41-C , 42-C ) :   1.3839 B( 41-C , 46-C ) :   1.2255
B( 42-C , 43-C ) :   1.3200 B( 42-C , 44-C ) :   0.8994 B( 43-C , 92-H ) :   1.0127
B( 44-C , 45-O ) :   2.1514 B( 44-C , 52-N ) :   0.1575 B( 44-C , 93-H ) :   0.9169
B( 46-C , 47-C ) :   1.2623 B( 46-C , 57-C ) :   0.1202 B( 46-C , 59-C ) :   1.1895
B( 47-C , 48-C ) :   1.1047 B( 47-C , 52-N ) :   1.3651 B( 48-C , 49-N ) :   1.4258
B( 48-C , 57-C ) :   1.2837 B( 49-N , 50-C ) :   1.7461 B( 50-C , 51-C ) :   1.2108
B( 50-C , 55-C ) :   1.1565 B( 51-C , 52-N ) :   1.6226 B( 51-C , 53-C ) :   1.1375
B( 53-C , 54-N ) :   2.9935 B( 55-C , 56-N ) :   3.0578 B( 57-C , 58-C ) :   1.1878
B( 57-C , 63-C ) :   1.1657 B( 58-C , 59-C ) :   1.1181 B( 58-C , 62-N ) :   1.4704
B( 59-C , 60-N ) :   1.5104 B( 60-N , 61-S ) :   1.2844 B( 60-N , 62-N ) :   0.1521
B( 61-S , 62-N ) :   1.2810 B( 63-C , 64-S ) :   1.1253 B( 63-C , 67-C ) :   1.4909
B( 64-S , 65-C ) :   1.2119 B( 65-C , 66-C ) :   1.4759 B( 65-C , 94-H ) :   0.9674
B( 66-C , 67-C ) :   1.1991 B( 66-C , 68-C ) :   0.9746 B( 67-C , 95-H ) :   0.9830
B( 68-C , 69-O ) :   2.1922 B( 68-C , 96-H ) :   0.9607

-----------------------------------------------------------------------------
         ABSORPTION SPECTRUM VIA TRANSITION ELECTRIC DIPOLE MOMENTS
-----------------------------------------------------------------------------
State   Energy  Wavelength   fosc         T2         TX        TY        TZ
        (cm-1)    (nm)                  (au**2)     (au)      (au)      (au)
-----------------------------------------------------------------------------
   0    9382.6   1065.8   0.481315735  16.88810  -0.15599   3.83506  -1.46837
   1   18282.7    547.0   0.176125389   3.17145  -0.83772   1.56788   0.10685
   2   18648.2    536.2   0.058371883   1.03049  -0.51020   0.78732   0.38770
   3   22010.6    454.3   1.345753831  20.12843   1.46006  -4.24223  -0.01010
   4   23479.7    425.9   0.069136793   0.96938  -0.76009   0.03815   0.62465
   5   23965.0    417.3   0.022350556   0.30703   0.23712   0.04211  -0.49903
   6   24207.2    413.1   0.037753007   0.51343  -0.66385  -0.16955   0.20974
   7   24767.6    403.8   0.000422753   0.00562   0.06259   0.01991  -0.03613
   8   25458.8    392.8   0.001257038   0.01625  -0.01072  -0.11288   0.05829
   9   25616.2    390.4   0.012534700   0.16109  -0.34330  -0.10277   0.18077
  10   26764.6    373.6   0.000171115   0.00210   0.01916  -0.03349  -0.02482
  11   27321.6    366.0   0.304936752   3.67434   0.13786  -1.84433   0.50375
  12   27391.5    365.1   0.021276450   0.25572   0.42505   0.25573   0.09825
  13   28525.4    350.6   0.358001232   4.13170  -0.59027  -1.64235  -1.04210
  14   29155.6    343.0   0.173099873   1.95456   0.79103  -0.86171   0.76569
  15   29793.8    335.6   0.061857808   0.68351   0.17395  -0.42430   0.68791
  16   30444.3    328.5   0.096107136   1.03926   0.12660   1.00728  -0.09285
  17   30565.1    327.2   0.041690415   0.44904  -0.02554   0.32423   0.58589
  18   30704.0    325.7   0.062135691   0.66623   0.45611   0.54568   0.40053
  19   30834.7    324.3   0.125447081   1.33936  -0.15838  -1.13379  -0.16965
  20   31000.8    322.6   0.193484968   2.05470   0.94720  -0.94799  -0.50874
  21   31862.6    313.8   0.545544614   5.63670  -2.29586   0.22514   0.56129
  22   32100.8    311.5   0.053519805   0.54888  -0.63954   0.36870  -0.06269
  23   32453.3    308.1   0.041870270   0.42474  -0.55608  -0.29590   0.16719
  24   32894.6    304.0   0.015957641   0.15971   0.30271   0.25408   0.05928
  25   33538.9    298.2   0.022133475   0.21726  -0.44784   0.11985   0.04835
  26   33693.6    296.8   0.031461501   0.30740   0.37161  -0.22169   0.34665
  27   34013.2    294.0   0.452995228   4.38452  -1.23946  -1.00376  -1.35673
  28   34254.9    291.9   0.003036411   0.02918  -0.08687   0.14683  -0.00879
  29   34285.3    291.7   0.069178889   0.66426  -0.81281  -0.01053   0.05907
  30   34466.9    290.1   0.010365456   0.09901  -0.19679   0.16921   0.17789
  31   34905.5    286.5   0.088717696   0.83674   0.55798   0.30322   0.65837
  32   35046.6    285.3   0.197029024   1.85080   1.29072   0.24988  -0.34987
  33   35336.1    283.0   0.015033059   0.14006  -0.08208   0.34041  -0.13207
  34   35852.0    278.9   0.228314612   2.09650  -1.16335   0.59601   0.62281
  35   36638.4    272.9   0.042074072   0.37805  -0.06483  -0.54334  -0.28041
  36   36708.4    272.4   0.194340456   1.74290   1.10220  -0.71186  -0.14600
  37   37145.6    269.2   0.039252964   0.34789   0.50999   0.26778  -0.12685
  38   37642.9    265.7   0.077062476   0.67396   0.68208   0.44873   0.08583
  39   38024.0    263.0   0.012282708   0.10634   0.23629   0.22357   0.02299
  40   39139.7    255.5   0.023137427   0.19461   0.20614  -0.37877  -0.09305
  41   39172.3    255.3   0.013272561   0.11155  -0.19563   0.26984   0.02149
  42   39491.2    253.2   0.057321218   0.47785   0.25316  -0.61457  -0.18990
  43   39944.2    250.3   0.140307878   1.15639   0.70499  -0.81055  -0.04875
  44   40048.5    249.7   0.075752561   0.62271  -0.50079   0.60985   0.00157
  45   40229.3    248.6   0.007997841   0.06545   0.21471   0.05186   0.12907

FINAL SINGLE POINT ENERGY     -6900.359301681273

DIPOLE MOMENT
-------------
                                X             Y             Z
Electronic contribution:    -10.98434    -130.16698     -54.09165
Nuclear contribution   :     12.83862     127.99921      52.99210
                        -----------------------------------------
Total Dipole Moment    :      1.85428      -2.16777      -1.09955
                        -----------------------------------------
Magnitude (a.u.)       :      3.05722
Magnitude (Debye)      :      7.77084

Rotational constants in cm-1:     0.001845     0.000167     0.000166
Rotational constants in MHz :    55.308104     5.008293     4.966478

                             ****ORCA TERMINATED NORMALLY****
TOTAL RUN TIME: 0 days 0 hours 10 minutes 8 seconds 491 msec
