                         Program Version 4.2.0 -  RELEASE  -
|  1> # ORCA input file
|  2> # SCF done       -182.665987398146          0.000902616025
|  3> ! CAM-B3LYP def2-SVP def2/J RIJCOSX Grid4 TightSCF
|  4> %maxcore 5000
|  5> %tddft
|  6>     Mode sTDDFT
|  7>     Ethresh 5.0
|  8>     maxcore 5000
|  9> end
| 10>
| 11> %pal
| 12>   nprocs 6
| 13>   end
| 14> * xyz 0 1
| 15>    C        7.78148        -0.50165         0.98366
| 16>    C        6.64856         0.24393         1.18821
| 17>    C        6.53133         1.32344         2.08838
| 18>    N        6.29063         2.20686         2.77961
| 19>    C        5.42988         0.07458         0.50755
| 20>    N        4.40137        -0.03232         0.00207
| 21>    C        9.08076        -0.22327         1.58324
| 22>    C       10.08270        -0.83038         0.79985
| 23>    C       11.41976        -0.69017         1.10808
| 24>    C       11.75837         0.03375         2.24591
| 25>    C       10.76228         0.55634         3.07823
| 26>    C        9.41561         0.45389         2.74179
| 27>   Cl       11.19624         1.33954         4.53731
| 28>   Cl       13.41225         0.26364         2.63662
| 29>    C        9.45187        -1.64078        -0.26160
| 30>    O        9.98697        -2.27273        -1.14223
| 31>    C        7.99199        -1.55905         0.01456
| 32>    C        7.16506        -2.52994        -0.46391
| 33>    N        5.89864        -2.72570        -0.05590
| 34>    C        5.02408        -3.70974        -0.39413
| 35>    S        5.34409        -4.85914        -1.64407
| 36>    C        3.74579        -5.50365        -1.43272
| 37>    N        3.37474        -6.58650        -2.24004
| 38>    O        2.25500        -7.03916        -2.10145
| 39>    O        4.21380        -6.99175        -3.02567
| 40>    C        3.01613        -4.85851        -0.46929
| 41>    C        3.74202        -3.83331         0.16116
| 42>    C        3.22139        -2.96877         1.19703
| 43>    C        3.97770        -2.44937         2.18340
| 44>    C        3.61067        -1.39680         3.07362
| 45>    C        4.53605        -0.67039         3.81863
| 46>    C        5.88098        -1.06586         3.84313
| 47>    N        6.95364        -1.47180         3.78420
| 48>    C        3.95865         0.45261         4.46374
| 49>    C        2.58676         0.50766         4.23370
| 50>    S        2.00081        -0.74475         3.20499
| 51>    S        1.77866         1.85365         4.96723
| 52>    C        3.32277         2.39713         5.54999
| 53>    C        4.39328         1.57965         5.21767
| 54>    C        5.62928         2.13435         5.64744
| 55>    C        6.84485         1.44660         5.57931
| 56>    N        7.82628         0.84981         5.55938
| 57>    C        5.47914         3.37439         6.26018
| 58>    S        3.78191         3.82033         6.40732
| 59>    C        6.48658         4.26050         6.71371
| 60>    C        7.68786         4.45448         6.07795
| 61>    C        8.79607         5.20597         6.55162
| 62>    C        9.85387         5.24319         5.69372
| 63>    C        9.62767         4.55587         4.48174
| 64>    S        8.02263         3.86718         4.46184
| 65>    C       10.48902         4.31282         3.42769
| 66>    C       11.88353         4.52237         3.35022
| 67>    C       12.46901         3.96532         2.25316
| 68>    C       11.57013         3.30382         1.38184
| 69>    S        9.92345         3.49529         1.99282
| 70>    C       11.76081         2.51732         0.27572
| 71>    C       12.95539         2.11341        -0.36006
| 72>    C       12.93830         1.09925        -1.38637
| 73>    C       14.22606         0.86656        -1.81455
| 74>    C       14.74502        -0.01948        -2.78737
| 75>    C       16.09327         0.00376        -3.00852
| 76>    C       16.92670        -0.73158        -3.91109
| 77>    C       18.23445        -0.31692        -3.75051
| 78>    C       18.25822         0.69178        -2.73318
| 79>    C       16.96831         0.90014        -2.27135
| 80>    C       16.45730         1.77253        -1.29500
| 81>    C       15.10011         1.75474        -1.06820
| 82>    C       14.28243         2.50088        -0.17998
| 83>    C       19.36405        -0.82173        -4.49341
| 84>    C       20.62409        -0.41774        -4.35644
| 85>    H       12.18348        -1.13393         0.48914
| 86>    H        8.67090         0.85122         3.41460
| 87>    H        7.57873        -3.25650        -1.15314
| 88>    H        5.50045        -2.02810         0.56718
| 89>    H        2.00820        -5.13650        -0.21950
| 90>    H        2.17270        -2.71412         1.12818
| 91>    H        4.99355        -2.80005         2.32942
| 92>    H        6.26296         4.87103         7.57819
| 93>    H        8.78338         5.66623         7.52389
| 94>    H       10.78116         5.74894         5.89705
| 95>    H       12.42161         5.03115         4.13014
| 96>    H       13.52651         3.98877         2.07125
| 97>    H       10.85857         2.09570        -0.15249
| 98>    H       12.04838         0.60735        -1.73751
| 99>    H       14.08415        -0.68095        -3.32949
|100>    H       16.57808        -1.47976        -4.59931
|101>    H       19.13779         1.20312        -2.38723
|102>    H       17.11585         2.43366        -0.74936
|103>    H       14.65382         3.25186         0.48943
|104>    H       19.12504        -1.59182        -5.21643
|105>    H       20.91096         0.34503        -3.65302
|106>    H       21.41747        -0.83931        -4.94882
|107> *
|108>
|109>                          ****END OF INPUT****

CARTESIAN COORDINATES (ANGSTROEM)
---------------------------------
  C      7.781480   -0.501650    0.983660
  C      6.648560    0.243930    1.188210
  C      6.531330    1.323440    2.088380
  N      6.290630    2.206860    2.779610
  C      5.429880    0.074580    0.507550
  N      4.401370   -0.032320    0.002070
  C      9.080760   -0.223270    1.583240
  C     10.082700   -0.830380    0.799850
  C     11.419760   -0.690170    1.108080
  C     11.758370    0.033750    2.245910
  C     10.762280    0.556340    3.078230
  C      9.415610    0.453890    2.741790
  Cl    11.196240    1.339540    4.537310
  Cl    13.412250    0.263640    2.636620
  C      9.451870   -1.640780   -0.261600
  O      9.986970   -2.272730   -1.142230
  C      7.991990   -1.559050    0.014560
  C      7.165060   -2.529940   -0.463910
  N      5.898640   -2.725700   -0.055900
  C      5.024080   -3.709740   -0.394130
  S      5.344090   -4.859140   -1.644070
  C      3.745790   -5.503650   -1.432720
  N      3.374740   -6.586500   -2.240040
  O      2.255000   -7.039160   -2.101450
  O      4.213800   -6.991750   -3.025670
  C      3.016130   -4.858510   -0.469290
  C      3.742020   -3.833310    0.161160
  C      3.221390   -2.968770    1.197030
  C      3.977700   -2.449370    2.183400
  C      3.610670   -1.396800    3.073620
  C      4.536050   -0.670390    3.818630
  C      5.880980   -1.065860    3.843130
  N      6.953640   -1.471800    3.784200
  C      3.958650    0.452610    4.463740
  C      2.586760    0.507660    4.233700
  S      2.000810   -0.744750    3.204990
  S      1.778660    1.853650    4.967230
  C      3.322770    2.397130    5.549990
  C      4.393280    1.579650    5.217670
  C      5.629280    2.134350    5.647440
  C      6.844850    1.446600    5.579310
  N      7.826280    0.849810    5.559380
  C      5.479140    3.374390    6.260180
  S      3.781910    3.820330    6.407320
  C      6.486580    4.260500    6.713710
  C      7.687860    4.454480    6.077950
  C      8.796070    5.205970    6.551620
  C      9.853870    5.243190    5.693720
  C      9.627670    4.555870    4.481740
  S      8.022630    3.867180    4.461840
  C     10.489020    4.312820    3.427690
  C     11.883530    4.522370    3.350220
  C     12.469010    3.965320    2.253160
  C     11.570130    3.303820    1.381840
  S      9.923450    3.495290    1.992820
  C     11.760810    2.517320    0.275720
  C     12.955390    2.113410   -0.360060
  C     12.938300    1.099250   -1.386370
  C     14.226060    0.866560   -1.814550
  C     14.745020   -0.019480   -2.787370
  C     16.093270    0.003760   -3.008520
  C     16.926700   -0.731580   -3.911090
  C     18.234450   -0.316920   -3.750510
  C     18.258220    0.691780   -2.733180
  C     16.968310    0.900140   -2.271350
  C     16.457300    1.772530   -1.295000
  C     15.100110    1.754740   -1.068200
  C     14.282430    2.500880   -0.179980
  C     19.364050   -0.821730   -4.493410
  C     20.624090   -0.417740   -4.356440
  H     12.183480   -1.133930    0.489140
  H      8.670900    0.851220    3.414600
  H      7.578730   -3.256500   -1.153140
  H      5.500450   -2.028100    0.567180
  H      2.008200   -5.136500   -0.219500
  H      2.172700   -2.714120    1.128180
  H      4.993550   -2.800050    2.329420
  H      6.262960    4.871030    7.578190
  H      8.783380    5.666230    7.523890
  H     10.781160    5.748940    5.897050
  H     12.421610    5.031150    4.130140
  H     13.526510    3.988770    2.071250
  H     10.858570    2.095700   -0.152490
  H     12.048380    0.607350   -1.737510
  H     14.084150   -0.680950   -3.329490
  H     16.578080   -1.479760   -4.599310
  H     19.137790    1.203120   -2.387230
  H     17.115850    2.433660   -0.749360
  H     14.653820    3.251860    0.489430
  H     19.125040   -1.591820   -5.216430
  H     20.910960    0.345030   -3.653020
  H     21.417470   -0.839310   -4.948820

 Total Charge           Charge          ....    0
 Multiplicity           Mult            ....    1
 Number of Electrons    NEL             ....  536
 Basis Dimension        Dim             .... 1122

ORBITAL ENERGIES
----------------

  NO   OCC          E(Eh)            E(eV)
   0   2.0000    -101.592846     -2764.4819
   1   2.0000    -101.585984     -2764.2952
   2   2.0000     -88.996474     -2421.7172
   3   2.0000     -88.987859     -2421.4828
   4   2.0000     -88.983489     -2421.3638
   5   2.0000     -88.972075     -2421.0532
   6   2.0000     -88.941684     -2420.2263
   7   2.0000     -88.935120     -2420.0476
   8   2.0000     -19.241583      -523.5901
   9   2.0000     -19.241270      -523.5816
  10   2.0000     -19.218274      -522.9558
  11   2.0000     -14.653656      -398.7462
  12   2.0000     -14.501735      -394.6123
  13   2.0000     -14.428597      -392.6221
  14   2.0000     -14.416064      -392.2810
  15   2.0000     -14.414421      -392.2363
  16   2.0000     -14.394673      -391.6990
  17   2.0000     -10.380899      -282.4786
  18   2.0000     -10.371771      -282.2302
  19   2.0000     -10.368446      -282.1398
  20   2.0000     -10.350688      -281.6565
  21   2.0000     -10.348178      -281.5882
  22   2.0000     -10.345513      -281.5157
  23   2.0000     -10.344588      -281.4905
  24   2.0000     -10.342882      -281.4441
  25   2.0000     -10.338376      -281.3215
  26   2.0000     -10.337295      -281.2921
  27   2.0000     -10.329939      -281.0919
  28   2.0000     -10.328974      -281.0657
  29   2.0000     -10.326662      -281.0028
  30   2.0000     -10.324427      -280.9419
  31   2.0000     -10.320203      -280.8270
  32   2.0000     -10.317699      -280.7588
  33   2.0000     -10.316073      -280.7146
  34   2.0000     -10.312654      -280.6216
  35   2.0000     -10.311574      -280.5922
  36   2.0000     -10.311527      -280.5909
  37   2.0000     -10.310646      -280.5669
  38   2.0000     -10.308318      -280.5036
  39   2.0000     -10.308044      -280.4961
  40   2.0000     -10.306460      -280.4530
  41   2.0000     -10.304212      -280.3919
  42   2.0000     -10.303361      -280.3687
  43   2.0000     -10.301605      -280.3209
  44   2.0000     -10.300871      -280.3009
  45   2.0000     -10.300410      -280.2884
  46   2.0000     -10.299646      -280.2676
  47   2.0000     -10.299226      -280.2562
  48   2.0000     -10.299178      -280.2549
  49   2.0000     -10.297156      -280.1999
  50   2.0000     -10.294385      -280.1245
  51   2.0000     -10.293901      -280.1113
  52   2.0000     -10.287490      -279.9368
  53   2.0000     -10.287342      -279.9328
  54   2.0000     -10.286773      -279.9173
  55   2.0000     -10.285272      -279.8765
  56   2.0000     -10.283886      -279.8388
  57   2.0000     -10.283614      -279.8314
  58   2.0000     -10.279738      -279.7259
  59   2.0000     -10.279307      -279.7142
  60   2.0000     -10.274929      -279.5950
  61   2.0000     -10.274265      -279.5770
  62   2.0000     -10.273315      -279.5511
  63   2.0000     -10.269566      -279.4491
  64   2.0000     -10.269217      -279.4396
  65   2.0000     -10.267369      -279.3893
  66   2.0000     -10.267138      -279.3830
  67   2.0000     -10.265998      -279.3520
  68   2.0000     -10.265439      -279.3368
  69   2.0000     -10.258426      -279.1460
  70   2.0000      -9.547531      -259.8015
  71   2.0000      -9.540590      -259.6126
  72   2.0000      -8.091812      -220.1894
  73   2.0000      -8.083113      -219.9527
  74   2.0000      -8.078400      -219.8244
  75   2.0000      -8.067639      -219.5316
  76   2.0000      -8.037214      -218.7037
  77   2.0000      -8.030791      -218.5289
  78   2.0000      -7.317847      -199.1287
  79   2.0000      -7.310954      -198.9412
  80   2.0000      -7.307867      -198.8572
  81   2.0000      -7.307116      -198.8367
  82   2.0000      -7.300982      -198.6698
  83   2.0000      -7.300021      -198.6437
  84   2.0000      -6.061445      -164.9403
  85   2.0000      -6.057026      -164.8201
  86   2.0000      -6.053342      -164.7198
  87   2.0000      -6.052621      -164.7002
  88   2.0000      -6.048503      -164.5881
  89   2.0000      -6.048405      -164.5855
  90   2.0000      -6.044723      -164.4853
  91   2.0000      -6.044147      -164.4696
  92   2.0000      -6.039239      -164.3361
  93   2.0000      -6.037325      -164.2840
  94   2.0000      -6.033083      -164.1685
  95   2.0000      -6.028982      -164.0570
  96   2.0000      -6.007037      -163.4598
  97   2.0000      -6.002950      -163.3486
  98   2.0000      -6.000556      -163.2834
  99   2.0000      -5.998103      -163.2167
 100   2.0000      -5.996407      -163.1705
 101   2.0000      -5.991575      -163.0390
 102   2.0000      -1.323342       -36.0100
 103   2.0000      -1.142616       -31.0922
 104   2.0000      -1.134636       -30.8750
 105   2.0000      -1.111023       -30.2325
 106   2.0000      -1.038241       -28.2520
 107   2.0000      -1.027462       -27.9587
 108   2.0000      -1.017628       -27.6911
 109   2.0000      -1.015311       -27.6280
 110   2.0000      -1.007331       -27.4109
 111   2.0000      -1.002101       -27.2686
 112   2.0000      -0.995519       -27.0894
 113   2.0000      -0.991765       -26.9873
 114   2.0000      -0.987582       -26.8735
 115   2.0000      -0.987004       -26.8578
 116   2.0000      -0.977341       -26.5948
 117   2.0000      -0.969870       -26.3915
 118   2.0000      -0.961221       -26.1562
 119   2.0000      -0.950779       -25.8720
 120   2.0000      -0.949261       -25.8307
 121   2.0000      -0.931946       -25.3595
 122   2.0000      -0.925367       -25.1805
 123   2.0000      -0.905821       -24.6486
 124   2.0000      -0.901925       -24.5426
 125   2.0000      -0.893562       -24.3151
 126   2.0000      -0.890563       -24.2335
 127   2.0000      -0.883027       -24.0284
 128   2.0000      -0.872714       -23.7477
 129   2.0000      -0.864635       -23.5279
 130   2.0000      -0.863225       -23.4895
 131   2.0000      -0.859363       -23.3845
 132   2.0000      -0.854748       -23.2589
 133   2.0000      -0.851205       -23.1625
 134   2.0000      -0.847441       -23.0600
 135   2.0000      -0.842935       -22.9374
 136   2.0000      -0.818135       -22.2626
 137   2.0000      -0.817193       -22.2370
 138   2.0000      -0.811054       -22.0699
 139   2.0000      -0.799435       -21.7537
 140   2.0000      -0.795166       -21.6376
 141   2.0000      -0.784983       -21.3605
 142   2.0000      -0.772566       -21.0226
 143   2.0000      -0.763862       -20.7857
 144   2.0000      -0.756092       -20.5743
 145   2.0000      -0.748158       -20.3584
 146   2.0000      -0.738279       -20.0896
 147   2.0000      -0.731220       -19.8975
 148   2.0000      -0.727698       -19.8017
 149   2.0000      -0.704300       -19.1650
 150   2.0000      -0.702742       -19.1226
 151   2.0000      -0.699220       -19.0267
 152   2.0000      -0.692525       -18.8446
 153   2.0000      -0.687258       -18.7012
 154   2.0000      -0.680163       -18.5082
 155   2.0000      -0.675824       -18.3901
 156   2.0000      -0.669542       -18.2192
 157   2.0000      -0.663067       -18.0430
 158   2.0000      -0.657169       -17.8825
 159   2.0000      -0.650422       -17.6989
 160   2.0000      -0.646532       -17.5930
 161   2.0000      -0.639099       -17.3908
 162   2.0000      -0.638430       -17.3726
 163   2.0000      -0.634958       -17.2781
 164   2.0000      -0.631289       -17.1782
 165   2.0000      -0.629139       -17.1197
 166   2.0000      -0.624241       -16.9865
 167   2.0000      -0.622498       -16.9390
 168   2.0000      -0.619338       -16.8530
 169   2.0000      -0.613304       -16.6889
 170   2.0000      -0.608765       -16.5653
 171   2.0000      -0.601029       -16.3548
 172   2.0000      -0.595788       -16.2122
 173   2.0000      -0.591581       -16.0977
 174   2.0000      -0.587808       -15.9951
 175   2.0000      -0.581417       -15.8211
 176   2.0000      -0.578786       -15.7496
 177   2.0000      -0.568234       -15.4624
 178   2.0000      -0.561834       -15.2883
 179   2.0000      -0.557438       -15.1687
 180   2.0000      -0.555900       -15.1268
 181   2.0000      -0.554670       -15.0933
 182   2.0000      -0.550607       -14.9828
 183   2.0000      -0.545768       -14.8511
 184   2.0000      -0.542157       -14.7528
 185   2.0000      -0.537252       -14.6194
 186   2.0000      -0.536454       -14.5977
 187   2.0000      -0.534491       -14.5442
 188   2.0000      -0.530492       -14.4354
 189   2.0000      -0.528149       -14.3717
 190   2.0000      -0.525731       -14.3059
 191   2.0000      -0.523748       -14.2519
 192   2.0000      -0.517227       -14.0745
 193   2.0000      -0.516074       -14.0431
 194   2.0000      -0.513330       -13.9684
 195   2.0000      -0.511419       -13.9164
 196   2.0000      -0.508629       -13.8405
 197   2.0000      -0.504386       -13.7250
 198   2.0000      -0.502129       -13.6636
 199   2.0000      -0.499935       -13.6039
 200   2.0000      -0.498450       -13.5635
 201   2.0000      -0.495116       -13.4728
 202   2.0000      -0.494070       -13.4443
 203   2.0000      -0.488246       -13.2858
 204   2.0000      -0.486955       -13.2507
 205   2.0000      -0.485642       -13.2150
 206   2.0000      -0.482548       -13.1308
 207   2.0000      -0.477397       -12.9906
 208   2.0000      -0.474169       -12.9028
 209   2.0000      -0.473154       -12.8752
 210   2.0000      -0.471908       -12.8413
 211   2.0000      -0.467577       -12.7234
 212   2.0000      -0.465554       -12.6684
 213   2.0000      -0.463180       -12.6038
 214   2.0000      -0.460996       -12.5443
 215   2.0000      -0.460520       -12.5314
 216   2.0000      -0.460021       -12.5178
 217   2.0000      -0.457768       -12.4565
 218   2.0000      -0.456024       -12.4091
 219   2.0000      -0.455019       -12.3817
 220   2.0000      -0.452501       -12.3132
 221   2.0000      -0.448943       -12.2164
 222   2.0000      -0.448108       -12.1936
 223   2.0000      -0.447130       -12.1670
 224   2.0000      -0.440888       -11.9972
 225   2.0000      -0.439426       -11.9574
 226   2.0000      -0.435944       -11.8626
 227   2.0000      -0.434822       -11.8321
 228   2.0000      -0.431953       -11.7540
 229   2.0000      -0.429522       -11.6879
 230   2.0000      -0.428061       -11.6481
 231   2.0000      -0.424525       -11.5519
 232   2.0000      -0.422459       -11.4957
 233   2.0000      -0.420002       -11.4288
 234   2.0000      -0.419399       -11.4124
 235   2.0000      -0.417244       -11.3538
 236   2.0000      -0.410751       -11.1771
 237   2.0000      -0.410091       -11.1592
 238   2.0000      -0.405265       -11.0278
 239   2.0000      -0.398099       -10.8328
 240   2.0000      -0.396641       -10.7931
 241   2.0000      -0.390347       -10.6219
 242   2.0000      -0.389456       -10.5976
 243   2.0000      -0.388648       -10.5757
 244   2.0000      -0.387408       -10.5419
 245   2.0000      -0.382007       -10.3949
 246   2.0000      -0.381318       -10.3762
 247   2.0000      -0.375089       -10.2067
 248   2.0000      -0.370309       -10.0766
 249   2.0000      -0.368837       -10.0366
 250   2.0000      -0.368414       -10.0250
 251   2.0000      -0.367345        -9.9960
 252   2.0000      -0.355583        -9.6759
 253   2.0000      -0.348628        -9.4866
 254   2.0000      -0.342516        -9.3203
 255   2.0000      -0.341298        -9.2872
 256   2.0000      -0.338610        -9.2141
 257   2.0000      -0.325755        -8.8642
 258   2.0000      -0.318786        -8.6746
 259   2.0000      -0.311020        -8.4633
 260   2.0000      -0.306918        -8.3517
 261   2.0000      -0.302021        -8.2184
 262   2.0000      -0.293274        -7.9804
 263   2.0000      -0.282511        -7.6875
 264   2.0000      -0.269784        -7.3412
 265   2.0000      -0.268363        -7.3025
 266   2.0000      -0.251092        -6.8326
 267   2.0000      -0.206735        -5.6255
 268   0.0000      -0.100200        -2.7266
 269   0.0000      -0.086504        -2.3539
 270   0.0000      -0.074318        -2.0223
 271   0.0000      -0.064239        -1.7480
 272   0.0000      -0.057255        -1.5580

MULLIKEN ATOMIC CHARGES
-----------------------
   0 C :    0.302751
   1 C :   -0.363616
   2 C :   -0.163593
   3 N :    0.170620
   4 C :   -0.254648
   5 N :    0.170250
   6 C :    0.025667
   7 C :   -0.002436
   8 C :   -0.054296
   9 C :    0.071160
  10 C :    0.038913
  11 C :    0.055719
  12 Cl:   -0.022755
  13 Cl:   -0.043962
  14 C :    0.129638
  15 O :   -0.149007
  16 C :   -0.123636
  17 C :    0.064812
  18 N :   -0.011340
  19 C :   -0.099802
  20 S :    0.183281
  21 C :   -0.005646
  22 N :    0.277789
  23 O :   -0.245971
  24 O :   -0.261630
  25 C :    0.019445
  26 C :    0.095398
  27 C :    0.007739
  28 C :   -0.068205
  29 C :   -0.064707
  30 C :   -0.055349
  31 C :   -0.303313
  32 N :    0.184999
  33 C :    0.177921
  34 C :   -0.237843
  35 S :    0.177181
  36 S :    0.184758
  37 C :   -0.240771
  38 C :    0.146726
  39 C :    0.009403
  40 C :   -0.282478
  41 N :    0.156247
  42 C :   -0.101557
  43 S :    0.156667
  44 C :   -0.036918
  45 C :   -0.017255
  46 C :    0.027412
  47 C :    0.042857
  48 C :   -0.045707
  49 S :    0.110668
  50 C :   -0.041832
  51 C :    0.024435
  52 C :    0.040531
  53 C :   -0.084284
  54 S :    0.076081
  55 C :    0.075197
  56 C :    0.057274
  57 C :   -0.045492
  58 C :    0.058882
  59 C :   -0.000354
  60 C :    0.056740
  61 C :   -0.025591
  62 C :    0.060339
  63 C :   -0.017723
  64 C :    0.047836
  65 C :    0.000573
  66 C :    0.049918
  67 C :   -0.037215
  68 C :    0.010335
  69 C :   -0.024628
  70 H :   -0.001926
  71 H :   -0.016101
  72 H :    0.040350
  73 H :    0.140359
  74 H :    0.013070
  75 H :    0.015822
  76 H :    0.035699
  77 H :   -0.006048
  78 H :   -0.015087
  79 H :   -0.014778
  80 H :   -0.016032
  81 H :   -0.025212
  82 H :   -0.022720
  83 H :   -0.017527
  84 H :   -0.019422
  85 H :   -0.025213
  86 H :   -0.023672
  87 H :   -0.025510
  88 H :   -0.039125
  89 H :   -0.018022
  90 H :    0.007517
  91 H :    0.020977
Sum of atomic charges:   -0.0000000

LOEWDIN ATOMIC CHARGES
----------------------
   0 C :    0.085203
   1 C :   -0.157746
   2 C :   -0.013251
   3 N :   -0.052030
   4 C :   -0.032070
   5 N :   -0.058234
   6 C :   -0.017089
   7 C :   -0.053497
   8 C :   -0.007078
   9 C :   -0.132192
  10 C :   -0.130589
  11 C :    0.004251
  12 Cl:    0.188773
  13 Cl:    0.164486
  14 C :    0.083719
  15 O :   -0.151165
  16 C :   -0.129562
  17 C :    0.101646
  18 N :    0.075995
  19 C :   -0.098857
  20 S :    0.475236
  21 C :   -0.205401
  22 N :    0.273578
  23 O :   -0.211866
  24 O :   -0.227815
  25 C :    0.006233
  26 C :   -0.092307
  27 C :   -0.001558
  28 C :   -0.054180
  29 C :   -0.131899
  30 C :   -0.100796
  31 C :   -0.028774
  32 N :   -0.054906
  33 C :   -0.059461
  34 C :   -0.328639
  35 S :    0.458955
  36 S :    0.423682
  37 C :   -0.333913
  38 C :   -0.057181
  39 C :   -0.116442
  40 C :   -0.038542
  41 N :   -0.059838
  42 C :   -0.122809
  43 S :    0.432463
  44 C :   -0.114698
  45 C :   -0.119595
  46 C :   -0.045027
  47 C :   -0.019786
  48 C :   -0.193696
  49 S :    0.440919
  50 C :   -0.169904
  51 C :   -0.030321
  52 C :   -0.032081
  53 C :   -0.154288
  54 S :    0.396688
  55 C :   -0.038947
  56 C :   -0.065654
  57 C :    0.037831
  58 C :   -0.065503
  59 C :    0.070373
  60 C :   -0.057597
  61 C :    0.015767
  62 C :   -0.058419
  63 C :    0.048291
  64 C :   -0.061824
  65 C :    0.070050
  66 C :   -0.054774
  67 C :    0.003635
  68 C :   -0.020848
  69 C :   -0.054027
  70 H :    0.042236
  71 H :    0.037022
  72 H :    0.042063
  73 H :    0.089425
  74 H :    0.048768
  75 H :    0.033598
  76 H :    0.041023
  77 H :    0.033087
  78 H :    0.031606
  79 H :    0.031569
  80 H :    0.031793
  81 H :    0.030113
  82 H :    0.027897
  83 H :    0.026250
  84 H :    0.037104
  85 H :    0.025044
  86 H :    0.025104
  87 H :    0.034261
  88 H :    0.018942
  89 H :    0.029726
  90 H :    0.017573
  91 H :    0.024695

  Mayer bond orders larger than 0.100000
B(  0-C ,  1-C ) :   1.6078 B(  0-C ,  6-C ) :   1.0161 B(  0-C , 16-C ) :   1.0385
B(  1-C ,  2-C ) :   1.1345 B(  1-C ,  4-C ) :   1.1800 B(  2-C ,  3-N ) :   2.9440
B(  4-C ,  5-N ) :   2.9633 B(  6-C ,  7-C ) :   1.3114 B(  6-C , 11-C ) :   1.3468
B(  7-C ,  8-C ) :   1.3479 B(  7-C , 14-C ) :   0.9264 B(  8-C ,  9-C ) :   1.3262
B(  8-C , 70-H ) :   1.0113 B(  9-C , 10-C ) :   1.4152 B(  9-C , 13-Cl) :   1.0447
B( 10-C , 11-C ) :   1.3485 B( 10-C , 12-Cl) :   1.0923 B( 11-C , 71-H ) :   0.9854
B( 14-C , 15-O ) :   2.2592 B( 14-C , 16-C ) :   0.9692 B( 16-C , 17-C ) :   1.6035
B( 17-C , 18-N ) :   1.2548 B( 17-C , 72-H ) :   0.9297 B( 18-N , 19-C ) :   1.1873
B( 18-N , 73-H ) :   0.8710 B( 19-C , 20-S ) :   1.1477 B( 19-C , 26-C ) :   1.3905
B( 20-S , 21-C ) :   1.0806 B( 21-C , 22-N ) :   0.9673 B( 21-C , 25-C ) :   1.4923
B( 22-N , 23-O ) :   1.5393 B( 22-N , 24-O ) :   1.5130 B( 23-O , 24-O ) :   0.2602
B( 25-C , 26-C ) :   1.2303 B( 25-C , 74-H ) :   1.0077 B( 26-C , 27-C ) :   1.0690
B( 27-C , 28-C ) :   1.6957 B( 27-C , 75-H ) :   0.9646 B( 28-C , 29-C ) :   1.1819
B( 28-C , 76-H ) :   0.9403 B( 29-C , 30-C ) :   1.4809 B( 29-C , 35-S ) :   1.1293
B( 30-C , 31-C ) :   1.1768 B( 30-C , 33-C ) :   1.2477 B( 31-C , 32-N ) :   2.9256
B( 33-C , 34-C ) :   1.4006 B( 33-C , 38-C ) :   1.0836 B( 34-C , 35-S ) :   1.0944
B( 34-C , 36-S ) :   1.0925 B( 36-S , 37-C ) :   1.0777 B( 37-C , 38-C ) :   1.4227
B( 37-C , 43-S ) :   1.0807 B( 38-C , 39-C ) :   1.2484 B( 39-C , 40-C ) :   1.1821
B( 39-C , 42-C ) :   1.4742 B( 40-C , 41-N ) :   2.8893 B( 42-C , 43-S ) :   1.1096
B( 42-C , 44-C ) :   1.1436 B( 44-C , 45-C ) :   1.5893 B( 44-C , 77-H ) :   0.9483
B( 45-C , 46-C ) :   1.1427 B( 45-C , 49-S ) :   1.0768 B( 46-C , 47-C ) :   1.5898
B( 46-C , 78-H ) :   0.9969 B( 47-C , 48-C ) :   1.1927 B( 47-C , 79-H ) :   0.9937
B( 48-C , 49-S ) :   1.0471 B( 48-C , 50-C ) :   1.4733 B( 50-C , 51-C ) :   1.1891
B( 50-C , 54-S ) :   1.0768 B( 51-C , 52-C ) :   1.5989 B( 51-C , 80-H ) :   0.9917
B( 52-C , 53-C ) :   1.1483 B( 52-C , 81-H ) :   0.9961 B( 53-C , 54-S ) :   1.0283
B( 53-C , 55-C ) :   1.5637 B( 55-C , 56-C ) :   1.1721 B( 55-C , 82-H ) :   0.9425
B( 56-C , 57-C ) :   1.1202 B( 56-C , 67-C ) :   1.4426 B( 57-C , 58-C ) :   1.4349
B( 57-C , 83-H ) :   1.0160 B( 58-C , 59-C ) :   1.1178 B( 58-C , 66-C ) :   1.1285
B( 59-C , 60-C ) :   1.4738 B( 59-C , 84-H ) :   1.0070 B( 60-C , 61-C ) :   1.0828
B( 60-C , 64-C ) :   1.1247 B( 61-C , 62-C ) :   1.5060 B( 61-C , 85-H ) :   1.0177
B( 62-C , 63-C ) :   1.1479 B( 62-C , 68-C ) :   1.0835 B( 63-C , 64-C ) :   1.4299
B( 63-C , 86-H ) :   1.0077 B( 64-C , 65-C ) :   1.1431 B( 65-C , 66-C ) :   1.4264
B( 65-C , 87-H ) :   1.0032 B( 66-C , 67-C ) :   1.1300 B( 67-C , 88-H ) :   1.0136
B( 68-C , 69-C ) :   1.9333 B( 68-C , 89-H ) :   0.9673 B( 69-C , 90-H ) :   0.9530
B( 69-C , 91-H ) :   0.9496

-----------------------------------------------------------------------------
         ABSORPTION SPECTRUM VIA TRANSITION ELECTRIC DIPOLE MOMENTS
-----------------------------------------------------------------------------
State   Energy  Wavelength   fosc         T2         TX        TY        TZ
        (cm-1)    (nm)                  (au**2)     (au)      (au)      (au)
-----------------------------------------------------------------------------
   0    7088.0   1410.8   0.060315982   2.80147  -1.30457   0.29528   1.00617
   1   11622.6    860.4   0.095747881   2.71208  -0.86317   0.64376   1.24603
   2   14414.2    693.8   1.054824815  24.09155  -3.92885   0.29166   2.92756
   3   15857.8    630.6   0.028141026   0.58421  -0.35845   0.21276   0.64067
   4   16900.9    591.7   0.150303285   2.92775   1.35453  -0.02473  -1.04518
   5   20763.2    481.6   0.002214198   0.03511  -0.02367  -0.08848  -0.16346
   6   21496.7    465.2   0.382438830   5.85688  -2.12872  -1.11846   0.27289
   7   22029.2    453.9   0.149736194   2.23771  -1.12552   0.58429   0.79343
   8   23041.2    434.0   0.021477137   0.30687  -0.13329   0.43927   0.31006
   9   24046.2    415.9   0.054922453   0.75193   0.36889  -0.53832  -0.57102
  10   24901.5    401.6   0.321358323   4.24854   1.07148  -1.28838  -1.20023
  11   25584.7    390.9   0.201466183   2.59237   0.98747  -0.81451  -0.97665
  12   25795.8    387.7   0.129049222   1.64696  -0.04863  -1.16799  -0.52951
  13   26698.7    374.6   0.010528967   0.12983  -0.06859  -0.28194   0.21363
  14   26940.2    371.2   0.048693457   0.59504   0.01836   0.54564   0.54496
  15   27502.7    363.6   0.005226495   0.06256  -0.15622  -0.19512   0.00940
  16   27675.8    361.3   0.002274440   0.02706  -0.14004  -0.08150  -0.02833
  17   27896.4    358.5   0.148728299   1.75518  -0.01787  -1.00664  -0.86112
  18   28133.8    355.4   0.005368229   0.06282   0.12277   0.06772  -0.20775
  19   28432.1    351.7   0.718262299   8.31667  -0.98575  -2.14265  -1.65952
  20   28527.1    350.5   0.125422400   1.44742  -0.37081  -0.86351  -0.75117
  21   28856.6    346.5   0.118351307   1.35022  -0.57813  -0.82144  -0.58414
  22   29647.3    337.3   0.141951473   1.57627  -0.09188   1.04839   0.68462
  23   29827.5    335.3   0.006881487   0.07595  -0.09202  -0.25641  -0.04168
  24   30223.0    330.9   0.145259847   1.58228   0.94251  -0.75286  -0.35657
  25   30339.0    329.6   0.159651077   1.73239   1.22639  -0.39028  -0.27575
  26   31184.0    320.7   0.100434746   1.06030  -0.99711  -0.22283  -0.12812
  27   31341.2    319.1   0.186633870   1.96043  -1.37719  -0.07585   0.24086
  28   31725.2    315.2   0.076256788   0.79132  -0.84510  -0.23869  -0.14195
  29   31969.1    312.8   0.039178063   0.40345   0.16640  -0.43175  -0.43515
  30   32078.0    311.7   0.061003902   0.62607  -0.72936   0.30032   0.06254
  31   32180.3    310.7   0.103671968   1.06059   0.34258   0.69439   0.67901
  32   32379.4    308.8   0.078564435   0.79879  -0.57798  -0.53503  -0.42246
  33   32747.1    305.4   0.034881686   0.35067   0.36484  -0.45626  -0.09691
  34   32876.8    304.2   0.143870059   1.44064  -1.03142   0.36560   0.49310
  35   33037.6    302.7   0.019345889   0.19278   0.20322   0.33116   0.20447
  36   33208.8    301.1   0.296911349   2.94340   1.24668   0.92992   0.72417
  37   33311.0    300.2   0.031347033   0.30980  -0.06250   0.39287   0.38929
  38   33723.8    296.5   0.117237152   1.14447   0.83335  -0.40208  -0.53697
  39   33812.7    295.7   0.062641519   0.60990  -0.02061  -0.66972  -0.40119
  40   33891.5    295.1   0.011080241   0.10763   0.03151   0.07690   0.31737
  41   34146.8    292.9   0.043565759   0.42002   0.33803  -0.52067  -0.18616
  42   34460.1    290.2   0.089589539   0.85589   0.83681   0.17894   0.35160
  43   34511.1    289.8   0.115778172   1.10444  -0.97490   0.03721  -0.39067
  44   35104.7    284.9   0.132468752   1.24229   0.91613  -0.49697  -0.39499
  45   35207.7    284.0   0.054673370   0.51123   0.54989  -0.20174  -0.41006
  46   35283.1    283.4   0.021391829   0.19960  -0.32969  -0.21099  -0.21537
  47   35485.4    281.8   0.079202554   0.73479   0.78104   0.11828   0.33284
  48   35668.5    280.4   0.014246349   0.13149   0.28485  -0.03698   0.22132
  49   35958.5    278.1   0.087836746   0.80418   0.73639  -0.34058  -0.38198
  50   36330.3    275.3   0.045682019   0.41395  -0.57557  -0.07836  -0.27665
  51   36457.8    274.3   0.052394881   0.47312   0.35941  -0.45415  -0.37107
  52   36620.1    273.1   0.009115777   0.08195  -0.15732   0.23903   0.00814
  53   36711.5    272.4   0.062214054   0.55791  -0.64126   0.16371   0.34626
  54   37009.4    270.2   0.010198253   0.09072   0.16115   0.20441   0.15154
  55   37223.3    268.6   0.078662989   0.69571   0.70139  -0.26594  -0.36474
  56   37635.0    265.7   0.171498944   1.50018  -0.08394   0.67442   1.01897
  57   37669.6    265.5   0.074266318   0.64905   0.77173   0.13863   0.18510
  58   37735.5    265.0   0.005717904   0.04988   0.21122  -0.03923  -0.06109
  59   37953.8    263.5   0.010090158   0.08752  -0.25692  -0.03535  -0.14235
  60   38020.1    263.0   0.009722311   0.08418   0.19964   0.06025  -0.20174
  61   38090.9    262.5   0.066356219   0.57350   0.58222  -0.32699  -0.35721
  62   38406.5    260.4   0.014904166   0.12776   0.20097  -0.29302  -0.03881
  63   38515.6    259.6   0.032541689   0.27815   0.28755  -0.28075  -0.34153
  64   38943.3    256.8   0.024728275   0.20904   0.09154  -0.02750  -0.44711
  65   39193.5    255.1   0.035703004   0.29989   0.37176   0.25958   0.30710
  66   39275.4    254.6   0.043099937   0.36127  -0.56470  -0.20379   0.02924
  67   39691.2    251.9   0.058362511   0.48408  -0.04284  -0.46833  -0.51274
  68   39828.2    251.1   0.034196015   0.28266   0.25432  -0.39497  -0.24896
  69   39928.4    250.4   0.122110842   1.00681   0.94583  -0.05230  -0.33087
  70   40215.1    248.7   0.022512902   0.18430   0.41777   0.06626   0.07329

FINAL SINGLE POINT ENERGY     -5892.018842267729

DIPOLE MOMENT
-------------
                                X             Y             Z
Electronic contribution:    -57.74427      -3.47136      34.35908
Nuclear contribution   :     58.65405       5.41556     -33.33907
                        -----------------------------------------
Total Dipole Moment    :      0.90978       1.94420       1.02001
                        -----------------------------------------
Magnitude (a.u.)       :      2.37656
Magnitude (Debye)      :      6.04073

Rotational constants in cm-1:     0.001064     0.000611     0.000408
Rotational constants in MHz :    31.898737    18.328283    12.235632

                             ****ORCA TERMINATED NORMALLY****
TOTAL RUN TIME: 0 days 0 hours 13 minutes 53 seconds 405 msec
