                         Program Version 4.2.0 -  RELEASE  -
|  1> # ORCA input file
|  2> # SCF done       -194.315140532180          0.000948453034
|  3> ! CAM-B3LYP def2-SVP def2/J RIJCOSX Grid4 TightSCF
|  4> %maxcore 5000
|  5> %tddft
|  6>     Mode sTDDFT
|  7>     Ethresh 5.0
|  8>     maxcore 5000
|  9> end
| 10>
| 11> %pal
| 12>   nprocs 6
| 13>   end
| 14> * xyz 0 1
| 15>    C        1.84052        13.61276         2.32655
| 16>    S        0.51578        12.54507         2.57143
| 17>    C        0.97959        11.55366         1.22157
| 18>    C        2.12486        12.05662         0.62289
| 19>    C        2.61360        13.23968         1.26392
| 20>    O        3.72137        13.84084         0.79083
| 21>    C        4.15996        15.00277         1.45515
| 22>    C        2.78440        11.50761        -0.48782
| 23>    N        3.35470        11.09108        -1.39208
| 24>    C        0.17461        10.42468         0.90883
| 25>    C        0.34446         9.56538        -0.12230
| 26>    C       -0.54976         8.48178        -0.34386
| 27>    O       -1.59020         8.26780         0.51308
| 28>    C       -0.61067         7.52909        -1.33945
| 29>    C        0.03006         7.04065        -2.56619
| 30>    O        1.00183         7.41976        -3.16202
| 31>    N       -0.77042         5.96134        -2.94344
| 32>    C       -1.85262         5.69295        -2.10802
| 33>    O       -2.65191         4.80759        -2.26877
| 34>    C       -1.74241         6.71703        -1.06717
| 35>    C       -2.32167         7.20333         0.08557
| 36>    C       -3.48293         6.78900         0.79912
| 37>    C       -3.87626         7.38177         1.94396
| 38>    C       -5.03391         6.98467         2.70928
| 39>    C       -5.40625         5.67049         2.76579
| 40>    S       -6.73555         5.34319         3.79390
| 41>    C       -6.85626         7.03419         4.17129
| 42>    C       -5.89099         7.81946         3.52351
| 43>    C       -5.95009         9.22632         3.67647
| 44>    C       -5.01071        10.08384         2.86608
| 45>    C       -3.72217        10.41678         3.62423
| 46>    C       -6.88232         9.80409         4.53071
| 47>    C       -6.93467        11.30137         4.69882
| 48>    C       -8.08196        11.90839         3.88887
| 49>    C       -7.83572         9.00063         5.20581
| 50>    C       -8.96374         9.34919         6.04838
| 51>    C       -9.70661         8.24512         6.37614
| 52>    S       -9.10818         6.76317         5.77066
| 53>    C       -7.81589         7.61456         4.98256
| 54>    C       -9.36551        10.63560         6.55746
| 55>    C      -10.66286        10.99663         6.72646
| 56>    C      -11.06462        12.22826         7.28072
| 57>    C      -12.36779        12.64431         7.36026
| 58>    C      -12.85214        13.85357         7.91894
| 59>    C      -14.20253        14.00497         7.83726
| 60>    C      -14.86065        12.92810         7.19922
| 61>    S      -13.71393        11.70329         6.72787
| 62>    C      -16.21204        12.79994         6.92436
| 63>    C      -17.25469        13.69402         7.24262
| 64>    C      -18.47987        13.28609         6.79968
| 65>    C      -18.46351        12.05508         6.10696
| 66>    S      -16.83688        11.41711         6.05212
| 67>    C      -19.54474        11.42114         5.52195
| 68>    C      -19.43114        10.22027         4.83231
| 69>    C      -20.46767         9.56786         4.19192
| 70>    C      -20.38097         8.33109         3.46120
| 71>    C      -19.26890         7.53749         3.28981
| 72>    C      -19.26510         6.32761         2.56899
| 73>    N      -19.19214         5.33276         1.99848
| 74>    C      -17.98206         7.79843         3.79957
| 75>    N      -16.90199         7.92876         4.17173
| 76>    C      -21.70659         8.04393         2.91412
| 77>    C      -22.59247         9.07507         3.30936
| 78>    C      -21.85585        10.05962         4.13182
| 79>    O      -22.32311        11.06223         4.63840
| 80>    C      -23.91451         9.09834         2.94143
| 81>    C      -24.38839         8.05178         2.14187
| 82>    C      -23.49732         7.02546         1.75390
| 83>    C      -22.15842         7.00209         2.12771
| 84>    S      -24.28681         5.83270         0.76576
| 85>    C      -25.78300         6.71945         0.88651
| 86>    C      -25.69877         7.84930         1.62724
| 87>   Br      -27.31566         6.07099         0.01934
| 88>    H        1.96289        14.44888         2.98425
| 89>    H        5.05669        15.32325         0.92908
| 90>    H        4.40332        14.79354         2.50162
| 91>    H        3.40508        15.79423         1.40951
| 92>    H       -0.66181        10.26368         1.57717
| 93>    H        1.15097         9.66459        -0.83179
| 94>    H       -0.57684         5.41189        -3.76872
| 95>    H       -4.04197         5.98754         0.34115
| 96>    H       -3.26046         8.17585         2.33540
| 97>    H       -4.91693         4.84984         2.27858
| 98>    H       -4.77005         9.55778         1.94187
| 99>    H       -5.50581        11.00970         2.57347
|100>    H       -3.23579         9.51346         3.98575
|101>    H       -3.93004        11.04042         4.49058
|102>    H       -3.03184        10.95280         2.97585
|103>    H       -6.00046        11.75878         4.38398
|104>    H       -7.05049        11.54313         5.75364
|105>    H       -7.95006        11.69224         2.83097
|106>    H       -8.10848        12.98774         4.02091
|107>    H       -9.03892        11.49907         4.20198
|108>    H      -10.57292         8.22999         7.00840
|109>    H       -8.60028        11.33979         6.84625
|110>    H      -11.44999        10.33396         6.39100
|111>    H      -10.30206        12.89376         7.66445
|112>    H      -12.18501        14.57087         8.36370
|113>    H      -14.74000        14.85908         8.20786
|114>    H      -17.08079        14.60675         7.78388
|115>    H      -19.39418        13.83373         6.94352
|116>    H      -20.51281        11.89458         5.59813
|117>    H      -18.44433         9.77540         4.79060
|118>    H      -24.56422         9.89934         3.25779
|119>    H      -21.52064         6.19735         1.80287
|120>    H      -26.52433         8.51443         1.80372
|121> *
|122>
|123>                          ****END OF INPUT****

CARTESIAN COORDINATES (ANGSTROEM)
---------------------------------
  C      1.840520   13.612760    2.326550
  S      0.515780   12.545070    2.571430
  C      0.979590   11.553660    1.221570
  C      2.124860   12.056620    0.622890
  C      2.613600   13.239680    1.263920
  O      3.721370   13.840840    0.790830
  C      4.159960   15.002770    1.455150
  C      2.784400   11.507610   -0.487820
  N      3.354700   11.091080   -1.392080
  C      0.174610   10.424680    0.908830
  C      0.344460    9.565380   -0.122300
  C     -0.549760    8.481780   -0.343860
  O     -1.590200    8.267800    0.513080
  C     -0.610670    7.529090   -1.339450
  C      0.030060    7.040650   -2.566190
  O      1.001830    7.419760   -3.162020
  N     -0.770420    5.961340   -2.943440
  C     -1.852620    5.692950   -2.108020
  O     -2.651910    4.807590   -2.268770
  C     -1.742410    6.717030   -1.067170
  C     -2.321670    7.203330    0.085570
  C     -3.482930    6.789000    0.799120
  C     -3.876260    7.381770    1.943960
  C     -5.033910    6.984670    2.709280
  C     -5.406250    5.670490    2.765790
  S     -6.735550    5.343190    3.793900
  C     -6.856260    7.034190    4.171290
  C     -5.890990    7.819460    3.523510
  C     -5.950090    9.226320    3.676470
  C     -5.010710   10.083840    2.866080
  C     -3.722170   10.416780    3.624230
  C     -6.882320    9.804090    4.530710
  C     -6.934670   11.301370    4.698820
  C     -8.081960   11.908390    3.888870
  C     -7.835720    9.000630    5.205810
  C     -8.963740    9.349190    6.048380
  C     -9.706610    8.245120    6.376140
  S     -9.108180    6.763170    5.770660
  C     -7.815890    7.614560    4.982560
  C     -9.365510   10.635600    6.557460
  C    -10.662860   10.996630    6.726460
  C    -11.064620   12.228260    7.280720
  C    -12.367790   12.644310    7.360260
  C    -12.852140   13.853570    7.918940
  C    -14.202530   14.004970    7.837260
  C    -14.860650   12.928100    7.199220
  S    -13.713930   11.703290    6.727870
  C    -16.212040   12.799940    6.924360
  C    -17.254690   13.694020    7.242620
  C    -18.479870   13.286090    6.799680
  C    -18.463510   12.055080    6.106960
  S    -16.836880   11.417110    6.052120
  C    -19.544740   11.421140    5.521950
  C    -19.431140   10.220270    4.832310
  C    -20.467670    9.567860    4.191920
  C    -20.380970    8.331090    3.461200
  C    -19.268900    7.537490    3.289810
  C    -19.265100    6.327610    2.568990
  N    -19.192140    5.332760    1.998480
  C    -17.982060    7.798430    3.799570
  N    -16.901990    7.928760    4.171730
  C    -21.706590    8.043930    2.914120
  C    -22.592470    9.075070    3.309360
  C    -21.855850   10.059620    4.131820
  O    -22.323110   11.062230    4.638400
  C    -23.914510    9.098340    2.941430
  C    -24.388390    8.051780    2.141870
  C    -23.497320    7.025460    1.753900
  C    -22.158420    7.002090    2.127710
  S    -24.286810    5.832700    0.765760
  C    -25.783000    6.719450    0.886510
  C    -25.698770    7.849300    1.627240
  Br   -27.315660    6.070990    0.019340
  H      1.962890   14.448880    2.984250
  H      5.056690   15.323250    0.929080
  H      4.403320   14.793540    2.501620
  H      3.405080   15.794230    1.409510
  H     -0.661810   10.263680    1.577170
  H      1.150970    9.664590   -0.831790
  H     -0.576840    5.411890   -3.768720
  H     -4.041970    5.987540    0.341150
  H     -3.260460    8.175850    2.335400
  H     -4.916930    4.849840    2.278580
  H     -4.770050    9.557780    1.941870
  H     -5.505810   11.009700    2.573470
  H     -3.235790    9.513460    3.985750
  H     -3.930040   11.040420    4.490580
  H     -3.031840   10.952800    2.975850
  H     -6.000460   11.758780    4.383980
  H     -7.050490   11.543130    5.753640
  H     -7.950060   11.692240    2.830970
  H     -8.108480   12.987740    4.020910
  H     -9.038920   11.499070    4.201980
  H    -10.572920    8.229990    7.008400
  H     -8.600280   11.339790    6.846250
  H    -11.449990   10.333960    6.391000
  H    -10.302060   12.893760    7.664450
  H    -12.185010   14.570870    8.363700
  H    -14.740000   14.859080    8.207860
  H    -17.080790   14.606750    7.783880
  H    -19.394180   13.833730    6.943520
  H    -20.512810   11.894580    5.598130
  H    -18.444330    9.775400    4.790600
  H    -24.564220    9.899340    3.257790
  H    -21.520640    6.197350    1.802870
  H    -26.524330    8.514430    1.803720

 Total Charge           Charge          ....    0
 Multiplicity           Mult            ....    1
 Number of Electrons    NEL             ....  574
 Basis Dimension        Dim             .... 1229

ORBITAL ENERGIES
----------------

  NO   OCC          E(Eh)            E(eV)
   0   2.0000    -482.875817    -13139.7190
   1   2.0000     -88.974973     -2421.1321
   2   2.0000     -88.963229     -2420.8125
   3   2.0000     -88.962832     -2420.8017
   4   2.0000     -88.962295     -2420.7871
   5   2.0000     -88.960990     -2420.7516
   6   2.0000     -88.957198     -2420.6484
   7   2.0000     -62.553528     -1702.1680
   8   2.0000     -56.387465     -1534.3809
   9   2.0000     -56.384774     -1534.3077
  10   2.0000     -56.384737     -1534.3067
  11   2.0000     -19.309607      -525.4411
  12   2.0000     -19.262729      -524.1655
  13   2.0000     -19.204472      -522.5802
  14   2.0000     -19.204092      -522.5699
  15   2.0000     -19.198031      -522.4050
  16   2.0000     -14.448245      -393.1567
  17   2.0000     -14.401744      -391.8914
  18   2.0000     -14.399079      -391.8189
  19   2.0000     -14.396382      -391.7455
  20   2.0000     -10.394287      -282.8429
  21   2.0000     -10.393920      -282.8329
  22   2.0000     -10.360728      -281.9297
  23   2.0000     -10.359136      -281.8864
  24   2.0000     -10.355454      -281.7862
  25   2.0000     -10.348261      -281.5905
  26   2.0000     -10.346898      -281.5534
  27   2.0000     -10.336218      -281.2628
  28   2.0000     -10.334366      -281.2124
  29   2.0000     -10.331400      -281.1317
  30   2.0000     -10.325006      -280.9577
  31   2.0000     -10.322579      -280.8917
  32   2.0000     -10.321854      -280.8719
  33   2.0000     -10.320211      -280.8272
  34   2.0000     -10.319729      -280.8141
  35   2.0000     -10.313374      -280.6412
  36   2.0000     -10.311406      -280.5876
  37   2.0000     -10.307511      -280.4816
  38   2.0000     -10.307048      -280.4690
  39   2.0000     -10.306122      -280.4438
  40   2.0000     -10.306074      -280.4425
  41   2.0000     -10.305072      -280.4153
  42   2.0000     -10.304706      -280.4053
  43   2.0000     -10.304264      -280.3933
  44   2.0000     -10.304126      -280.3895
  45   2.0000     -10.303049      -280.3602
  46   2.0000     -10.302935      -280.3571
  47   2.0000     -10.302865      -280.3552
  48   2.0000     -10.302716      -280.3511
  49   2.0000     -10.300819      -280.2995
  50   2.0000     -10.300796      -280.2989
  51   2.0000     -10.298812      -280.2449
  52   2.0000     -10.296313      -280.1769
  53   2.0000     -10.295641      -280.1586
  54   2.0000     -10.294145      -280.1179
  55   2.0000     -10.293444      -280.0988
  56   2.0000     -10.291952      -280.0582
  57   2.0000     -10.291437      -280.0442
  58   2.0000     -10.290908      -280.0299
  59   2.0000     -10.290905      -280.0298
  60   2.0000     -10.290427      -280.0168
  61   2.0000     -10.289934      -280.0033
  62   2.0000     -10.289674      -279.9963
  63   2.0000     -10.288996      -279.9778
  64   2.0000     -10.287658      -279.9414
  65   2.0000     -10.286152      -279.9004
  66   2.0000     -10.285778      -279.8903
  67   2.0000     -10.285293      -279.8771
  68   2.0000     -10.284367      -279.8518
  69   2.0000     -10.283573      -279.8302
  70   2.0000     -10.275862      -279.6204
  71   2.0000     -10.274705      -279.5889
  72   2.0000     -10.274522      -279.5840
  73   2.0000     -10.273974      -279.5690
  74   2.0000     -10.271123      -279.4915
  75   2.0000     -10.269587      -279.4497
  76   2.0000     -10.262326      -279.2521
  77   2.0000      -8.782947      -238.9961
  78   2.0000      -8.070653      -219.6136
  79   2.0000      -8.059225      -219.3027
  80   2.0000      -8.059214      -219.3024
  81   2.0000      -8.058501      -219.2829
  82   2.0000      -8.057182      -219.2471
  83   2.0000      -8.053233      -219.1396
  84   2.0000      -6.619189      -180.1173
  85   2.0000      -6.604702      -179.7231
  86   2.0000      -6.604529      -179.7184
  87   2.0000      -6.039994      -164.3566
  88   2.0000      -6.035783      -164.2420
  89   2.0000      -6.032740      -164.1592
  90   2.0000      -6.028923      -164.0553
  91   2.0000      -6.028877      -164.0541
  92   2.0000      -6.027905      -164.0276
  93   2.0000      -6.026655      -163.9936
  94   2.0000      -6.024862      -163.9448
  95   2.0000      -6.024636      -163.9387
  96   2.0000      -6.023710      -163.9135
  97   2.0000      -6.022822      -163.8893
  98   2.0000      -6.022377      -163.8772
  99   2.0000      -6.020426      -163.8241
 100   2.0000      -6.020315      -163.8211
 101   2.0000      -6.020189      -163.8177
 102   2.0000      -6.018938      -163.7836
 103   2.0000      -6.018815      -163.7803
 104   2.0000      -6.014383      -163.6597
 105   2.0000      -2.735065       -74.4249
 106   2.0000      -2.730988       -74.3140
 107   2.0000      -2.730898       -74.3115
 108   2.0000      -2.719361       -73.9976
 109   2.0000      -2.719342       -73.9971
 110   2.0000      -1.225041       -33.3351
 111   2.0000      -1.169615       -31.8268
 112   2.0000      -1.149296       -31.2739
 113   2.0000      -1.128787       -30.7158
 114   2.0000      -1.111143       -30.2357
 115   2.0000      -1.036484       -28.2042
 116   2.0000      -1.012078       -27.5400
 117   2.0000      -1.011361       -27.5205
 118   2.0000      -1.007765       -27.4227
 119   2.0000      -1.006707       -27.3939
 120   2.0000      -0.997300       -27.1379
 121   2.0000      -0.988666       -26.9030
 122   2.0000      -0.982136       -26.7253
 123   2.0000      -0.980443       -26.6792
 124   2.0000      -0.976886       -26.5824
 125   2.0000      -0.972641       -26.4669
 126   2.0000      -0.936184       -25.4749
 127   2.0000      -0.934332       -25.4245
 128   2.0000      -0.929974       -25.3059
 129   2.0000      -0.927118       -25.2282
 130   2.0000      -0.919745       -25.0275
 131   2.0000      -0.909475       -24.7481
 132   2.0000      -0.904538       -24.6137
 133   2.0000      -0.893410       -24.3109
 134   2.0000      -0.887151       -24.1406
 135   2.0000      -0.878254       -23.8985
 136   2.0000      -0.872713       -23.7477
 137   2.0000      -0.871403       -23.7121
 138   2.0000      -0.871088       -23.7035
 139   2.0000      -0.862311       -23.4647
 140   2.0000      -0.861739       -23.4491
 141   2.0000      -0.860383       -23.4122
 142   2.0000      -0.842031       -22.9128
 143   2.0000      -0.836788       -22.7701
 144   2.0000      -0.834855       -22.7176
 145   2.0000      -0.822083       -22.3700
 146   2.0000      -0.815300       -22.1854
 147   2.0000      -0.814106       -22.1530
 148   2.0000      -0.800142       -21.7730
 149   2.0000      -0.796699       -21.6793
 150   2.0000      -0.786278       -21.3957
 151   2.0000      -0.779996       -21.2248
 152   2.0000      -0.766573       -20.8595
 153   2.0000      -0.759124       -20.6568
 154   2.0000      -0.755590       -20.5606
 155   2.0000      -0.742445       -20.2030
 156   2.0000      -0.735533       -20.0149
 157   2.0000      -0.731088       -19.8939
 158   2.0000      -0.728207       -19.8155
 159   2.0000      -0.714076       -19.4310
 160   2.0000      -0.706467       -19.2239
 161   2.0000      -0.701281       -19.0828
 162   2.0000      -0.700460       -19.0605
 163   2.0000      -0.695930       -18.9372
 164   2.0000      -0.684480       -18.6257
 165   2.0000      -0.681710       -18.5503
 166   2.0000      -0.680297       -18.5118
 167   2.0000      -0.674075       -18.3425
 168   2.0000      -0.665800       -18.1173
 169   2.0000      -0.658249       -17.9119
 170   2.0000      -0.657041       -17.8790
 171   2.0000      -0.645229       -17.5576
 172   2.0000      -0.642496       -17.4832
 173   2.0000      -0.641267       -17.4498
 174   2.0000      -0.632763       -17.2184
 175   2.0000      -0.631142       -17.1743
 176   2.0000      -0.626094       -17.0369
 177   2.0000      -0.618684       -16.8353
 178   2.0000      -0.617296       -16.7975
 179   2.0000      -0.608976       -16.5711
 180   2.0000      -0.608307       -16.5529
 181   2.0000      -0.602419       -16.3927
 182   2.0000      -0.590598       -16.0710
 183   2.0000      -0.586261       -15.9530
 184   2.0000      -0.585212       -15.9244
 185   2.0000      -0.582412       -15.8482
 186   2.0000      -0.581478       -15.8228
 187   2.0000      -0.578556       -15.7433
 188   2.0000      -0.573778       -15.6133
 189   2.0000      -0.569703       -15.5024
 190   2.0000      -0.566333       -15.4107
 191   2.0000      -0.562902       -15.3173
 192   2.0000      -0.558453       -15.1963
 193   2.0000      -0.555353       -15.1119
 194   2.0000      -0.547173       -14.8893
 195   2.0000      -0.546796       -14.8791
 196   2.0000      -0.540602       -14.7105
 197   2.0000      -0.539096       -14.6695
 198   2.0000      -0.536766       -14.6062
 199   2.0000      -0.534466       -14.5436
 200   2.0000      -0.530205       -14.4276
 201   2.0000      -0.526034       -14.3141
 202   2.0000      -0.523377       -14.2418
 203   2.0000      -0.521595       -14.1933
 204   2.0000      -0.518273       -14.1029
 205   2.0000      -0.516506       -14.0548
 206   2.0000      -0.514113       -13.9897
 207   2.0000      -0.512208       -13.9379
 208   2.0000      -0.511075       -13.9070
 209   2.0000      -0.509643       -13.8681
 210   2.0000      -0.506738       -13.7891
 211   2.0000      -0.505655       -13.7596
 212   2.0000      -0.503952       -13.7132
 213   2.0000      -0.500289       -13.6135
 214   2.0000      -0.499095       -13.5811
 215   2.0000      -0.497210       -13.5298
 216   2.0000      -0.494970       -13.4688
 217   2.0000      -0.493763       -13.4360
 218   2.0000      -0.491981       -13.3875
 219   2.0000      -0.490779       -13.3548
 220   2.0000      -0.482459       -13.1284
 221   2.0000      -0.481792       -13.1102
 222   2.0000      -0.480259       -13.0685
 223   2.0000      -0.479373       -13.0444
 224   2.0000      -0.478275       -13.0145
 225   2.0000      -0.476665       -12.9707
 226   2.0000      -0.476089       -12.9550
 227   2.0000      -0.473942       -12.8966
 228   2.0000      -0.471402       -12.8275
 229   2.0000      -0.470388       -12.7999
 230   2.0000      -0.467958       -12.7338
 231   2.0000      -0.467475       -12.7206
 232   2.0000      -0.460544       -12.5321
 233   2.0000      -0.457175       -12.4404
 234   2.0000      -0.456012       -12.4087
 235   2.0000      -0.453414       -12.3380
 236   2.0000      -0.452211       -12.3053
 237   2.0000      -0.447299       -12.1716
 238   2.0000      -0.444737       -12.1019
 239   2.0000      -0.443748       -12.0750
 240   2.0000      -0.440077       -11.9751
 241   2.0000      -0.436746       -11.8845
 242   2.0000      -0.436057       -11.8657
 243   2.0000      -0.434181       -11.8147
 244   2.0000      -0.432958       -11.7814
 245   2.0000      -0.431209       -11.7338
 246   2.0000      -0.430234       -11.7073
 247   2.0000      -0.429244       -11.6803
 248   2.0000      -0.428248       -11.6532
 249   2.0000      -0.427508       -11.6331
 250   2.0000      -0.425185       -11.5699
 251   2.0000      -0.425139       -11.5686
 252   2.0000      -0.423622       -11.5273
 253   2.0000      -0.417254       -11.3541
 254   2.0000      -0.410475       -11.1696
 255   2.0000      -0.410117       -11.1599
 256   2.0000      -0.409369       -11.1395
 257   2.0000      -0.406923       -11.0730
 258   2.0000      -0.405302       -11.0288
 259   2.0000      -0.400808       -10.9065
 260   2.0000      -0.396945       -10.8014
 261   2.0000      -0.391829       -10.6622
 262   2.0000      -0.390750       -10.6328
 263   2.0000      -0.387666       -10.5489
 264   2.0000      -0.383497       -10.4355
 265   2.0000      -0.374775       -10.1982
 266   2.0000      -0.371632       -10.1126
 267   2.0000      -0.365435        -9.9440
 268   2.0000      -0.365210        -9.9379
 269   2.0000      -0.363413        -9.8890
 270   2.0000      -0.355548        -9.6749
 271   2.0000      -0.354238        -9.6393
 272   2.0000      -0.349869        -9.5204
 273   2.0000      -0.343487        -9.3468
 274   2.0000      -0.339027        -9.2254
 275   2.0000      -0.335407        -9.1269
 276   2.0000      -0.326301        -8.8791
 277   2.0000      -0.320254        -8.7145
 278   2.0000      -0.318405        -8.6642
 279   2.0000      -0.306502        -8.3403
 280   2.0000      -0.301840        -8.2135
 281   2.0000      -0.296776        -8.0757
 282   2.0000      -0.282029        -7.6744
 283   2.0000      -0.280461        -7.6317
 284   2.0000      -0.271434        -7.3861
 285   2.0000      -0.254340        -6.9209
 286   2.0000      -0.224897        -6.1198
 287   0.0000      -0.107182        -2.9166
 288   0.0000      -0.069867        -1.9012
 289   0.0000      -0.057798        -1.5728
 290   0.0000      -0.043727        -1.1899
 291   0.0000      -0.040240        -1.0950

MULLIKEN ATOMIC CHARGES
-----------------------
   0 C :   -0.224040
   1 S :    0.138105
   2 C :   -0.059423
   3 C :   -0.107670
   4 C :    0.267935
   5 O :   -0.283248
   6 C :    0.175581
   7 C :   -0.201063
   8 N :    0.150796
   9 C :    0.037647
  10 C :   -0.023891
  11 C :    0.072858
  12 O :   -0.226260
  13 C :   -0.017023
  14 C :    0.161378
  15 O :   -0.128834
  16 N :   -0.167890
  17 C :    0.160757
  18 O :   -0.145466
  19 C :   -0.033137
  20 C :    0.084910
  21 C :   -0.030652
  22 C :   -0.010468
  23 C :    0.073486
  24 C :   -0.108738
  25 S :    0.144159
  26 C :   -0.145891
  27 C :    0.118789
  28 C :   -0.116968
  29 C :    0.005403
  30 C :    0.033815
  31 C :   -0.117782
  32 C :    0.036681
  33 C :    0.031472
  34 C :    0.122204
  35 C :    0.063819
  36 C :   -0.110126
  37 S :    0.151046
  38 C :   -0.151262
  39 C :   -0.022068
  40 C :   -0.010521
  41 C :    0.005784
  42 C :   -0.031587
  43 C :    0.055051
  44 C :    0.019841
  45 C :   -0.028699
  46 S :    0.105396
  47 C :   -0.056448
  48 C :    0.044605
  49 C :    0.022319
  50 C :    0.006988
  51 S :    0.109289
  52 C :   -0.025861
  53 C :   -0.041777
  54 C :   -0.089091
  55 C :    0.331272
  56 C :   -0.369854
  57 C :   -0.186483
  58 N :    0.135244
  59 C :   -0.188460
  60 N :    0.128115
  61 C :    0.013063
  62 C :   -0.006656
  63 C :    0.134960
  64 O :   -0.166725
  65 C :   -0.079173
  66 C :    0.119576
  67 C :   -0.093453
  68 C :   -0.027210
  69 S :    0.179146
  70 C :   -0.122714
  71 C :    0.035261
  72 Br:    0.013383
  73 H :    0.023095
  74 H :    0.049392
  75 H :    0.025759
  76 H :    0.026369
  77 H :   -0.004910
  78 H :    0.032747
  79 H :    0.137872
  80 H :    0.011377
  81 H :    0.006480
  82 H :    0.029247
  83 H :    0.015830
  84 H :    0.006455
  85 H :    0.019779
  86 H :    0.009227
  87 H :    0.018542
  88 H :   -0.004951
  89 H :   -0.003517
  90 H :    0.012118
  91 H :    0.013185
  92 H :    0.026111
  93 H :    0.030136
  94 H :    0.003694
  95 H :    0.014062
  96 H :   -0.008013
  97 H :   -0.004164
  98 H :   -0.007409
  99 H :   -0.007087
 100 H :   -0.001520
 101 H :    0.015693
 102 H :    0.014408
 103 H :   -0.016417
 104 H :   -0.010345
 105 H :   -0.006769
Sum of atomic charges:   -0.0000000

LOEWDIN ATOMIC CHARGES
----------------------
   0 C :   -0.253199
   1 S :    0.456379
   2 C :   -0.136390
   3 C :   -0.121601
   4 C :    0.036478
   5 O :   -0.085632
   6 C :    0.082621
   7 C :   -0.029508
   8 N :   -0.046952
   9 C :   -0.035007
  10 C :   -0.016079
  11 C :    0.064625
  12 O :    0.008352
  13 C :   -0.089422
  14 C :    0.083417
  15 O :   -0.149291
  16 N :   -0.007102
  17 C :    0.082744
  18 O :   -0.163528
  19 C :   -0.103987
  20 C :    0.074979
  21 C :   -0.044512
  22 C :    0.008229
  23 C :   -0.067504
  24 C :   -0.155783
  25 S :    0.429262
  26 C :   -0.177541
  27 C :   -0.040342
  28 C :   -0.020251
  29 C :   -0.032232
  30 C :   -0.052633
  31 C :   -0.018567
  32 C :   -0.031077
  33 C :   -0.049830
  34 C :   -0.039914
  35 C :   -0.069752
  36 C :   -0.156135
  37 S :    0.434959
  38 C :   -0.176327
  39 C :    0.012440
  40 C :   -0.041731
  41 C :   -0.021826
  42 C :   -0.156967
  43 C :   -0.011663
  44 C :   -0.039009
  45 C :   -0.146866
  46 S :    0.396938
  47 C :   -0.196572
  48 C :   -0.008017
  49 C :   -0.044355
  50 C :   -0.102872
  51 S :    0.411441
  52 C :   -0.075554
  53 C :    0.049221
  54 C :   -0.110269
  55 C :    0.073267
  56 C :   -0.158070
  57 C :   -0.018827
  58 N :   -0.070121
  59 C :   -0.020650
  60 N :   -0.069629
  61 C :   -0.017865
  62 C :   -0.048480
  63 C :    0.081643
  64 O :   -0.160098
  65 C :    0.016485
  66 C :   -0.036178
  67 C :   -0.145941
  68 C :   -0.013987
  69 S :    0.426721
  70 C :   -0.275029
  71 C :   -0.071226
  72 Br:    0.128760
  73 H :    0.024182
  74 H :    0.034017
  75 H :    0.017025
  76 H :    0.017162
  77 H :    0.030612
  78 H :    0.053050
  79 H :    0.094498
  80 H :    0.044010
  81 H :    0.032101
  82 H :    0.027054
  83 H :    0.030817
  84 H :    0.028013
  85 H :    0.022695
  86 H :    0.024147
  87 H :    0.023059
  88 H :    0.025211
  89 H :    0.022425
  90 H :    0.025819
  91 H :    0.023958
  92 H :    0.025913
  93 H :    0.026698
  94 H :    0.029262
  95 H :    0.025810
  96 H :    0.036048
  97 H :    0.037219
  98 H :    0.034254
  99 H :    0.034527
 100 H :    0.038218
 101 H :    0.038218
 102 H :    0.031220
 103 H :    0.038461
 104 H :    0.039918
 105 H :    0.037318

  Mayer bond orders larger than 0.100000
B(  0-C ,  1-S ) :   1.1036 B(  0-C ,  4-C ) :   1.4812 B(  0-C , 73-H ) :   0.9745
B(  1-S ,  2-C ) :   1.1511 B(  2-C ,  3-C ) :   1.4954 B(  2-C ,  9-C ) :   1.1215
B(  3-C ,  4-C ) :   1.2443 B(  3-C ,  7-C ) :   1.1436 B(  4-C ,  5-O ) :   1.2298
B(  5-O ,  6-C ) :   0.9507 B(  6-C , 74-H ) :   0.9808 B(  6-C , 75-H ) :   0.9687
B(  6-C , 76-H ) :   0.9689 B(  7-C ,  8-N ) :   2.9732 B(  9-C , 10-C ) :   1.6581
B(  9-C , 77-H ) :   0.9547 B( 10-C , 11-C ) :   1.1827 B( 10-C , 78-H ) :   0.9493
B( 11-C , 12-O ) :   1.1353 B( 11-C , 13-C ) :   1.4098 B( 12-O , 20-C ) :   1.1443
B( 13-C , 14-C ) :   0.8714 B( 13-C , 19-C ) :   1.2596 B( 14-C , 15-O ) :   2.2825
B( 14-C , 16-N ) :   1.0730 B( 16-N , 17-C ) :   1.0801 B( 16-N , 79-H ) :   0.9140
B( 17-C , 18-O ) :   2.2683 B( 17-C , 19-C ) :   0.8790 B( 19-C , 20-C ) :   1.4072
B( 20-C , 21-C ) :   1.1560 B( 21-C , 22-C ) :   1.6993 B( 21-C , 80-H ) :   0.9651
B( 22-C , 23-C ) :   1.0078 B( 22-C , 81-H ) :   0.9641 B( 23-C , 24-C ) :   1.6004
B( 23-C , 27-C ) :   1.1442 B( 24-C , 25-S ) :   1.1306 B( 24-C , 82-H ) :   0.9630
B( 25-S , 26-C ) :   1.0783 B( 26-C , 27-C ) :   1.3729 B( 26-C , 38-C ) :   1.3803
B( 27-C , 28-C ) :   1.2666 B( 28-C , 29-C ) :   1.0544 B( 28-C , 31-C ) :   1.5221
B( 29-C , 30-C ) :   1.1092 B( 29-C , 83-H ) :   0.9228 B( 29-C , 84-H ) :   0.9132
B( 30-C , 85-H ) :   0.9569 B( 30-C , 86-H ) :   0.9556 B( 30-C , 87-H ) :   0.9654
B( 31-C , 32-C ) :   1.0653 B( 31-C , 34-C ) :   1.2565 B( 32-C , 33-C ) :   1.1038
B( 32-C , 88-H ) :   0.9080 B( 32-C , 89-H ) :   0.9257 B( 33-C , 90-H ) :   0.9579
B( 33-C , 91-H ) :   0.9661 B( 33-C , 92-H ) :   0.9652 B( 34-C , 35-C ) :   1.1390
B( 34-C , 38-C ) :   1.3756 B( 35-C , 36-C ) :   1.5903 B( 35-C , 39-C ) :   1.0199
B( 36-C , 37-S ) :   1.1364 B( 36-C , 93-H ) :   0.9630 B( 37-S , 38-C ) :   1.0794
B( 39-C , 40-C ) :   1.6860 B( 39-C , 94-H ) :   0.9728 B( 40-C , 41-C ) :   1.1353
B( 40-C , 95-H ) :   0.9749 B( 41-C , 42-C ) :   1.5758 B( 41-C , 96-H ) :   0.9825
B( 42-C , 43-C ) :   1.1403 B( 42-C , 46-S ) :   1.0213 B( 43-C , 44-C ) :   1.5858
B( 43-C , 97-H ) :   0.9992 B( 44-C , 45-C ) :   1.1953 B( 44-C , 98-H ) :   0.9938
B( 45-C , 46-S ) :   1.0839 B( 45-C , 47-C ) :   1.4634 B( 47-C , 48-C ) :   1.2217
B( 47-C , 51-S ) :   1.0443 B( 48-C , 49-C ) :   1.5357 B( 48-C , 99-H ) :   0.9940
B( 49-C , 50-C ) :   1.1843 B( 49-C ,100-H ) :   1.0022 B( 50-C , 51-S ) :   1.0892
B( 50-C , 52-C ) :   1.4063 B( 52-C , 53-C ) :   1.2687 B( 52-C ,101-H ) :   0.9788
B( 53-C , 54-C ) :   1.4699 B( 53-C ,102-H ) :   0.9429 B( 54-C , 55-C ) :   1.1171
B( 54-C , 63-C ) :   0.9687 B( 55-C , 56-C ) :   1.5789 B( 55-C , 61-C ) :   0.9875
B( 56-C , 57-C ) :   1.1503 B( 56-C , 59-C ) :   1.1548 B( 57-C , 58-N ) :   2.9601
B( 59-C , 60-N ) :   2.9546 B( 61-C , 62-C ) :   1.2789 B( 61-C , 68-C ) :   1.4209
B( 62-C , 63-C ) :   0.9342 B( 62-C , 65-C ) :   1.4303 B( 63-C , 64-O ) :   2.1860
B( 65-C , 66-C ) :   1.2389 B( 65-C ,103-H ) :   1.0159 B( 66-C , 67-C ) :   1.3168
B( 66-C , 71-C ) :   1.1594 B( 67-C , 68-C ) :   1.3199 B( 67-C , 69-S ) :   1.0830
B( 68-C ,104-H ) :   0.9788 B( 69-S , 70-C ) :   1.0846 B( 70-C , 71-C ) :   1.6220
B( 70-C , 72-Br) :   1.0127 B( 71-C ,105-H ) :   0.9999

-----------------------------------------------------------------------------
         ABSORPTION SPECTRUM VIA TRANSITION ELECTRIC DIPOLE MOMENTS
-----------------------------------------------------------------------------
State   Energy  Wavelength   fosc         T2         TX        TY        TZ
        (cm-1)    (nm)                  (au**2)     (au)      (au)      (au)
-----------------------------------------------------------------------------
   0   11952.1    836.7   1.259608316  34.69511   5.52649   1.26544   1.59738
   1   21538.8    464.3   0.055247214   0.84443  -0.86017   0.31022   0.09113
   2   22433.8    445.8   0.609332865   8.94185   1.72301  -2.09192  -1.26371
   3   23379.6    427.7   0.012494216   0.17593   0.37251  -0.02403  -0.19130
   4   24032.8    416.1   0.755746565  10.35257   2.41844   2.11328  -0.19438
   5   24617.3    406.2   0.341195412   4.56287   0.45458  -1.98679  -0.63944
   6   25229.2    396.4   0.275485471   3.59477   1.46895   0.88275   0.81100
   7   26735.4    374.0   0.002066738   0.02545  -0.12477   0.01595   0.09812
   8   26881.2    372.0   0.000107045   0.00131  -0.00078   0.03035   0.01973
   9   28135.6    355.4   0.244084719   2.85602   0.47835  -1.37134  -0.86408
  10   28658.1    348.9   0.004479454   0.05146  -0.00523  -0.17823  -0.14023
  11   28873.8    346.3   0.012496551   0.14248   0.12279  -0.30076  -0.19222
  12   29344.4    340.8   0.529355439   5.93879   1.24241  -0.49961  -2.03608
  13   30906.6    323.6   0.121765726   1.29703  -0.07569   0.94587   0.62978
  14   31218.2    320.3   0.183195877   1.93189  -0.08616   0.98485   0.97700
  15   31355.4    318.9   0.121569080   1.27640   0.59421   0.74836   0.60273
  16   31730.7    315.2   0.219918417   2.28170  -1.40218  -0.34926  -0.44001
  17   31832.2    314.1   0.000176654   0.00183  -0.02832   0.00690  -0.03126
  18   32559.0    307.1   0.388461652   3.92782  -1.77898  -0.26485  -0.83241
  19   33057.1    302.5   0.010457411   0.10414  -0.11777   0.12732   0.27215
  20   33381.0    299.6   0.015449182   0.15236   0.36146  -0.14258   0.03712
  21   34162.4    292.7   0.043092037   0.41526  -0.11477  -0.55139   0.31315
  22   34262.9    291.9   0.128560607   1.23526  -0.85305   0.31279   0.64009
  23   34655.7    288.6   0.005768785   0.05480  -0.22714   0.02630  -0.05018
  24   34765.5    287.6   0.024897520   0.23577   0.38405   0.16919   0.24423
  25   35140.0    284.6   0.181075756   1.69642  -1.24039   0.29686   0.26408
  26   35826.1    279.1   0.150000331   1.37838   0.70144  -0.88221  -0.32873
  27   36024.7    277.6   0.062419283   0.57042   0.67513  -0.32028  -0.10972
  28   36152.2    276.6   0.063276125   0.57621   0.38524   0.65180  -0.05442
  29   36437.3    274.4   0.045715793   0.41304   0.33311   0.54035   0.10049
  30   36616.0    273.1   0.001589087   0.01429  -0.11044  -0.01841  -0.04185
  31   36837.0    271.5   0.029031101   0.25945   0.16251  -0.47893   0.06054
  32   37075.0    269.7   0.030038637   0.26673   0.26891  -0.43592   0.06627
  33   38039.0    262.9   0.170001130   1.47129   0.39701  -0.86172  -0.75572
  34   38293.3    261.1   0.125226957   1.07659  -0.37275   0.81478   0.52324
  35   38534.6    259.5   0.004713987   0.04027   0.12978   0.07287   0.13462
  36   38737.2    258.1   0.027834141   0.23655   0.40715  -0.10071   0.24625
  37   38852.3    257.4   0.057933035   0.49089  -0.47836   0.50350   0.09242
  38   39516.7    253.1   0.020811471   0.17338   0.40048  -0.06977   0.09014
  39   39866.8    250.8   0.016607045   0.13714  -0.21027   0.28679   0.10332
  40   39976.2    250.1   0.000496661   0.00409  -0.03551   0.03203  -0.04247
  41   40058.4    249.6   0.063215933   0.51953  -0.68087  -0.12562   0.20041
  42   40242.2    248.5   0.007676339   0.06280   0.23146   0.09168   0.02860

FINAL SINGLE POINT ENERGY     -7745.852379031952

DIPOLE MOMENT
-------------
                                X             Y             Z
Electronic contribution:   -242.30585     -80.60625     -48.41184
Nuclear contribution   :    243.48666      85.29073      52.42961
                        -----------------------------------------
Total Dipole Moment    :      1.18081       4.68448       4.01778
                        -----------------------------------------
Magnitude (a.u.)       :      6.28341
Magnitude (Debye)      :     15.97116

Rotational constants in cm-1:     0.001034     0.000154     0.000141
Rotational constants in MHz :    30.990070     4.602402     4.220289

                             ****ORCA TERMINATED NORMALLY****
TOTAL RUN TIME: 0 days 0 hours 10 minutes 25 seconds 745 msec
