                         Program Version 4.2.0 -  RELEASE  -
|  1> # ORCA input file
|  2> # SCF done       -166.254450495642          0.000404736675
|  3> ! CAM-B3LYP def2-SVP def2/J RIJCOSX Grid4 TightSCF
|  4> %maxcore 5000
|  5> %tddft
|  6>     Mode sTDDFT
|  7>     Ethresh 5.0
|  8>     maxcore 5000
|  9> end
| 10>
| 11> %pal
| 12>   nprocs 6
| 13>   end
| 14> * xyz 0 1
| 15>    C        4.16709        -6.95395         4.17808
| 16>    C        3.00719        -7.50459         4.64779
| 17>    F        3.00686        -8.78031         5.08019
| 18>    C        1.80334        -6.79023         4.70019
| 19>    C        1.78551        -5.49310         4.26760
| 20>    C        2.95288        -4.87502         3.77603
| 21>    C        4.16629        -5.61997         3.72731
| 22>    C        5.35008        -5.02406         3.22969
| 23>    C        5.31920        -3.72508         2.80320
| 24>    C        4.10733        -2.97984         2.87380
| 25>    C        2.94929        -3.53107         3.33765
| 26>    C        4.36151        -1.60157         2.40840
| 27>    O        3.56237        -0.69855         2.28896
| 28>    C        5.82134        -1.53574         2.15683
| 29>    C        6.35690        -2.86616         2.22780
| 30>    C        7.53451        -3.32259         1.67981
| 31>    C        8.38910        -2.55158         0.86870
| 32>    N        9.10178        -1.99010         0.16375
| 33>    C        7.97544        -4.65676         1.76946
| 34>    N        8.40058        -5.72243         1.82966
| 35>    C        6.41928        -0.30017         2.02711
| 36>    C        7.76580         0.01904         2.15133
| 37>    C        8.26973         1.29537         1.97640
| 38>    C        9.62175         1.68413         2.08545
| 39>    C        9.84009         3.01249         1.85146
| 40>    C        8.66705         3.73199         1.55408
| 41>    S        7.27862         2.67184         1.55937
| 42>    C        8.54428         5.09221         1.29918
| 43>    C        9.55856         6.06560         1.24903
| 44>    C        9.09571         7.32597         0.99478
| 45>    C        7.69420         7.41765         0.84637
| 46>    S        6.98654         5.82347         1.01521
| 47>    C        7.03493         8.58697         0.50664
| 48>    C        5.68491         8.87318         0.32710
| 49>    S        5.31833        10.27620        -0.65020
| 50>    C        3.61040         9.96105        -0.64998
| 51>    C        3.31199         8.87454         0.19786
| 52>    C        4.47613         8.26958         0.76288
| 53>    C        4.32483         7.29676         1.75497
| 54>    C        3.05862         6.89537         2.13419
| 55>    C        2.91369         5.92603         3.15304
| 56>    N        2.79674         5.15175         3.98996
| 57>    C        1.90804         7.48100         1.56225
| 58>    C        2.03325         8.46752         0.62586
| 59>    C        2.74858        10.79497        -1.38566
| 60>    S        3.14533        12.47378        -1.57767
| 61>    C        1.69151        12.83005        -2.46509
| 62>    C        0.94905        11.64952        -2.66487
| 63>    C        1.55576        10.49702        -2.07147
| 64>    C        1.01564         9.22295        -2.30099
| 65>    C       -0.14061         9.10325        -3.04118
| 66>    C       -0.69788         7.82634        -3.27871
| 67>    N       -1.15880         6.79416        -3.46875
| 68>    C       -0.77124        10.24521        -3.59078
| 69>    C       -0.23090        11.48617        -3.41969
| 70>    C        1.37736        14.16051        -2.82036
| 71>    S       -0.26288        14.63876        -3.15593
| 72>    C        0.15558        16.27682        -3.35988
| 73>    C        1.50447        16.49375        -3.19156
| 74>    C        2.22169        15.28706        -2.88179
| 75>    C        3.61440        15.35296        -2.72542
| 76>    C        4.25414        16.56862        -2.83491
| 77>    C        5.65551        16.63320        -2.67314
| 78>    N        6.79292        16.69210        -2.53836
| 79>    C        3.53739        17.76486        -3.10933
| 80>    C        2.19184        17.72829        -3.29307
| 81>    H        5.07527        -7.53560         4.14906
| 82>    H        0.91920        -7.27724         5.08004
| 83>    H        0.87018        -4.92129         4.29853
| 84>    H        6.25384        -5.61209         3.20971
| 85>    H        2.04081        -2.94872         3.37351
| 86>    H        5.72303         0.52340         1.89403
| 87>    H        8.48027        -0.74409         2.42266
| 88>    H       10.39133         0.97237         2.32471
| 89>    H       10.80563         3.48328         1.89348
| 90>    H       10.59480         5.82089         1.39439
| 91>    H        9.72448         8.19537         0.91718
| 92>    H        7.70108         9.40499         0.25221
| 93>    H        5.18276         6.88931         2.26161
| 94>    H        0.93374         7.16373         1.90110
| 95>    H        1.15699         8.96775         0.24513
| 96>    H        1.51712         8.34233        -1.93049
| 97>    H       -1.67035        10.11317        -4.17293
| 98>    H       -0.69487        12.33724        -3.88940
| 99>    H       -0.60392        16.99496        -3.59519
|100>    H        4.19757        14.46609        -2.53475
|101>    H        4.08563        18.69213        -3.17862
|102>    H        1.63102        18.62203        -3.51894
|103> *
|104>
|105>                          ****END OF INPUT****

CARTESIAN COORDINATES (ANGSTROEM)
---------------------------------
  C      4.167090   -6.953950    4.178080
  C      3.007190   -7.504590    4.647790
  F      3.006860   -8.780310    5.080190
  C      1.803340   -6.790230    4.700190
  C      1.785510   -5.493100    4.267600
  C      2.952880   -4.875020    3.776030
  C      4.166290   -5.619970    3.727310
  C      5.350080   -5.024060    3.229690
  C      5.319200   -3.725080    2.803200
  C      4.107330   -2.979840    2.873800
  C      2.949290   -3.531070    3.337650
  C      4.361510   -1.601570    2.408400
  O      3.562370   -0.698550    2.288960
  C      5.821340   -1.535740    2.156830
  C      6.356900   -2.866160    2.227800
  C      7.534510   -3.322590    1.679810
  C      8.389100   -2.551580    0.868700
  N      9.101780   -1.990100    0.163750
  C      7.975440   -4.656760    1.769460
  N      8.400580   -5.722430    1.829660
  C      6.419280   -0.300170    2.027110
  C      7.765800    0.019040    2.151330
  C      8.269730    1.295370    1.976400
  C      9.621750    1.684130    2.085450
  C      9.840090    3.012490    1.851460
  C      8.667050    3.731990    1.554080
  S      7.278620    2.671840    1.559370
  C      8.544280    5.092210    1.299180
  C      9.558560    6.065600    1.249030
  C      9.095710    7.325970    0.994780
  C      7.694200    7.417650    0.846370
  S      6.986540    5.823470    1.015210
  C      7.034930    8.586970    0.506640
  C      5.684910    8.873180    0.327100
  S      5.318330   10.276200   -0.650200
  C      3.610400    9.961050   -0.649980
  C      3.311990    8.874540    0.197860
  C      4.476130    8.269580    0.762880
  C      4.324830    7.296760    1.754970
  C      3.058620    6.895370    2.134190
  C      2.913690    5.926030    3.153040
  N      2.796740    5.151750    3.989960
  C      1.908040    7.481000    1.562250
  C      2.033250    8.467520    0.625860
  C      2.748580   10.794970   -1.385660
  S      3.145330   12.473780   -1.577670
  C      1.691510   12.830050   -2.465090
  C      0.949050   11.649520   -2.664870
  C      1.555760   10.497020   -2.071470
  C      1.015640    9.222950   -2.300990
  C     -0.140610    9.103250   -3.041180
  C     -0.697880    7.826340   -3.278710
  N     -1.158800    6.794160   -3.468750
  C     -0.771240   10.245210   -3.590780
  C     -0.230900   11.486170   -3.419690
  C      1.377360   14.160510   -2.820360
  S     -0.262880   14.638760   -3.155930
  C      0.155580   16.276820   -3.359880
  C      1.504470   16.493750   -3.191560
  C      2.221690   15.287060   -2.881790
  C      3.614400   15.352960   -2.725420
  C      4.254140   16.568620   -2.834910
  C      5.655510   16.633200   -2.673140
  N      6.792920   16.692100   -2.538360
  C      3.537390   17.764860   -3.109330
  C      2.191840   17.728290   -3.293070
  H      5.075270   -7.535600    4.149060
  H      0.919200   -7.277240    5.080040
  H      0.870180   -4.921290    4.298530
  H      6.253840   -5.612090    3.209710
  H      2.040810   -2.948720    3.373510
  H      5.723030    0.523400    1.894030
  H      8.480270   -0.744090    2.422660
  H     10.391330    0.972370    2.324710
  H     10.805630    3.483280    1.893480
  H     10.594800    5.820890    1.394390
  H      9.724480    8.195370    0.917180
  H      7.701080    9.404990    0.252210
  H      5.182760    6.889310    2.261610
  H      0.933740    7.163730    1.901100
  H      1.156990    8.967750    0.245130
  H      1.517120    8.342330   -1.930490
  H     -1.670350   10.113170   -4.172930
  H     -0.694870   12.337240   -3.889400
  H     -0.603920   16.994960   -3.595190
  H      4.197570   14.466090   -2.534750
  H      4.085630   18.692130   -3.178620
  H      1.631020   18.622030   -3.518940

 Total Charge           Charge          ....    0
 Multiplicity           Mult            ....    1
 Number of Electrons    NEL             ....  478
 Basis Dimension        Dim             .... 1054

ORBITAL ENERGIES
----------------

  NO   OCC          E(Eh)            E(eV)
   0   2.0000     -88.997788     -2421.7529
   1   2.0000     -88.996416     -2421.7156
   2   2.0000     -88.992553     -2421.6105
   3   2.0000     -88.971603     -2421.0404
   4   2.0000     -88.962838     -2420.8019
   5   2.0000     -24.774595      -674.1510
   6   2.0000     -19.195168      -522.3271
   7   2.0000     -14.411448      -392.1554
   8   2.0000     -14.410708      -392.1353
   9   2.0000     -14.406425      -392.0188
  10   2.0000     -14.400284      -391.8517
  11   2.0000     -14.399032      -391.8176
  12   2.0000     -10.357164      -281.8328
  13   2.0000     -10.346326      -281.5379
  14   2.0000     -10.342455      -281.4325
  15   2.0000     -10.342133      -281.4237
  16   2.0000     -10.340869      -281.3894
  17   2.0000     -10.339757      -281.3591
  18   2.0000     -10.337341      -281.2934
  19   2.0000     -10.337083      -281.2863
  20   2.0000     -10.333484      -281.1884
  21   2.0000     -10.328921      -281.0642
  22   2.0000     -10.328269      -281.0465
  23   2.0000     -10.327564      -281.0273
  24   2.0000     -10.325689      -280.9763
  25   2.0000     -10.325477      -280.9705
  26   2.0000     -10.324756      -280.9509
  27   2.0000     -10.324560      -280.9456
  28   2.0000     -10.320153      -280.8256
  29   2.0000     -10.318206      -280.7727
  30   2.0000     -10.316633      -280.7298
  31   2.0000     -10.315772      -280.7064
  32   2.0000     -10.315581      -280.7012
  33   2.0000     -10.314736      -280.6782
  34   2.0000     -10.314666      -280.6763
  35   2.0000     -10.312925      -280.6290
  36   2.0000     -10.311384      -280.5870
  37   2.0000     -10.310178      -280.5542
  38   2.0000     -10.309886      -280.5462
  39   2.0000     -10.309164      -280.5266
  40   2.0000     -10.308631      -280.5121
  41   2.0000     -10.308070      -280.4968
  42   2.0000     -10.306396      -280.4513
  43   2.0000     -10.306380      -280.4508
  44   2.0000     -10.306213      -280.4463
  45   2.0000     -10.305019      -280.4138
  46   2.0000     -10.304962      -280.4123
  47   2.0000     -10.303822      -280.3813
  48   2.0000     -10.303636      -280.3762
  49   2.0000     -10.302521      -280.3459
  50   2.0000     -10.302396      -280.3424
  51   2.0000     -10.302249      -280.3385
  52   2.0000     -10.301924      -280.3296
  53   2.0000     -10.299422      -280.2615
  54   2.0000     -10.295509      -280.1550
  55   2.0000     -10.292448      -280.0718
  56   2.0000     -10.291026      -280.0331
  57   2.0000     -10.287385      -279.9340
  58   2.0000     -10.285446      -279.8812
  59   2.0000     -10.284732      -279.8618
  60   2.0000     -10.284220      -279.8479
  61   2.0000     -10.283216      -279.8205
  62   2.0000     -10.282439      -279.7994
  63   2.0000     -10.278103      -279.6814
  64   2.0000     -10.276875      -279.6480
  65   2.0000     -10.274258      -279.5768
  66   2.0000      -8.092538      -220.2092
  67   2.0000      -8.091220      -220.1733
  68   2.0000      -8.088012      -220.0860
  69   2.0000      -8.067628      -219.5313
  70   2.0000      -8.059125      -219.3000
  71   2.0000      -6.061702      -164.9473
  72   2.0000      -6.060276      -164.9085
  73   2.0000      -6.057414      -164.8306
  74   2.0000      -6.057090      -164.8218
  75   2.0000      -6.055770      -164.7859
  76   2.0000      -6.055110      -164.7679
  77   2.0000      -6.054311      -164.7462
  78   2.0000      -6.052984      -164.7101
  79   2.0000      -6.050470      -164.6417
  80   2.0000      -6.037312      -164.2836
  81   2.0000      -6.033125      -164.1697
  82   2.0000      -6.028745      -164.0505
  83   2.0000      -6.028732      -164.0501
  84   2.0000      -6.024669      -163.9396
  85   2.0000      -6.020260      -163.8196
  86   2.0000      -1.288985       -35.0751
  87   2.0000      -1.109884       -30.2015
  88   2.0000      -1.038823       -28.2678
  89   2.0000      -1.026021       -27.9194
  90   2.0000      -1.017420       -27.6854
  91   2.0000      -1.013419       -27.5765
  92   2.0000      -1.002867       -27.2894
  93   2.0000      -0.999061       -27.1858
  94   2.0000      -0.996991       -27.1295
  95   2.0000      -0.994611       -27.0648
  96   2.0000      -0.992463       -27.0063
  97   2.0000      -0.985788       -26.8247
  98   2.0000      -0.978384       -26.6232
  99   2.0000      -0.965035       -26.2599
 100   2.0000      -0.961735       -26.1701
 101   2.0000      -0.959945       -26.1214
 102   2.0000      -0.956759       -26.0347
 103   2.0000      -0.930489       -25.3199
 104   2.0000      -0.918265       -24.9873
 105   2.0000      -0.908151       -24.7120
 106   2.0000      -0.899574       -24.4787
 107   2.0000      -0.888850       -24.1868
 108   2.0000      -0.884122       -24.0582
 109   2.0000      -0.877220       -23.8704
 110   2.0000      -0.873388       -23.7661
 111   2.0000      -0.870593       -23.6900
 112   2.0000      -0.870119       -23.6771
 113   2.0000      -0.864590       -23.5267
 114   2.0000      -0.862342       -23.4655
 115   2.0000      -0.855968       -23.2921
 116   2.0000      -0.845924       -23.0188
 117   2.0000      -0.842427       -22.9236
 118   2.0000      -0.830550       -22.6004
 119   2.0000      -0.820771       -22.3343
 120   2.0000      -0.810803       -22.0631
 121   2.0000      -0.793314       -21.5872
 122   2.0000      -0.775941       -21.1144
 123   2.0000      -0.757311       -20.6075
 124   2.0000      -0.755455       -20.5570
 125   2.0000      -0.753524       -20.5044
 126   2.0000      -0.749768       -20.4022
 127   2.0000      -0.741869       -20.1873
 128   2.0000      -0.732168       -19.9233
 129   2.0000      -0.726703       -19.7746
 130   2.0000      -0.717242       -19.5172
 131   2.0000      -0.704135       -19.1605
 132   2.0000      -0.702184       -19.1074
 133   2.0000      -0.695701       -18.9310
 134   2.0000      -0.691891       -18.8273
 135   2.0000      -0.677631       -18.4393
 136   2.0000      -0.675234       -18.3740
 137   2.0000      -0.672923       -18.3112
 138   2.0000      -0.665832       -18.1182
 139   2.0000      -0.662735       -18.0339
 140   2.0000      -0.646027       -17.5793
 141   2.0000      -0.640804       -17.4371
 142   2.0000      -0.635007       -17.2794
 143   2.0000      -0.627928       -17.0868
 144   2.0000      -0.623598       -16.9690
 145   2.0000      -0.620032       -16.8719
 146   2.0000      -0.617090       -16.7919
 147   2.0000      -0.612226       -16.6595
 148   2.0000      -0.608439       -16.5565
 149   2.0000      -0.604873       -16.4594
 150   2.0000      -0.603891       -16.4327
 151   2.0000      -0.592794       -16.1307
 152   2.0000      -0.586214       -15.9517
 153   2.0000      -0.581004       -15.8099
 154   2.0000      -0.576546       -15.6886
 155   2.0000      -0.575286       -15.6543
 156   2.0000      -0.568315       -15.4646
 157   2.0000      -0.562452       -15.3051
 158   2.0000      -0.555550       -15.1173
 159   2.0000      -0.551211       -14.9992
 160   2.0000      -0.548835       -14.9346
 161   2.0000      -0.548486       -14.9251
 162   2.0000      -0.546753       -14.8779
 163   2.0000      -0.544008       -14.8032
 164   2.0000      -0.542822       -14.7709
 165   2.0000      -0.541306       -14.7297
 166   2.0000      -0.534508       -14.5447
 167   2.0000      -0.531785       -14.4706
 168   2.0000      -0.527467       -14.3531
 169   2.0000      -0.524573       -14.2744
 170   2.0000      -0.520285       -14.1577
 171   2.0000      -0.517795       -14.0899
 172   2.0000      -0.517051       -14.0697
 173   2.0000      -0.514901       -14.0112
 174   2.0000      -0.513090       -13.9619
 175   2.0000      -0.510873       -13.9016
 176   2.0000      -0.510583       -13.8937
 177   2.0000      -0.505548       -13.7567
 178   2.0000      -0.501943       -13.6586
 179   2.0000      -0.495434       -13.4815
 180   2.0000      -0.492056       -13.3895
 181   2.0000      -0.490575       -13.3492
 182   2.0000      -0.486118       -13.2280
 183   2.0000      -0.484395       -13.1811
 184   2.0000      -0.484177       -13.1751
 185   2.0000      -0.482635       -13.1332
 186   2.0000      -0.482025       -13.1166
 187   2.0000      -0.478494       -13.0205
 188   2.0000      -0.477618       -12.9967
 189   2.0000      -0.472199       -12.8492
 190   2.0000      -0.468767       -12.7558
 191   2.0000      -0.466999       -12.7077
 192   2.0000      -0.466313       -12.6890
 193   2.0000      -0.458794       -12.4844
 194   2.0000      -0.456104       -12.4112
 195   2.0000      -0.454286       -12.3617
 196   2.0000      -0.453101       -12.3295
 197   2.0000      -0.448802       -12.2125
 198   2.0000      -0.444174       -12.0866
 199   2.0000      -0.443605       -12.0711
 200   2.0000      -0.440526       -11.9873
 201   2.0000      -0.439282       -11.9535
 202   2.0000      -0.438878       -11.9425
 203   2.0000      -0.436339       -11.8734
 204   2.0000      -0.435513       -11.8509
 205   2.0000      -0.433828       -11.8051
 206   2.0000      -0.432619       -11.7722
 207   2.0000      -0.428315       -11.6550
 208   2.0000      -0.425899       -11.5893
 209   2.0000      -0.422192       -11.4884
 210   2.0000      -0.421235       -11.4624
 211   2.0000      -0.418078       -11.3765
 212   2.0000      -0.415754       -11.3132
 213   2.0000      -0.414854       -11.2888
 214   2.0000      -0.413939       -11.2639
 215   2.0000      -0.413363       -11.2482
 216   2.0000      -0.410751       -11.1771
 217   2.0000      -0.409621       -11.1464
 218   2.0000      -0.407871       -11.0987
 219   2.0000      -0.403119       -10.9694
 220   2.0000      -0.393996       -10.7212
 221   2.0000      -0.388243       -10.5646
 222   2.0000      -0.377907       -10.2834
 223   2.0000      -0.372805       -10.1445
 224   2.0000      -0.367332        -9.9956
 225   2.0000      -0.356079        -9.6894
 226   2.0000      -0.355180        -9.6649
 227   2.0000      -0.343736        -9.3535
 228   2.0000      -0.340815        -9.2741
 229   2.0000      -0.338664        -9.2155
 230   2.0000      -0.337149        -9.1743
 231   2.0000      -0.325711        -8.8631
 232   2.0000      -0.320824        -8.7301
 233   2.0000      -0.316190        -8.6040
 234   2.0000      -0.300108        -8.1664
 235   2.0000      -0.290090        -7.8937
 236   2.0000      -0.283493        -7.7142
 237   2.0000      -0.255634        -6.9562
 238   2.0000      -0.219244        -5.9659
 239   0.0000      -0.125115        -3.4045
 240   0.0000      -0.091726        -2.4960
 241   0.0000      -0.069870        -1.9013
 242   0.0000      -0.051231        -1.3941
 243   0.0000      -0.047431        -1.2907

MULLIKEN ATOMIC CHARGES
-----------------------
   0 C :   -0.102049
   1 C :    0.303113
   2 F :   -0.194321
   3 C :   -0.029987
   4 C :   -0.012734
   5 C :    0.103139
   6 C :    0.104886
   7 C :   -0.095707
   8 C :    0.046567
   9 C :    0.005452
  10 C :   -0.086784
  11 C :    0.138530
  12 O :   -0.148816
  13 C :   -0.130524
  14 C :    0.287867
  15 C :   -0.346848
  16 C :   -0.218345
  17 N :    0.157643
  18 C :   -0.177465
  19 N :    0.137683
  20 C :    0.026003
  21 C :    0.006004
  22 C :   -0.022204
  23 C :    0.040378
  24 C :    0.037203
  25 C :   -0.053473
  26 S :    0.117876
  27 C :   -0.038558
  28 C :    0.029606
  29 C :    0.037450
  30 C :   -0.043063
  31 S :    0.108539
  32 C :    0.021299
  33 C :   -0.120398
  34 S :    0.177512
  35 C :   -0.138645
  36 C :    0.125474
  37 C :    0.111667
  38 C :   -0.036565
  39 C :   -0.100239
  40 C :   -0.142024
  41 N :    0.113700
  42 C :    0.047021
  43 C :   -0.047304
  44 C :   -0.129894
  45 S :    0.166790
  46 C :   -0.098479
  47 C :    0.080201
  48 C :    0.138964
  49 C :   -0.052657
  50 C :   -0.106398
  51 C :   -0.139706
  52 N :    0.115004
  53 C :    0.046291
  54 C :   -0.033778
  55 C :   -0.129380
  56 S :    0.170457
  57 C :   -0.114132
  58 C :    0.083608
  59 C :    0.124354
  60 C :   -0.040003
  61 C :   -0.102951
  62 C :   -0.145874
  63 N :    0.100745
  64 C :    0.042322
  65 C :    0.015650
  66 H :   -0.005199
  67 H :   -0.001193
  68 H :   -0.011425
  69 H :   -0.007206
  70 H :   -0.014414
  71 H :    0.018644
  72 H :    0.009039
  73 H :    0.005135
  74 H :   -0.004320
  75 H :   -0.003619
  76 H :   -0.000564
  77 H :    0.000486
  78 H :    0.002911
  79 H :    0.003103
  80 H :    0.002288
  81 H :    0.012453
  82 H :   -0.000872
  83 H :   -0.008833
  84 H :    0.028278
  85 H :    0.000720
  86 H :   -0.000997
  87 H :   -0.014105
Sum of atomic charges:   -0.0000000

LOEWDIN ATOMIC CHARGES
----------------------
   0 C :   -0.043418
   1 C :    0.090760
   2 F :   -0.068842
   3 C :   -0.040720
   4 C :    0.003166
   5 C :   -0.019904
   6 C :    0.002205
   7 C :    0.006054
   8 C :   -0.014750
   9 C :   -0.056437
  10 C :    0.029829
  11 C :    0.077175
  12 O :   -0.151572
  13 C :   -0.099203
  14 C :    0.068041
  15 C :   -0.151384
  16 C :   -0.024365
  17 N :   -0.062651
  18 C :   -0.019140
  19 N :   -0.063746
  20 C :    0.049541
  21 C :   -0.059905
  22 C :   -0.104395
  23 C :   -0.030347
  24 C :   -0.011117
  25 C :   -0.184443
  26 S :    0.410219
  27 C :   -0.157739
  28 C :   -0.036829
  29 C :   -0.017742
  30 C :   -0.157204
  31 S :    0.421399
  32 C :   -0.064936
  33 C :   -0.165823
  34 S :    0.479076
  35 C :   -0.190081
  36 C :   -0.038799
  37 C :   -0.045576
  38 C :    0.017197
  39 C :   -0.064193
  40 C :   -0.030940
  41 N :   -0.046686
  42 C :    0.006671
  43 C :   -0.010016
  44 C :   -0.194127
  45 S :    0.499417
  46 C :   -0.184606
  47 C :   -0.043830
  48 C :   -0.045113
  49 C :    0.023445
  50 C :   -0.068486
  51 C :   -0.031861
  52 N :   -0.048535
  53 C :    0.003005
  54 C :   -0.017068
  55 C :   -0.192224
  56 S :    0.516026
  57 C :   -0.192155
  58 C :   -0.045071
  59 C :   -0.052841
  60 C :    0.009781
  61 C :   -0.068242
  62 C :   -0.030694
  63 N :   -0.057183
  64 C :   -0.003536
  65 C :   -0.000729
  66 H :    0.042017
  67 H :    0.040016
  68 H :    0.034719
  69 H :    0.038065
  70 H :    0.038584
  71 H :    0.036179
  72 H :    0.038812
  73 H :    0.041420
  74 H :    0.035988
  75 H :    0.036084
  76 H :    0.037764
  77 H :    0.039856
  78 H :    0.024079
  79 H :    0.043223
  80 H :    0.037632
  81 H :    0.044262
  82 H :    0.041665
  83 H :    0.018018
  84 H :    0.029107
  85 H :    0.022147
  86 H :    0.040549
  87 H :    0.036011

  Mayer bond orders larger than 0.100000
B(  0-C ,  1-C ) :   1.4387 B(  0-C ,  6-C ) :   1.2032 B(  0-C , 66-H ) :   1.0072
B(  1-C ,  2-F ) :   1.0848 B(  1-C ,  3-C ) :   1.2588 B(  3-C ,  4-C ) :   1.4559
B(  3-C , 67-H ) :   0.9928 B(  4-C ,  5-C ) :   1.2381 B(  4-C , 68-H ) :   0.9970
B(  5-C ,  6-C ) :   1.2619 B(  5-C , 10-C ) :   1.1805 B(  6-C ,  7-C ) :   1.1970
B(  7-C ,  8-C ) :   1.4663 B(  7-C , 69-H ) :   0.9929 B(  8-C ,  9-C ) :   1.2176
B(  8-C , 14-C ) :   0.9902 B(  9-C , 10-C ) :   1.4809 B(  9-C , 11-C ) :   0.9186
B( 10-C , 70-H ) :   1.0159 B( 11-C , 12-O ) :   2.2530 B( 11-C , 13-C ) :   0.9577
B( 13-C , 14-C ) :   1.0870 B( 13-C , 20-C ) :   1.5344 B( 14-C , 15-C ) :   1.5974
B( 15-C , 16-C ) :   1.1669 B( 15-C , 18-C ) :   1.1388 B( 16-C , 17-N ) :   3.0095
B( 18-C , 19-N ) :   2.9720 B( 20-C , 21-C ) :   1.2194 B( 20-C , 71-H ) :   0.9391
B( 21-C , 22-C ) :   1.4990 B( 21-C , 72-H ) :   0.9609 B( 22-C , 23-C ) :   1.1860
B( 22-C , 26-S ) :   1.0802 B( 23-C , 24-C ) :   1.5378 B( 23-C , 73-H ) :   1.0001
B( 24-C , 25-C ) :   1.2255 B( 24-C , 74-H ) :   0.9954 B( 25-C , 26-S ) :   1.0555
B( 25-C , 27-C ) :   1.4449 B( 27-C , 28-C ) :   1.2151 B( 27-C , 31-S ) :   1.0708
B( 28-C , 29-C ) :   1.5498 B( 28-C , 75-H ) :   0.9944 B( 29-C , 30-C ) :   1.1764
B( 29-C , 76-H ) :   0.9997 B( 30-C , 31-S ) :   1.0382 B( 30-C , 32-C ) :   1.5413
B( 32-C , 33-C ) :   1.2422 B( 32-C , 77-H ) :   0.9362 B( 33-C , 34-S ) :   1.1315
B( 33-C , 35-C ) :   0.1091 B( 33-C , 37-C ) :   1.2486 B( 34-S , 35-C ) :   1.1633
B( 35-C , 36-C ) :   1.3157 B( 35-C , 44-C ) :   1.1747 B( 36-C , 37-C ) :   1.2237
B( 36-C , 43-C ) :   1.2095 B( 37-C , 38-C ) :   1.2286 B( 38-C , 39-C ) :   1.5121
B( 38-C , 78-H ) :   0.9747 B( 39-C , 40-C ) :   1.0638 B( 39-C , 42-C ) :   1.2283
B( 40-C , 41-N ) :   3.0484 B( 42-C , 43-C ) :   1.5256 B( 42-C , 79-H ) :   0.9927
B( 43-C , 80-H ) :   0.9924 B( 44-C , 45-S ) :   1.1599 B( 44-C , 46-C ) :   0.1180
B( 44-C , 48-C ) :   1.3125 B( 45-S , 46-C ) :   1.1478 B( 46-C , 47-C ) :   1.3402
B( 46-C , 55-C ) :   1.1890 B( 47-C , 48-C ) :   1.2078 B( 47-C , 54-C ) :   1.1873
B( 48-C , 49-C ) :   1.2034 B( 49-C , 50-C ) :   1.5135 B( 49-C , 81-H ) :   0.9966
B( 50-C , 51-C ) :   1.0598 B( 50-C , 53-C ) :   1.2203 B( 51-C , 52-N ) :   3.0507
B( 53-C , 54-C ) :   1.5582 B( 53-C , 82-H ) :   0.9884 B( 54-C , 83-H ) :   0.9754
B( 55-C , 56-S ) :   1.1833 B( 55-C , 57-C ) :   0.1105 B( 55-C , 59-C ) :   1.3124
B( 56-S , 57-C ) :   1.1926 B( 57-C , 58-C ) :   1.4262 B( 57-C , 84-H ) :   0.9690
B( 58-C , 59-C ) :   1.1969 B( 58-C , 65-C ) :   1.1667 B( 59-C , 60-C ) :   1.1943
B( 60-C , 61-C ) :   1.5438 B( 60-C , 85-H ) :   0.9740 B( 61-C , 62-C ) :   1.0643
B( 61-C , 64-C ) :   1.2028 B( 62-C , 63-N ) :   3.0445 B( 64-C , 65-C ) :   1.5605
B( 64-C , 86-H ) :   0.9913 B( 65-C , 87-H ) :   1.0005

-----------------------------------------------------------------------------
         ABSORPTION SPECTRUM VIA TRANSITION ELECTRIC DIPOLE MOMENTS
-----------------------------------------------------------------------------
State   Energy  Wavelength   fosc         T2         TX        TY        TZ
        (cm-1)    (nm)                  (au**2)     (au)      (au)      (au)
-----------------------------------------------------------------------------
   0    7969.7   1254.8   1.362311397  56.27439  -2.27105   6.87962  -1.94617
   1   14600.7    684.9   0.014267861   0.32171   0.37016   0.09252   0.41968
   2   15989.5    625.4   0.167631928   3.45142   1.56299   0.24747   0.97326
   3   18267.7    547.4   0.191096328   3.44384  -1.10290  -1.48786   0.11719
   4   22199.7    450.5   0.492232888   7.29959   1.65247   2.13655  -0.06396
   5   22506.7    444.3   0.036358326   0.53182   0.46906   0.55615  -0.05005
   6   22720.1    440.1   0.057975522   0.84006   0.35309   0.79122   0.29892
   7   23646.1    422.9   0.009115373   0.12691   0.21688   0.27720   0.05503
   8   23958.8    417.4   0.103086801   1.41649  -0.66850  -0.96590   0.19142
   9   25067.3    398.9   0.142786031   1.87522   1.01074   0.86631  -0.32114
  10   26056.1    383.8   0.161246954   2.03731  -1.33841  -0.37909   0.31977
  11   26601.8    375.9   0.028349611   0.35084   0.28301   0.41835  -0.30941
  12   27125.6    368.7   0.025673093   0.31158  -0.06635  -0.35179  -0.42828
  13   28420.8    351.9   0.035878482   0.41560  -0.36239   0.47751   0.23719
  14   28845.4    346.7   0.025390846   0.28978   0.15262   0.03467   0.51506
  15   29738.8    336.3   0.085317192   0.94447  -0.82566  -0.51014   0.05018
  16   29894.8    334.5   0.004195407   0.04620   0.13287  -0.16697   0.02587
  17   30472.4    328.2   0.018432110   0.19913   0.09430  -0.43488   0.03344
  18   30948.0    323.1   0.040023229   0.42575  -0.42401  -0.25592   0.42481
  19   31425.8    318.2   0.301214982   3.15548   1.23526   1.13638  -0.58159
  20   31866.5    313.8   0.028626379   0.29574   0.28907   0.24077  -0.39269
  21   32541.5    307.3   0.029547197   0.29892   0.26203  -0.00004  -0.47985
  22   32659.5    306.2   0.066556260   0.67090   0.62164   0.34473  -0.40696
  23   32914.9    303.8   0.160421997   1.60452  -0.04987   0.97868  -0.80263
  24   33129.1    301.8   0.086558598   0.86015  -0.88502  -0.06112   0.27047
  25   33268.5    300.6   0.046192953   0.45711   0.50610  -0.25856   0.36622
  26   33430.7    299.1   0.010602198   0.10441   0.12446  -0.29788   0.01350
  27   33644.6    297.2   0.006803903   0.06658  -0.16734   0.05112   0.18963
  28   33909.8    294.9   0.039059612   0.37921   0.49761  -0.11028   0.34560
  29   34578.3    289.2   0.017691947   0.16844   0.16774   0.33662   0.16429
  30   35125.5    284.7   0.122673736   1.14975  -0.69706  -0.77896  -0.23892
  31   35269.7    283.5   0.112291185   1.04814  -0.29572  -0.94824   0.24805
  32   35722.0    279.9   0.260801366   2.40353  -1.24616  -0.64327   0.66093
  33   35830.2    279.1   0.004361061   0.04007   0.04259   0.13506   0.14147
  34   36030.9    277.5   0.025025697   0.22866   0.04302   0.28066  -0.38476
  35   36603.1    273.2   0.197141742   1.77311  -1.16321  -0.37028   0.53192
  36   36675.3    272.7   0.002956541   0.02654  -0.04075  -0.12937  -0.09024
  37   37172.3    269.0   0.023172737   0.20523  -0.10152   0.31435  -0.31001
  38   37568.0    266.2   0.000857270   0.00751  -0.00146  -0.08064   0.03174
  39   37794.3    264.6   0.065696031   0.57225   0.75530  -0.04089   0.01031
  40   38204.1    261.8   0.031553824   0.27191   0.46477   0.16249  -0.17173
  41   38647.7    258.7   0.010946579   0.09325  -0.18164  -0.18918  -0.15640
  42   38826.5    257.6   0.042994088   0.36455   0.47362   0.07342  -0.36721
  43   38932.7    256.9   0.227850276   1.92668  -1.34415   0.29646   0.17904
  44   39202.7    255.1   0.039732798   0.33366  -0.35742  -0.21640   0.39885
  45   39811.7    251.2   0.029575954   0.24457  -0.33293  -0.33259  -0.15203
  46   40192.3    248.8   0.025757649   0.21098  -0.27426   0.28995   0.22735
  47   40292.5    248.2   0.026946284   0.22017  -0.13754  -0.27254   0.35633

FINAL SINGLE POINT ENERGY     -4506.851417671781

DIPOLE MOMENT
-------------
                                X             Y             Z
Electronic contribution:     -1.24588      -7.20107      -0.51768
Nuclear contribution   :      0.15973      13.33502       0.22082
                        -----------------------------------------
Total Dipole Moment    :     -1.08615       6.13394      -0.29686
                        -----------------------------------------
Magnitude (a.u.)       :      6.23643
Magnitude (Debye)      :     15.85176

Rotational constants in cm-1:     0.002035     0.000283     0.000258
Rotational constants in MHz :    60.997560     8.484306     7.719800

                             ****ORCA TERMINATED NORMALLY****
TOTAL RUN TIME: 0 days 0 hours 16 minutes 46 seconds 957 msec
