                         Program Version 4.2.0 -  RELEASE  -
|  1> # ORCA input file
|  2> # SCF done       -167.061871057843          0.000522888837
|  3> ! CAM-B3LYP def2-SVP def2/J RIJCOSX Grid4 TightSCF
|  4> %maxcore 5000
|  5> %tddft
|  6>     Mode sTDDFT
|  7>     Ethresh 5.0
|  8>     maxcore 5000
|  9> end
| 10>
| 11> %pal
| 12>   nprocs 6
| 13>   end
| 14> * xyz 0 1
| 15>    C       -1.81662         0.03459        -0.07857
| 16>    C       -1.72238        -0.50731         1.18626
| 17>    C       -0.54362        -0.52116         1.95570
| 18>    N        0.37130        -0.58808         2.64941
| 19>    C       -2.74385        -1.13147         1.92434
| 20>    N       -3.47968        -1.66109         2.63441
| 21>    C       -0.71926         0.68472        -0.78490
| 22>    C       -1.18082         1.09875        -2.05853
| 23>    C       -0.38426         1.75322        -2.96372
| 24>    C        0.94066         2.01493        -2.59606
| 25>    C        1.39568         1.59758        -1.32389
| 26>    C        0.58796         0.93523        -0.40783
| 27>    S        3.06311         2.02342        -1.07216
| 28>    C        3.12169         2.74660        -2.65841
| 29>    C        1.95583         2.67368        -3.34234
| 30>   Br        4.71711         3.53028        -3.26071
| 31>    C       -2.60086         0.72314        -2.19930
| 32>    O       -3.30327         0.93717        -3.17109
| 33>    C       -2.97296         0.06220        -0.94446
| 34>    C       -4.20578        -0.46949        -0.64284
| 35>    C       -5.39776        -0.48669        -1.37803
| 36>    S       -5.71904         0.44684        -2.82063
| 37>    C       -7.38104         0.04479        -2.73596
| 38>    C       -7.70967        -0.78000        -1.69917
| 39>    C       -9.08375        -1.29903        -1.43254
| 40>    C       -6.57434        -1.12415        -0.92632
| 41>    C       -6.61965        -2.02528         0.18771
| 42>    C       -5.63929        -2.90178         0.50224
| 43>    C       -5.60063        -3.66021         1.70365
| 44>    C       -4.56673        -4.46933         2.02412
| 45>    C       -4.41765        -5.06065         3.31502
| 46>    C       -3.38154        -5.80626         3.73376
| 47>    C       -2.25200        -6.26219         2.86514
| 48>    C       -3.26660        -6.20553         5.18995
| 49>    N       -3.77420        -5.20320         6.09474
| 50>    C       -3.37481        -3.91731         6.05555
| 51>    C       -3.82796        -2.93955         6.88577
| 52>    C       -3.36734        -1.61529         6.80837
| 53>    C       -3.74861        -0.59767         7.64426
| 54>    C       -3.28771         0.73918         7.62085
| 55>    C       -3.81477         1.53253         8.59465
| 56>    C       -4.73134         0.87202         9.44319
| 57>    S       -4.90435        -0.79890         8.96219
| 58>    C       -5.42430         1.40104        10.51680
| 59>    C       -5.34603         2.71507        11.02262
| 60>    C       -6.15055         2.92677        12.09793
| 61>    C       -6.92092         1.80036        12.50380
| 62>    S       -6.55860         0.44363        11.45574
| 63>    C       -7.79650         1.86973        13.55684
| 64>    C       -8.68636         0.92834        14.13676
| 65>    C       -9.50471         1.34143        15.20885
| 66>    O       -9.36367         2.64893        15.58397
| 67>    C       -9.50259         3.02616        16.93797
| 68>    C      -10.45758         0.46820        15.80688
| 69>    O      -11.24840         1.01979        16.77650
| 70>    C      -12.23132         0.21698        17.38150
| 71>    C      -10.57819        -0.84388        15.40436
| 72>    C       -9.76138        -1.30312        14.36633
| 73>    C       -8.82525        -0.42305        13.71857
| 74>    N       -8.15641        -1.04110        12.75817
| 75>    S       -8.64745        -2.57791        12.66746
| 76>    N       -9.74292        -2.53235        13.85278
| 77>    H       -0.76968         2.05623        -3.92465
| 78>    H        0.98404         0.64202         0.54987
| 79>    H        1.81430         3.06835        -4.33197
| 80>    H       -4.29245        -0.93848         0.33057
| 81>    H       -8.05150         0.42866        -3.48135
| 82>    H       -9.77914        -0.93253        -2.18277
| 83>    H       -9.42799        -0.97555        -0.45059
| 84>    H       -9.08826        -2.38807        -1.44941
| 85>    H       -7.51502        -1.99609         0.79566
| 86>    H       -4.80575        -3.02937        -0.17730
| 87>    H       -6.39770        -3.50135         2.41755
| 88>    H       -3.77718        -4.61537         1.30072
| 89>    H       -5.19126        -4.80754         4.02881
| 90>    H       -2.55287        -6.34011         1.82509
| 91>    H       -1.89089        -7.23509         3.19487
| 92>    H       -1.42040        -5.55840         2.92873
| 93>    H       -2.20863        -6.39875         5.41474
| 94>    H       -3.81491        -7.13611         5.36687
| 95>    H       -4.48728        -5.45677         6.75924
| 96>    H       -2.64202        -3.68510         5.29568
| 97>    H       -4.56154        -3.17559         7.64556
| 98>    H       -2.65189        -1.37554         6.03257
| 99>    H       -2.57541         1.06876         6.88469
|100>    H       -3.57189         2.57188         8.72501
|101>    H       -4.70478         3.46322        10.59107
|102>    H       -6.22753         3.86420        12.62095
|103>    H       -7.83343         2.84041        14.03519
|104>    H       -8.93092         3.94993        17.04028
|105>    H       -9.09221         2.27098        17.61158
|106>    H      -10.54573         3.21487        17.19910
|107>    H      -12.73536         0.86530        18.09699
|108>    H      -11.78837        -0.63199        17.91157
|109>    H      -12.95753        -0.14901        16.64930
|110>    H      -11.28675        -1.52369        15.84317
|111> *
|112>
|113>                          ****END OF INPUT****

CARTESIAN COORDINATES (ANGSTROEM)
---------------------------------
  C     -1.816620    0.034590   -0.078570
  C     -1.722380   -0.507310    1.186260
  C     -0.543620   -0.521160    1.955700
  N      0.371300   -0.588080    2.649410
  C     -2.743850   -1.131470    1.924340
  N     -3.479680   -1.661090    2.634410
  C     -0.719260    0.684720   -0.784900
  C     -1.180820    1.098750   -2.058530
  C     -0.384260    1.753220   -2.963720
  C      0.940660    2.014930   -2.596060
  C      1.395680    1.597580   -1.323890
  C      0.587960    0.935230   -0.407830
  S      3.063110    2.023420   -1.072160
  C      3.121690    2.746600   -2.658410
  C      1.955830    2.673680   -3.342340
  Br     4.717110    3.530280   -3.260710
  C     -2.600860    0.723140   -2.199300
  O     -3.303270    0.937170   -3.171090
  C     -2.972960    0.062200   -0.944460
  C     -4.205780   -0.469490   -0.642840
  C     -5.397760   -0.486690   -1.378030
  S     -5.719040    0.446840   -2.820630
  C     -7.381040    0.044790   -2.735960
  C     -7.709670   -0.780000   -1.699170
  C     -9.083750   -1.299030   -1.432540
  C     -6.574340   -1.124150   -0.926320
  C     -6.619650   -2.025280    0.187710
  C     -5.639290   -2.901780    0.502240
  C     -5.600630   -3.660210    1.703650
  C     -4.566730   -4.469330    2.024120
  C     -4.417650   -5.060650    3.315020
  C     -3.381540   -5.806260    3.733760
  C     -2.252000   -6.262190    2.865140
  C     -3.266600   -6.205530    5.189950
  N     -3.774200   -5.203200    6.094740
  C     -3.374810   -3.917310    6.055550
  C     -3.827960   -2.939550    6.885770
  C     -3.367340   -1.615290    6.808370
  C     -3.748610   -0.597670    7.644260
  C     -3.287710    0.739180    7.620850
  C     -3.814770    1.532530    8.594650
  C     -4.731340    0.872020    9.443190
  S     -4.904350   -0.798900    8.962190
  C     -5.424300    1.401040   10.516800
  C     -5.346030    2.715070   11.022620
  C     -6.150550    2.926770   12.097930
  C     -6.920920    1.800360   12.503800
  S     -6.558600    0.443630   11.455740
  C     -7.796500    1.869730   13.556840
  C     -8.686360    0.928340   14.136760
  C     -9.504710    1.341430   15.208850
  O     -9.363670    2.648930   15.583970
  C     -9.502590    3.026160   16.937970
  C    -10.457580    0.468200   15.806880
  O    -11.248400    1.019790   16.776500
  C    -12.231320    0.216980   17.381500
  C    -10.578190   -0.843880   15.404360
  C     -9.761380   -1.303120   14.366330
  C     -8.825250   -0.423050   13.718570
  N     -8.156410   -1.041100   12.758170
  S     -8.647450   -2.577910   12.667460
  N     -9.742920   -2.532350   13.852780
  H     -0.769680    2.056230   -3.924650
  H      0.984040    0.642020    0.549870
  H      1.814300    3.068350   -4.331970
  H     -4.292450   -0.938480    0.330570
  H     -8.051500    0.428660   -3.481350
  H     -9.779140   -0.932530   -2.182770
  H     -9.427990   -0.975550   -0.450590
  H     -9.088260   -2.388070   -1.449410
  H     -7.515020   -1.996090    0.795660
  H     -4.805750   -3.029370   -0.177300
  H     -6.397700   -3.501350    2.417550
  H     -3.777180   -4.615370    1.300720
  H     -5.191260   -4.807540    4.028810
  H     -2.552870   -6.340110    1.825090
  H     -1.890890   -7.235090    3.194870
  H     -1.420400   -5.558400    2.928730
  H     -2.208630   -6.398750    5.414740
  H     -3.814910   -7.136110    5.366870
  H     -4.487280   -5.456770    6.759240
  H     -2.642020   -3.685100    5.295680
  H     -4.561540   -3.175590    7.645560
  H     -2.651890   -1.375540    6.032570
  H     -2.575410    1.068760    6.884690
  H     -3.571890    2.571880    8.725010
  H     -4.704780    3.463220   10.591070
  H     -6.227530    3.864200   12.620950
  H     -7.833430    2.840410   14.035190
  H     -8.930920    3.949930   17.040280
  H     -9.092210    2.270980   17.611580
  H    -10.545730    3.214870   17.199100
  H    -12.735360    0.865300   18.096990
  H    -11.788370   -0.631990   17.911570
  H    -12.957530   -0.149010   16.649300
  H    -11.286750   -1.523690   15.843170

 Total Charge           Charge          ....    0
 Multiplicity           Mult            ....    1
 Number of Electrons    NEL             ....  496
 Basis Dimension        Dim             .... 1076

ORBITAL ENERGIES
----------------

  NO   OCC          E(Eh)            E(eV)
   0   2.0000    -482.884113    -13139.9447
   1   2.0000     -88.987238     -2421.4658
   2   2.0000     -88.973229     -2421.0847
   3   2.0000     -88.954894     -2420.5857
   4   2.0000     -88.911789     -2419.4128
   5   2.0000     -88.904421     -2419.2123
   6   2.0000     -62.561812     -1702.3935
   7   2.0000     -56.395762     -1534.6067
   8   2.0000     -56.393050     -1534.5329
   9   2.0000     -56.393014     -1534.5319
  10   2.0000     -19.241284      -523.5820
  11   2.0000     -19.221981      -523.0567
  12   2.0000     -19.214392      -522.8502
  13   2.0000     -14.428939      -392.6314
  14   2.0000     -14.415127      -392.2555
  15   2.0000     -14.411147      -392.1473
  16   2.0000     -14.406812      -392.0293
  17   2.0000     -14.401825      -391.8936
  18   2.0000     -10.363222      -281.9976
  19   2.0000     -10.356932      -281.8264
  20   2.0000     -10.338007      -281.3115
  21   2.0000     -10.335388      -281.2402
  22   2.0000     -10.328639      -281.0566
  23   2.0000     -10.322662      -280.8939
  24   2.0000     -10.318254      -280.7740
  25   2.0000     -10.317803      -280.7617
  26   2.0000     -10.317090      -280.7423
  27   2.0000     -10.315397      -280.6962
  28   2.0000     -10.314929      -280.6835
  29   2.0000     -10.314054      -280.6597
  30   2.0000     -10.308275      -280.5024
  31   2.0000     -10.304823      -280.4085
  32   2.0000     -10.304294      -280.3941
  33   2.0000     -10.303397      -280.3697
  34   2.0000     -10.302707      -280.3509
  35   2.0000     -10.298605      -280.2393
  36   2.0000     -10.297997      -280.2228
  37   2.0000     -10.296289      -280.1763
  38   2.0000     -10.295851      -280.1644
  39   2.0000     -10.294786      -280.1354
  40   2.0000     -10.293252      -280.0936
  41   2.0000     -10.291272      -280.0397
  42   2.0000     -10.289115      -279.9810
  43   2.0000     -10.288282      -279.9584
  44   2.0000     -10.284984      -279.8686
  45   2.0000     -10.282517      -279.8015
  46   2.0000     -10.282223      -279.7935
  47   2.0000     -10.280014      -279.7334
  48   2.0000     -10.279939      -279.7314
  49   2.0000     -10.276270      -279.6315
  50   2.0000     -10.276151      -279.6283
  51   2.0000     -10.272597      -279.5316
  52   2.0000     -10.270729      -279.4808
  53   2.0000     -10.269248      -279.4404
  54   2.0000     -10.267686      -279.3979
  55   2.0000     -10.265525      -279.3391
  56   2.0000     -10.263455      -279.2828
  57   2.0000     -10.260138      -279.1926
  58   2.0000     -10.258827      -279.1569
  59   2.0000     -10.256862      -279.1034
  60   2.0000     -10.252518      -278.9852
  61   2.0000     -10.252380      -278.9814
  62   2.0000     -10.250899      -278.9411
  63   2.0000     -10.245498      -278.7942
  64   2.0000     -10.241957      -278.6978
  65   2.0000     -10.238975      -278.6167
  66   2.0000      -8.791228      -239.2215
  67   2.0000      -8.079153      -219.8449
  68   2.0000      -8.069235      -219.5750
  69   2.0000      -8.049146      -219.0284
  70   2.0000      -8.008031      -217.9096
  71   2.0000      -7.998968      -217.6630
  72   2.0000      -6.627509      -180.3437
  73   2.0000      -6.612966      -179.9480
  74   2.0000      -6.612778      -179.9428
  75   2.0000      -6.050554      -164.6439
  76   2.0000      -6.042996      -164.4383
  77   2.0000      -6.041010      -164.3842
  78   2.0000      -6.038922      -164.3274
  79   2.0000      -6.034665      -164.2116
  80   2.0000      -6.030436      -164.0965
  81   2.0000      -6.018552      -163.7731
  82   2.0000      -6.013890      -163.6463
  83   2.0000      -6.011411      -163.5788
  84   2.0000      -5.977735      -162.6624
  85   2.0000      -5.973820      -162.5559
  86   2.0000      -5.968949      -162.4234
  87   2.0000      -5.968883      -162.4216
  88   2.0000      -5.964576      -162.3044
  89   2.0000      -5.959811      -162.1747
  90   2.0000      -2.743399       -74.6517
  91   2.0000      -2.739291       -74.5399
  92   2.0000      -2.739154       -74.5362
  93   2.0000      -2.727599       -74.2217
  94   2.0000      -2.727575       -74.2211
  95   2.0000      -1.148727       -31.2584
  96   2.0000      -1.129570       -30.7372
  97   2.0000      -1.118726       -30.4421
  98   2.0000      -1.089321       -29.6419
  99   2.0000      -1.031125       -28.0583
 100   2.0000      -1.020114       -27.7587
 101   2.0000      -1.011416       -27.5220
 102   2.0000      -0.992127       -26.9971
 103   2.0000      -0.991268       -26.9738
 104   2.0000      -0.985489       -26.8165
 105   2.0000      -0.959032       -26.0966
 106   2.0000      -0.947624       -25.7862
 107   2.0000      -0.939404       -25.5625
 108   2.0000      -0.935296       -25.4507
 109   2.0000      -0.924910       -25.1681
 110   2.0000      -0.921959       -25.0878
 111   2.0000      -0.905487       -24.6396
 112   2.0000      -0.904690       -24.6179
 113   2.0000      -0.899426       -24.4746
 114   2.0000      -0.883066       -24.0295
 115   2.0000      -0.876344       -23.8465
 116   2.0000      -0.871645       -23.7187
 117   2.0000      -0.865131       -23.5414
 118   2.0000      -0.853877       -23.2352
 119   2.0000      -0.839474       -22.8433
 120   2.0000      -0.836956       -22.7747
 121   2.0000      -0.828349       -22.5405
 122   2.0000      -0.826636       -22.4939
 123   2.0000      -0.813540       -22.1375
 124   2.0000      -0.807598       -21.9759
 125   2.0000      -0.802519       -21.8376
 126   2.0000      -0.785644       -21.3785
 127   2.0000      -0.785053       -21.3624
 128   2.0000      -0.782877       -21.3032
 129   2.0000      -0.773544       -21.0492
 130   2.0000      -0.763748       -20.7826
 131   2.0000      -0.759004       -20.6536
 132   2.0000      -0.757388       -20.6096
 133   2.0000      -0.748380       -20.3644
 134   2.0000      -0.734674       -19.9915
 135   2.0000      -0.713276       -19.4092
 136   2.0000      -0.706796       -19.2329
 137   2.0000      -0.692748       -18.8506
 138   2.0000      -0.687491       -18.7076
 139   2.0000      -0.686365       -18.6769
 140   2.0000      -0.680778       -18.5249
 141   2.0000      -0.674575       -18.3561
 142   2.0000      -0.664706       -18.0876
 143   2.0000      -0.657981       -17.9046
 144   2.0000      -0.651801       -17.7364
 145   2.0000      -0.648407       -17.6441
 146   2.0000      -0.637740       -17.3538
 147   2.0000      -0.634794       -17.2736
 148   2.0000      -0.623885       -16.9768
 149   2.0000      -0.619755       -16.8644
 150   2.0000      -0.612347       -16.6628
 151   2.0000      -0.606699       -16.5091
 152   2.0000      -0.601904       -16.3786
 153   2.0000      -0.596234       -16.2243
 154   2.0000      -0.595206       -16.1964
 155   2.0000      -0.592474       -16.1220
 156   2.0000      -0.586130       -15.9494
 157   2.0000      -0.584823       -15.9138
 158   2.0000      -0.583361       -15.8741
 159   2.0000      -0.581687       -15.8285
 160   2.0000      -0.574157       -15.6236
 161   2.0000      -0.561006       -15.2657
 162   2.0000      -0.559293       -15.2191
 163   2.0000      -0.557096       -15.1593
 164   2.0000      -0.552857       -15.0440
 165   2.0000      -0.548954       -14.9378
 166   2.0000      -0.540967       -14.7205
 167   2.0000      -0.539474       -14.6798
 168   2.0000      -0.538059       -14.6413
 169   2.0000      -0.529685       -14.4135
 170   2.0000      -0.527243       -14.3470
 171   2.0000      -0.525863       -14.3095
 172   2.0000      -0.523278       -14.2391
 173   2.0000      -0.521210       -14.1829
 174   2.0000      -0.518407       -14.1066
 175   2.0000      -0.513482       -13.9726
 176   2.0000      -0.512625       -13.9492
 177   2.0000      -0.512467       -13.9449
 178   2.0000      -0.507712       -13.8155
 179   2.0000      -0.506316       -13.7776
 180   2.0000      -0.505620       -13.7586
 181   2.0000      -0.500709       -13.6250
 182   2.0000      -0.499698       -13.5975
 183   2.0000      -0.494942       -13.4681
 184   2.0000      -0.493410       -13.4264
 185   2.0000      -0.491865       -13.3843
 186   2.0000      -0.489570       -13.3219
 187   2.0000      -0.482268       -13.1232
 188   2.0000      -0.480017       -13.0619
 189   2.0000      -0.475374       -12.9356
 190   2.0000      -0.472251       -12.8506
 191   2.0000      -0.471111       -12.8196
 192   2.0000      -0.463931       -12.6242
 193   2.0000      -0.463038       -12.5999
 194   2.0000      -0.462118       -12.5749
 195   2.0000      -0.458396       -12.4736
 196   2.0000      -0.456859       -12.4318
 197   2.0000      -0.455525       -12.3955
 198   2.0000      -0.454855       -12.3772
 199   2.0000      -0.450437       -12.2570
 200   2.0000      -0.448742       -12.2109
 201   2.0000      -0.446751       -12.1567
 202   2.0000      -0.444993       -12.1089
 203   2.0000      -0.443415       -12.0659
 204   2.0000      -0.443115       -12.0578
 205   2.0000      -0.442286       -12.0352
 206   2.0000      -0.438546       -11.9335
 207   2.0000      -0.435840       -11.8598
 208   2.0000      -0.434436       -11.8216
 209   2.0000      -0.432920       -11.7803
 210   2.0000      -0.428611       -11.6631
 211   2.0000      -0.427688       -11.6380
 212   2.0000      -0.425259       -11.5719
 213   2.0000      -0.420656       -11.4466
 214   2.0000      -0.415784       -11.3141
 215   2.0000      -0.414926       -11.2907
 216   2.0000      -0.412055       -11.2126
 217   2.0000      -0.407873       -11.0988
 218   2.0000      -0.406086       -11.0502
 219   2.0000      -0.404796       -11.0151
 220   2.0000      -0.403671       -10.9845
 221   2.0000      -0.398620       -10.8470
 222   2.0000      -0.393255       -10.7010
 223   2.0000      -0.386662       -10.5216
 224   2.0000      -0.382709       -10.4140
 225   2.0000      -0.377925       -10.2839
 226   2.0000      -0.375154       -10.2084
 227   2.0000      -0.373458       -10.1623
 228   2.0000      -0.370006       -10.0684
 229   2.0000      -0.366318        -9.9680
 230   2.0000      -0.359889        -9.7931
 231   2.0000      -0.356014        -9.6876
 232   2.0000      -0.350888        -9.5481
 233   2.0000      -0.346269        -9.4225
 234   2.0000      -0.330292        -8.9877
 235   2.0000      -0.320848        -8.7307
 236   2.0000      -0.315749        -8.5920
 237   2.0000      -0.311028        -8.4635
 238   2.0000      -0.310808        -8.4575
 239   2.0000      -0.303240        -8.2516
 240   2.0000      -0.293356        -7.9826
 241   2.0000      -0.289234        -7.8705
 242   2.0000      -0.281957        -7.6724
 243   2.0000      -0.278814        -7.5869
 244   2.0000      -0.272337        -7.4107
 245   2.0000      -0.254202        -6.9172
 246   2.0000      -0.235406        -6.4057
 247   2.0000      -0.170546        -4.6408
 248   0.0000      -0.088113        -2.3977
 249   0.0000      -0.058583        -1.5941
 250   0.0000      -0.046950        -1.2776
 251   0.0000      -0.027863        -0.7582
 252   0.0000      -0.008596        -0.2339

MULLIKEN ATOMIC CHARGES
-----------------------
   0 C :    0.336122
   1 C :   -0.369692
   2 C :   -0.198784
   3 N :    0.140954
   4 C :   -0.196510
   5 N :    0.153802
   6 C :    0.005204
   7 C :   -0.007848
   8 C :   -0.075901
   9 C :    0.118398
  10 C :   -0.091575
  11 C :   -0.022998
  12 S :    0.183663
  13 C :   -0.123121
  14 C :    0.039518
  15 Br:    0.021133
  16 C :    0.151344
  17 O :   -0.173072
  18 C :   -0.109424
  19 C :   -0.047083
  20 C :   -0.119431
  21 S :    0.188621
  22 C :   -0.095694
  23 C :   -0.082353
  24 C :    0.122295
  25 C :    0.117603
  26 C :   -0.050019
  27 C :    0.015608
  28 C :    0.026044
  29 C :    0.033072
  30 C :    0.037358
  31 C :   -0.258322
  32 C :    0.093701
  33 C :    0.229842
  34 N :   -0.159800
  35 C :    0.072433
  36 C :   -0.032648
  37 C :   -0.002115
  38 C :   -0.044003
  39 C :    0.043719
  40 C :    0.005200
  41 C :   -0.044280
  42 S :    0.052607
  43 C :   -0.044053
  44 C :    0.035060
  45 C :    0.007770
  46 C :    0.034862
  47 S :    0.092870
  48 C :   -0.131202
  49 C :    0.052261
  50 C :    0.096656
  51 O :   -0.328933
  52 C :    0.214010
  53 C :    0.234144
  54 O :   -0.329632
  55 C :    0.185129
  56 C :   -0.223266
  57 C :    0.079423
  58 C :    0.035396
  59 N :   -0.315765
  60 S :    0.467200
  61 N :   -0.285102
  62 H :   -0.012401
  63 H :   -0.007681
  64 H :   -0.004851
  65 H :    0.023460
  66 H :    0.021008
  67 H :    0.009976
  68 H :    0.030799
  69 H :    0.032633
  70 H :    0.000463
  71 H :    0.006536
  72 H :   -0.011084
  73 H :   -0.018657
  74 H :   -0.019221
  75 H :    0.024579
  76 H :    0.017833
  77 H :    0.037771
  78 H :    0.010353
  79 H :    0.028418
  80 H :    0.120001
  81 H :    0.015992
  82 H :   -0.020671
  83 H :   -0.015417
  84 H :   -0.020861
  85 H :   -0.025820
  86 H :   -0.028737
  87 H :   -0.027087
  88 H :   -0.018416
  89 H :    0.019199
  90 H :    0.008789
  91 H :    0.024147
  92 H :    0.033519
  93 H :    0.025343
  94 H :    0.025793
  95 H :   -0.046108
Sum of atomic charges:   -0.0000000

LOEWDIN ATOMIC CHARGES
----------------------
   0 C :    0.079091
   1 C :   -0.156596
   2 C :   -0.019216
   3 N :   -0.067383
   4 C :   -0.024458
   5 N :   -0.054204
   6 C :   -0.021492
   7 C :   -0.049037
   8 C :    0.020467
   9 C :   -0.033686
  10 C :   -0.144972
  11 C :   -0.010798
  12 S :    0.429709
  13 C :   -0.271854
  14 C :   -0.070505
  15 Br:    0.134573
  16 C :    0.081068
  17 O :   -0.165204
  18 C :   -0.122381
  19 C :    0.058610
  20 C :   -0.188466
  21 S :    0.498623
  22 C :   -0.166220
  23 C :   -0.069428
  24 C :   -0.044588
  25 C :   -0.014086
  26 C :   -0.037887
  27 C :    0.004521
  28 C :   -0.024173
  29 C :    0.003551
  30 C :   -0.041062
  31 C :   -0.035387
  32 C :   -0.049248
  33 C :    0.042576
  34 N :   -0.005232
  35 C :    0.055812
  36 C :   -0.120378
  37 C :   -0.025351
  38 C :   -0.180973
  39 C :   -0.026435
  40 C :   -0.057292
  41 C :   -0.165285
  42 S :    0.350164
  43 C :   -0.214086
  44 C :   -0.032273
  45 C :   -0.052376
  46 C :   -0.129945
  47 S :    0.402264
  48 C :   -0.082125
  49 C :   -0.049124
  50 C :    0.027962
  51 O :   -0.108315
  52 C :    0.077414
  53 C :    0.045299
  54 O :   -0.098083
  55 C :    0.077516
  56 C :   -0.108173
  57 C :   -0.051730
  58 C :   -0.044743
  59 N :   -0.291898
  60 S :    0.597041
  61 N :   -0.305172
  62 H :    0.040279
  63 H :    0.040454
  64 H :    0.038479
  65 H :    0.049273
  66 H :    0.024497
  67 H :    0.033344
  68 H :    0.036428
  69 H :    0.037640
  70 H :    0.032351
  71 H :    0.030042
  72 H :    0.028817
  73 H :    0.023211
  74 H :    0.027078
  75 H :    0.031281
  76 H :    0.032214
  77 H :    0.042191
  78 H :    0.021676
  79 H :    0.039263
  80 H :    0.079127
  81 H :    0.032171
  82 H :    0.016187
  83 H :    0.033577
  84 H :    0.030261
  85 H :    0.026480
  86 H :    0.024919
  87 H :    0.026203
  88 H :    0.031507
  89 H :    0.018119
  90 H :    0.012499
  91 H :    0.012026
  92 H :    0.027115
  93 H :    0.016487
  94 H :    0.017768
  95 H :    0.032099

  Mayer bond orders larger than 0.100000
B(  0-C ,  1-C ) :   1.5812 B(  0-C ,  6-C ) :   0.9928 B(  0-C , 18-C ) :   1.1048
B(  1-C ,  2-C ) :   1.1539 B(  1-C ,  4-C ) :   1.1577 B(  2-C ,  3-N ) :   2.9648
B(  4-C ,  5-N ) :   2.9268 B(  6-C ,  7-C ) :   1.2772 B(  6-C , 11-C ) :   1.4129
B(  7-C ,  8-C ) :   1.4271 B(  7-C , 16-C ) :   0.9489 B(  8-C ,  9-C ) :   1.2389
B(  8-C , 62-H ) :   1.0171 B(  9-C , 10-C ) :   1.3129 B(  9-C , 14-C ) :   1.1624
B( 10-C , 11-C ) :   1.3271 B( 10-C , 12-S ) :   1.0845 B( 11-C , 63-H ) :   0.9787
B( 12-S , 13-C ) :   1.0868 B( 13-C , 14-C ) :   1.6188 B( 13-C , 15-Br) :   1.0176
B( 14-C , 64-H ) :   0.9996 B( 16-C , 17-O ) :   2.1599 B( 16-C , 18-C ) :   0.9693
B( 18-C , 19-C ) :   1.4950 B( 19-C , 20-C ) :   1.2891 B( 19-C , 65-H ) :   0.9305
B( 20-C , 21-S ) :   1.1046 B( 20-C , 25-C ) :   1.3238 B( 21-S , 22-C ) :   1.1703
B( 22-C , 23-C ) :   1.5247 B( 22-C , 66-H ) :   0.9628 B( 23-C , 24-C ) :   1.0951
B( 23-C , 25-C ) :   1.2891 B( 24-C , 67-H ) :   0.9502 B( 24-C , 68-H ) :   0.9423
B( 24-C , 69-H ) :   0.9445 B( 25-C , 26-C ) :   1.1006 B( 26-C , 27-C ) :   1.6587
B( 26-C , 70-H ) :   0.9554 B( 27-C , 28-C ) :   1.1283 B( 27-C , 71-H ) :   0.9847
B( 28-C , 29-C ) :   1.6677 B( 28-C , 72-H ) :   0.9900 B( 29-C , 30-C ) :   1.1114
B( 29-C , 73-H ) :   0.9706 B( 30-C , 31-C ) :   1.7764 B( 30-C , 74-H ) :   0.9660
B( 31-C , 32-C ) :   1.0872 B( 31-C , 33-C ) :   0.9921 B( 32-C , 75-H ) :   0.9526
B( 32-C , 76-H ) :   0.9508 B( 32-C , 77-H ) :   0.9419 B( 33-C , 34-N ) :   1.0341
B( 33-C , 78-H ) :   0.9443 B( 33-C , 79-H ) :   0.9300 B( 34-N , 35-C ) :   1.2092
B( 34-N , 80-H ) :   0.9408 B( 35-C , 36-C ) :   1.6070 B( 35-C , 81-H ) :   0.9667
B( 36-C , 37-C ) :   1.1755 B( 36-C , 82-H ) :   0.9653 B( 37-C , 38-C ) :   1.5757
B( 37-C , 83-H ) :   0.9796 B( 38-C , 39-C ) :   1.1520 B( 38-C , 42-S ) :   1.0037
B( 39-C , 40-C ) :   1.5778 B( 39-C , 84-H ) :   0.9986 B( 40-C , 41-C ) :   1.1932
B( 40-C , 85-H ) :   0.9933 B( 41-C , 42-S ) :   1.0550 B( 41-C , 43-C ) :   1.5002
B( 43-C , 44-C ) :   1.1923 B( 43-C , 47-S ) :   0.9909 B( 44-C , 45-C ) :   1.5764
B( 44-C , 86-H ) :   0.9920 B( 45-C , 46-C ) :   1.1434 B( 45-C , 87-H ) :   1.0012
B( 46-C , 47-S ) :   1.0561 B( 46-C , 48-C ) :   1.5275 B( 48-C , 49-C ) :   1.1836
B( 48-C , 88-H ) :   0.9486 B( 49-C , 50-C ) :   1.4244 B( 49-C , 56-C ) :   0.1117
B( 49-C , 58-C ) :   1.1374 B( 50-C , 51-O ) :   1.1648 B( 50-C , 53-C ) :   1.1912
B( 51-O , 52-C ) :   0.9415 B( 52-C , 89-H ) :   0.9775 B( 52-C , 90-H ) :   0.9716
B( 52-C , 91-H ) :   0.9739 B( 53-C , 54-O ) :   1.1280 B( 53-C , 56-C ) :   1.3489
B( 54-O , 55-C ) :   0.9650 B( 55-C , 92-H ) :   0.9776 B( 55-C , 93-H ) :   0.9687
B( 55-C , 94-H ) :   0.9686 B( 56-C , 57-C ) :   1.1469 B( 56-C , 95-H ) :   1.0393
B( 57-C , 58-C ) :   1.1585 B( 57-C , 61-N ) :   1.5416 B( 58-C , 59-N ) :   1.5234
B( 59-N , 60-S ) :   1.2239 B( 59-N , 61-N ) :   0.1420 B( 60-S , 61-N ) :   1.2365

-----------------------------------------------------------------------------
         ABSORPTION SPECTRUM VIA TRANSITION ELECTRIC DIPOLE MOMENTS
-----------------------------------------------------------------------------
State   Energy  Wavelength   fosc         T2         TX        TY        TZ
        (cm-1)    (nm)                  (au**2)     (au)      (au)      (au)
-----------------------------------------------------------------------------
   0    7630.9   1310.5   0.000285176   0.01230   0.02353   0.00542  -0.10826
   1   13056.5    765.9   0.962311586  24.26415  -2.83285   0.82163   3.94513
   2   14819.1    674.8   0.000851588   0.01892   0.13659  -0.01532   0.00521
   3   18860.6    530.2   0.291239265   5.08359   1.48665   1.32189  -1.06117
   4   19869.7    503.3   0.307512339   5.09502   0.23235  -1.69357  -1.47406
   5   20210.3    494.8   0.196492426   3.20073   0.68797  -1.05348  -1.27185
   6   21886.8    456.9   0.004995005   0.07513  -0.20953  -0.17412  -0.03025
   7   24972.1    400.4   0.065099587   0.85822   0.18432  -0.90048   0.11567
   8   25007.9    399.9   0.392132013   5.16215  -2.03439  -0.41168  -0.92408
   9   25828.9    387.2   0.170797549   2.17696   0.72855  -0.76004   1.03369
  10   27301.6    366.3   0.003732620   0.04501   0.13355   0.16013   0.03914
  11   28348.6    352.8   0.244180770   2.83566  -1.13862  -0.72720   1.00518
  12   28999.0    344.8   0.282959720   3.21231   0.91719   1.53978  -0.01109
  13   29032.0    344.4   0.043895181   0.49776   0.05840   0.68029   0.17761
  14   29235.5    342.0   0.141398592   1.59224   0.76209   0.92072  -0.40464
  15   29938.8    334.0   0.151396227   1.66478   1.18592   0.46356  -0.20851
  16   30863.6    324.0   0.187824272   2.00346   1.19778   0.47547  -0.58541
  17   31447.1    318.0   0.015563833   0.16293   0.39483   0.06994   0.04636
  18   31775.2    314.7   0.012679630   0.13137  -0.34206  -0.10090   0.06468
  19   32441.5    308.2   0.227737438   2.31105  -0.04918  -1.25817  -0.85185
  20   32745.6    305.4   0.000241147   0.00242  -0.04390  -0.01681  -0.01464
  21   32833.0    304.6   0.107406760   1.07695  -0.87267  -0.42571  -0.36629
  22   33089.4    302.2   0.032004468   0.31842   0.55166  -0.11850  -0.00643
  23   33178.5    301.4   0.055181533   0.54754  -0.67877  -0.21158  -0.20502
  24   33286.4    300.4   0.039576659   0.39142   0.11705  -0.52775   0.31496
  25   33604.7    297.6   0.022442690   0.21986  -0.18413  -0.26261   0.34205
  26   33633.9    297.3   0.508844346   4.98062  -0.91054  -1.21275   1.63731
  27   34018.3    294.0   0.318220056   3.07957  -0.88851   1.23140  -0.87964
  28   34105.4    293.2   0.077107588   0.74430   0.00299  -0.84080   0.19325
  29   34372.1    290.9   0.031507859   0.30178  -0.51022   0.08030  -0.18710
  30   34450.7    290.3   0.357447336   3.41578   1.05840  -1.21759   0.90168
  31   34554.6    289.4   0.017263686   0.16448  -0.14571   0.25792  -0.27699
  32   34590.2    289.1   0.073065894   0.69540   0.52786  -0.51685   0.38683
  33   36685.4    272.6   0.000304438   0.00273   0.00168   0.02299   0.04691
  34   36882.1    271.1   0.042437769   0.37880   0.48011   0.03151  -0.38380
  35   36927.8    270.8   0.001744916   0.01556  -0.07960  -0.07895   0.05466
  36   37037.5    270.0   0.031048363   0.27598   0.16330   0.49895  -0.01885
  37   37620.5    265.8   0.029289024   0.25630   0.31387   0.08171  -0.38873
  38   38656.4    258.7   0.056290892   0.47939  -0.42244   0.46262  -0.29483
  39   38718.6    258.3   0.021936680   0.18652  -0.08773   0.02396   0.42220
  40   38806.3    257.7   0.000202537   0.00172   0.00208  -0.01586  -0.03824
  41   38840.2    257.5   0.249061622   2.11106  -0.96802   0.33721  -1.02970
  42   39435.0    253.6   0.041600350   0.34729   0.00242   0.45273  -0.37725
  43   39682.1    252.0   0.031681567   0.26284  -0.09180   0.44116   0.24451
  44   39985.2    250.1   0.035351903   0.29106  -0.10793   0.42883   0.30906
  45   40233.6    248.5   0.001464964   0.01199  -0.05174   0.05073  -0.08207

FINAL SINGLE POINT ENERGY     -6910.164158868190

DIPOLE MOMENT
-------------
                                X             Y             Z
Electronic contribution:    134.76178      68.22791    -121.87892
Nuclear contribution   :   -135.11700     -69.47091     119.36683
                        -----------------------------------------
Total Dipole Moment    :     -0.35522      -1.24300      -2.51209
                        -----------------------------------------
Magnitude (a.u.)       :      2.82521
Magnitude (Debye)      :      7.18112

Rotational constants in cm-1:     0.001366     0.000270     0.000252
Rotational constants in MHz :    40.950799     8.102600     7.563165

                             ****ORCA TERMINATED NORMALLY****
TOTAL RUN TIME: 0 days 0 hours 8 minutes 26 seconds 998 msec
