                         Program Version 4.2.0 -  RELEASE  -
|  1> # ORCA input file
|  2> # SCF done       -194.178975073988          0.000374844271
|  3> ! CAM-B3LYP def2-SVP def2/J RIJCOSX Grid4 TightSCF
|  4> %maxcore 5000
|  5> %tddft
|  6>     Mode sTDDFT
|  7>     Ethresh 5.0
|  8>     maxcore 5000
|  9> end
| 10>
| 11> %pal
| 12>   nprocs 6
| 13>   end
| 14> * xyz 0 1
| 15>    C       -5.24209        -5.72220         1.14373
| 16>    C       -4.23451        -6.61337         0.86048
| 17>    C       -4.13340        -7.89331         1.43836
| 18>    N       -3.99532        -8.93808         1.89595
| 19>    C       -3.14451        -6.35119         0.00623
| 20>    N       -2.21503        -6.20132        -0.65178
| 21>    C       -6.31247        -5.94475         2.11508
| 22>    C       -7.06166        -4.75140         2.23842
| 23>    C       -8.10030        -4.61295         3.12450
| 24>    C       -8.41184        -5.70817         3.93689
| 25>    C       -7.68158        -6.90815         3.78338
| 26>    C       -6.63605        -7.04947         2.87845
| 27>    S       -8.23405        -8.13476         4.88170
| 28>    C       -9.39046        -7.01815         5.55201
| 29>    C       -9.38924        -5.79893         4.96572
| 30>   Br      -10.46027        -7.54827         6.99522
| 31>    C       -6.52154        -3.73837         1.31024
| 32>    O       -7.00204        -2.64594         1.08092
| 33>    C       -5.34900        -4.36423         0.66564
| 34>    C       -4.58747        -3.77651        -0.32639
| 35>    C       -4.43611        -2.40288        -0.56842
| 36>    S       -4.00958        -1.85698        -2.16998
| 37>    C       -4.07868        -0.22187        -1.66007
| 38>    C       -4.37781        -0.06199        -0.34050
| 39>    C       -4.45606         1.27050         0.32394
| 40>    C       -4.56029        -1.31110         0.31821
| 41>    C       -4.74553        -1.56862         1.70080
| 42>    C       -5.41208        -0.84605         2.64442
| 43>    C       -5.80628        -1.39963         3.88495
| 44>    C       -5.46851        -2.65026         4.33443
| 45>    C       -6.08135        -3.34436         5.37892
| 46>    S       -7.42132        -2.70714         6.27990
| 47>    C       -7.65399        -4.19261         7.16926
| 48>    C       -6.68465        -5.15332         6.77793
| 49>    C       -5.80505        -4.67737         5.77424
| 50>    C       -4.81202        -5.52966         5.27425
| 51>    C       -4.68618        -6.81619         5.74266
| 52>    C       -3.62811        -7.71605         5.19088
| 53>    C       -5.56384        -7.28872         6.75042
| 54>    C       -5.43758        -8.69100         7.25170
| 55>    C       -6.53946        -6.46012         7.25601
| 56>    C       -8.68916        -4.35576         8.07669
| 57>    C       -9.59413        -3.36891         8.42294
| 58>    C      -10.65686        -3.56922         9.28540
| 59>    C      -11.53479        -2.57085         9.68399
| 60>    C      -12.64874        -2.70368        10.52960
| 61>    C      -13.31268        -1.52877        10.76934
| 62>    C      -12.74116        -0.41759        10.12743
| 63>    S      -11.35353        -0.89955         9.19093
| 64>    C      -13.14234         0.91475        10.19883
| 65>    C      -14.23894         1.45221        10.89210
| 66>    C      -14.34089         2.81399        10.78663
| 67>    C      -13.32818         3.40606        10.00909
| 68>    S      -12.24102         2.18192         9.40359
| 69>    C      -13.15302         4.76076         9.76760
| 70>    C      -12.12378         5.27200         8.99419
| 71>    C      -11.81038         6.59668         8.74927
| 72>    C      -12.21917         7.81533         9.38395
| 73>    C      -12.66800         7.97615        10.67737
| 74>    C      -13.02785         9.21658        11.23599
| 75>    N      -13.35737        10.19560        11.73956
| 76>    C      -12.71486         6.95157        11.64138
| 77>    N      -12.72794         6.17596        12.48928
| 78>    C      -11.86373         8.91749         8.48688
| 79>    C      -11.08583         8.39934         7.42223
| 80>    C      -10.97852         6.93191         7.57618
| 81>    O      -10.36532         6.16003         6.86781
| 82>    C      -10.56207         9.19490         6.43441
| 83>    C      -10.82746        10.56821         6.49256
| 84>    C      -11.61700        11.07308         7.55032
| 85>    C      -12.14099        10.26780         8.55618
| 86>    S      -11.82943        12.79372         7.42482
| 87>    C      -10.86214        12.81018         5.97416
| 88>    C      -10.40530        11.59232         5.60016
| 89>   Br      -10.54732        14.43492         5.08940
| 90>    H       -8.64378        -3.68428         3.20064
| 91>    H       -6.11161        -7.98635         2.79901
| 92>    H      -10.03977        -4.99246         5.25189
| 93>    H       -4.06224        -4.42859        -1.01460
| 94>    H       -3.88766         0.55433        -2.37619
| 95>    H       -4.01962         2.03606        -0.31266
| 96>    H       -3.92694         1.25265         1.27474
| 97>    H       -5.49571         1.53515         0.51369
| 98>    H       -4.40913        -2.55737         1.98658
| 99>    H       -5.81110         0.12513         2.39843
|100>    H       -6.51764        -0.82951         4.46875
|101>    H       -4.69661        -3.20520         3.82017
|102>    H       -4.13443        -5.17463         4.51183
|103>    H       -3.01261        -7.19117         4.46491
|104>    H       -4.07189        -8.57973         4.69697
|105>    H       -2.98424        -8.08663         5.98700
|106>    H       -4.45711        -8.85170         7.69809
|107>    H       -5.54620        -9.39975         6.43163
|108>    H       -6.19763        -8.90443         7.99859
|109>    H       -7.20263        -6.82431         8.02660
|110>    H       -8.79446        -5.32798         8.53895
|111>    H       -9.46353        -2.38123         7.99688
|112>    H      -10.82792        -4.56185         9.68181
|113>    H      -12.93461        -3.65556        10.94116
|114>    H      -14.18246        -1.44413        11.39504
|115>    H      -14.92399         0.83776        11.44791
|116>    H      -15.10562         3.40527        11.25734
|117>    H      -13.88271         5.42389        10.20831
|118>    H      -11.52054         4.56049         8.43686
|119>    H       -9.96507         8.77387         5.64070
|120>    H      -12.73973        10.70016         9.34047
|121>    H       -9.79570        11.42011         4.73192
|122> *
|123>
|124>                          ****END OF INPUT****

CARTESIAN COORDINATES (ANGSTROEM)
---------------------------------
  C     -5.242090   -5.722200    1.143730
  C     -4.234510   -6.613370    0.860480
  C     -4.133400   -7.893310    1.438360
  N     -3.995320   -8.938080    1.895950
  C     -3.144510   -6.351190    0.006230
  N     -2.215030   -6.201320   -0.651780
  C     -6.312470   -5.944750    2.115080
  C     -7.061660   -4.751400    2.238420
  C     -8.100300   -4.612950    3.124500
  C     -8.411840   -5.708170    3.936890
  C     -7.681580   -6.908150    3.783380
  C     -6.636050   -7.049470    2.878450
  S     -8.234050   -8.134760    4.881700
  C     -9.390460   -7.018150    5.552010
  C     -9.389240   -5.798930    4.965720
  Br   -10.460270   -7.548270    6.995220
  C     -6.521540   -3.738370    1.310240
  O     -7.002040   -2.645940    1.080920
  C     -5.349000   -4.364230    0.665640
  C     -4.587470   -3.776510   -0.326390
  C     -4.436110   -2.402880   -0.568420
  S     -4.009580   -1.856980   -2.169980
  C     -4.078680   -0.221870   -1.660070
  C     -4.377810   -0.061990   -0.340500
  C     -4.456060    1.270500    0.323940
  C     -4.560290   -1.311100    0.318210
  C     -4.745530   -1.568620    1.700800
  C     -5.412080   -0.846050    2.644420
  C     -5.806280   -1.399630    3.884950
  C     -5.468510   -2.650260    4.334430
  C     -6.081350   -3.344360    5.378920
  S     -7.421320   -2.707140    6.279900
  C     -7.653990   -4.192610    7.169260
  C     -6.684650   -5.153320    6.777930
  C     -5.805050   -4.677370    5.774240
  C     -4.812020   -5.529660    5.274250
  C     -4.686180   -6.816190    5.742660
  C     -3.628110   -7.716050    5.190880
  C     -5.563840   -7.288720    6.750420
  C     -5.437580   -8.691000    7.251700
  C     -6.539460   -6.460120    7.256010
  C     -8.689160   -4.355760    8.076690
  C     -9.594130   -3.368910    8.422940
  C    -10.656860   -3.569220    9.285400
  C    -11.534790   -2.570850    9.683990
  C    -12.648740   -2.703680   10.529600
  C    -13.312680   -1.528770   10.769340
  C    -12.741160   -0.417590   10.127430
  S    -11.353530   -0.899550    9.190930
  C    -13.142340    0.914750   10.198830
  C    -14.238940    1.452210   10.892100
  C    -14.340890    2.813990   10.786630
  C    -13.328180    3.406060   10.009090
  S    -12.241020    2.181920    9.403590
  C    -13.153020    4.760760    9.767600
  C    -12.123780    5.272000    8.994190
  C    -11.810380    6.596680    8.749270
  C    -12.219170    7.815330    9.383950
  C    -12.668000    7.976150   10.677370
  C    -13.027850    9.216580   11.235990
  N    -13.357370   10.195600   11.739560
  C    -12.714860    6.951570   11.641380
  N    -12.727940    6.175960   12.489280
  C    -11.863730    8.917490    8.486880
  C    -11.085830    8.399340    7.422230
  C    -10.978520    6.931910    7.576180
  O    -10.365320    6.160030    6.867810
  C    -10.562070    9.194900    6.434410
  C    -10.827460   10.568210    6.492560
  C    -11.617000   11.073080    7.550320
  C    -12.140990   10.267800    8.556180
  S    -11.829430   12.793720    7.424820
  C    -10.862140   12.810180    5.974160
  C    -10.405300   11.592320    5.600160
  Br   -10.547320   14.434920    5.089400
  H     -8.643780   -3.684280    3.200640
  H     -6.111610   -7.986350    2.799010
  H    -10.039770   -4.992460    5.251890
  H     -4.062240   -4.428590   -1.014600
  H     -3.887660    0.554330   -2.376190
  H     -4.019620    2.036060   -0.312660
  H     -3.926940    1.252650    1.274740
  H     -5.495710    1.535150    0.513690
  H     -4.409130   -2.557370    1.986580
  H     -5.811100    0.125130    2.398430
  H     -6.517640   -0.829510    4.468750
  H     -4.696610   -3.205200    3.820170
  H     -4.134430   -5.174630    4.511830
  H     -3.012610   -7.191170    4.464910
  H     -4.071890   -8.579730    4.696970
  H     -2.984240   -8.086630    5.987000
  H     -4.457110   -8.851700    7.698090
  H     -5.546200   -9.399750    6.431630
  H     -6.197630   -8.904430    7.998590
  H     -7.202630   -6.824310    8.026600
  H     -8.794460   -5.327980    8.538950
  H     -9.463530   -2.381230    7.996880
  H    -10.827920   -4.561850    9.681810
  H    -12.934610   -3.655560   10.941160
  H    -14.182460   -1.444130   11.395040
  H    -14.923990    0.837760   11.447910
  H    -15.105620    3.405270   11.257340
  H    -13.882710    5.423890   10.208310
  H    -11.520540    4.560490    8.436860
  H     -9.965070    8.773870    5.640700
  H    -12.739730   10.700160    9.340470
  H     -9.795700   11.420110    4.731920

 Total Charge           Charge          ....    0
 Multiplicity           Mult            ....    1
 Number of Electrons    NEL             ....  608
 Basis Dimension        Dim             .... 1270

ORBITAL ENERGIES
----------------

  NO   OCC          E(Eh)            E(eV)
   0   2.0000    -482.897108    -13140.2984
   1   2.0000    -482.872849    -13139.6382
   2   2.0000     -88.980657     -2421.2868
   3   2.0000     -88.978518     -2421.2286
   4   2.0000     -88.972539     -2421.0659
   5   2.0000     -88.962841     -2420.8020
   6   2.0000     -88.959471     -2420.7103
   7   2.0000     -88.954832     -2420.5840
   8   2.0000     -62.574562     -1702.7404
   9   2.0000     -62.550587     -1702.0880
  10   2.0000     -56.408470     -1534.9525
  11   2.0000     -56.405859     -1534.8815
  12   2.0000     -56.405775     -1534.8792
  13   2.0000     -56.384515     -1534.3007
  14   2.0000     -56.381840     -1534.2279
  15   2.0000     -56.381794     -1534.2266
  16   2.0000     -19.216299      -522.9021
  17   2.0000     -19.188812      -522.1541
  18   2.0000     -14.423033      -392.4707
  19   2.0000     -14.420380      -392.3985
  20   2.0000     -14.391717      -391.6185
  21   2.0000     -14.389172      -391.5493
  22   2.0000     -10.365852      -282.0692
  23   2.0000     -10.363386      -282.0021
  24   2.0000     -10.347221      -281.5622
  25   2.0000     -10.346592      -281.5451
  26   2.0000     -10.342915      -281.4450
  27   2.0000     -10.339445      -281.3506
  28   2.0000     -10.332011      -281.1483
  29   2.0000     -10.328241      -281.0457
  30   2.0000     -10.328153      -281.0433
  31   2.0000     -10.326751      -281.0052
  32   2.0000     -10.326546      -280.9996
  33   2.0000     -10.323215      -280.9090
  34   2.0000     -10.320819      -280.8438
  35   2.0000     -10.319412      -280.8055
  36   2.0000     -10.319261      -280.8014
  37   2.0000     -10.318453      -280.7794
  38   2.0000     -10.315928      -280.7107
  39   2.0000     -10.315914      -280.7103
  40   2.0000     -10.315244      -280.6921
  41   2.0000     -10.314098      -280.6609
  42   2.0000     -10.310914      -280.5742
  43   2.0000     -10.310738      -280.5694
  44   2.0000     -10.308955      -280.5209
  45   2.0000     -10.308923      -280.5200
  46   2.0000     -10.307251      -280.4746
  47   2.0000     -10.306128      -280.4440
  48   2.0000     -10.305426      -280.4249
  49   2.0000     -10.303000      -280.3589
  50   2.0000     -10.302909      -280.3564
  51   2.0000     -10.302456      -280.3441
  52   2.0000     -10.301947      -280.3302
  53   2.0000     -10.299068      -280.2519
  54   2.0000     -10.298772      -280.2438
  55   2.0000     -10.297429      -280.2073
  56   2.0000     -10.297364      -280.2055
  57   2.0000     -10.297189      -280.2008
  58   2.0000     -10.296616      -280.1852
  59   2.0000     -10.296080      -280.1706
  60   2.0000     -10.295671      -280.1594
  61   2.0000     -10.294640      -280.1314
  62   2.0000     -10.294274      -280.1214
  63   2.0000     -10.293279      -280.0943
  64   2.0000     -10.293261      -280.0939
  65   2.0000     -10.293258      -280.0938
  66   2.0000     -10.292277      -280.0671
  67   2.0000     -10.289233      -279.9843
  68   2.0000     -10.288971      -279.9771
  69   2.0000     -10.288666      -279.9688
  70   2.0000     -10.287419      -279.9349
  71   2.0000     -10.285055      -279.8706
  72   2.0000     -10.284490      -279.8552
  73   2.0000     -10.283411      -279.8258
  74   2.0000     -10.283193      -279.8199
  75   2.0000     -10.281849      -279.7833
  76   2.0000     -10.281809      -279.7823
  77   2.0000     -10.281512      -279.7742
  78   2.0000     -10.275027      -279.5977
  79   2.0000     -10.271334      -279.4972
  80   2.0000     -10.271130      -279.4917
  81   2.0000     -10.269172      -279.4384
  82   2.0000     -10.265009      -279.3251
  83   2.0000      -8.803920      -239.5669
  84   2.0000      -8.780024      -238.9166
  85   2.0000      -8.075907      -219.7566
  86   2.0000      -8.073432      -219.6892
  87   2.0000      -8.068670      -219.5597
  88   2.0000      -8.059117      -219.2997
  89   2.0000      -8.055478      -219.2007
  90   2.0000      -8.051122      -219.0822
  91   2.0000      -6.639995      -180.6834
  92   2.0000      -6.625839      -180.2982
  93   2.0000      -6.625519      -180.2895
  94   2.0000      -6.616246      -180.0372
  95   2.0000      -6.601763      -179.6431
  96   2.0000      -6.601651      -179.6401
  97   2.0000      -6.045723      -164.5125
  98   2.0000      -6.042416      -164.4225
  99   2.0000      -6.041386      -164.3945
 100   2.0000      -6.038557      -164.3175
 101   2.0000      -6.037922      -164.3002
 102   2.0000      -6.037092      -164.2776
 103   2.0000      -6.035972      -164.2471
 104   2.0000      -6.033712      -164.1857
 105   2.0000      -6.030827      -164.1072
 106   2.0000      -6.028663      -164.0483
 107   2.0000      -6.025186      -163.9536
 108   2.0000      -6.024681      -163.9399
 109   2.0000      -6.020913      -163.8374
 110   2.0000      -6.020638      -163.8299
 111   2.0000      -6.020342      -163.8218
 112   2.0000      -6.016682      -163.7222
 113   2.0000      -6.016671      -163.7219
 114   2.0000      -6.012386      -163.6053
 115   2.0000      -2.755891       -74.9916
 116   2.0000      -2.751973       -74.8850
 117   2.0000      -2.751759       -74.8792
 118   2.0000      -2.740483       -74.5723
 119   2.0000      -2.740478       -74.5722
 120   2.0000      -2.732121       -74.3448
 121   2.0000      -2.728075       -74.2347
 122   2.0000      -2.727946       -74.2312
 123   2.0000      -2.716461       -73.9187
 124   2.0000      -2.716447       -73.9183
 125   2.0000      -1.131310       -30.7845
 126   2.0000      -1.102828       -30.0095
 127   2.0000      -1.028134       -27.9770
 128   2.0000      -1.019552       -27.7434
 129   2.0000      -1.010747       -27.5038
 130   2.0000      -1.008533       -27.4436
 131   2.0000      -1.006601       -27.3910
 132   2.0000      -1.003175       -27.2978
 133   2.0000      -1.000282       -27.2191
 134   2.0000      -0.993690       -27.0397
 135   2.0000      -0.990932       -26.9646
 136   2.0000      -0.984974       -26.8025
 137   2.0000      -0.969666       -26.3860
 138   2.0000      -0.966917       -26.3111
 139   2.0000      -0.955464       -25.9995
 140   2.0000      -0.949036       -25.8246
 141   2.0000      -0.938674       -25.5426
 142   2.0000      -0.924910       -25.1681
 143   2.0000      -0.922706       -25.1081
 144   2.0000      -0.915297       -24.9065
 145   2.0000      -0.912264       -24.8240
 146   2.0000      -0.904113       -24.6022
 147   2.0000      -0.894839       -24.3498
 148   2.0000      -0.889737       -24.2110
 149   2.0000      -0.888193       -24.1690
 150   2.0000      -0.881802       -23.9950
 151   2.0000      -0.878805       -23.9135
 152   2.0000      -0.871205       -23.7067
 153   2.0000      -0.868227       -23.6257
 154   2.0000      -0.866531       -23.5795
 155   2.0000      -0.858342       -23.3567
 156   2.0000      -0.856796       -23.3146
 157   2.0000      -0.847333       -23.0571
 158   2.0000      -0.836773       -22.7697
 159   2.0000      -0.832278       -22.6474
 160   2.0000      -0.832062       -22.6416
 161   2.0000      -0.821759       -22.3612
 162   2.0000      -0.810831       -22.0638
 163   2.0000      -0.806313       -21.9409
 164   2.0000      -0.794543       -21.6206
 165   2.0000      -0.791444       -21.5363
 166   2.0000      -0.781799       -21.2738
 167   2.0000      -0.768422       -20.9098
 168   2.0000      -0.765411       -20.8279
 169   2.0000      -0.759453       -20.6658
 170   2.0000      -0.753889       -20.5144
 171   2.0000      -0.742415       -20.2021
 172   2.0000      -0.733176       -19.9507
 173   2.0000      -0.717257       -19.5176
 174   2.0000      -0.713324       -19.4105
 175   2.0000      -0.702330       -19.1114
 176   2.0000      -0.702087       -19.1048
 177   2.0000      -0.696594       -18.9553
 178   2.0000      -0.688383       -18.7319
 179   2.0000      -0.684333       -18.6216
 180   2.0000      -0.680268       -18.5110
 181   2.0000      -0.668393       -18.1879
 182   2.0000      -0.666619       -18.1396
 183   2.0000      -0.664754       -18.0889
 184   2.0000      -0.663244       -18.0478
 185   2.0000      -0.653453       -17.7814
 186   2.0000      -0.650138       -17.6912
 187   2.0000      -0.642229       -17.4759
 188   2.0000      -0.641402       -17.4534
 189   2.0000      -0.633686       -17.2435
 190   2.0000      -0.628367       -17.0987
 191   2.0000      -0.625973       -17.0336
 192   2.0000      -0.623616       -16.9695
 193   2.0000      -0.616749       -16.7826
 194   2.0000      -0.613093       -16.6831
 195   2.0000      -0.611320       -16.6349
 196   2.0000      -0.602518       -16.3954
 197   2.0000      -0.601026       -16.3548
 198   2.0000      -0.588556       -16.0154
 199   2.0000      -0.584492       -15.9048
 200   2.0000      -0.581099       -15.8125
 201   2.0000      -0.577047       -15.7022
 202   2.0000      -0.575137       -15.6503
 203   2.0000      -0.571836       -15.5605
 204   2.0000      -0.560816       -15.2606
 205   2.0000      -0.559195       -15.2165
 206   2.0000      -0.554992       -15.1021
 207   2.0000      -0.552420       -15.0321
 208   2.0000      -0.548676       -14.9302
 209   2.0000      -0.547655       -14.9024
 210   2.0000      -0.541705       -14.7405
 211   2.0000      -0.540353       -14.7038
 212   2.0000      -0.534205       -14.5365
 213   2.0000      -0.531736       -14.4693
 214   2.0000      -0.530339       -14.4313
 215   2.0000      -0.528681       -14.3861
 216   2.0000      -0.525835       -14.3087
 217   2.0000      -0.522820       -14.2266
 218   2.0000      -0.518579       -14.1113
 219   2.0000      -0.518036       -14.0965
 220   2.0000      -0.517197       -14.0736
 221   2.0000      -0.515661       -14.0319
 222   2.0000      -0.512839       -13.9551
 223   2.0000      -0.511705       -13.9242
 224   2.0000      -0.509229       -13.8568
 225   2.0000      -0.509106       -13.8535
 226   2.0000      -0.505322       -13.7505
 227   2.0000      -0.502228       -13.6663
 228   2.0000      -0.500656       -13.6236
 229   2.0000      -0.498336       -13.5604
 230   2.0000      -0.497942       -13.5497
 231   2.0000      -0.497534       -13.5386
 232   2.0000      -0.491876       -13.3846
 233   2.0000      -0.490176       -13.3384
 234   2.0000      -0.489250       -13.3132
 235   2.0000      -0.488237       -13.2856
 236   2.0000      -0.486356       -13.2344
 237   2.0000      -0.481562       -13.1040
 238   2.0000      -0.479049       -13.0356
 239   2.0000      -0.478381       -13.0174
 240   2.0000      -0.475380       -12.9357
 241   2.0000      -0.474656       -12.9161
 242   2.0000      -0.473795       -12.8926
 243   2.0000      -0.473430       -12.8827
 244   2.0000      -0.470451       -12.8016
 245   2.0000      -0.469214       -12.7680
 246   2.0000      -0.467209       -12.7134
 247   2.0000      -0.463661       -12.6168
 248   2.0000      -0.463084       -12.6012
 249   2.0000      -0.458463       -12.4754
 250   2.0000      -0.457968       -12.4619
 251   2.0000      -0.454875       -12.3778
 252   2.0000      -0.450884       -12.2692
 253   2.0000      -0.450316       -12.2537
 254   2.0000      -0.445545       -12.1239
 255   2.0000      -0.444717       -12.1014
 256   2.0000      -0.443692       -12.0735
 257   2.0000      -0.441878       -12.0241
 258   2.0000      -0.440359       -11.9828
 259   2.0000      -0.435558       -11.8521
 260   2.0000      -0.434421       -11.8212
 261   2.0000      -0.432936       -11.7808
 262   2.0000      -0.432059       -11.7569
 263   2.0000      -0.428986       -11.6733
 264   2.0000      -0.428499       -11.6600
 265   2.0000      -0.427594       -11.6354
 266   2.0000      -0.426764       -11.6128
 267   2.0000      -0.426071       -11.5940
 268   2.0000      -0.422545       -11.4980
 269   2.0000      -0.420753       -11.4493
 270   2.0000      -0.419014       -11.4019
 271   2.0000      -0.418113       -11.3774
 272   2.0000      -0.415845       -11.3157
 273   2.0000      -0.413619       -11.2552
 274   2.0000      -0.408463       -11.1149
 275   2.0000      -0.405330       -11.0296
 276   2.0000      -0.401330       -10.9208
 277   2.0000      -0.398091       -10.8326
 278   2.0000      -0.393234       -10.7005
 279   2.0000      -0.387676       -10.5492
 280   2.0000      -0.386083       -10.5059
 281   2.0000      -0.384679       -10.4677
 282   2.0000      -0.377627       -10.2758
 283   2.0000      -0.374654       -10.1949
 284   2.0000      -0.368331       -10.0228
 285   2.0000      -0.362619        -9.8674
 286   2.0000      -0.356492        -9.7006
 287   2.0000      -0.353906        -9.6303
 288   2.0000      -0.349656        -9.5146
 289   2.0000      -0.345098        -9.3906
 290   2.0000      -0.337848        -9.1933
 291   2.0000      -0.334658        -9.1065
 292   2.0000      -0.329256        -8.9595
 293   2.0000      -0.324237        -8.8229
 294   2.0000      -0.318612        -8.6699
 295   2.0000      -0.313436        -8.5290
 296   2.0000      -0.304261        -8.2794
 297   2.0000      -0.300886        -8.1875
 298   2.0000      -0.297255        -8.0887
 299   2.0000      -0.292568        -7.9612
 300   2.0000      -0.282437        -7.6855
 301   2.0000      -0.275635        -7.5004
 302   2.0000      -0.248342        -6.7577
 303   2.0000      -0.207088        -5.6352
 304   0.0000      -0.122929        -3.3451
 305   0.0000      -0.097881        -2.6635
 306   0.0000      -0.072870        -1.9829
 307   0.0000      -0.060971        -1.6591
 308   0.0000      -0.046850        -1.2749

MULLIKEN ATOMIC CHARGES
-----------------------
   0 C :    0.310875
   1 C :   -0.360675
   2 C :   -0.178389
   3 N :    0.146301
   4 C :   -0.207195
   5 N :    0.161716
   6 C :    0.018410
   7 C :   -0.011546
   8 C :   -0.060839
   9 C :    0.106361
  10 C :   -0.081645
  11 C :   -0.020564
  12 S :    0.174896
  13 C :   -0.153224
  14 C :    0.089731
  15 Br:    0.011860
  16 C :    0.119097
  17 O :   -0.143150
  18 C :   -0.163386
  19 C :    0.049277
  20 C :   -0.164275
  21 S :    0.151889
  22 C :   -0.096916
  23 C :   -0.096564
  24 C :    0.115863
  25 C :    0.180812
  26 C :   -0.028697
  27 C :    0.034748
  28 C :   -0.004274
  29 C :   -0.002361
  30 C :   -0.064096
  31 S :    0.126768
  32 C :   -0.071735
  33 C :    0.150944
  34 C :    0.128257
  35 C :   -0.092259
  36 C :   -0.089601
  37 C :    0.120490
  38 C :   -0.066483
  39 C :    0.123898
  40 C :   -0.109161
  41 C :   -0.017690
  42 C :   -0.019642
  43 C :    0.018094
  44 C :   -0.040579
  45 C :    0.047611
  46 C :    0.012205
  47 C :   -0.024285
  48 S :    0.100158
  49 C :   -0.061853
  50 C :    0.038164
  51 C :    0.030274
  52 C :   -0.018181
  53 S :    0.105282
  54 C :    0.000272
  55 C :    0.018425
  56 C :   -0.131573
  57 C :    0.290427
  58 C :   -0.358081
  59 C :   -0.180219
  60 N :    0.128967
  61 C :   -0.222064
  62 N :    0.154607
  63 C :    0.005948
  64 C :   -0.002821
  65 C :    0.133507
  66 O :   -0.163905
  67 C :   -0.081290
  68 C :    0.116210
  69 C :   -0.090755
  70 C :   -0.029333
  71 S :    0.175538
  72 C :   -0.125288
  73 C :    0.036731
  74 Br:    0.009204
  75 H :   -0.016265
  76 H :   -0.015118
  77 H :   -0.004749
  78 H :    0.033827
  79 H :    0.029426
  80 H :    0.013147
  81 H :    0.031444
  82 H :    0.046802
  83 H :    0.008662
  84 H :   -0.014966
  85 H :    0.001572
  86 H :   -0.006462
  87 H :   -0.043386
  88 H :    0.014509
  89 H :    0.032074
  90 H :    0.020185
  91 H :    0.026375
  92 H :    0.021175
  93 H :    0.009877
  94 H :   -0.044969
  95 H :   -0.006781
  96 H :    0.007755
  97 H :   -0.010201
  98 H :   -0.007650
  99 H :   -0.007450
 100 H :   -0.008129
 101 H :   -0.000472
 102 H :    0.006462
 103 H :    0.009590
 104 H :   -0.018517
 105 H :   -0.007830
 106 H :   -0.009161
Sum of atomic charges:    0.0000000

LOEWDIN ATOMIC CHARGES
----------------------
   0 C :    0.074714
   1 C :   -0.148514
   2 C :   -0.013169
   3 N :   -0.060716
   4 C :   -0.026493
   5 N :   -0.050948
   6 C :   -0.025501
   7 C :   -0.047349
   8 C :    0.022015
   9 C :   -0.031210
  10 C :   -0.143220
  11 C :   -0.009099
  12 S :    0.440898
  13 C :   -0.278639
  14 C :   -0.060903
  15 Br:    0.134365
  16 C :    0.068735
  17 O :   -0.137327
  18 C :   -0.111599
  19 C :    0.049646
  20 C :   -0.175107
  21 S :    0.456283
  22 C :   -0.156662
  23 C :   -0.053536
  24 C :   -0.042871
  25 C :   -0.008281
  26 C :    0.004059
  27 C :   -0.011829
  28 C :   -0.014487
  29 C :   -0.039058
  30 C :   -0.147466
  31 S :    0.462106
  32 C :   -0.174402
  33 C :   -0.031302
  34 C :   -0.043178
  35 C :   -0.020285
  36 C :   -0.018564
  37 C :   -0.042225
  38 C :   -0.012854
  39 C :   -0.043457
  40 C :   -0.030609
  41 C :   -0.016258
  42 C :   -0.056722
  43 C :   -0.019612
  44 C :   -0.167109
  45 C :   -0.016450
  46 C :   -0.046224
  47 C :   -0.147707
  48 S :    0.400121
  49 C :   -0.198894
  50 C :   -0.010741
  51 C :   -0.043318
  52 C :   -0.102561
  53 S :    0.405771
  54 C :   -0.071596
  55 C :    0.045919
  56 C :   -0.115825
  57 C :    0.067305
  58 C :   -0.161463
  59 C :   -0.020129
  60 N :   -0.073052
  61 C :   -0.023920
  62 N :   -0.069222
  63 C :   -0.013962
  64 C :   -0.050135
  65 C :    0.076197
  66 O :   -0.165606
  67 C :    0.015078
  68 C :   -0.038992
  69 C :   -0.145964
  70 C :   -0.018345
  71 S :    0.424337
  72 C :   -0.277454
  73 C :   -0.071273
  74 Br:    0.125386
  75 H :    0.037917
  76 H :    0.037385
  77 H :    0.038458
  78 H :    0.045209
  79 H :    0.028443
  80 H :    0.035246
  81 H :    0.037743
  82 H :    0.040130
  83 H :    0.029041
  84 H :    0.031603
  85 H :    0.027742
  86 H :    0.031070
  87 H :    0.023865
  88 H :    0.031099
  89 H :    0.036026
  90 H :    0.035673
  91 H :    0.037740
  92 H :    0.033431
  93 H :    0.030017
  94 H :    0.022126
  95 H :    0.031863
  96 H :    0.016469
  97 H :    0.036376
  98 H :    0.035955
  99 H :    0.033922
 100 H :    0.034312
 101 H :    0.038960
 102 H :    0.037314
 103 H :    0.031936
 104 H :    0.037586
 105 H :    0.039421
 106 H :    0.036380

  Mayer bond orders larger than 0.100000
B(  0-C ,  1-C ) :   1.6156 B(  0-C ,  6-C ) :   0.9909 B(  0-C , 18-C ) :   1.0915
B(  1-C ,  2-C ) :   1.1568 B(  1-C ,  4-C ) :   1.1422 B(  2-C ,  3-N ) :   2.9371
B(  4-C ,  5-N ) :   2.9904 B(  6-C ,  7-C ) :   1.2835 B(  6-C , 11-C ) :   1.4081
B(  7-C ,  8-C ) :   1.4189 B(  7-C , 16-C ) :   0.9242 B(  8-C ,  9-C ) :   1.2376
B(  8-C , 75-H ) :   1.0213 B(  9-C , 10-C ) :   1.3174 B(  9-C , 14-C ) :   1.1663
B( 10-C , 11-C ) :   1.3137 B( 10-C , 12-S ) :   1.0877 B( 11-C , 76-H ) :   0.9814
B( 12-S , 13-C ) :   1.0887 B( 13-C , 14-C ) :   1.6110 B( 13-C , 15-Br) :   1.0127
B( 14-C , 77-H ) :   0.9956 B( 16-C , 17-O ) :   2.2019 B( 16-C , 18-C ) :   0.9786
B( 18-C , 19-C ) :   1.5060 B( 19-C , 20-C ) :   1.2627 B( 19-C , 78-H ) :   0.9309
B( 20-C , 21-S ) :   1.1086 B( 20-C , 25-C ) :   1.3347 B( 21-S , 22-C ) :   1.1694
B( 22-C , 23-C ) :   1.5568 B( 22-C , 79-H ) :   0.9653 B( 23-C , 24-C ) :   1.0978
B( 23-C , 25-C ) :   1.2561 B( 24-C , 80-H ) :   0.9461 B( 24-C , 81-H ) :   0.9418
B( 24-C , 82-H ) :   0.9423 B( 25-C , 26-C ) :   1.1782 B( 26-C , 27-C ) :   1.6276
B( 26-C , 83-H ) :   0.9226 B( 27-C , 28-C ) :   1.1885 B( 27-C , 84-H ) :   0.9770
B( 28-C , 29-C ) :   1.5691 B( 28-C , 85-H ) :   0.9769 B( 29-C , 30-C ) :   1.2726
B( 29-C , 86-H ) :   0.9480 B( 30-C , 31-S ) :   1.1263 B( 30-C , 34-C ) :   1.2396
B( 31-S , 32-C ) :   1.0910 B( 32-C , 33-C ) :   1.2186 B( 32-C , 41-C ) :   1.2924
B( 33-C , 34-C ) :   1.2484 B( 33-C , 40-C ) :   1.2229 B( 34-C , 35-C ) :   1.2158
B( 35-C , 36-C ) :   1.5053 B( 35-C , 87-H ) :   0.9901 B( 36-C , 37-C ) :   1.0925
B( 36-C , 38-C ) :   1.2549 B( 37-C , 88-H ) :   0.9497 B( 37-C , 89-H ) :   0.9360
B( 37-C , 90-H ) :   0.9363 B( 38-C , 39-C ) :   1.0962 B( 38-C , 40-C ) :   1.4943
B( 39-C , 91-H ) :   0.9384 B( 39-C , 92-H ) :   0.9370 B( 39-C , 93-H ) :   0.9511
B( 40-C , 94-H ) :   0.9966 B( 41-C , 42-C ) :   1.4581 B( 41-C , 95-H ) :   0.9761
B( 42-C , 43-C ) :   1.2687 B( 42-C , 96-H ) :   0.9728 B( 43-C , 44-C ) :   1.4423
B( 43-C , 97-H ) :   0.9868 B( 44-C , 45-C ) :   1.2092 B( 44-C , 48-S ) :   1.0395
B( 45-C , 46-C ) :   1.5122 B( 45-C , 98-H ) :   1.0004 B( 46-C , 47-C ) :   1.2484
B( 46-C , 99-H ) :   0.9959 B( 47-C , 48-S ) :   1.0920 B( 47-C , 49-C ) :   1.3982
B( 49-C , 50-C ) :   1.2606 B( 49-C , 53-S ) :   1.0521 B( 50-C , 51-C ) :   1.4998
B( 50-C ,100-H ) :   0.9948 B( 51-C , 52-C ) :   1.2195 B( 51-C ,101-H ) :   1.0002
B( 52-C , 53-S ) :   1.0917 B( 52-C , 54-C ) :   1.4475 B( 54-C , 55-C ) :   1.2680
B( 54-C ,102-H ) :   0.9629 B( 55-C , 56-C ) :   1.4781 B( 55-C ,103-H ) :   0.9389
B( 56-C , 57-C ) :   1.1137 B( 56-C , 65-C ) :   0.9769 B( 57-C , 58-C ) :   1.5751
B( 57-C , 63-C ) :   0.9989 B( 58-C , 59-C ) :   1.1381 B( 58-C , 61-C ) :   1.1729
B( 59-C , 60-N ) :   2.9708 B( 61-C , 62-N ) :   3.0106 B( 63-C , 64-C ) :   1.2795
B( 63-C , 70-C ) :   1.4247 B( 64-C , 65-C ) :   0.9169 B( 64-C , 67-C ) :   1.4367
B( 65-C , 66-O ) :   2.2371 B( 67-C , 68-C ) :   1.2381 B( 67-C ,104-H ) :   1.0162
B( 68-C , 69-C ) :   1.3232 B( 68-C , 73-C ) :   1.1600 B( 69-C , 70-C ) :   1.3147
B( 69-C , 71-S ) :   1.0811 B( 70-C ,105-H ) :   0.9811 B( 71-S , 72-C ) :   1.0849
B( 72-C , 73-C ) :   1.6217 B( 72-C , 74-Br) :   1.0102 B( 73-C ,106-H ) :   1.0001

-----------------------------------------------------------------------------
         ABSORPTION SPECTRUM VIA TRANSITION ELECTRIC DIPOLE MOMENTS
-----------------------------------------------------------------------------
State   Energy  Wavelength   fosc         T2         TX        TY        TZ
        (cm-1)    (nm)                  (au**2)     (au)      (au)      (au)
-----------------------------------------------------------------------------
   0    6260.7   1597.3   0.773838556  40.69139  -3.16636   4.60410   3.07697
   1   11187.4    893.9   0.248663837   7.31743  -0.92754   2.51853  -0.33783
   2   13860.4    721.5   0.065740607   1.56147  -0.22700  -0.84978   0.88759
   3   16403.2    609.6   0.568422230  11.40823   0.99442   2.68772  -1.78760
   4   18386.9    543.9   0.044492979   0.79663   0.62622   0.63151   0.07537
   5   19648.1    509.0   0.445969646   7.47242  -1.46496  -2.22895   0.59840
   6   20672.2    483.7   0.043440124   0.69180   0.60652  -0.03188  -0.56826
   7   21145.7    472.9   0.099639937   1.55127  -0.48886  -0.79814   0.82174
   8   22754.0    439.5   0.040175056   0.58127  -0.44601   0.47746  -0.39290
   9   23070.8    433.4   0.252824521   3.60772  -0.46927  -1.49907   1.06785
  10   23502.4    425.5   0.242429656   3.39586  -0.67945  -1.20843   1.21404
  11   24075.6    415.4   0.031152267   0.42598  -0.56919  -0.03914   0.31697
  12   24849.1    402.4   0.174663248   2.31402  -1.17768   0.96246   0.02767
  13   25550.3    391.4   0.057294190   0.73823   0.83390  -0.08826   0.18720
  14   25873.6    386.5   0.017244351   0.21941   0.39001  -0.23216  -0.11581
  15   26504.2    377.3   0.011756760   0.14603   0.24367  -0.28076  -0.08850
  16   26572.9    376.3   0.011395428   0.14118   0.29778   0.22815   0.02130
  17   27293.0    366.4   0.063276785   0.76325  -0.50166  -0.68515   0.20534
  18   27413.2    364.8   0.036777426   0.44167   0.29590  -0.56910  -0.17388
  19   27492.3    363.7   0.017712184   0.21210   0.15144  -0.41042   0.14394
  20   27827.8    359.4   0.105248895   1.24513   0.72528   0.03379  -0.84732
  21   28070.7    356.2   0.202834340   2.37884   0.22606   1.37185  -0.66765
  22   28713.5    348.3   0.016170534   0.18540   0.38831  -0.13343  -0.12967
  23   28769.2    347.6   0.080008132   0.91555   0.38324  -0.86387  -0.14970
  24   29322.0    341.0   0.025718125   0.28875   0.46975   0.19976  -0.16786
  25   29834.6    335.2   0.038655466   0.42655  -0.33539   0.43895  -0.34839
  26   30086.4    332.4   0.635489600   6.95367  -1.06465  -1.47882   1.90612
  27   30432.5    328.6   0.065085569   0.70408  -0.66046  -0.11932   0.50362
  28   30720.2    325.5   0.011869720   0.12720  -0.08593   0.18723  -0.29114
  29   31362.5    318.9   0.004232739   0.04443  -0.10742   0.17215   0.05706
  30   31560.1    316.9   0.118966616   1.24097   0.71672   0.06289  -0.85049
  31   31830.2    314.2   0.099466583   1.02876   0.72461   0.39388  -0.59038
  32   31986.6    312.6   0.296720906   3.05391   0.83352   0.91187  -1.23598
  33   32237.7    310.2   0.026954391   0.27526   0.22066  -0.45287   0.14656
  34   32508.3    307.6   0.005112858   0.05178   0.11598   0.04442  -0.19066
  35   32782.0    305.0   0.085694952   0.86059   0.02351  -0.89581   0.23991
  36   32958.3    303.4   0.198979679   1.98756   0.24275   0.95242  -1.01071
  37   33219.6    301.0   0.021162406   0.20972   0.42000  -0.11778  -0.13945
  38   33402.9    299.4   0.008680988   0.08556   0.02991  -0.27152   0.10460
  39   33531.2    298.2   0.026132512   0.25657  -0.39006  -0.15669   0.28261
  40   33806.8    295.8   0.024998164   0.24343   0.16250  -0.23222   0.40386
  41   34107.5    293.2   0.070229417   0.67787  -0.24916  -0.30769   0.72188
  42   34356.9    291.1   0.087897390   0.84224  -0.53737  -0.08298   0.73931
  43   34562.2    289.3   0.148418359   1.41372  -0.67934  -0.14668   0.96473
  44   34755.5    287.7   0.237475759   2.24943   0.56929  -1.35416   0.30265
  45   35024.0    285.5   0.042097020   0.39570   0.08231  -0.58374   0.21948
  46   35149.9    284.5   0.134848983   1.26299   0.48223   0.59052  -0.82567
  47   35475.6    281.9   0.043099313   0.39996  -0.26626   0.51754   0.24743
  48   35608.6    280.8   0.027885970   0.25781   0.46366   0.11187  -0.17411
  49   35824.0    279.1   0.023467214   0.21566   0.23574   0.18499  -0.35477
  50   35968.1    278.0   0.105788642   0.96827   0.45010   0.44108  -0.75573
  51   36289.6    275.6   0.030921692   0.28052   0.14350  -0.48296   0.16331
  52   36456.4    274.3   0.016163710   0.14596  -0.09922  -0.17214   0.32632
  53   36685.4    272.6   0.038020408   0.34119  -0.43229   0.25639   0.29763
  54   37108.1    269.5   0.049832663   0.44210   0.47002  -0.16973  -0.43860
  55   37399.9    267.4   0.029080124   0.25598   0.11651  -0.26143  -0.41720
  56   37624.8    265.8   0.142962569   1.25090  -0.49636   0.32024   0.94973
  57   37928.3    263.7   0.006439632   0.05590   0.06695   0.02577  -0.22527
  58   38170.3    262.0   0.027646256   0.23844  -0.31569  -0.19846   0.31527
  59   38345.1    260.8   0.036604324   0.31427  -0.23881  -0.26961   0.42959
  60   38442.0    260.1   0.029585826   0.25337   0.01581   0.34650  -0.36477
  61   38833.8    257.5   0.006123513   0.05191   0.06821  -0.20269   0.07858
  62   39132.1    255.5   0.033937167   0.28551   0.02132  -0.35087   0.40242
  63   39252.7    254.8   0.014839286   0.12446   0.01283   0.23414  -0.26357
  64   39406.0    253.8   0.047545836   0.39722   0.47175  -0.41391   0.05779
  65   39585.1    252.6   0.003561531   0.02962   0.16975   0.00464  -0.02801
  66   39925.3    250.5   0.045230006   0.37295  -0.40566   0.15425   0.42965
  67   39984.0    250.1   0.029704147   0.24457   0.23311  -0.40143  -0.17055
  68   40090.3    249.4   0.001020971   0.00838  -0.06720   0.05912   0.01932
  69   40282.9    248.2   0.069369985   0.56693   0.40306  -0.10056  -0.62798

FINAL SINGLE POINT ENERGY    -10245.934420755892

DIPOLE MOMENT
-------------
                                X             Y             Z
Electronic contribution:    -62.21598     116.48513       6.58532
Nuclear contribution   :     62.45219    -120.51190      -8.18118
                        -----------------------------------------
Total Dipole Moment    :      0.23621      -4.02677      -1.59586
                        -----------------------------------------
Magnitude (a.u.)       :      4.33791
Magnitude (Debye)      :     11.02609

Rotational constants in cm-1:     0.000821     0.000237     0.000190
Rotational constants in MHz :    24.614419     7.107158     5.688042

                             ****ORCA TERMINATED NORMALLY****
TOTAL RUN TIME: 0 days 0 hours 15 minutes 10 seconds 284 msec
