                         Program Version 4.2.0 -  RELEASE  -
|  1> # ORCA input file
|  2> # SCF done       -185.817780187967          0.000640643637
|  3> ! CAM-B3LYP def2-SVP def2/J RIJCOSX Grid4 TightSCF
|  4> %maxcore 5000
|  5> %tddft
|  6>     Mode sTDDFT
|  7>     Ethresh 5.0
|  8>     maxcore 5000
|  9> end
| 10>
| 11> %pal
| 12>   nprocs 6
| 13>   end
| 14> * xyz 0 1
| 15>    C       -0.87789         4.05766         1.55511
| 16>    C       -0.36463         5.32385         1.11023
| 17>    C        0.98012         5.51748         0.72023
| 18>    N        2.05991         5.73370         0.39701
| 19>    C       -1.03440         6.47841         1.05861
| 20>    N       -1.54750         7.52550         0.79668
| 21>    C       -0.06208         2.88121         1.81429
| 22>    C       -0.91510         1.85506         2.29715
| 23>    C       -0.46082         0.61005         2.63530
| 24>    C        0.91195         0.35224         2.48939
| 25>    C        1.75351         1.37871         2.01174
| 26>    C        1.29094         2.64779         1.67169
| 27>    S        3.40632         0.85100         1.90658
| 28>    C        2.94601        -0.72359         2.49828
| 29>    C        1.62368        -0.84725         2.76180
| 30>   Br        4.25382        -2.05374         2.71163
| 31>    C       -2.30168         2.38003         2.34817
| 32>    O       -3.28427         1.77593         2.71643
| 33>    C       -2.20997         3.77565         1.84613
| 34>    C       -3.31492         4.62518         1.64451
| 35>    C       -4.60522         4.36905         2.02478
| 36>    C       -5.64811         5.24983         1.71311
| 37>    C       -6.96391         5.06791         2.06197
| 38>    O       -7.90663         5.97136         1.65583
| 39>    C       -9.12899         5.56579         2.10558
| 40>    C       -8.95538         4.36250         2.84348
| 41>    C       -7.61407         4.04695         2.81686
| 42>    O       -6.99872         2.99483         3.38602
| 43>    O       -9.91288         3.62286         3.47063
| 44>    C      -10.27975         6.26500         1.81661
| 45>    C      -10.29946         7.42507         1.03273
| 46>    C      -11.43349         8.11010         0.68960
| 47>    C      -11.41787         9.24686        -0.13780
| 48>    C      -12.52958         9.92218        -0.54485
| 49>    C      -12.51168        11.03769        -1.40982
| 50>    C      -13.59885        11.73697        -1.91013
| 51>    C      -13.25495        12.77222        -2.77093
| 52>    C      -11.88949        12.90505        -2.95329
| 53>    S      -11.02551        11.71027        -2.02841
| 54>    C      -11.19832        13.83374        -3.76949
| 55>    C      -11.72113        14.76592        -4.64777
| 56>    C      -10.74683        15.49496        -5.31802
| 57>    C       -9.44441        15.15592        -4.98102
| 58>    S       -9.46024        13.89124        -3.78136
| 59>    C       -8.29804        15.76204        -5.54974
| 60>    C       -6.97264        15.55917        -5.30282
| 61>    C       -6.43139        14.59678        -4.40910
| 62>    C       -5.12059        14.54309        -4.05892
| 63>    C       -4.16435        15.51141        -4.46176
| 64>    C       -4.69197        16.68899        -5.25582
| 65>    C       -5.94502        16.36235        -6.08824
| 66>    N       -6.54600        17.56154        -6.63047
| 67>    C       -6.48970        18.60365        -5.92818
| 68>    C       -5.76018        18.65369        -4.64480
| 69>    N       -4.92266        17.77506        -4.32057
| 70>    F       -6.00779        19.66813        -3.82193
| 71>    F       -7.05532        19.72278        -6.37087
| 72>    C       -2.84311        15.52479        -4.13088
| 73>    C       -2.07791        14.63591        -3.33246
| 74>    C       -0.71743        14.76964        -3.10862
| 75>    C       -0.17704        13.80382        -2.26376
| 76>    C       -1.11145        12.89757        -1.80848
| 77>    S       -2.68201        13.25592        -2.46001
| 78>    C       -0.92329        11.80568        -0.91332
| 79>    C        0.24682        11.35142        -0.35056
| 80>    C        0.05912        10.26387         0.51547
| 81>    C       -1.24844         9.88644         0.62706
| 82>    S       -2.27666        10.86226        -0.36483
| 83>    C       -1.81201         8.77239         1.44490
| 84>    H       -1.13392        -0.14980         3.00066
| 85>    H        1.97852         3.39377         1.31071
| 86>    H        1.16769        -1.74740         3.13200
| 87>    H       -3.11931         5.55014         1.11443
| 88>    H       -4.83498         3.46708         2.56971
| 89>    H       -5.42711         6.13878         1.13627
| 90>    H       -7.66275         2.44470         3.82212
| 91>    H      -10.77301         4.03643         3.34324
| 92>    H      -11.21548         5.88251         2.20254
| 93>    H       -9.34513         7.77862         0.66753
| 94>    H      -12.39267         7.75908         1.04930
| 95>    H      -10.45219         9.59280        -0.48628
| 96>    H      -13.50685         9.59345        -0.21471
| 97>    H      -14.61257        11.48554        -1.65242
| 98>    H      -13.97166        13.41422        -3.25038
| 99>    H      -12.77688        14.90085        -4.79715
|100>    H      -10.96928        16.25902        -6.04203
|101>    H       -8.54156        16.51283        -6.29252
|102>    H       -7.10107        13.85768        -3.99992
|103>    H       -4.79621        13.74051        -3.41733
|104>    H       -3.90226        17.04306        -5.93570
|105>    H       -5.64592        15.75534        -6.95349
|106>    H       -2.25438        16.34955        -4.51545
|107>    H       -0.13792        15.56012        -3.55175
|108>    H        0.85984        13.76856        -1.98353
|109>    H        1.20674        11.78726        -0.55632
|110>    H        0.86093         9.77591         1.04118
|111>    H       -1.38646         8.78931         2.45671
|112>    H       -2.89970         8.87350         1.50641
|113> *
|114>
|115>                          ****END OF INPUT****

CARTESIAN COORDINATES (ANGSTROEM)
---------------------------------
  C     -0.877890    4.057660    1.555110
  C     -0.364630    5.323850    1.110230
  C      0.980120    5.517480    0.720230
  N      2.059910    5.733700    0.397010
  C     -1.034400    6.478410    1.058610
  N     -1.547500    7.525500    0.796680
  C     -0.062080    2.881210    1.814290
  C     -0.915100    1.855060    2.297150
  C     -0.460820    0.610050    2.635300
  C      0.911950    0.352240    2.489390
  C      1.753510    1.378710    2.011740
  C      1.290940    2.647790    1.671690
  S      3.406320    0.851000    1.906580
  C      2.946010   -0.723590    2.498280
  C      1.623680   -0.847250    2.761800
  Br     4.253820   -2.053740    2.711630
  C     -2.301680    2.380030    2.348170
  O     -3.284270    1.775930    2.716430
  C     -2.209970    3.775650    1.846130
  C     -3.314920    4.625180    1.644510
  C     -4.605220    4.369050    2.024780
  C     -5.648110    5.249830    1.713110
  C     -6.963910    5.067910    2.061970
  O     -7.906630    5.971360    1.655830
  C     -9.128990    5.565790    2.105580
  C     -8.955380    4.362500    2.843480
  C     -7.614070    4.046950    2.816860
  O     -6.998720    2.994830    3.386020
  O     -9.912880    3.622860    3.470630
  C    -10.279750    6.265000    1.816610
  C    -10.299460    7.425070    1.032730
  C    -11.433490    8.110100    0.689600
  C    -11.417870    9.246860   -0.137800
  C    -12.529580    9.922180   -0.544850
  C    -12.511680   11.037690   -1.409820
  C    -13.598850   11.736970   -1.910130
  C    -13.254950   12.772220   -2.770930
  C    -11.889490   12.905050   -2.953290
  S    -11.025510   11.710270   -2.028410
  C    -11.198320   13.833740   -3.769490
  C    -11.721130   14.765920   -4.647770
  C    -10.746830   15.494960   -5.318020
  C     -9.444410   15.155920   -4.981020
  S     -9.460240   13.891240   -3.781360
  C     -8.298040   15.762040   -5.549740
  C     -6.972640   15.559170   -5.302820
  C     -6.431390   14.596780   -4.409100
  C     -5.120590   14.543090   -4.058920
  C     -4.164350   15.511410   -4.461760
  C     -4.691970   16.688990   -5.255820
  C     -5.945020   16.362350   -6.088240
  N     -6.546000   17.561540   -6.630470
  C     -6.489700   18.603650   -5.928180
  C     -5.760180   18.653690   -4.644800
  N     -4.922660   17.775060   -4.320570
  F     -6.007790   19.668130   -3.821930
  F     -7.055320   19.722780   -6.370870
  C     -2.843110   15.524790   -4.130880
  C     -2.077910   14.635910   -3.332460
  C     -0.717430   14.769640   -3.108620
  C     -0.177040   13.803820   -2.263760
  C     -1.111450   12.897570   -1.808480
  S     -2.682010   13.255920   -2.460010
  C     -0.923290   11.805680   -0.913320
  C      0.246820   11.351420   -0.350560
  C      0.059120   10.263870    0.515470
  C     -1.248440    9.886440    0.627060
  S     -2.276660   10.862260   -0.364830
  C     -1.812010    8.772390    1.444900
  H     -1.133920   -0.149800    3.000660
  H      1.978520    3.393770    1.310710
  H      1.167690   -1.747400    3.132000
  H     -3.119310    5.550140    1.114430
  H     -4.834980    3.467080    2.569710
  H     -5.427110    6.138780    1.136270
  H     -7.662750    2.444700    3.822120
  H    -10.773010    4.036430    3.343240
  H    -11.215480    5.882510    2.202540
  H     -9.345130    7.778620    0.667530
  H    -12.392670    7.759080    1.049300
  H    -10.452190    9.592800   -0.486280
  H    -13.506850    9.593450   -0.214710
  H    -14.612570   11.485540   -1.652420
  H    -13.971660   13.414220   -3.250380
  H    -12.776880   14.900850   -4.797150
  H    -10.969280   16.259020   -6.042030
  H     -8.541560   16.512830   -6.292520
  H     -7.101070   13.857680   -3.999920
  H     -4.796210   13.740510   -3.417330
  H     -3.902260   17.043060   -5.935700
  H     -5.645920   15.755340   -6.953490
  H     -2.254380   16.349550   -4.515450
  H     -0.137920   15.560120   -3.551750
  H      0.859840   13.768560   -1.983530
  H      1.206740   11.787260   -0.556320
  H      0.860930    9.775910    1.041180
  H     -1.386460    8.789310    2.456710
  H     -2.899700    8.873500    1.506410

 Total Charge           Charge          ....    0
 Multiplicity           Mult            ....    1
 Number of Electrons    NEL             ....  540
 Basis Dimension        Dim             .... 1149

ORBITAL ENERGIES
----------------

  NO   OCC          E(Eh)            E(eV)
   0   2.0000    -482.870188    -13139.5658
   1   2.0000     -88.965135     -2420.8644
   2   2.0000     -88.959968     -2420.7238
   3   2.0000     -88.957415     -2420.6543
   4   2.0000     -88.954710     -2420.5807
   5   2.0000     -88.950053     -2420.4540
   6   2.0000     -62.547863     -1702.0139
   7   2.0000     -56.381788     -1534.2265
   8   2.0000     -56.379129     -1534.1541
   9   2.0000     -56.379073     -1534.1526
  10   2.0000     -24.800851      -674.8655
  11   2.0000     -24.797589      -674.7767
  12   2.0000     -19.277839      -524.5767
  13   2.0000     -19.270470      -524.3761
  14   2.0000     -19.263004      -524.1730
  15   2.0000     -19.203582      -522.5560
  16   2.0000     -14.475432      -393.8965
  17   2.0000     -14.425217      -392.5301
  18   2.0000     -14.423288      -392.4776
  19   2.0000     -14.402193      -391.9036
  20   2.0000     -10.413030      -283.3530
  21   2.0000     -10.409456      -283.2557
  22   2.0000     -10.383000      -282.5358
  23   2.0000     -10.353425      -281.7310
  24   2.0000     -10.348713      -281.6028
  25   2.0000     -10.345766      -281.5226
  26   2.0000     -10.344443      -281.4866
  27   2.0000     -10.341950      -281.4188
  28   2.0000     -10.341664      -281.4110
  29   2.0000     -10.338466      -281.3240
  30   2.0000     -10.324377      -280.9406
  31   2.0000     -10.319465      -280.8069
  32   2.0000     -10.319292      -280.8022
  33   2.0000     -10.313915      -280.6559
  34   2.0000     -10.310403      -280.5603
  35   2.0000     -10.309951      -280.5480
  36   2.0000     -10.309869      -280.5458
  37   2.0000     -10.305581      -280.4291
  38   2.0000     -10.305520      -280.4274
  39   2.0000     -10.304271      -280.3935
  40   2.0000     -10.303744      -280.3791
  41   2.0000     -10.302537      -280.3463
  42   2.0000     -10.298398      -280.2337
  43   2.0000     -10.296775      -280.1895
  44   2.0000     -10.285282      -279.8767
  45   2.0000     -10.283472      -279.8275
  46   2.0000     -10.283058      -279.8162
  47   2.0000     -10.282923      -279.8126
  48   2.0000     -10.282508      -279.8013
  49   2.0000     -10.282343      -279.7968
  50   2.0000     -10.281312      -279.7687
  51   2.0000     -10.280518      -279.7471
  52   2.0000     -10.279855      -279.7291
  53   2.0000     -10.279822      -279.7282
  54   2.0000     -10.279232      -279.7121
  55   2.0000     -10.277991      -279.6784
  56   2.0000     -10.277572      -279.6670
  57   2.0000     -10.276850      -279.6473
  58   2.0000     -10.276631      -279.6413
  59   2.0000     -10.275718      -279.6165
  60   2.0000     -10.274459      -279.5822
  61   2.0000     -10.273273      -279.5500
  62   2.0000     -10.272869      -279.5390
  63   2.0000     -10.272040      -279.5164
  64   2.0000     -10.272022      -279.5159
  65   2.0000     -10.271422      -279.4996
  66   2.0000     -10.271393      -279.4988
  67   2.0000     -10.270770      -279.4819
  68   2.0000     -10.269848      -279.4568
  69   2.0000     -10.268191      -279.4117
  70   2.0000     -10.267154      -279.3835
  71   2.0000     -10.266700      -279.3711
  72   2.0000     -10.265277      -279.3324
  73   2.0000      -8.777257      -238.8413
  74   2.0000      -8.061092      -219.3535
  75   2.0000      -8.055215      -219.1935
  76   2.0000      -8.053329      -219.1422
  77   2.0000      -8.049832      -219.0471
  78   2.0000      -8.045780      -218.9368
  79   2.0000      -6.613424      -179.9604
  80   2.0000      -6.599001      -179.5680
  81   2.0000      -6.598935      -179.5661
  82   2.0000      -6.030272      -164.0921
  83   2.0000      -6.026201      -163.9813
  84   2.0000      -6.024521      -163.9355
  85   2.0000      -6.023323      -163.9029
  86   2.0000      -6.022974      -163.8934
  87   2.0000      -6.020434      -163.8243
  88   2.0000      -6.019134      -163.7890
  89   2.0000      -6.018758      -163.7787
  90   2.0000      -6.017307      -163.7392
  91   2.0000      -6.015064      -163.6782
  92   2.0000      -6.015004      -163.6766
  93   2.0000      -6.014649      -163.6669
  94   2.0000      -6.011963      -163.5938
  95   2.0000      -6.011077      -163.5697
  96   2.0000      -6.007818      -163.4810
  97   2.0000      -2.729368       -74.2699
  98   2.0000      -2.725219       -74.1570
  99   2.0000      -2.725174       -74.1558
 100   2.0000      -2.713718       -73.8440
 101   2.0000      -2.713713       -73.8439
 102   2.0000      -1.328469       -36.1495
 103   2.0000      -1.313943       -35.7542
 104   2.0000      -1.204052       -32.7639
 105   2.0000      -1.164177       -31.6789
 106   2.0000      -1.148652       -31.2564
 107   2.0000      -1.115932       -30.3661
 108   2.0000      -1.079408       -29.3722
 109   2.0000      -1.077924       -29.3318
 110   2.0000      -1.008381       -27.4394
 111   2.0000      -1.002079       -27.2680
 112   2.0000      -0.999874       -27.2080
 113   2.0000      -0.993784       -27.0422
 114   2.0000      -0.991282       -26.9742
 115   2.0000      -0.978762       -26.6335
 116   2.0000      -0.970215       -26.4009
 117   2.0000      -0.969655       -26.3856
 118   2.0000      -0.945232       -25.7211
 119   2.0000      -0.929590       -25.2954
 120   2.0000      -0.920514       -25.0485
 121   2.0000      -0.909499       -24.7487
 122   2.0000      -0.905233       -24.6327
 123   2.0000      -0.899259       -24.4701
 124   2.0000      -0.894345       -24.3364
 125   2.0000      -0.886024       -24.1099
 126   2.0000      -0.884690       -24.0736
 127   2.0000      -0.869186       -23.6517
 128   2.0000      -0.867693       -23.6111
 129   2.0000      -0.862427       -23.4678
 130   2.0000      -0.853488       -23.2246
 131   2.0000      -0.850185       -23.1347
 132   2.0000      -0.843853       -22.9624
 133   2.0000      -0.839167       -22.8349
 134   2.0000      -0.831652       -22.6304
 135   2.0000      -0.825593       -22.4655
 136   2.0000      -0.821293       -22.3485
 137   2.0000      -0.816565       -22.2199
 138   2.0000      -0.810827       -22.0637
 139   2.0000      -0.804982       -21.9047
 140   2.0000      -0.790267       -21.5043
 141   2.0000      -0.776030       -21.1169
 142   2.0000      -0.769450       -20.9378
 143   2.0000      -0.760684       -20.6993
 144   2.0000      -0.750427       -20.4202
 145   2.0000      -0.743081       -20.2203
 146   2.0000      -0.736908       -20.0523
 147   2.0000      -0.727503       -19.7964
 148   2.0000      -0.719121       -19.5683
 149   2.0000      -0.711182       -19.3522
 150   2.0000      -0.696033       -18.9400
 151   2.0000      -0.689842       -18.7716
 152   2.0000      -0.681792       -18.5525
 153   2.0000      -0.680358       -18.5135
 154   2.0000      -0.675285       -18.3755
 155   2.0000      -0.670103       -18.2344
 156   2.0000      -0.667449       -18.1622
 157   2.0000      -0.661630       -18.0039
 158   2.0000      -0.655440       -17.8354
 159   2.0000      -0.653354       -17.7787
 160   2.0000      -0.646108       -17.5815
 161   2.0000      -0.644752       -17.5446
 162   2.0000      -0.637901       -17.3582
 163   2.0000      -0.634095       -17.2546
 164   2.0000      -0.630829       -17.1657
 165   2.0000      -0.626843       -17.0573
 166   2.0000      -0.625640       -17.0245
 167   2.0000      -0.617755       -16.8100
 168   2.0000      -0.616548       -16.7771
 169   2.0000      -0.613311       -16.6891
 170   2.0000      -0.612086       -16.6557
 171   2.0000      -0.609884       -16.5958
 172   2.0000      -0.604201       -16.4412
 173   2.0000      -0.600720       -16.3464
 174   2.0000      -0.598101       -16.2752
 175   2.0000      -0.593937       -16.1618
 176   2.0000      -0.583022       -15.8648
 177   2.0000      -0.580096       -15.7852
 178   2.0000      -0.576817       -15.6960
 179   2.0000      -0.571535       -15.5523
 180   2.0000      -0.570171       -15.5151
 181   2.0000      -0.567092       -15.4313
 182   2.0000      -0.566147       -15.4056
 183   2.0000      -0.558975       -15.2105
 184   2.0000      -0.553019       -15.0484
 185   2.0000      -0.550567       -14.9817
 186   2.0000      -0.548097       -14.9145
 187   2.0000      -0.538842       -14.6626
 188   2.0000      -0.537175       -14.6173
 189   2.0000      -0.533269       -14.5110
 190   2.0000      -0.532406       -14.4875
 191   2.0000      -0.527293       -14.3484
 192   2.0000      -0.520544       -14.1647
 193   2.0000      -0.517883       -14.0923
 194   2.0000      -0.516078       -14.0432
 195   2.0000      -0.513219       -13.9654
 196   2.0000      -0.510191       -13.8830
 197   2.0000      -0.509238       -13.8571
 198   2.0000      -0.506178       -13.7738
 199   2.0000      -0.500556       -13.6208
 200   2.0000      -0.499431       -13.5902
 201   2.0000      -0.497865       -13.5476
 202   2.0000      -0.495629       -13.4868
 203   2.0000      -0.494812       -13.4645
 204   2.0000      -0.492417       -13.3994
 205   2.0000      -0.492183       -13.3930
 206   2.0000      -0.491968       -13.3871
 207   2.0000      -0.490508       -13.3474
 208   2.0000      -0.488730       -13.2990
 209   2.0000      -0.487348       -13.2614
 210   2.0000      -0.484688       -13.1890
 211   2.0000      -0.483050       -13.1445
 212   2.0000      -0.479955       -13.0602
 213   2.0000      -0.476924       -12.9778
 214   2.0000      -0.473076       -12.8731
 215   2.0000      -0.471114       -12.8197
 216   2.0000      -0.469505       -12.7759
 217   2.0000      -0.464719       -12.6456
 218   2.0000      -0.462860       -12.5951
 219   2.0000      -0.462040       -12.5728
 220   2.0000      -0.459518       -12.5041
 221   2.0000      -0.456264       -12.4156
 222   2.0000      -0.454358       -12.3637
 223   2.0000      -0.451480       -12.2854
 224   2.0000      -0.449557       -12.2331
 225   2.0000      -0.445983       -12.1358
 226   2.0000      -0.440415       -11.9843
 227   2.0000      -0.437147       -11.8954
 228   2.0000      -0.436034       -11.8651
 229   2.0000      -0.435009       -11.8372
 230   2.0000      -0.434453       -11.8221
 231   2.0000      -0.431698       -11.7471
 232   2.0000      -0.427790       -11.6408
 233   2.0000      -0.426649       -11.6097
 234   2.0000      -0.425817       -11.5871
 235   2.0000      -0.425001       -11.5649
 236   2.0000      -0.421486       -11.4692
 237   2.0000      -0.419254       -11.4085
 238   2.0000      -0.417109       -11.3501
 239   2.0000      -0.415292       -11.3007
 240   2.0000      -0.411735       -11.2039
 241   2.0000      -0.410932       -11.1820
 242   2.0000      -0.403962       -10.9924
 243   2.0000      -0.402284       -10.9467
 244   2.0000      -0.397064       -10.8047
 245   2.0000      -0.394736       -10.7413
 246   2.0000      -0.388394       -10.5687
 247   2.0000      -0.387588       -10.5468
 248   2.0000      -0.376299       -10.2396
 249   2.0000      -0.368265       -10.0210
 250   2.0000      -0.360184        -9.8011
 251   2.0000      -0.359188        -9.7740
 252   2.0000      -0.353285        -9.6134
 253   2.0000      -0.348825        -9.4920
 254   2.0000      -0.340443        -9.2639
 255   2.0000      -0.335093        -9.1184
 256   2.0000      -0.330636        -8.9971
 257   2.0000      -0.327064        -8.8999
 258   2.0000      -0.324246        -8.8232
 259   2.0000      -0.320656        -8.7255
 260   2.0000      -0.317566        -8.6414
 261   2.0000      -0.316838        -8.6216
 262   2.0000      -0.311185        -8.4678
 263   2.0000      -0.301712        -8.2100
 264   2.0000      -0.291417        -7.9298
 265   2.0000      -0.285536        -7.7698
 266   2.0000      -0.267034        -7.2664
 267   2.0000      -0.248709        -6.7677
 268   2.0000      -0.228020        -6.2047
 269   2.0000      -0.200748        -5.4626
 270   0.0000      -0.081854        -2.2274
 271   0.0000      -0.065916        -1.7937
 272   0.0000      -0.046885        -1.2758
 273   0.0000      -0.030282        -0.8240
 274   0.0000      -0.028612        -0.7786

MULLIKEN ATOMIC CHARGES
-----------------------
   0 C :    0.262171
   1 C :   -0.338350
   2 C :   -0.205559
   3 N :    0.132388
   4 C :    0.039511
   5 N :    0.013578
   6 C :    0.034253
   7 C :   -0.014628
   8 C :   -0.076361
   9 C :    0.103915
  10 C :   -0.090935
  11 C :   -0.043762
  12 S :    0.169339
  13 C :   -0.128041
  14 C :    0.038414
  15 Br:    0.003066
  16 C :    0.136277
  17 O :   -0.139147
  18 C :   -0.064565
  19 C :   -0.099326
  20 C :    0.016053
  21 C :   -0.083147
  22 C :    0.197595
  23 O :   -0.242199
  24 C :    0.167803
  25 C :    0.092421
  26 C :    0.055259
  27 O :   -0.153313
  28 O :   -0.194979
  29 C :   -0.131395
  30 C :    0.030083
  31 C :    0.012402
  32 C :    0.011846
  33 C :    0.012589
  34 C :   -0.037212
  35 C :    0.015108
  36 C :    0.004049
  37 C :   -0.040619
  38 S :    0.102177
  39 C :   -0.022324
  40 C :    0.006484
  41 C :    0.016403
  42 C :   -0.044730
  43 S :    0.090131
  44 C :    0.018274
  45 C :   -0.049854
  46 C :    0.006649
  47 C :   -0.011370
  48 C :    0.048565
  49 C :    0.044164
  50 C :    0.096324
  51 N :   -0.100355
  52 C :    0.124471
  53 C :    0.121329
  54 N :   -0.070469
  55 F :   -0.146015
  56 F :   -0.146545
  57 C :    0.015515
  58 C :   -0.046078
  59 C :    0.014703
  60 C :    0.008420
  61 C :   -0.018216
  62 S :    0.089331
  63 C :   -0.045094
  64 C :   -0.011044
  65 C :    0.049570
  66 C :   -0.217913
  67 S :    0.137614
  68 C :    0.281557
  69 H :   -0.019901
  70 H :   -0.019216
  71 H :   -0.010707
  72 H :   -0.031048
  73 H :    0.031227
  74 H :   -0.021314
  75 H :    0.197341
  76 H :    0.194033
  77 H :   -0.037198
  78 H :   -0.002047
  79 H :   -0.023759
  80 H :   -0.006088
  81 H :   -0.019769
  82 H :   -0.022305
  83 H :   -0.020931
  84 H :   -0.019864
  85 H :   -0.014819
  86 H :    0.002756
  87 H :   -0.010680
  88 H :   -0.017740
  89 H :    0.023138
  90 H :    0.037174
  91 H :   -0.020066
  92 H :   -0.016215
  93 H :   -0.017567
  94 H :   -0.013296
  95 H :   -0.007622
  96 H :    0.045117
  97 H :    0.035109
Sum of atomic charges:   -0.0000000

LOEWDIN ATOMIC CHARGES
----------------------
   0 C :    0.018743
   1 C :   -0.178893
   2 C :   -0.021512
   3 N :   -0.077581
   4 C :    0.154834
   5 N :    0.007566
   6 C :   -0.011698
   7 C :   -0.058713
   8 C :    0.021036
   9 C :   -0.050336
  10 C :   -0.145815
  11 C :   -0.035352
  12 S :    0.422150
  13 C :   -0.283783
  14 C :   -0.069587
  15 Br:    0.120238
  16 C :    0.093410
  17 O :   -0.131996
  18 C :   -0.076471
  19 C :   -0.049589
  20 C :   -0.001053
  21 C :   -0.059647
  22 C :    0.045719
  23 O :   -0.030037
  24 C :    0.037862
  25 C :   -0.021157
  26 C :    0.003509
  27 O :   -0.025897
  28 O :   -0.058488
  29 C :   -0.094330
  30 C :   -0.016368
  31 C :   -0.035584
  32 C :   -0.028021
  33 C :   -0.049733
  34 C :   -0.161728
  35 C :   -0.057780
  36 C :   -0.052245
  37 C :   -0.186681
  38 S :    0.419436
  39 C :   -0.177443
  40 C :   -0.059644
  41 C :   -0.042992
  42 C :   -0.175038
  43 S :    0.435136
  44 C :   -0.033156
  45 C :   -0.055305
  46 C :   -0.023789
  47 C :   -0.028797
  48 C :   -0.037058
  49 C :    0.018862
  50 C :    0.019835
  51 N :   -0.071879
  52 C :    0.052610
  53 C :    0.043870
  54 N :   -0.066862
  55 F :   -0.034958
  56 F :   -0.034850
  57 C :   -0.028003
  58 C :   -0.167237
  59 C :   -0.047505
  60 C :   -0.052901
  61 C :   -0.185092
  62 S :    0.438745
  63 C :   -0.178691
  64 C :   -0.053977
  65 C :   -0.047483
  66 C :   -0.202477
  67 S :    0.434513
  68 C :    0.040757
  69 H :    0.036986
  70 H :    0.035698
  71 H :    0.035717
  72 H :    0.022016
  73 H :    0.033405
  74 H :    0.031947
  75 H :    0.108775
  76 H :    0.099442
  77 H :    0.022445
  78 H :    0.031329
  79 H :    0.023422
  80 H :    0.021504
  81 H :    0.031629
  82 H :    0.029040
  83 H :    0.028749
  84 H :    0.029252
  85 H :    0.031672
  86 H :    0.037641
  87 H :    0.014644
  88 H :    0.013166
  89 H :    0.035650
  90 H :    0.043576
  91 H :    0.036435
  92 H :    0.031073
  93 H :    0.030461
  94 H :    0.031284
  95 H :    0.034377
  96 H :    0.040222
  97 H :    0.044822

  Mayer bond orders larger than 0.100000
B(  0-C ,  1-C ) :   1.1371 B(  0-C ,  6-C ) :   0.9825 B(  0-C , 18-C ) :   1.4916
B(  1-C ,  2-C ) :   1.1112 B(  1-C ,  4-C ) :   1.5926 B(  2-C ,  3-N ) :   2.9863
B(  4-C ,  5-N ) :   2.1729 B(  5-N , 68-C ) :   0.9521 B(  6-C ,  7-C ) :   1.2702
B(  6-C , 11-C ) :   1.4472 B(  7-C ,  8-C ) :   1.4724 B(  7-C , 16-C ) :   0.9249
B(  8-C ,  9-C ) :   1.2074 B(  8-C , 69-H ) :   1.0138 B(  9-C , 10-C ) :   1.3492
B(  9-C , 14-C ) :   1.1653 B( 10-C , 11-C ) :   1.2857 B( 10-C , 12-S ) :   1.0868
B( 11-C , 70-H ) :   0.9795 B( 12-S , 13-C ) :   1.0851 B( 13-C , 14-C ) :   1.6189
B( 13-C , 15-Br) :   1.0064 B( 14-C , 71-H ) :   0.9991 B( 16-C , 17-O ) :   2.2241
B( 16-C , 18-C ) :   0.9372 B( 18-C , 19-C ) :   1.1368 B( 19-C , 20-C ) :   1.5756
B( 19-C , 72-H ) :   0.9654 B( 20-C , 21-C ) :   1.1430 B( 20-C , 73-H ) :   0.9718
B( 21-C , 22-C ) :   1.5121 B( 21-C , 74-H ) :   0.9698 B( 22-C , 23-O ) :   1.0677
B( 22-C , 26-C ) :   1.1203 B( 23-O , 24-C ) :   1.0916 B( 24-C , 25-C ) :   1.0373
B( 24-C , 29-C ) :   1.5186 B( 25-C , 26-C ) :   1.4855 B( 25-C , 28-O ) :   1.2349
B( 26-C , 27-O ) :   1.2666 B( 27-O , 75-H ) :   0.9465 B( 28-O , 76-H ) :   0.9567
B( 29-C , 30-C ) :   1.1737 B( 29-C , 77-H ) :   0.9649 B( 30-C , 31-C ) :   1.5621
B( 30-C , 78-H ) :   0.9929 B( 31-C , 32-C ) :   1.1793 B( 31-C , 79-H ) :   0.9892
B( 32-C , 33-C ) :   1.5909 B( 32-C , 80-H ) :   0.9760 B( 33-C , 34-C ) :   1.1657
B( 33-C , 81-H ) :   0.9828 B( 34-C , 35-C ) :   1.4500 B( 34-C , 38-S ) :   1.1053
B( 35-C , 36-C ) :   1.2768 B( 35-C , 82-H ) :   1.0004 B( 36-C , 37-C ) :   1.5018
B( 36-C , 83-H ) :   0.9958 B( 37-C , 38-S ) :   1.1114 B( 37-C , 39-C ) :   1.1315
B( 39-C , 40-C ) :   1.4946 B( 39-C , 43-S ) :   1.1183 B( 40-C , 41-C ) :   1.2779
B( 40-C , 84-H ) :   0.9955 B( 41-C , 42-C ) :   1.4557 B( 41-C , 85-H ) :   1.0009
B( 42-C , 43-S ) :   1.0972 B( 42-C , 44-C ) :   1.1424 B( 44-C , 45-C ) :   1.6756
B( 44-C , 86-H ) :   0.9526 B( 45-C , 46-C ) :   1.1353 B( 45-C , 50-C ) :   0.9328
B( 46-C , 47-C ) :   1.6972 B( 46-C , 87-H ) :   0.9516 B( 47-C , 48-C ) :   1.1364
B( 47-C , 88-H ) :   0.9533 B( 48-C , 49-C ) :   0.9845 B( 48-C , 57-C ) :   1.6672
B( 49-C , 50-C ) :   0.9857 B( 49-C , 54-N ) :   1.0267 B( 49-C , 89-H ) :   0.9040
B( 50-C , 51-N ) :   1.0185 B( 50-C , 90-H ) :   0.8957 B( 51-N , 52-C ) :   1.9195
B( 52-C , 53-C ) :   0.9282 B( 52-C , 56-F ) :   1.1620 B( 53-C , 54-N ) :   1.9540
B( 53-C , 55-F ) :   1.1631 B( 57-C , 58-C ) :   1.1397 B( 57-C , 91-H ) :   0.9609
B( 58-C , 59-C ) :   1.4671 B( 58-C , 61-C ) :   0.1024 B( 58-C , 62-S ) :   1.1071
B( 59-C , 60-C ) :   1.2685 B( 59-C , 92-H ) :   1.0004 B( 60-C , 61-C ) :   1.5189
B( 60-C , 93-H ) :   0.9956 B( 61-C , 62-S ) :   1.1169 B( 61-C , 63-C ) :   1.1060
B( 63-C , 64-C ) :   1.5409 B( 63-C , 66-C ) :   0.1069 B( 63-C , 67-S ) :   1.1331
B( 64-C , 65-C ) :   1.2553 B( 64-C , 94-H ) :   0.9977 B( 65-C , 66-C ) :   1.5787
B( 65-C , 95-H ) :   0.9975 B( 66-C , 67-S ) :   1.1384 B( 66-C , 68-C ) :   1.0379
B( 68-C , 96-H ) :   0.9308 B( 68-C , 97-H ) :   0.9138

-----------------------------------------------------------------------------
         ABSORPTION SPECTRUM VIA TRANSITION ELECTRIC DIPOLE MOMENTS
-----------------------------------------------------------------------------
State   Energy  Wavelength   fosc         T2         TX        TY        TZ
        (cm-1)    (nm)                  (au**2)     (au)      (au)      (au)
-----------------------------------------------------------------------------
   0   12524.9    798.4   0.881393549  23.16710   3.53217  -3.01611   1.26252
   1   16923.7    590.9   0.502010623   9.76548   2.58215   1.47300  -0.96346
   2   19843.5    503.9   0.302397013   5.01690   2.04507   0.75361  -0.51637
   3   20542.7    486.8   1.446268646  23.17748   4.37771  -1.74419   0.98537
   4   22401.7    446.4   0.636155101   9.34884  -2.49440   1.32574  -1.17014
   5   23572.5    424.2   0.040799173   0.56980  -0.58019   0.44965  -0.17607
   6   23976.9    417.1   0.093567177   1.28471   0.09099  -0.85351   0.74023
   7   24465.1    408.7   0.254457188   3.42407  -0.64188  -1.17421   1.27800
   8   26260.6    380.8   0.077652235   0.97348  -0.89380   0.35317  -0.22332
   9   26557.0    376.5   0.706829133   8.76215   0.63287   2.02317  -2.06601
  10   27332.0    365.9   0.012689078   0.15284  -0.15310   0.27277  -0.23451
  11   27730.0    360.6   0.005194998   0.06168   0.13919  -0.18680   0.08606
  12   28750.7    347.8   0.033023602   0.37814   0.36815  -0.26159   0.41735
  13   29063.6    344.1   0.245323681   2.77886   1.47986  -0.76710   0.02101
  14   29466.3    339.4   0.011465768   0.12810  -0.12240   0.18777  -0.27904
  15   29594.9    337.9   0.004240147   0.04717   0.03856   0.03547   0.21076
  16   30514.7    327.7   0.174346692   1.88096  -0.09452   1.20442  -0.64915
  17   31366.9    318.8   0.019851375   0.20835  -0.08477   0.36711  -0.25767
  18   32116.6    311.4   0.269764035   2.76522   0.04445   1.60095  -0.44743
  19   32270.4    309.9   0.113860231   1.16156  -0.88329  -0.41089   0.46100
  20   32429.2    308.4   0.158502738   1.60907  -0.90153   0.89108   0.04800
  21   33157.2    301.6   0.187659174   1.86323   0.15070  -1.25607   0.51265
  22   33546.7    298.1   0.114019242   1.11893  -0.66752  -0.78953   0.22359
  23   33914.2    294.9   0.006349918   0.06164  -0.17183   0.04607  -0.17318
  24   34580.1    289.2   0.102213083   0.97310   0.22412  -0.95160   0.13162
  25   34937.8    286.2   0.034106430   0.32138   0.46944  -0.26315  -0.17820
  26   35258.8    283.6   0.010037582   0.09372  -0.26426  -0.10653   0.11197
  27   35706.7    280.1   0.011714880   0.10801  -0.23705   0.20124   0.10640
  28   36252.6    275.8   0.004373640   0.03972   0.04801  -0.01068  -0.19313
  29   36869.0    271.2   0.002964044   0.02647  -0.10152   0.00023  -0.12712
  30   36907.3    270.9   0.005782998   0.05158  -0.18933  -0.04423  -0.11740
  31   37006.7    270.2   0.013279899   0.11814   0.18329  -0.09954   0.27319
  32   37231.3    268.6   0.004333063   0.03831  -0.09986   0.10680  -0.13014
  33   37448.3    267.0   0.022967104   0.20191   0.43753   0.04171  -0.09346
  34   37703.2    265.2   0.027952666   0.24407  -0.41704   0.15196  -0.21693
  35   37836.6    264.3   0.034151272   0.29715   0.20040  -0.49060   0.12765
  36   38224.8    261.6   0.009386982   0.08085  -0.14046  -0.22989   0.09092
  37   38852.3    257.4   0.024245546   0.20544   0.40723  -0.19894  -0.00519
  38   39021.9    256.3   0.060518849   0.51057   0.61867  -0.35620   0.03070
  39   39357.5    254.1   0.105449700   0.88205  -0.85008   0.35718  -0.17840
  40   39457.3    253.4   0.039830909   0.33233   0.18093   0.50974  -0.19941
  41   39765.5    251.5   0.060791782   0.50328  -0.17564  -0.65161   0.21871
  42   40188.6    248.8   0.014311823   0.11724   0.33935   0.04297  -0.01531

FINAL SINGLE POINT ENERGY     -7317.388741404117

DIPOLE MOMENT
-------------
                                X             Y             Z
Electronic contribution:    119.54685    -106.22277      29.69337
Nuclear contribution   :   -121.46398     106.54567     -28.95382
                        -----------------------------------------
Total Dipole Moment    :     -1.91713       0.32290       0.73954
                        -----------------------------------------
Magnitude (a.u.)       :      2.08004
Magnitude (Debye)      :      5.28704

Rotational constants in cm-1:     0.000982     0.000265     0.000214
Rotational constants in MHz :    29.439830     7.941141     6.406455

                             ****ORCA TERMINATED NORMALLY****
TOTAL RUN TIME: 0 days 0 hours 10 minutes 3 seconds 44 msec
