                         Program Version 4.2.0 -  RELEASE  -
|  1> # ORCA input file
|  2> # SCF done       -211.203862601395          0.000918660057
|  3> ! CAM-B3LYP def2-SVP def2/J RIJCOSX Grid4 TightSCF
|  4> %maxcore 5000
|  5> %tddft
|  6>     Mode sTDDFT
|  7>     Ethresh 5.0
|  8>     maxcore 5000
|  9> end
| 10>
| 11> %pal
| 12>   nprocs 6
| 13>   end
| 14> * xyz 0 1
| 15>    C      -11.83820        -1.11207        -2.94101
| 16>    C      -11.77688        -2.05876        -1.95393
| 17>    C      -12.88938        -2.80589        -1.51157
| 18>    N      -13.75888        -3.44544        -1.12128
| 19>    C      -10.62451        -2.36456        -1.19648
| 20>    N       -9.74735        -2.63775        -0.50882
| 21>    C      -13.04693        -0.65958        -3.61513
| 22>    C      -12.73104         0.48018        -4.39395
| 23>    C      -13.67060         1.15201        -5.13820
| 24>    C      -14.98457         0.67400        -5.11585
| 25>    C      -15.28970        -0.47110        -4.34024
| 26>    C      -14.34041        -1.14850        -3.58575
| 27>    S      -16.96976        -0.89568        -4.46151
| 28>    C      -17.23707         0.45223        -5.53495
| 29>    C      -16.12646         1.18395        -5.79152
| 30>   Br      -18.95559         0.76593        -6.21579
| 31>    C      -11.29030         0.78640        -4.27563
| 32>    O      -10.71006         1.69757        -4.81732
| 33>    C      -10.73066        -0.29860        -3.41836
| 34>    C       -9.41409        -0.60797        -3.25462
| 35>    C       -8.28177         0.15427        -3.62746
| 36>    O       -8.32748         1.47428        -3.93721
| 37>    C       -6.95935        -0.25424        -3.70864
| 38>    C       -6.06312        -1.41313        -3.57362
| 39>    O       -6.28935        -2.55881        -3.29462
| 40>    N       -4.80906        -0.88557        -3.87285
| 41>    C       -4.79453         0.46824        -4.20251
| 42>    O       -3.81142         1.09680        -4.50084
| 43>    C       -6.19897         0.86826        -4.09723
| 44>    C       -7.09069         1.92741        -4.22479
| 45>    C       -6.93128         3.29331        -4.58018
| 46>    C       -5.74685         3.84112        -4.92916
| 47>    C       -5.60840         5.24699        -5.22859
| 48>    C       -6.29928         6.17215        -4.49382
| 49>    S       -5.95741         7.80227        -4.88791
| 50>    C       -4.86845         7.27253        -6.13499
| 51>    C       -4.77022         5.87614        -6.22413
| 52>    C       -4.03080         5.31434        -7.29111
| 53>    C       -4.02347         3.81892        -7.46159
| 54>    C       -2.81867         3.19632        -6.75255
| 55>    C       -3.32535         6.13564        -8.15984
| 56>    C       -2.69356         5.56980        -9.40207
| 57>    C       -3.73752         5.57000       -10.52340
| 58>    C       -3.32119         7.53961        -7.98295
| 59>    C       -2.65354         8.58792        -8.72006
| 60>    C       -3.06182         9.82185        -8.30983
| 61>    S       -4.19806         9.82362        -7.02040
| 62>    C       -4.15623         8.09049        -6.99530
| 63>    C       -1.55408         8.52454        -9.68189
| 64>    C       -1.48635         9.36281       -10.72187
| 65>    C       -0.31252         9.66490       -11.53499
| 66>    C       -0.09183        11.03291       -11.81399
| 67>    O       -1.04291        11.90486       -11.37531
| 68>    C       -0.63970        13.15550       -10.82287
| 69>    C       -1.43187        13.38990        -9.54334
| 70>    C        1.04410        11.44644       -12.50852
| 71>    O        1.24052        12.77008       -12.85040
| 72>    C        0.49944        13.19927       -13.98377
| 73>    C        0.97918        12.56352       -15.28316
| 74>    C        2.04146        10.51000       -12.84719
| 75>    O        3.13542        11.01008       -13.45900
| 76>    C        4.21084        10.14137       -13.76452
| 77>    C        5.33116        10.98856       -14.34613
| 78>    C        1.82464         9.17069       -12.57552
| 79>    C        0.64389         8.74288       -11.96584
| 80>    C        0.45631         7.30567       -11.87063
| 81>    S       -1.04525         6.52016       -12.27854
| 82>    C       -0.41352         4.93447       -12.09180
| 83>    C        0.91226         4.98403       -11.74717
| 84>    C        1.39283         6.33310       -11.64754
| 85>    O        2.70915         6.34763       -11.32261
| 86>    C        3.06198         5.03745       -11.21242
| 87>    N        4.41220         4.75084       -10.89828
| 88>    O        4.70292         3.57551       -10.77691
| 89>    O        5.17852         5.68332       -10.78450
| 90>    C        2.03694         4.16477       -11.45167
| 91>    H      -13.39962         2.01946        -5.71938
| 92>    H      -14.61958        -2.01875        -3.01573
| 93>    H      -16.11179         2.04753        -6.43102
| 94>    H       -9.14937        -1.56165        -2.81470
| 95>    H       -3.96900        -1.44648        -3.85694
| 96>    H       -7.84416         3.87120        -4.59119
| 97>    H       -4.86036         3.22319        -4.93521
| 98>    H       -6.95976         5.96726        -3.67380
| 99>    H       -4.00017         3.55113        -8.51710
|100>    H       -4.94668         3.40801        -7.05088
|101>    H       -2.87901         2.11175        -6.77907
|102>    H       -2.77864         3.50502        -5.71142
|103>    H       -1.89022         3.50692        -7.22677
|104>    H       -2.31963         4.56145        -9.23691
|105>    H       -1.85332         6.18569        -9.70624
|106>    H       -3.34455         5.09708       -11.41963
|107>    H       -4.01680         6.59146       -10.76977
|108>    H       -4.63422         5.03709       -10.21517
|109>    H       -2.70630        10.76332        -8.67913
|110>    H       -0.71757         7.88399        -9.43178
|111>    H       -2.33245        10.00777       -10.91624
|112>    H       -0.85034        13.95288       -11.54509
|113>    H        0.43167        13.15174       -10.60901
|114>    H       -2.49776        13.33258        -9.74927
|115>    H       -1.20097        14.37404        -9.14583
|116>    H       -1.17415        12.64052        -8.79840
|117>    H        0.65208        14.28105       -14.01174
|118>    H       -0.57025        12.99106       -13.84049
|119>    H        0.77664        11.49432       -15.28185
|120>    H        2.04956        12.71498       -15.39231
|121>    H        0.46296        13.01775       -16.12475
|122>    H        3.88812         9.38577       -14.49472
|123>    H        4.55221         9.62974       -12.85523
|124>    H        4.99507        11.47965       -15.25535
|125>    H        6.18738        10.36084       -14.57473
|126>    H        5.62678        11.75026       -13.63030
|127>    H        2.54959         8.42861       -12.86480
|128>    H       -1.03906         4.08037       -12.24737
|129>    H        2.09940         3.09685       -11.41961
|130> *
|131>
|132>                          ****END OF INPUT****

CARTESIAN COORDINATES (ANGSTROEM)
---------------------------------
  C    -11.838200   -1.112070   -2.941010
  C    -11.776880   -2.058760   -1.953930
  C    -12.889380   -2.805890   -1.511570
  N    -13.758880   -3.445440   -1.121280
  C    -10.624510   -2.364560   -1.196480
  N     -9.747350   -2.637750   -0.508820
  C    -13.046930   -0.659580   -3.615130
  C    -12.731040    0.480180   -4.393950
  C    -13.670600    1.152010   -5.138200
  C    -14.984570    0.674000   -5.115850
  C    -15.289700   -0.471100   -4.340240
  C    -14.340410   -1.148500   -3.585750
  S    -16.969760   -0.895680   -4.461510
  C    -17.237070    0.452230   -5.534950
  C    -16.126460    1.183950   -5.791520
  Br   -18.955590    0.765930   -6.215790
  C    -11.290300    0.786400   -4.275630
  O    -10.710060    1.697570   -4.817320
  C    -10.730660   -0.298600   -3.418360
  C     -9.414090   -0.607970   -3.254620
  C     -8.281770    0.154270   -3.627460
  O     -8.327480    1.474280   -3.937210
  C     -6.959350   -0.254240   -3.708640
  C     -6.063120   -1.413130   -3.573620
  O     -6.289350   -2.558810   -3.294620
  N     -4.809060   -0.885570   -3.872850
  C     -4.794530    0.468240   -4.202510
  O     -3.811420    1.096800   -4.500840
  C     -6.198970    0.868260   -4.097230
  C     -7.090690    1.927410   -4.224790
  C     -6.931280    3.293310   -4.580180
  C     -5.746850    3.841120   -4.929160
  C     -5.608400    5.246990   -5.228590
  C     -6.299280    6.172150   -4.493820
  S     -5.957410    7.802270   -4.887910
  C     -4.868450    7.272530   -6.134990
  C     -4.770220    5.876140   -6.224130
  C     -4.030800    5.314340   -7.291110
  C     -4.023470    3.818920   -7.461590
  C     -2.818670    3.196320   -6.752550
  C     -3.325350    6.135640   -8.159840
  C     -2.693560    5.569800   -9.402070
  C     -3.737520    5.570000  -10.523400
  C     -3.321190    7.539610   -7.982950
  C     -2.653540    8.587920   -8.720060
  C     -3.061820    9.821850   -8.309830
  S     -4.198060    9.823620   -7.020400
  C     -4.156230    8.090490   -6.995300
  C     -1.554080    8.524540   -9.681890
  C     -1.486350    9.362810  -10.721870
  C     -0.312520    9.664900  -11.534990
  C     -0.091830   11.032910  -11.813990
  O     -1.042910   11.904860  -11.375310
  C     -0.639700   13.155500  -10.822870
  C     -1.431870   13.389900   -9.543340
  C      1.044100   11.446440  -12.508520
  O      1.240520   12.770080  -12.850400
  C      0.499440   13.199270  -13.983770
  C      0.979180   12.563520  -15.283160
  C      2.041460   10.510000  -12.847190
  O      3.135420   11.010080  -13.459000
  C      4.210840   10.141370  -13.764520
  C      5.331160   10.988560  -14.346130
  C      1.824640    9.170690  -12.575520
  C      0.643890    8.742880  -11.965840
  C      0.456310    7.305670  -11.870630
  S     -1.045250    6.520160  -12.278540
  C     -0.413520    4.934470  -12.091800
  C      0.912260    4.984030  -11.747170
  C      1.392830    6.333100  -11.647540
  O      2.709150    6.347630  -11.322610
  C      3.061980    5.037450  -11.212420
  N      4.412200    4.750840  -10.898280
  O      4.702920    3.575510  -10.776910
  O      5.178520    5.683320  -10.784500
  C      2.036940    4.164770  -11.451670
  H    -13.399620    2.019460   -5.719380
  H    -14.619580   -2.018750   -3.015730
  H    -16.111790    2.047530   -6.431020
  H     -9.149370   -1.561650   -2.814700
  H     -3.969000   -1.446480   -3.856940
  H     -7.844160    3.871200   -4.591190
  H     -4.860360    3.223190   -4.935210
  H     -6.959760    5.967260   -3.673800
  H     -4.000170    3.551130   -8.517100
  H     -4.946680    3.408010   -7.050880
  H     -2.879010    2.111750   -6.779070
  H     -2.778640    3.505020   -5.711420
  H     -1.890220    3.506920   -7.226770
  H     -2.319630    4.561450   -9.236910
  H     -1.853320    6.185690   -9.706240
  H     -3.344550    5.097080  -11.419630
  H     -4.016800    6.591460  -10.769770
  H     -4.634220    5.037090  -10.215170
  H     -2.706300   10.763320   -8.679130
  H     -0.717570    7.883990   -9.431780
  H     -2.332450   10.007770  -10.916240
  H     -0.850340   13.952880  -11.545090
  H      0.431670   13.151740  -10.609010
  H     -2.497760   13.332580   -9.749270
  H     -1.200970   14.374040   -9.145830
  H     -1.174150   12.640520   -8.798400
  H      0.652080   14.281050  -14.011740
  H     -0.570250   12.991060  -13.840490
  H      0.776640   11.494320  -15.281850
  H      2.049560   12.714980  -15.392310
  H      0.462960   13.017750  -16.124750
  H      3.888120    9.385770  -14.494720
  H      4.552210    9.629740  -12.855230
  H      4.995070   11.479650  -15.255350
  H      6.187380   10.360840  -14.574730
  H      5.626780   11.750260  -13.630300
  H      2.549590    8.428610  -12.864800
  H     -1.039060    4.080370  -12.247370
  H      2.099400    3.096850  -11.419610

 Total Charge           Charge          ....    0
 Multiplicity           Mult            ....    1
 Number of Electrons    NEL             ....  588
 Basis Dimension        Dim             .... 1293

ORBITAL ENERGIES
----------------

  NO   OCC          E(Eh)            E(eV)
   0   2.0000    -482.888010    -13140.0508
   1   2.0000     -88.978095     -2421.2171
   2   2.0000     -88.974495     -2421.1191
   3   2.0000     -88.957287     -2420.6509
   4   2.0000     -88.949095     -2420.4279
   5   2.0000     -62.565720     -1702.4998
   6   2.0000     -56.399673     -1534.7131
   7   2.0000     -56.396952     -1534.6391
   8   2.0000     -56.396922     -1534.6383
   9   2.0000     -19.315390      -525.5985
  10   2.0000     -19.306605      -525.3594
  11   2.0000     -19.244624      -523.6728
  12   2.0000     -19.243225      -523.6348
  13   2.0000     -19.242393      -523.6121
  14   2.0000     -19.239967      -523.5461
  15   2.0000     -19.225404      -523.1498
  16   2.0000     -19.221842      -523.0529
  17   2.0000     -19.220629      -523.0199
  18   2.0000     -19.217903      -522.9457
  19   2.0000     -14.655973      -398.8093
  20   2.0000     -14.462464      -393.5437
  21   2.0000     -14.418272      -392.3411
  22   2.0000     -14.416307      -392.2877
  23   2.0000     -10.409680      -283.2618
  24   2.0000     -10.409029      -283.2441
  25   2.0000     -10.387166      -282.6492
  26   2.0000     -10.375262      -282.3252
  27   2.0000     -10.371754      -282.2298
  28   2.0000     -10.367357      -282.1101
  29   2.0000     -10.361750      -281.9575
  30   2.0000     -10.346857      -281.5523
  31   2.0000     -10.344284      -281.4823
  32   2.0000     -10.344101      -281.4773
  33   2.0000     -10.332661      -281.1660
  34   2.0000     -10.332331      -281.1570
  35   2.0000     -10.328607      -281.0557
  36   2.0000     -10.328134      -281.0428
  37   2.0000     -10.322114      -280.8790
  38   2.0000     -10.320617      -280.8383
  39   2.0000     -10.318595      -280.7832
  40   2.0000     -10.318247      -280.7738
  41   2.0000     -10.317823      -280.7622
  42   2.0000     -10.314526      -280.6725
  43   2.0000     -10.313045      -280.6322
  44   2.0000     -10.312588      -280.6198
  45   2.0000     -10.311556      -280.5917
  46   2.0000     -10.311484      -280.5898
  47   2.0000     -10.310743      -280.5696
  48   2.0000     -10.309059      -280.5237
  49   2.0000     -10.308589      -280.5110
  50   2.0000     -10.308041      -280.4961
  51   2.0000     -10.303776      -280.3800
  52   2.0000     -10.302797      -280.3534
  53   2.0000     -10.302522      -280.3459
  54   2.0000     -10.299398      -280.2609
  55   2.0000     -10.299301      -280.2582
  56   2.0000     -10.297596      -280.2118
  57   2.0000     -10.297006      -280.1958
  58   2.0000     -10.297005      -280.1958
  59   2.0000     -10.295313      -280.1497
  60   2.0000     -10.292004      -280.0597
  61   2.0000     -10.291423      -280.0439
  62   2.0000     -10.289716      -279.9974
  63   2.0000     -10.288893      -279.9750
  64   2.0000     -10.280587      -279.7490
  65   2.0000     -10.278665      -279.6967
  66   2.0000     -10.277541      -279.6661
  67   2.0000     -10.275819      -279.6192
  68   2.0000     -10.273230      -279.5488
  69   2.0000     -10.273078      -279.5447
  70   2.0000     -10.272535      -279.5299
  71   2.0000     -10.267524      -279.3935
  72   2.0000     -10.266822      -279.3744
  73   2.0000     -10.262814      -279.2654
  74   2.0000     -10.261822      -279.2384
  75   2.0000     -10.260300      -279.1970
  76   2.0000     -10.259460      -279.1741
  77   2.0000     -10.256598      -279.0962
  78   2.0000     -10.252723      -278.9908
  79   2.0000     -10.248490      -278.8756
  80   2.0000      -8.795148      -239.3281
  81   2.0000      -8.074118      -219.7079
  82   2.0000      -8.068241      -219.5480
  83   2.0000      -8.053436      -219.1451
  84   2.0000      -8.045316      -218.9242
  85   2.0000      -6.631455      -180.4511
  86   2.0000      -6.616886      -180.0546
  87   2.0000      -6.616673      -180.0488
  88   2.0000      -6.043805      -164.4603
  89   2.0000      -6.039535      -164.3441
  90   2.0000      -6.037554      -164.2902
  91   2.0000      -6.035323      -164.2295
  92   2.0000      -6.033158      -164.1706
  93   2.0000      -6.030808      -164.1066
  94   2.0000      -6.022893      -163.8913
  95   2.0000      -6.018629      -163.7752
  96   2.0000      -6.015238      -163.6829
  97   2.0000      -6.014800      -163.6710
  98   2.0000      -6.010610      -163.5570
  99   2.0000      -6.007027      -163.4595
 100   2.0000      -2.747334       -74.7588
 101   2.0000      -2.743241       -74.6474
 102   2.0000      -2.743070       -74.6427
 103   2.0000      -2.731495       -74.3278
 104   2.0000      -2.731485       -74.3275
 105   2.0000      -1.327356       -36.1192
 106   2.0000      -1.237530       -33.6749
 107   2.0000      -1.225962       -33.3601
 108   2.0000      -1.165273       -31.7087
 109   2.0000      -1.156773       -31.4774
 110   2.0000      -1.145473       -31.1699
 111   2.0000      -1.145230       -31.1633
 112   2.0000      -1.143795       -31.1243
 113   2.0000      -1.134577       -30.8734
 114   2.0000      -1.119120       -30.4528
 115   2.0000      -1.051942       -28.6248
 116   2.0000      -1.025909       -27.9164
 117   2.0000      -1.015647       -27.6372
 118   2.0000      -1.003382       -27.3034
 119   2.0000      -0.998077       -27.1591
 120   2.0000      -0.995783       -27.0966
 121   2.0000      -0.992777       -27.0148
 122   2.0000      -0.973557       -26.4918
 123   2.0000      -0.954363       -25.9695
 124   2.0000      -0.949633       -25.8408
 125   2.0000      -0.934521       -25.4296
 126   2.0000      -0.933269       -25.3955
 127   2.0000      -0.932554       -25.3761
 128   2.0000      -0.925961       -25.1967
 129   2.0000      -0.911166       -24.7941
 130   2.0000      -0.906911       -24.6783
 131   2.0000      -0.895896       -24.3786
 132   2.0000      -0.889134       -24.1946
 133   2.0000      -0.888719       -24.1833
 134   2.0000      -0.880027       -23.9467
 135   2.0000      -0.872264       -23.7355
 136   2.0000      -0.868258       -23.6265
 137   2.0000      -0.863217       -23.4893
 138   2.0000      -0.854710       -23.2578
 139   2.0000      -0.845745       -23.0139
 140   2.0000      -0.841487       -22.8980
 141   2.0000      -0.832977       -22.6664
 142   2.0000      -0.831943       -22.6383
 143   2.0000      -0.828138       -22.5348
 144   2.0000      -0.817139       -22.2355
 145   2.0000      -0.804534       -21.8925
 146   2.0000      -0.798243       -21.7213
 147   2.0000      -0.789340       -21.4790
 148   2.0000      -0.783304       -21.3148
 149   2.0000      -0.779445       -21.2098
 150   2.0000      -0.773325       -21.0433
 151   2.0000      -0.769646       -20.9431
 152   2.0000      -0.764825       -20.8119
 153   2.0000      -0.761110       -20.7109
 154   2.0000      -0.736008       -20.0278
 155   2.0000      -0.729504       -19.8508
 156   2.0000      -0.725887       -19.7524
 157   2.0000      -0.719922       -19.5901
 158   2.0000      -0.711465       -19.3599
 159   2.0000      -0.708196       -19.2710
 160   2.0000      -0.706396       -19.2220
 161   2.0000      -0.704663       -19.1748
 162   2.0000      -0.698404       -19.0045
 163   2.0000      -0.694195       -18.8900
 164   2.0000      -0.689699       -18.7677
 165   2.0000      -0.686118       -18.6702
 166   2.0000      -0.679221       -18.4826
 167   2.0000      -0.671719       -18.2784
 168   2.0000      -0.661391       -17.9974
 169   2.0000      -0.660592       -17.9756
 170   2.0000      -0.650371       -17.6975
 171   2.0000      -0.645078       -17.5535
 172   2.0000      -0.641144       -17.4464
 173   2.0000      -0.640114       -17.4184
 174   2.0000      -0.634835       -17.2747
 175   2.0000      -0.629210       -17.1217
 176   2.0000      -0.627247       -17.0683
 177   2.0000      -0.624014       -16.9803
 178   2.0000      -0.619533       -16.8584
 179   2.0000      -0.614735       -16.7278
 180   2.0000      -0.605598       -16.4792
 181   2.0000      -0.602893       -16.4055
 182   2.0000      -0.602567       -16.3967
 183   2.0000      -0.597961       -16.2714
 184   2.0000      -0.593919       -16.1614
 185   2.0000      -0.593102       -16.1391
 186   2.0000      -0.586477       -15.9589
 187   2.0000      -0.584357       -15.9012
 188   2.0000      -0.581975       -15.8363
 189   2.0000      -0.581591       -15.8259
 190   2.0000      -0.577457       -15.7134
 191   2.0000      -0.574123       -15.6227
 192   2.0000      -0.571453       -15.5500
 193   2.0000      -0.567940       -15.4544
 194   2.0000      -0.564318       -15.3559
 195   2.0000      -0.562375       -15.3030
 196   2.0000      -0.555363       -15.1122
 197   2.0000      -0.553182       -15.0528
 198   2.0000      -0.551080       -14.9956
 199   2.0000      -0.547860       -14.9080
 200   2.0000      -0.547106       -14.8875
 201   2.0000      -0.544762       -14.8237
 202   2.0000      -0.542645       -14.7661
 203   2.0000      -0.540215       -14.7000
 204   2.0000      -0.535536       -14.5727
 205   2.0000      -0.532741       -14.4966
 206   2.0000      -0.528843       -14.3905
 207   2.0000      -0.526480       -14.3262
 208   2.0000      -0.524440       -14.2707
 209   2.0000      -0.520792       -14.1715
 210   2.0000      -0.516607       -14.0576
 211   2.0000      -0.512962       -13.9584
 212   2.0000      -0.511826       -13.9275
 213   2.0000      -0.510380       -13.8882
 214   2.0000      -0.509376       -13.8608
 215   2.0000      -0.505673       -13.7601
 216   2.0000      -0.503219       -13.6933
 217   2.0000      -0.500733       -13.6256
 218   2.0000      -0.500054       -13.6072
 219   2.0000      -0.496281       -13.5045
 220   2.0000      -0.495130       -13.4732
 221   2.0000      -0.493514       -13.4292
 222   2.0000      -0.491856       -13.3841
 223   2.0000      -0.488513       -13.2931
 224   2.0000      -0.484684       -13.1889
 225   2.0000      -0.481236       -13.0951
 226   2.0000      -0.479936       -13.0597
 227   2.0000      -0.475467       -12.9381
 228   2.0000      -0.474957       -12.9242
 229   2.0000      -0.474472       -12.9110
 230   2.0000      -0.468096       -12.7375
 231   2.0000      -0.466111       -12.6835
 232   2.0000      -0.464895       -12.6504
 233   2.0000      -0.463720       -12.6185
 234   2.0000      -0.461398       -12.5553
 235   2.0000      -0.461147       -12.5484
 236   2.0000      -0.459958       -12.5161
 237   2.0000      -0.456685       -12.4270
 238   2.0000      -0.455642       -12.3986
 239   2.0000      -0.454367       -12.3640
 240   2.0000      -0.452282       -12.3072
 241   2.0000      -0.450220       -12.2511
 242   2.0000      -0.449933       -12.2433
 243   2.0000      -0.448534       -12.2052
 244   2.0000      -0.446275       -12.1438
 245   2.0000      -0.444889       -12.1060
 246   2.0000      -0.443070       -12.0566
 247   2.0000      -0.441327       -12.0091
 248   2.0000      -0.439711       -11.9651
 249   2.0000      -0.434172       -11.8144
 250   2.0000      -0.432967       -11.7816
 251   2.0000      -0.432147       -11.7593
 252   2.0000      -0.429899       -11.6981
 253   2.0000      -0.427352       -11.6288
 254   2.0000      -0.425355       -11.5745
 255   2.0000      -0.422401       -11.4941
 256   2.0000      -0.420079       -11.4309
 257   2.0000      -0.419507       -11.4154
 258   2.0000      -0.413234       -11.2447
 259   2.0000      -0.412119       -11.2143
 260   2.0000      -0.410873       -11.1804
 261   2.0000      -0.408781       -11.1235
 262   2.0000      -0.402792       -10.9605
 263   2.0000      -0.401761       -10.9325
 264   2.0000      -0.396715       -10.7952
 265   2.0000      -0.391545       -10.6545
 266   2.0000      -0.390935       -10.6379
 267   2.0000      -0.390573       -10.6280
 268   2.0000      -0.389294       -10.5932
 269   2.0000      -0.385577       -10.4921
 270   2.0000      -0.380899       -10.3648
 271   2.0000      -0.378708       -10.3052
 272   2.0000      -0.377895       -10.2831
 273   2.0000      -0.377253       -10.2656
 274   2.0000      -0.374739       -10.1972
 275   2.0000      -0.373861       -10.1733
 276   2.0000      -0.372045       -10.1239
 277   2.0000      -0.368925       -10.0389
 278   2.0000      -0.361422        -9.8348
 279   2.0000      -0.355140        -9.6639
 280   2.0000      -0.350804        -9.5459
 281   2.0000      -0.341961        -9.3052
 282   2.0000      -0.338633        -9.2147
 283   2.0000      -0.330594        -8.9959
 284   2.0000      -0.322688        -8.7808
 285   2.0000      -0.320547        -8.7225
 286   2.0000      -0.317969        -8.6524
 287   2.0000      -0.307766        -8.3748
 288   2.0000      -0.297338        -8.0910
 289   2.0000      -0.289650        -7.8818
 290   2.0000      -0.282495        -7.6871
 291   2.0000      -0.270581        -7.3629
 292   2.0000      -0.260455        -7.0873
 293   2.0000      -0.251900        -6.8545
 294   0.0000      -0.101128        -2.7518
 295   0.0000      -0.065135        -1.7724
 296   0.0000      -0.064111        -1.7445
 297   0.0000      -0.052263        -1.4222
 298   0.0000      -0.021068        -0.5733

MULLIKEN ATOMIC CHARGES
-----------------------
   0 C :    0.291874
   1 C :   -0.329166
   2 C :   -0.184144
   3 N :    0.151559
   4 C :   -0.205675
   5 N :    0.171327
   6 C :    0.020890
   7 C :   -0.021425
   8 C :   -0.070835
   9 C :    0.119328
  10 C :   -0.088476
  11 C :   -0.020908
  12 S :    0.188409
  13 C :   -0.123316
  14 C :    0.037107
  15 Br:    0.026286
  16 C :    0.133472
  17 O :   -0.127900
  18 C :   -0.061242
  19 C :   -0.054505
  20 C :    0.071102
  21 O :   -0.157058
  22 C :   -0.014421
  23 C :    0.172607
  24 O :   -0.123700
  25 N :   -0.163392
  26 C :    0.187546
  27 O :   -0.149920
  28 C :   -0.092821
  29 C :    0.146472
  30 C :   -0.027639
  31 C :   -0.011959
  32 C :    0.050712
  33 C :   -0.109771
  34 S :    0.139197
  35 C :   -0.146078
  36 C :    0.126147
  37 C :   -0.134429
  38 C :    0.021708
  39 C :    0.053331
  40 C :   -0.132947
  41 C :    0.068900
  42 C :    0.052749
  43 C :    0.110632
  44 C :    0.046841
  45 C :   -0.106316
  46 S :    0.119785
  47 C :   -0.143699
  48 C :   -0.018307
  49 C :   -0.040562
  50 C :   -0.007953
  51 C :    0.131190
  52 O :   -0.333800
  53 C :    0.166945
  54 C :   -0.002448
  55 C :    0.052824
  56 O :   -0.338783
  57 C :    0.168576
  58 C :   -0.007805
  59 C :    0.233046
  60 O :   -0.298136
  61 C :    0.124467
  62 C :    0.026400
  63 C :   -0.184093
  64 C :    0.101283
  65 C :   -0.287054
  66 S :    0.173273
  67 C :   -0.162038
  68 C :    0.138773
  69 C :    0.222903
  70 O :   -0.193613
  71 C :    0.236229
  72 N :    0.271739
  73 O :   -0.249848
  74 O :   -0.232092
  75 C :   -0.075786
  76 H :   -0.010538
  77 H :   -0.004835
  78 H :   -0.002305
  79 H :    0.043815
  80 H :    0.142051
  81 H :    0.004354
  82 H :    0.039066
  83 H :    0.025645
  84 H :   -0.003944
  85 H :    0.002155
  86 H :    0.021437
  87 H :    0.020920
  88 H :    0.000457
  89 H :   -0.004925
  90 H :   -0.019306
  91 H :   -0.005701
  92 H :    0.014742
  93 H :    0.007941
  94 H :    0.004093
  95 H :    0.038515
  96 H :    0.012088
  97 H :    0.012923
  98 H :    0.033838
  99 H :    0.027047
 100 H :    0.015278
 101 H :    0.033876
 102 H :    0.018346
 103 H :    0.011028
 104 H :    0.024037
 105 H :    0.029646
 106 H :    0.012705
 107 H :    0.016105
 108 H :    0.029861
 109 H :    0.023282
 110 H :    0.017915
 111 H :    0.029518
 112 H :   -0.026017
 113 H :    0.030782
 114 H :    0.012538
Sum of atomic charges:   -0.0000000

LOEWDIN ATOMIC CHARGES
----------------------
   0 C :    0.071387
   1 C :   -0.132154
   2 C :   -0.017537
   3 N :   -0.048619
   4 C :   -0.028200
   5 N :   -0.039037
   6 C :   -0.021353
   7 C :   -0.051250
   8 C :    0.021880
   9 C :   -0.031610
  10 C :   -0.143229
  11 C :   -0.009656
  12 S :    0.434092
  13 C :   -0.270701
  14 C :   -0.070581
  15 Br:    0.138801
  16 C :    0.076049
  17 O :   -0.132019
  18 C :   -0.077231
  19 C :    0.047621
  20 C :    0.037996
  21 O :    0.052170
  22 C :   -0.058114
  23 C :    0.085501
  24 O :   -0.140169
  25 N :   -0.003383
  26 C :    0.090592
  27 O :   -0.155283
  28 C :   -0.114596
  29 C :    0.094740
  30 C :   -0.057841
  31 C :    0.038928
  32 C :   -0.067583
  33 C :   -0.157951
  34 S :    0.425764
  35 C :   -0.178553
  36 C :   -0.041367
  37 C :   -0.020786
  38 C :   -0.031962
  39 C :   -0.047517
  40 C :   -0.016947
  41 C :   -0.031936
  42 C :   -0.050122
  43 C :   -0.040993
  44 C :   -0.061615
  45 C :   -0.163016
  46 S :    0.407820
  47 C :   -0.178783
  48 C :   -0.024388
  49 C :   -0.026979
  50 C :   -0.064283
  51 C :    0.047203
  52 O :   -0.111627
  53 C :    0.088859
  54 C :   -0.068078
  55 C :   -0.012045
  56 O :   -0.126401
  57 C :    0.081177
  58 C :   -0.072521
  59 C :    0.046613
  60 O :   -0.088035
  61 C :    0.082465
  62 C :   -0.059124
  63 C :   -0.074924
  64 C :   -0.033863
  65 C :   -0.196799
  66 S :    0.520098
  67 C :   -0.188321
  68 C :   -0.084337
  69 C :    0.015972
  70 O :   -0.006957
  71 C :    0.024637
  72 N :    0.271585
  73 O :   -0.210973
  74 O :   -0.194263
  75 C :   -0.010002
  76 H :    0.040815
  77 H :    0.041301
  78 H :    0.039126
  79 H :    0.060262
  80 H :    0.097025
  81 H :    0.042250
  82 H :    0.038919
  83 H :    0.025036
  84 H :    0.024699
  85 H :    0.026957
  86 H :    0.024599
  87 H :    0.023912
  88 H :    0.020344
  89 H :    0.022533
  90 H :    0.018268
  91 H :    0.009347
  92 H :    0.027024
  93 H :    0.022679
  94 H :    0.021703
  95 H :    0.029647
  96 H :    0.029115
  97 H :    0.013982
  98 H :    0.022254
  99 H :    0.026559
 100 H :    0.031143
 101 H :    0.026218
 102 H :    0.020476
 103 H :    0.008977
 104 H :    0.026183
 105 H :    0.028299
 106 H :    0.028244
 107 H :    0.012611
 108 H :    0.018828
 109 H :    0.028222
 110 H :    0.031568
 111 H :    0.031588
 112 H :    0.029452
 113 H :    0.026604
 114 H :    0.046897

  Mayer bond orders larger than 0.100000
B(  0-C ,  1-C ) :   1.6532 B(  0-C ,  6-C ) :   1.0105 B(  0-C , 18-C ) :   1.0447
B(  1-C ,  2-C ) :   1.1370 B(  1-C ,  4-C ) :   1.1364 B(  2-C ,  3-N ) :   2.9749
B(  4-C ,  5-N ) :   3.0013 B(  6-C ,  7-C ) :   1.2726 B(  6-C , 11-C ) :   1.4059
B(  7-C ,  8-C ) :   1.4224 B(  7-C , 16-C ) :   0.9411 B(  8-C ,  9-C ) :   1.2502
B(  8-C , 76-H ) :   1.0169 B(  9-C , 10-C ) :   1.3011 B(  9-C , 14-C ) :   1.1621
B( 10-C , 11-C ) :   1.3321 B( 10-C , 12-S ) :   1.0861 B( 11-C , 77-H ) :   0.9817
B( 12-S , 13-C ) :   1.0861 B( 13-C , 14-C ) :   1.6189 B( 13-C , 15-Br) :   1.0205
B( 14-C , 78-H ) :   1.0006 B( 16-C , 17-O ) :   2.2709 B( 16-C , 18-C ) :   0.9211
B( 18-C , 19-C ) :   1.5823 B( 19-C , 20-C ) :   1.2016 B( 19-C , 79-H ) :   0.9364
B( 20-C , 21-O ) :   1.1485 B( 20-C , 22-C ) :   1.3827 B( 21-O , 29-C ) :   1.1932
B( 22-C , 23-C ) :   0.8663 B( 22-C , 28-C ) :   1.3184 B( 23-C , 24-O ) :   2.2693
B( 23-C , 25-N ) :   1.0809 B( 25-N , 26-C ) :   1.0943 B( 25-N , 80-H ) :   0.9143
B( 26-C , 27-O ) :   2.1768 B( 26-C , 28-C ) :   0.8881 B( 28-C , 29-C ) :   1.3640
B( 29-C , 30-C ) :   1.1524 B( 30-C , 31-C ) :   1.6805 B( 30-C , 81-H ) :   0.9674
B( 31-C , 32-C ) :   1.0351 B( 31-C , 82-H ) :   0.9399 B( 32-C , 33-C ) :   1.5900
B( 32-C , 36-C ) :   1.1427 B( 33-C , 34-S ) :   1.1371 B( 33-C , 83-H ) :   0.9638
B( 34-S , 35-C ) :   1.0689 B( 35-C , 36-C ) :   1.3739 B( 35-C , 47-C ) :   1.3798
B( 36-C , 37-C ) :   1.2770 B( 37-C , 38-C ) :   1.0649 B( 37-C , 40-C ) :   1.4992
B( 38-C , 39-C ) :   1.1140 B( 38-C , 84-H ) :   0.9066 B( 38-C , 85-H ) :   0.9155
B( 39-C , 86-H ) :   0.9640 B( 39-C , 87-H ) :   0.9575 B( 39-C , 88-H ) :   0.9573
B( 40-C , 41-C ) :   1.0830 B( 40-C , 43-C ) :   1.2731 B( 41-C , 42-C ) :   1.1123
B( 41-C , 89-H ) :   0.9014 B( 41-C , 90-H ) :   0.9068 B( 42-C , 91-H ) :   0.9638
B( 42-C , 92-H ) :   0.9620 B( 42-C , 93-H ) :   0.9594 B( 43-C , 44-C ) :   1.1279
B( 43-C , 47-C ) :   1.3725 B( 44-C , 45-C ) :   1.6388 B( 44-C , 48-C ) :   1.0134
B( 45-C , 46-S ) :   1.1126 B( 45-C , 94-H ) :   0.9560 B( 46-S , 47-C ) :   1.0757
B( 48-C , 49-C ) :   1.8261 B( 48-C , 95-H ) :   0.9407 B( 49-C , 50-C ) :   1.0398
B( 49-C , 96-H ) :   0.9501 B( 50-C , 51-C ) :   1.2994 B( 50-C , 64-C ) :   1.3807
B( 51-C , 52-O ) :   1.1784 B( 51-C , 55-C ) :   1.3692 B( 52-O , 53-C ) :   0.9102
B( 53-C , 54-C ) :   1.1101 B( 53-C , 97-H ) :   0.9554 B( 53-C , 98-H ) :   0.9516
B( 54-C , 99-H ) :   0.9645 B( 54-C ,100-H ) :   0.9579 B( 54-C ,101-H ) :   0.9617
B( 55-C , 56-O ) :   1.1189 B( 55-C , 59-C ) :   1.3318 B( 56-O , 57-C ) :   0.9454
B( 57-C , 58-C ) :   1.1129 B( 57-C ,102-H ) :   0.9608 B( 57-C ,103-H ) :   0.9485
B( 58-C ,104-H ) :   0.9639 B( 58-C ,105-H ) :   0.9618 B( 58-C ,106-H ) :   0.9587
B( 59-C , 60-O ) :   1.1887 B( 59-C , 63-C ) :   1.2948 B( 60-O , 61-C ) :   0.9411
B( 61-C , 62-C ) :   1.0970 B( 61-C ,107-H ) :   0.9507 B( 61-C ,108-H ) :   0.9523
B( 62-C ,109-H ) :   0.9695 B( 62-C ,110-H ) :   0.9606 B( 62-C ,111-H ) :   0.9680
B( 63-C , 64-C ) :   1.2924 B( 63-C ,112-H ) :   1.0132 B( 64-C , 65-C ) :   0.9752
B( 65-C , 66-S ) :   1.1641 B( 65-C , 67-C ) :   0.1212 B( 65-C , 69-C ) :   1.5266
B( 66-S , 67-C ) :   1.1992 B( 67-C , 68-C ) :   1.4292 B( 67-C ,113-H ) :   0.9745
B( 68-C , 69-C ) :   1.1958 B( 68-C , 75-C ) :   1.0525 B( 69-C , 70-O ) :   1.0961
B( 70-O , 71-C ) :   1.1213 B( 71-C , 72-N ) :   0.9153 B( 71-C , 75-C ) :   1.5809
B( 72-N , 73-O ) :   1.5323 B( 72-N , 74-O ) :   1.5145 B( 73-O , 74-O ) :   0.2791
B( 75-C ,114-H ) :   1.0276

-----------------------------------------------------------------------------
         ABSORPTION SPECTRUM VIA TRANSITION ELECTRIC DIPOLE MOMENTS
-----------------------------------------------------------------------------
State   Energy  Wavelength   fosc         T2         TX        TY        TZ
        (cm-1)    (nm)                  (au**2)     (au)      (au)      (au)
-----------------------------------------------------------------------------
   0   20267.9    493.4   0.902815630  14.66446  -3.09434  -2.07703   0.88061
   1   24134.3    414.3   0.002676661   0.03651  -0.05782  -0.13350   0.12388
   2   24482.9    408.4   0.033346630   0.44840  -0.47255  -0.35668  -0.31286
   3   25875.0    386.5   0.035366388   0.44997  -0.18933   0.14551  -0.62686
   4   26684.7    374.7   0.188720132   2.32826   1.39854  -0.44803   0.41425
   5   27287.1    366.5   0.037768548   0.45567   0.51101  -0.38558  -0.21416
   6   28146.1    355.3   0.457566218   5.35193  -0.60188  -2.11927   0.70593
   7   28392.8    352.2   0.074202144   0.86037  -0.79868  -0.47103  -0.02468
   8   28487.5    351.0   0.126220583   1.45865  -1.14321  -0.27211  -0.27869
   9   28889.7    346.1   0.150125625   1.71075  -1.30417   0.06291  -0.07700
  10   29212.6    342.3   0.067423027   0.75983   0.74574  -0.26776   0.36332
  11   30728.3    325.4   0.002549149   0.02731   0.02669   0.08164   0.14118
  12   31419.1    318.3   0.002137519   0.02240  -0.14340  -0.03976  -0.01590
  13   32094.6    311.6   0.036413428   0.37351   0.43026  -0.22497   0.37118
  14   32293.5    309.7   0.005370967   0.05475  -0.20477   0.08070  -0.07945
  15   32597.9    306.8   0.002137317   0.02159  -0.06000  -0.06820  -0.11547
  16   32776.3    305.1   0.004363518   0.04383  -0.18106   0.10477   0.00823
  17   33001.5    303.0   0.628675214   6.27145   1.66986  -1.14922   1.47048
  18   33303.9    300.3   0.000914405   0.00904  -0.01247   0.07068  -0.06235
  19   33516.4    298.4   0.004521660   0.04441   0.00778  -0.04858   0.20492
  20   33705.7    296.7   0.504621144   4.92875   1.72446  -0.88674  -1.08106
  21   34642.8    288.7   0.122313155   1.16235  -0.01145  -1.05840   0.20493
  22   35224.6    283.9   0.010257751   0.09587   0.18510  -0.17320   0.17780
  23   35266.2    283.6   0.292756051   2.73290   1.15601  -0.93713   0.71995
  24   36056.0    277.3   0.139668281   1.27525   0.80509  -0.78322   0.11677
  25   36177.6    276.4   0.080393937   0.73158   0.45892   0.26259   0.67232
  26   36284.8    275.6   0.020818524   0.18889  -0.04044   0.41859   0.10971
  27   36667.1    272.7   0.205502712   1.84508   1.28494  -0.41896   0.13601
  28   37651.2    265.6   0.000407519   0.00356  -0.00971   0.03334  -0.04855
  29   37720.3    265.1   0.149838917   1.30775   1.04402  -0.45933   0.08243
  30   38149.1    262.1   0.035372524   0.30525   0.54160   0.02561  -0.10613
  31   38454.0    260.1   0.027763120   0.23769   0.24380  -0.42177  -0.01899
  32   38502.7    259.7   0.047909503   0.40964  -0.08234   0.62109   0.13081
  33   38927.6    256.9   0.264092573   2.23344  -0.60181  -0.92534   1.00748
  34   39158.4    255.4   0.290859904   2.44532   1.18048   0.76382  -0.68437
  35   39336.7    254.2   0.219295097   1.83530  -0.44740  -1.06447   0.70854
  36   39483.1    253.3   0.077546834   0.64659  -0.32600  -0.60547   0.41679
  37   40211.1    248.7   0.016026507   0.13121   0.16864   0.30404  -0.10164
  38   40296.8    248.2   0.033612643   0.27460  -0.27625  -0.39814   0.19945

FINAL SINGLE POINT ENERGY     -7328.946752000096

DIPOLE MOMENT
-------------
                                X             Y             Z
Electronic contribution:   -248.92704    -133.08255      92.83866
Nuclear contribution   :    247.85961     135.66137     -95.88282
                        -----------------------------------------
Total Dipole Moment    :     -1.06744       2.57882      -3.04416
                        -----------------------------------------
Magnitude (a.u.)       :      4.12996
Magnitude (Debye)      :     10.49754

Rotational constants in cm-1:     0.001201     0.000200     0.000185
Rotational constants in MHz :    36.002473     6.002205     5.536648

                             ****ORCA TERMINATED NORMALLY****
TOTAL RUN TIME: 0 days 0 hours 18 minutes 55 seconds 284 msec
