                         Program Version 4.2.0 -  RELEASE  -
|  1> # ORCA input file
|  2> # SCF done       -155.969200234678          0.000455723353
|  3> ! CAM-B3LYP def2-SVP def2/J RIJCOSX Grid4 TightSCF
|  4> %maxcore 5000
|  5> %tddft
|  6>     Mode sTDDFT
|  7>     Ethresh 5.0
|  8>     maxcore 5000
|  9> end
| 10>
| 11> %pal
| 12>   nprocs 6
| 13>   end
| 14> * xyz 0 1
| 15>    C        2.13519        -0.21855         0.74304
| 16>    C        2.04657        -0.38338         2.22453
| 17>    O        2.43023        -1.34171         2.85663
| 18>    C        1.45851         0.87562         2.71444
| 19>    C        1.06883         1.66110         1.62848
| 20>    C        1.33923         0.93875         0.38950
| 21>    C        0.73873         1.17339        -0.81838
| 22>    C        0.84347         0.30492        -1.92506
| 23>    N        0.86372        -0.38898        -2.83873
| 24>    C       -0.12347         2.25886        -1.07829
| 25>    N       -0.81855         3.13014        -1.35186
| 26>    C        0.50004         2.92550         1.82896
| 27>    C        0.33297         3.37534         3.11265
| 28>    C        0.71064         2.60374         4.23356
| 29>    C        1.29161         1.31605         4.04187
| 30>    C        1.67294         0.55242         5.16378
| 31>    C        1.48464         1.04479         6.42581
| 32>    C        0.91110         2.31160         6.62061
| 33>    C        0.53214         3.07442         5.55021
| 34>    C        2.95318        -1.03248         0.02895
| 35>    C        3.49586        -0.82054        -1.26462
| 36>    C        3.70500         0.37523        -1.92461
| 37>    C        4.33354         0.18861        -3.15328
| 38>    C        4.60372        -1.15642        -3.45523
| 39>    S        4.10222        -2.19297        -2.17488
| 40>    C        5.21607        -1.34064        -4.69560
| 41>    C        5.41841        -0.13567        -5.32882
| 42>    S        4.85610         1.24100        -4.41560
| 43>    C        6.02807         0.10043        -6.60186
| 44>    N        6.14775         1.38470        -6.98983
| 45>    C        6.72731         1.58713        -8.14118
| 46>    C        7.20314         0.50241        -8.90959
| 47>    N        7.01623        -0.74618        -8.45853
| 48>    N        6.43512        -0.94391        -7.32688
| 49>    C        7.87590         0.67007       -10.16370
| 50>    C        8.31315        -0.33093       -10.99937
| 51>    C        8.93405         0.18748       -12.13806
| 52>    C        8.98014         1.58877       -12.16852
| 53>    S        8.22916         2.27456       -10.77704
| 54>    C        9.63062         2.11324       -13.28194
| 55>    C       10.08395         1.11778       -14.12567
| 56>    S        9.67335        -0.48452       -13.53991
| 57>    C       10.75369         1.25289       -15.36999
| 58>    C       11.49781         2.29791       -15.81056
| 59>    C       11.75946         2.45482       -17.27257
| 60>    O       11.58917         1.60605       -18.11850
| 61>    C       12.20084         3.85107       -17.43494
| 62>    C       12.34447         4.44341       -16.17909
| 63>    C       12.06696         3.45230       -15.14475
| 64>    C       12.50781         3.50922       -13.84986
| 65>    C       12.44416         2.42377       -12.95110
| 66>    N       12.45591         1.56279       -12.19241
| 67>    C       13.15598         4.62537       -13.28093
| 68>    N       13.67194         5.50808       -12.75958
| 69>    C       12.72678         5.78594       -16.06139
| 70>    C       12.96532         6.50416       -17.20384
| 71>    C       12.84533         5.93140       -18.48914
| 72>    C       12.45012         4.56796       -18.62158
| 73>    C       12.32760         4.00253       -19.90705
| 74>    C       12.59016         4.75720       -21.01713
| 75>    C       12.98165         6.09991       -20.89252
| 76>    C       13.10597         6.67530       -19.65769
| 77>    H        0.21109         3.54007         0.99187
| 78>    H       -0.09858         4.35064         3.28551
| 79>    H        2.11291        -0.41891         5.00204
| 80>    H        1.77780         0.46006         7.28480
| 81>    H        0.77203         2.68057         7.62597
| 82>    H        0.09053         4.04940         5.69742
| 83>    H        3.29170        -1.92302         0.54937
| 84>    H        3.45494         1.33640        -1.51420
| 85>    H        5.50527        -2.28074        -5.12580
| 86>    H        6.82234         2.61180        -8.47848
| 87>    H        8.17872        -1.37153       -10.77187
| 88>    H        9.73304         3.16365       -13.48516
| 89>    H       10.60365         0.45130       -16.08633
| 90>    H       12.82000         6.25079       -15.09334
| 91>    H       13.25586         7.54227       -17.13187
| 92>    H       12.02576         2.97049       -19.99083
| 93>    H       12.49760         4.32330       -22.00142
| 94>    H       13.18416         6.67692       -21.78259
| 95>    H       13.40734         7.70808       -19.55893
| 96> *
| 97>
| 98>                          ****END OF INPUT****

CARTESIAN COORDINATES (ANGSTROEM)
---------------------------------
  C      2.135190   -0.218550    0.743040
  C      2.046570   -0.383380    2.224530
  O      2.430230   -1.341710    2.856630
  C      1.458510    0.875620    2.714440
  C      1.068830    1.661100    1.628480
  C      1.339230    0.938750    0.389500
  C      0.738730    1.173390   -0.818380
  C      0.843470    0.304920   -1.925060
  N      0.863720   -0.388980   -2.838730
  C     -0.123470    2.258860   -1.078290
  N     -0.818550    3.130140   -1.351860
  C      0.500040    2.925500    1.828960
  C      0.332970    3.375340    3.112650
  C      0.710640    2.603740    4.233560
  C      1.291610    1.316050    4.041870
  C      1.672940    0.552420    5.163780
  C      1.484640    1.044790    6.425810
  C      0.911100    2.311600    6.620610
  C      0.532140    3.074420    5.550210
  C      2.953180   -1.032480    0.028950
  C      3.495860   -0.820540   -1.264620
  C      3.705000    0.375230   -1.924610
  C      4.333540    0.188610   -3.153280
  C      4.603720   -1.156420   -3.455230
  S      4.102220   -2.192970   -2.174880
  C      5.216070   -1.340640   -4.695600
  C      5.418410   -0.135670   -5.328820
  S      4.856100    1.241000   -4.415600
  C      6.028070    0.100430   -6.601860
  N      6.147750    1.384700   -6.989830
  C      6.727310    1.587130   -8.141180
  C      7.203140    0.502410   -8.909590
  N      7.016230   -0.746180   -8.458530
  N      6.435120   -0.943910   -7.326880
  C      7.875900    0.670070  -10.163700
  C      8.313150   -0.330930  -10.999370
  C      8.934050    0.187480  -12.138060
  C      8.980140    1.588770  -12.168520
  S      8.229160    2.274560  -10.777040
  C      9.630620    2.113240  -13.281940
  C     10.083950    1.117780  -14.125670
  S      9.673350   -0.484520  -13.539910
  C     10.753690    1.252890  -15.369990
  C     11.497810    2.297910  -15.810560
  C     11.759460    2.454820  -17.272570
  O     11.589170    1.606050  -18.118500
  C     12.200840    3.851070  -17.434940
  C     12.344470    4.443410  -16.179090
  C     12.066960    3.452300  -15.144750
  C     12.507810    3.509220  -13.849860
  C     12.444160    2.423770  -12.951100
  N     12.455910    1.562790  -12.192410
  C     13.155980    4.625370  -13.280930
  N     13.671940    5.508080  -12.759580
  C     12.726780    5.785940  -16.061390
  C     12.965320    6.504160  -17.203840
  C     12.845330    5.931400  -18.489140
  C     12.450120    4.567960  -18.621580
  C     12.327600    4.002530  -19.907050
  C     12.590160    4.757200  -21.017130
  C     12.981650    6.099910  -20.892520
  C     13.105970    6.675300  -19.657690
  H      0.211090    3.540070    0.991870
  H     -0.098580    4.350640    3.285510
  H      2.112910   -0.418910    5.002040
  H      1.777800    0.460060    7.284800
  H      0.772030    2.680570    7.625970
  H      0.090530    4.049400    5.697420
  H      3.291700   -1.923020    0.549370
  H      3.454940    1.336400   -1.514200
  H      5.505270   -2.280740   -5.125800
  H      6.822340    2.611800   -8.478480
  H      8.178720   -1.371530  -10.771870
  H      9.733040    3.163650  -13.485160
  H     10.603650    0.451300  -16.086330
  H     12.820000    6.250790  -15.093340
  H     13.255860    7.542270  -17.131870
  H     12.025760    2.970490  -19.990830
  H     12.497600    4.323300  -22.001420
  H     13.184160    6.676920  -21.782590
  H     13.407340    7.708080  -19.558930

 Total Charge           Charge          ....    0
 Multiplicity           Mult            ....    1
 Number of Electrons    NEL             ....  442
 Basis Dimension        Dim             ....  979

ORBITAL ENERGIES
----------------

  NO   OCC          E(Eh)            E(eV)
   0   2.0000     -88.974047     -2421.1069
   1   2.0000     -88.971968     -2421.0503
   2   2.0000     -88.966317     -2420.8966
   3   2.0000     -88.964119     -2420.8367
   4   2.0000     -19.221171      -523.0347
   5   2.0000     -19.218140      -522.9522
   6   2.0000     -14.464624      -393.6024
   7   2.0000     -14.455280      -393.3482
   8   2.0000     -14.443139      -393.0178
   9   2.0000     -14.418807      -392.3557
  10   2.0000     -14.416885      -392.3034
  11   2.0000     -14.415791      -392.2736
  12   2.0000     -14.413535      -392.2122
  13   2.0000     -10.371940      -282.2348
  14   2.0000     -10.368937      -282.1531
  15   2.0000     -10.361696      -281.9561
  16   2.0000     -10.348473      -281.5963
  17   2.0000     -10.345873      -281.5255
  18   2.0000     -10.345528      -281.5161
  19   2.0000     -10.345142      -281.5056
  20   2.0000     -10.342398      -281.4310
  21   2.0000     -10.340308      -281.3741
  22   2.0000     -10.323041      -280.9042
  23   2.0000     -10.322545      -280.8907
  24   2.0000     -10.322518      -280.8900
  25   2.0000     -10.321338      -280.8579
  26   2.0000     -10.319335      -280.8034
  27   2.0000     -10.318386      -280.7775
  28   2.0000     -10.318154      -280.7712
  29   2.0000     -10.318071      -280.7690
  30   2.0000     -10.316358      -280.7224
  31   2.0000     -10.315217      -280.6913
  32   2.0000     -10.314620      -280.6751
  33   2.0000     -10.312853      -280.6270
  34   2.0000     -10.312551      -280.6188
  35   2.0000     -10.310544      -280.5642
  36   2.0000     -10.309937      -280.5477
  37   2.0000     -10.307512      -280.4817
  38   2.0000     -10.304560      -280.4013
  39   2.0000     -10.301852      -280.3276
  40   2.0000     -10.299752      -280.2705
  41   2.0000     -10.299437      -280.2619
  42   2.0000     -10.298995      -280.2499
  43   2.0000     -10.298851      -280.2460
  44   2.0000     -10.298216      -280.2287
  45   2.0000     -10.297914      -280.2205
  46   2.0000     -10.297198      -280.2010
  47   2.0000     -10.296891      -280.1926
  48   2.0000     -10.296346      -280.1778
  49   2.0000     -10.295990      -280.1681
  50   2.0000     -10.295708      -280.1604
  51   2.0000     -10.294703      -280.1331
  52   2.0000     -10.293352      -280.0964
  53   2.0000     -10.292026      -280.0603
  54   2.0000     -10.286488      -279.9096
  55   2.0000     -10.285953      -279.8950
  56   2.0000     -10.284251      -279.8487
  57   2.0000     -10.284066      -279.8437
  58   2.0000     -10.283738      -279.8347
  59   2.0000     -10.281720      -279.7798
  60   2.0000     -10.280244      -279.7397
  61   2.0000     -10.277870      -279.6751
  62   2.0000      -8.069333      -219.5777
  63   2.0000      -8.067304      -219.5225
  64   2.0000      -8.061831      -219.3736
  65   2.0000      -8.059117      -219.2997
  66   2.0000      -6.038846      -164.3254
  67   2.0000      -6.036761      -164.2686
  68   2.0000      -6.034882      -164.2175
  69   2.0000      -6.032763      -164.1598
  70   2.0000      -6.031266      -164.1191
  71   2.0000      -6.030858      -164.1080
  72   2.0000      -6.028941      -164.0558
  73   2.0000      -6.028570      -164.0457
  74   2.0000      -6.027321      -164.0118
  75   2.0000      -6.024583      -163.9372
  76   2.0000      -6.023414      -163.9054
  77   2.0000      -6.020722      -163.8322
  78   2.0000      -1.155004       -31.4293
  79   2.0000      -1.136406       -30.9232
  80   2.0000      -1.133423       -30.8420
  81   2.0000      -1.043341       -28.3908
  82   2.0000      -1.026190       -27.9241
  83   2.0000      -1.020911       -27.7804
  84   2.0000      -1.020096       -27.7582
  85   2.0000      -1.014242       -27.5989
  86   2.0000      -1.002249       -27.2726
  87   2.0000      -0.999274       -27.1916
  88   2.0000      -0.996128       -27.1060
  89   2.0000      -0.992832       -27.0163
  90   2.0000      -0.977947       -26.6113
  91   2.0000      -0.971524       -26.4365
  92   2.0000      -0.969230       -26.3741
  93   2.0000      -0.958353       -26.0781
  94   2.0000      -0.935973       -25.4691
  95   2.0000      -0.924567       -25.1587
  96   2.0000      -0.921706       -25.0809
  97   2.0000      -0.906824       -24.6759
  98   2.0000      -0.903599       -24.5882
  99   2.0000      -0.890176       -24.2229
 100   2.0000      -0.886151       -24.1134
 101   2.0000      -0.873850       -23.7787
 102   2.0000      -0.868180       -23.6244
 103   2.0000      -0.861470       -23.4418
 104   2.0000      -0.857298       -23.3283
 105   2.0000      -0.845800       -23.0154
 106   2.0000      -0.841107       -22.8877
 107   2.0000      -0.831521       -22.6268
 108   2.0000      -0.822474       -22.3807
 109   2.0000      -0.812244       -22.1023
 110   2.0000      -0.802988       -21.8504
 111   2.0000      -0.791784       -21.5455
 112   2.0000      -0.785964       -21.3872
 113   2.0000      -0.776961       -21.1422
 114   2.0000      -0.773278       -21.0420
 115   2.0000      -0.759828       -20.6760
 116   2.0000      -0.747336       -20.3360
 117   2.0000      -0.717076       -19.5126
 118   2.0000      -0.715007       -19.4563
 119   2.0000      -0.714100       -19.4316
 120   2.0000      -0.711477       -19.3603
 121   2.0000      -0.703536       -19.1442
 122   2.0000      -0.699582       -19.0366
 123   2.0000      -0.680384       -18.5142
 124   2.0000      -0.677438       -18.4340
 125   2.0000      -0.674633       -18.3577
 126   2.0000      -0.669067       -18.2062
 127   2.0000      -0.662565       -18.0293
 128   2.0000      -0.659096       -17.9349
 129   2.0000      -0.655311       -17.8319
 130   2.0000      -0.638217       -17.3668
 131   2.0000      -0.633009       -17.2250
 132   2.0000      -0.630589       -17.1592
 133   2.0000      -0.627401       -17.0724
 134   2.0000      -0.616754       -16.7827
 135   2.0000      -0.610260       -16.6060
 136   2.0000      -0.597071       -16.2471
 137   2.0000      -0.593665       -16.1545
 138   2.0000      -0.592078       -16.1113
 139   2.0000      -0.591452       -16.0942
 140   2.0000      -0.588828       -16.0228
 141   2.0000      -0.584660       -15.9094
 142   2.0000      -0.579755       -15.7759
 143   2.0000      -0.577014       -15.7014
 144   2.0000      -0.567801       -15.4507
 145   2.0000      -0.566110       -15.4046
 146   2.0000      -0.563484       -15.3332
 147   2.0000      -0.549510       -14.9529
 148   2.0000      -0.544642       -14.8205
 149   2.0000      -0.540782       -14.7154
 150   2.0000      -0.538417       -14.6511
 151   2.0000      -0.535870       -14.5818
 152   2.0000      -0.530778       -14.4432
 153   2.0000      -0.527903       -14.3650
 154   2.0000      -0.526288       -14.3210
 155   2.0000      -0.521876       -14.2010
 156   2.0000      -0.521621       -14.1940
 157   2.0000      -0.516107       -14.0440
 158   2.0000      -0.514142       -13.9905
 159   2.0000      -0.512533       -13.9467
 160   2.0000      -0.509160       -13.8549
 161   2.0000      -0.506485       -13.7822
 162   2.0000      -0.503969       -13.7137
 163   2.0000      -0.501181       -13.6378
 164   2.0000      -0.499680       -13.5970
 165   2.0000      -0.496944       -13.5225
 166   2.0000      -0.496042       -13.4980
 167   2.0000      -0.487682       -13.2705
 168   2.0000      -0.484100       -13.1730
 169   2.0000      -0.481161       -13.0931
 170   2.0000      -0.480660       -13.0794
 171   2.0000      -0.477120       -12.9831
 172   2.0000      -0.476040       -12.9537
 173   2.0000      -0.472222       -12.8498
 174   2.0000      -0.470529       -12.8038
 175   2.0000      -0.466698       -12.6995
 176   2.0000      -0.462932       -12.5970
 177   2.0000      -0.454269       -12.3613
 178   2.0000      -0.452345       -12.3089
 179   2.0000      -0.449827       -12.2404
 180   2.0000      -0.447812       -12.1856
 181   2.0000      -0.445570       -12.1246
 182   2.0000      -0.443795       -12.0763
 183   2.0000      -0.441414       -12.0115
 184   2.0000      -0.440553       -11.9881
 185   2.0000      -0.438910       -11.9434
 186   2.0000      -0.436573       -11.8798
 187   2.0000      -0.434929       -11.8350
 188   2.0000      -0.433088       -11.7849
 189   2.0000      -0.432785       -11.7767
 190   2.0000      -0.430676       -11.7193
 191   2.0000      -0.430111       -11.7039
 192   2.0000      -0.429248       -11.6804
 193   2.0000      -0.426420       -11.6035
 194   2.0000      -0.424741       -11.5578
 195   2.0000      -0.422913       -11.5081
 196   2.0000      -0.420172       -11.4335
 197   2.0000      -0.419208       -11.4072
 198   2.0000      -0.414997       -11.2926
 199   2.0000      -0.407634       -11.0923
 200   2.0000      -0.402819       -10.9613
 201   2.0000      -0.397038       -10.8040
 202   2.0000      -0.395447       -10.7606
 203   2.0000      -0.386763       -10.5244
 204   2.0000      -0.377720       -10.2783
 205   2.0000      -0.374073       -10.1790
 206   2.0000      -0.367876       -10.0104
 207   2.0000      -0.363293        -9.8857
 208   2.0000      -0.353679        -9.6241
 209   2.0000      -0.341573        -9.2947
 210   2.0000      -0.336774        -9.1641
 211   2.0000      -0.332786        -9.0556
 212   2.0000      -0.319765        -8.7012
 213   2.0000      -0.315998        -8.5987
 214   2.0000      -0.308879        -8.4050
 215   2.0000      -0.307474        -8.3668
 216   2.0000      -0.300353        -8.1730
 217   2.0000      -0.297110        -8.0848
 218   2.0000      -0.294565        -8.0155
 219   2.0000      -0.282705        -7.6928
 220   2.0000      -0.260325        -7.0838
 221   0.0000      -0.096925        -2.6375
 222   0.0000      -0.087404        -2.3784
 223   0.0000      -0.076142        -2.0719
 224   0.0000      -0.069959        -1.9037
 225   0.0000      -0.046289        -1.2596

MULLIKEN ATOMIC CHARGES
-----------------------
   0 C :   -0.120801
   1 C :    0.115454
   2 O :   -0.148365
   3 C :    0.013441
   4 C :   -0.010573
   5 C :    0.255834
   6 C :   -0.337588
   7 C :   -0.201377
   8 N :    0.181428
   9 C :   -0.177672
  10 N :    0.158519
  11 C :   -0.021956
  12 C :    0.008075
  13 C :    0.076137
  14 C :    0.034037
  15 C :   -0.022909
  16 C :    0.037618
  17 C :    0.036933
  18 C :   -0.017332
  19 C :    0.084961
  20 C :   -0.131315
  21 C :    0.017002
  22 C :   -0.030415
  23 C :    0.008954
  24 S :    0.168734
  25 C :   -0.042651
  26 C :   -0.048117
  27 S :    0.193662
  28 C :   -0.050411
  29 N :   -0.032416
  30 C :    0.007073
  31 C :    0.017420
  32 N :   -0.044373
  33 N :   -0.038772
  34 C :   -0.047181
  35 C :   -0.042401
  36 C :    0.018052
  37 C :   -0.025738
  38 S :    0.137056
  39 C :    0.020112
  40 C :   -0.134727
  41 S :    0.176351
  42 C :    0.083811
  43 C :   -0.118271
  44 C :    0.117512
  45 O :   -0.147091
  46 C :    0.011469
  47 C :   -0.007277
  48 C :    0.251114
  49 C :   -0.339054
  50 C :   -0.201660
  51 N :    0.182455
  52 C :   -0.179959
  53 N :    0.162749
  54 C :   -0.024467
  55 C :    0.008668
  56 C :    0.076981
  57 C :    0.033732
  58 C :   -0.023048
  59 C :    0.037742
  60 C :    0.038275
  61 C :   -0.017853
  62 H :    0.000683
  63 H :   -0.013570
  64 H :    0.000129
  65 H :   -0.006226
  66 H :   -0.006256
  67 H :   -0.021284
  68 H :    0.024820
  69 H :    0.002798
  70 H :    0.008626
  71 H :    0.026461
  72 H :    0.010973
  73 H :    0.003458
  74 H :    0.025816
  75 H :    0.000777
  76 H :   -0.011535
  77 H :    0.000691
  78 H :   -0.005805
  79 H :   -0.005506
  80 H :   -0.020642
Sum of atomic charges:   -0.0000000

LOEWDIN ATOMIC CHARGES
----------------------
   0 C :   -0.085698
   1 C :    0.087220
   2 O :   -0.140750
   3 C :   -0.033083
   4 C :   -0.004973
   5 C :    0.064885
   6 C :   -0.135252
   7 C :   -0.020381
   8 N :   -0.036835
   9 C :   -0.021706
  10 N :   -0.048855
  11 C :   -0.018028
  12 C :    0.019368
  13 C :   -0.009385
  14 C :   -0.002875
  15 C :   -0.001837
  16 C :   -0.011825
  17 C :   -0.012254
  18 C :   -0.012199
  19 C :    0.044675
  20 C :   -0.173530
  21 C :   -0.032091
  22 C :   -0.193470
  23 C :   -0.186800
  24 S :    0.447270
  25 C :   -0.031776
  26 C :   -0.176445
  27 S :    0.461236
  28 C :   -0.012139
  29 N :   -0.060369
  30 C :    0.035658
  31 C :   -0.051892
  32 N :   -0.014724
  33 N :   -0.047905
  34 C :   -0.167235
  35 C :   -0.032471
  36 C :   -0.184229
  37 C :   -0.192365
  38 S :    0.428705
  39 C :   -0.033379
  40 C :   -0.174039
  41 S :    0.453731
  42 C :    0.044143
  43 C :   -0.084226
  44 C :    0.087048
  45 O :   -0.139685
  46 C :   -0.032970
  47 C :   -0.004996
  48 C :    0.065002
  49 C :   -0.135034
  50 C :   -0.020273
  51 N :   -0.037681
  52 C :   -0.022051
  53 N :   -0.047817
  54 C :   -0.018334
  55 C :    0.020120
  56 C :   -0.009184
  57 C :   -0.002887
  58 C :   -0.001672
  59 C :   -0.011205
  60 C :   -0.011588
  61 C :   -0.011917
  62 H :    0.039531
  63 H :    0.035571
  64 H :    0.035574
  65 H :    0.032854
  66 H :    0.032107
  67 H :    0.030407
  68 H :    0.046707
  69 H :    0.036056
  70 H :    0.042960
  71 H :    0.026478
  72 H :    0.043729
  73 H :    0.036554
  74 H :    0.047126
  75 H :    0.039529
  76 H :    0.036110
  77 H :    0.035769
  78 H :    0.033059
  79 H :    0.032496
  80 H :    0.030636

  Mayer bond orders larger than 0.100000
B(  0-C ,  1-C ) :   0.9528 B(  0-C ,  5-C ) :   1.0236 B(  0-C , 19-C ) :   1.7020
B(  1-C ,  2-O ) :   2.1990 B(  1-C ,  3-C ) :   0.9384 B(  3-C ,  4-C ) :   1.4151
B(  3-C , 14-C ) :   1.2345 B(  4-C ,  5-C ) :   1.0022 B(  4-C , 11-C ) :   1.2588
B(  5-C ,  6-C ) :   1.6596 B(  6-C ,  7-C ) :   1.1592 B(  6-C ,  9-C ) :   1.1257
B(  7-C ,  8-N ) :   3.0171 B(  9-C , 10-N ) :   2.9965 B( 11-C , 12-C ) :   1.4688
B( 11-C , 62-H ) :   0.9868 B( 12-C , 13-C ) :   1.2265 B( 12-C , 63-H ) :   0.9929
B( 13-C , 14-C ) :   1.2393 B( 13-C , 18-C ) :   1.2395 B( 14-C , 15-C ) :   1.2776
B( 15-C , 16-C ) :   1.4752 B( 15-C , 64-H ) :   0.9856 B( 16-C , 17-C ) :   1.2546
B( 16-C , 65-H ) :   0.9878 B( 17-C , 18-C ) :   1.4955 B( 17-C , 66-H ) :   0.9894
B( 18-C , 67-H ) :   0.9971 B( 19-C , 20-C ) :   1.1106 B( 19-C , 68-H ) :   0.9305
B( 20-C , 21-C ) :   1.4771 B( 20-C , 24-S ) :   1.0963 B( 21-C , 22-C ) :   1.3068
B( 21-C , 69-H ) :   0.9920 B( 22-C , 23-C ) :   1.4009 B( 22-C , 27-S ) :   1.0650
B( 23-C , 24-S ) :   1.0839 B( 23-C , 25-C ) :   1.2278 B( 25-C , 26-C ) :   1.5358
B( 25-C , 70-H ) :   1.0117 B( 26-C , 27-S ) :   1.1108 B( 26-C , 28-C ) :   1.0556
B( 28-C , 29-N ) :   1.5153 B( 28-C , 33-N ) :   1.5950 B( 29-N , 30-C ) :   1.6308
B( 30-C , 31-C ) :   1.2468 B( 30-C , 71-H ) :   0.9712 B( 31-C , 32-N ) :   1.5562
B( 31-C , 34-C ) :   1.0884 B( 32-N , 33-N ) :   1.3493 B( 34-C , 35-C ) :   1.5372
B( 34-C , 38-S ) :   1.1063 B( 35-C , 36-C ) :   1.2117 B( 35-C , 72-H ) :   1.0153
B( 36-C , 37-C ) :   1.4060 B( 36-C , 41-S ) :   1.0873 B( 37-C , 38-S ) :   1.0691
B( 37-C , 39-C ) :   1.3043 B( 39-C , 40-C ) :   1.4778 B( 39-C , 73-H ) :   0.9936
B( 40-C , 41-S ) :   1.0991 B( 40-C , 42-C ) :   1.1045 B( 42-C , 43-C ) :   1.7097
B( 42-C , 74-H ) :   0.9304 B( 43-C , 44-C ) :   0.9524 B( 43-C , 48-C ) :   1.0221
B( 44-C , 45-O ) :   2.2009 B( 44-C , 46-C ) :   0.9371 B( 46-C , 47-C ) :   1.4154
B( 46-C , 57-C ) :   1.2361 B( 47-C , 48-C ) :   1.0039 B( 47-C , 54-C ) :   1.2567
B( 48-C , 49-C ) :   1.6584 B( 49-C , 50-C ) :   1.1610 B( 49-C , 52-C ) :   1.1282
B( 50-C , 51-N ) :   3.0164 B( 52-C , 53-N ) :   2.9982 B( 54-C , 55-C ) :   1.4689
B( 54-C , 75-H ) :   0.9878 B( 55-C , 56-C ) :   1.2246 B( 55-C , 76-H ) :   0.9933
B( 56-C , 57-C ) :   1.2388 B( 56-C , 61-C ) :   1.2416 B( 57-C , 58-C ) :   1.2766
B( 58-C , 59-C ) :   1.4749 B( 58-C , 77-H ) :   0.9862 B( 59-C , 60-C ) :   1.2539
B( 59-C , 78-H ) :   0.9881 B( 60-C , 61-C ) :   1.4954 B( 60-C , 79-H ) :   0.9896
B( 61-C , 80-H ) :   0.9968

-----------------------------------------------------------------------------
         ABSORPTION SPECTRUM VIA TRANSITION ELECTRIC DIPOLE MOMENTS
-----------------------------------------------------------------------------
State   Energy  Wavelength   fosc         T2         TX        TY        TZ
        (cm-1)    (nm)                  (au**2)     (au)      (au)      (au)
-----------------------------------------------------------------------------
   0   19680.2    508.1   1.901168686  31.80284  -3.26169  -0.76971   4.53561
   1   21494.4    465.2   0.088109449   1.34950   0.09961  -1.09369  -0.37870
   2   24550.7    407.3   0.669466950   8.97720   1.20422   0.38760  -2.71603
   3   24575.5    406.9   0.069873345   0.93602   0.59125   0.12120  -0.75615
   4   26324.7    379.9   0.043930497   0.54939  -0.04503  -0.70354  -0.22889
   5   27367.9    365.4   0.009976232   0.12001   0.31427  -0.00088   0.14574
   6   27568.4    362.7   0.447119581   5.33933   0.07356   0.37031  -2.27965
   7   27717.5    360.8   0.069597474   0.82664   0.18124   0.44048   0.77445
   8   27880.8    358.7   0.080718169   0.95311  -0.21078   0.94174  -0.14763
   9   28599.2    349.7   0.048070197   0.55335  -0.01445  -0.72255  -0.17623
  10   28916.3    345.8   0.008755887   0.09969   0.22829   0.20590  -0.07193
  11   30119.4    332.0   0.037298530   0.40768   0.22689   0.04878   0.59483
  12   30244.3    330.6   0.052495230   0.57141  -0.13540  -0.60647  -0.43044
  13   30419.4    328.7   0.167471920   1.81245  -0.40739   0.68325  -1.08612
  14   30559.0    327.2   0.028723886   0.30944   0.04974   0.48597  -0.26608
  15   30631.6    326.5   0.037778006   0.40602   0.04132  -0.54695  -0.32428
  16   31692.3    315.5   0.131006398   1.36086  -0.25474  -0.31468  -1.09405
  17   32112.0    311.4   0.151962602   1.55792   0.08432  -0.42275  -1.17136
  18   32287.7    309.7   0.156578496   1.59651  -0.16141   0.56116  -1.12051
  19   32714.5    305.7   0.282078182   2.83860  -0.27320  -0.75026   1.48360
  20   32855.0    304.4   0.075850652   0.76004   0.52028  -0.64363  -0.27402
  21   32890.4    304.0   0.389388115   3.89752   0.11189   0.13909   1.96613
  22   33142.6    301.7   0.070583970   0.70112  -0.53207  -0.59052  -0.26327
  23   34196.6    292.4   0.086496984   0.83271   0.19529  -0.75562   0.47287
  24   34459.0    290.2   0.045326242   0.43303  -0.29696  -0.02259   0.58681
  25   34815.8    287.2   0.065629132   0.62058  -0.01480   0.00370  -0.78762
  26   34834.6    287.1   0.376401369   3.55726  -0.01413   0.03040  -1.88577
  27   35424.1    282.3   0.022401038   0.20818  -0.09648   0.38174  -0.23055
  28   35687.3    280.2   0.008651947   0.07981   0.06190  -0.12820   0.24402
  29   36886.8    271.1   0.076314392   0.68110   0.12092   0.14634  -0.80316
  30   36931.5    270.8   0.038461330   0.34285  -0.21524  -0.00950   0.54445
  31   37585.2    266.1   0.023538792   0.20618   0.11207  -0.11013  -0.42601
  32   37703.5    265.2   0.065480532   0.57175  -0.12613  -0.39753  -0.63072
  33   38023.4    263.0   0.002827352   0.02448  -0.13951  -0.07082  -0.00032
  34   38129.9    262.3   0.022752002   0.19644   0.37792   0.04795   0.22654
  35   38308.5    261.0   0.111534710   0.95850   0.14354  -0.29404   0.92273
  36   38546.1    259.4   0.039863195   0.34046  -0.09402  -0.44238   0.36867
  37   39340.1    254.2   0.025352104   0.21216   0.13651  -0.31518  -0.30689
  38   39965.0    250.2   0.123908676   1.02070   0.13439  -0.99972  -0.05656

FINAL SINGLE POINT ENERGY     -4001.487959892643

DIPOLE MOMENT
-------------
                                X             Y             Z
Electronic contribution:     -1.18776     -17.95328      -2.01149
Nuclear contribution   :      1.52709      19.80736       1.58726
                        -----------------------------------------
Total Dipole Moment    :      0.33933       1.85408      -0.42423
                        -----------------------------------------
Magnitude (a.u.)       :      1.93203
Magnitude (Debye)      :      4.91082

Rotational constants in cm-1:     0.003853     0.000230     0.000225
Rotational constants in MHz :   115.500341     6.889083     6.735719

                             ****ORCA TERMINATED NORMALLY****
TOTAL RUN TIME: 0 days 0 hours 6 minutes 47 seconds 97 msec
