                         Program Version 4.2.0 -  RELEASE  -
|  1> # ORCA input file
|  2> # SCF done       -182.704335300706          0.001540119052
|  3> ! CAM-B3LYP def2-SVP def2/J RIJCOSX Grid4 TightSCF
|  4> %maxcore 5000
|  5> %tddft
|  6>     Mode sTDDFT
|  7>     Ethresh 5.0
|  8>     maxcore 5000
|  9> end
| 10>
| 11> %pal
| 12>   nprocs 6
| 13>   end
| 14> * xyz 0 1
| 15>    C        4.16637        -6.37861        -9.39873
| 16>    C        2.83610        -5.88489        -9.83370
| 17>    O        2.39619        -4.76766        -9.65691
| 18>    C        2.21312        -7.01716       -10.54618
| 19>    C        3.05044        -8.12928       -10.46332
| 20>    C        4.21334        -7.79478        -9.63766
| 21>    C        5.04412        -8.71127        -9.03647
| 22>    C        5.95251        -8.40221        -8.00435
| 23>    N        6.67475        -8.22209        -7.12915
| 24>    C        5.01623       -10.09618        -9.29244
| 25>    N        5.06077       -11.22939        -9.47534
| 26>    C        2.69923        -9.33108       -11.08977
| 27>    C        1.50940        -9.39844       -11.76866
| 28>    C        0.62971        -8.29795       -11.85157
| 29>    C        0.98554        -7.06384       -11.23317
| 30>    C        0.11010        -5.96236       -11.32732
| 31>    C       -1.07455        -6.08208       -11.99952
| 32>    C       -1.43434        -7.29834       -12.60331
| 33>    C       -0.60180        -8.38108       -12.53357
| 34>    C        5.11278        -5.47708        -8.97008
| 35>    C        6.48865        -5.66353        -8.86677
| 36>    C        7.35445        -4.72544        -8.33880
| 37>    C        8.75336        -4.86340        -8.20209
| 38>    C        9.36067        -3.79907        -7.60023
| 39>    C        8.46920        -2.76903        -7.23847
| 40>    S        6.83458        -3.18897        -7.68636
| 41>    C        8.77104        -1.57947        -6.58698
| 42>    C       10.02581        -1.16678        -6.09534
| 43>    C        9.98640         0.03035        -5.44218
| 44>    C        8.70580         0.63056        -5.40458
| 45>    S        7.55158        -0.38532        -6.23565
| 46>    C        8.43497         1.80601        -4.72850
| 47>    C        7.26128         2.55128        -4.63406
| 48>    C        6.05407         2.54001        -5.35037
| 49>    F        5.81723         1.72882        -6.38719
| 50>    C        5.14550         3.49433        -4.93747
| 51>    F        3.94106         3.66411        -5.49559
| 52>    C        5.57304         4.29634        -3.86748
| 53>    S        7.18811         3.81677        -3.42020
| 54>    C        4.83096         5.30876        -3.26903
| 55>    C        5.18951         6.06868        -2.17351
| 56>    C        4.41854         7.09958        -1.59479
| 57>    C        4.98881         7.67179        -0.49316
| 58>    C        6.23347         7.11188        -0.14625
| 59>    S        6.67403         5.85232        -1.27488
| 60>    C        7.04218         7.43242         0.93664
| 61>    C        6.82377         8.42258         1.91449
| 62>    C        7.79083         8.46407         2.87812
| 63>    C        8.81364         7.50558         2.70921
| 64>    S        8.52227         6.56490         1.26439
| 65>    C        9.89567         7.30511         3.54507
| 66>    C       10.84814         6.31021         3.34661
| 67>    C       11.95462         6.02265         4.11242
| 68>    C       12.58466         4.68470         3.98867
| 69>    O       12.37698         3.87647         3.10648
| 70>    C       13.45498         4.55141         5.17277
| 71>    C       13.43997         5.74721         5.88989
| 72>    C       12.61580         6.72681         5.17662
| 73>    C       12.65085         8.08561         5.38273
| 74>    C       12.07682         9.04132         4.52054
| 75>    N       11.67249         9.87444         3.84046
| 76>    C       13.35909         8.71291         6.42722
| 77>    N       13.89680         9.28340         7.26713
| 78>    C       14.15828         5.86741         7.08569
| 79>    C       14.87875         4.79006         7.53421
| 80>    C       14.92421         3.57045         6.82539
| 81>    C       14.19503         3.43587         5.60799
| 82>    C       14.23977         2.21486         4.90383
| 83>    C       14.97731         1.16963         5.38681
| 84>    C       15.69691         1.29650         6.58630
| 85>    C       15.67199         2.46898         7.29005
| 86>    H        3.35126       -10.18823       -11.04978
| 87>    H        1.22494       -10.31896       -12.25816
| 88>    H        0.39732        -5.03421       -10.85880
| 89>    H       -1.74500        -5.23859       -12.07097
| 90>    H       -2.37701        -7.37131       -13.12607
| 91>    H       -0.87603        -9.31783       -12.99773
| 92>    H        4.72906        -4.48217        -8.76175
| 93>    H        6.93513        -6.57869        -9.22774
| 94>    H        9.26445        -5.74751        -8.53858
| 95>    H       10.41731        -3.73312        -7.41360
| 96>    H       10.91444        -1.75855        -6.21800
| 97>    H       10.83906         0.50226        -4.98705
| 98>    H        9.25991         2.19865        -4.14581
| 99>    H        3.86135         5.50551        -3.70875
|100>    H        3.46681         7.38665        -2.00510
|101>    H        4.53951         8.46555         0.07537
|102>    H        5.96922         9.07419         1.88763
|103>    H        7.80191         9.15442         3.70231
|104>    H        9.95647         7.94590         4.41219
|105>    H       10.66320         5.60345         2.54205
|106>    H       14.13949         6.78265         7.65431
|107>    H       15.43270         4.86554         8.45899
|108>    H       13.68143         2.12930         3.98492
|109>    H       15.01128         0.23469         4.84722
|110>    H       16.27188         0.45742         6.94971
|111>    H       16.22545         2.56960         8.21275
|112> *
|113>
|114>                          ****END OF INPUT****

CARTESIAN COORDINATES (ANGSTROEM)
---------------------------------
  C      4.166370   -6.378610   -9.398730
  C      2.836100   -5.884890   -9.833700
  O      2.396190   -4.767660   -9.656910
  C      2.213120   -7.017160  -10.546180
  C      3.050440   -8.129280  -10.463320
  C      4.213340   -7.794780   -9.637660
  C      5.044120   -8.711270   -9.036470
  C      5.952510   -8.402210   -8.004350
  N      6.674750   -8.222090   -7.129150
  C      5.016230  -10.096180   -9.292440
  N      5.060770  -11.229390   -9.475340
  C      2.699230   -9.331080  -11.089770
  C      1.509400   -9.398440  -11.768660
  C      0.629710   -8.297950  -11.851570
  C      0.985540   -7.063840  -11.233170
  C      0.110100   -5.962360  -11.327320
  C     -1.074550   -6.082080  -11.999520
  C     -1.434340   -7.298340  -12.603310
  C     -0.601800   -8.381080  -12.533570
  C      5.112780   -5.477080   -8.970080
  C      6.488650   -5.663530   -8.866770
  C      7.354450   -4.725440   -8.338800
  C      8.753360   -4.863400   -8.202090
  C      9.360670   -3.799070   -7.600230
  C      8.469200   -2.769030   -7.238470
  S      6.834580   -3.188970   -7.686360
  C      8.771040   -1.579470   -6.586980
  C     10.025810   -1.166780   -6.095340
  C      9.986400    0.030350   -5.442180
  C      8.705800    0.630560   -5.404580
  S      7.551580   -0.385320   -6.235650
  C      8.434970    1.806010   -4.728500
  C      7.261280    2.551280   -4.634060
  C      6.054070    2.540010   -5.350370
  F      5.817230    1.728820   -6.387190
  C      5.145500    3.494330   -4.937470
  F      3.941060    3.664110   -5.495590
  C      5.573040    4.296340   -3.867480
  S      7.188110    3.816770   -3.420200
  C      4.830960    5.308760   -3.269030
  C      5.189510    6.068680   -2.173510
  C      4.418540    7.099580   -1.594790
  C      4.988810    7.671790   -0.493160
  C      6.233470    7.111880   -0.146250
  S      6.674030    5.852320   -1.274880
  C      7.042180    7.432420    0.936640
  C      6.823770    8.422580    1.914490
  C      7.790830    8.464070    2.878120
  C      8.813640    7.505580    2.709210
  S      8.522270    6.564900    1.264390
  C      9.895670    7.305110    3.545070
  C     10.848140    6.310210    3.346610
  C     11.954620    6.022650    4.112420
  C     12.584660    4.684700    3.988670
  O     12.376980    3.876470    3.106480
  C     13.454980    4.551410    5.172770
  C     13.439970    5.747210    5.889890
  C     12.615800    6.726810    5.176620
  C     12.650850    8.085610    5.382730
  C     12.076820    9.041320    4.520540
  N     11.672490    9.874440    3.840460
  C     13.359090    8.712910    6.427220
  N     13.896800    9.283400    7.267130
  C     14.158280    5.867410    7.085690
  C     14.878750    4.790060    7.534210
  C     14.924210    3.570450    6.825390
  C     14.195030    3.435870    5.607990
  C     14.239770    2.214860    4.903830
  C     14.977310    1.169630    5.386810
  C     15.696910    1.296500    6.586300
  C     15.671990    2.468980    7.290050
  H      3.351260  -10.188230  -11.049780
  H      1.224940  -10.318960  -12.258160
  H      0.397320   -5.034210  -10.858800
  H     -1.745000   -5.238590  -12.070970
  H     -2.377010   -7.371310  -13.126070
  H     -0.876030   -9.317830  -12.997730
  H      4.729060   -4.482170   -8.761750
  H      6.935130   -6.578690   -9.227740
  H      9.264450   -5.747510   -8.538580
  H     10.417310   -3.733120   -7.413600
  H     10.914440   -1.758550   -6.218000
  H     10.839060    0.502260   -4.987050
  H      9.259910    2.198650   -4.145810
  H      3.861350    5.505510   -3.708750
  H      3.466810    7.386650   -2.005100
  H      4.539510    8.465550    0.075370
  H      5.969220    9.074190    1.887630
  H      7.801910    9.154420    3.702310
  H      9.956470    7.945900    4.412190
  H     10.663200    5.603450    2.542050
  H     14.139490    6.782650    7.654310
  H     15.432700    4.865540    8.458990
  H     13.681430    2.129300    3.984920
  H     15.011280    0.234690    4.847220
  H     16.271880    0.457420    6.949710
  H     16.225450    2.569600    8.212750

 Total Charge           Charge          ....    0
 Multiplicity           Mult            ....    1
 Number of Electrons    NEL             ....  516
 Basis Dimension        Dim             .... 1144

ORBITAL ENERGIES
----------------

  NO   OCC          E(Eh)            E(eV)
   0   2.0000     -88.986334     -2421.4412
   1   2.0000     -88.972347     -2421.0607
   2   2.0000     -88.965508     -2420.8745
   3   2.0000     -88.964916     -2420.8584
   4   2.0000     -88.961698     -2420.7709
   5   2.0000     -24.812813      -675.1910
   6   2.0000     -24.811995      -675.1687
   7   2.0000     -19.207210      -522.6548
   8   2.0000     -19.204095      -522.5700
   9   2.0000     -14.406150      -392.0113
  10   2.0000     -14.405681      -391.9985
  11   2.0000     -14.403567      -391.9410
  12   2.0000     -14.402571      -391.9139
  13   2.0000     -10.386692      -282.6363
  14   2.0000     -10.386058      -282.6190
  15   2.0000     -10.357146      -281.8323
  16   2.0000     -10.353941      -281.7451
  17   2.0000     -10.338407      -281.3224
  18   2.0000     -10.337384      -281.2945
  19   2.0000     -10.334980      -281.2291
  20   2.0000     -10.333852      -281.1984
  21   2.0000     -10.332696      -281.1669
  22   2.0000     -10.331713      -281.1402
  23   2.0000     -10.331557      -281.1360
  24   2.0000     -10.331522      -281.1350
  25   2.0000     -10.331171      -281.1254
  26   2.0000     -10.330701      -281.1127
  27   2.0000     -10.330220      -281.0996
  28   2.0000     -10.328501      -281.0528
  29   2.0000     -10.327964      -281.0382
  30   2.0000     -10.326302      -280.9930
  31   2.0000     -10.315527      -280.6998
  32   2.0000     -10.315268      -280.6927
  33   2.0000     -10.309616      -280.5389
  34   2.0000     -10.309070      -280.5241
  35   2.0000     -10.308808      -280.5169
  36   2.0000     -10.308707      -280.5142
  37   2.0000     -10.307236      -280.4742
  38   2.0000     -10.307102      -280.4705
  39   2.0000     -10.305739      -280.4334
  40   2.0000     -10.305293      -280.4213
  41   2.0000     -10.305146      -280.4173
  42   2.0000     -10.304131      -280.3897
  43   2.0000     -10.303620      -280.3758
  44   2.0000     -10.300543      -280.2920
  45   2.0000     -10.299843      -280.2730
  46   2.0000     -10.298693      -280.2417
  47   2.0000     -10.297132      -280.1992
  48   2.0000     -10.294952      -280.1399
  49   2.0000     -10.288990      -279.9776
  50   2.0000     -10.287761      -279.9442
  51   2.0000     -10.287747      -279.9438
  52   2.0000     -10.287339      -279.9327
  53   2.0000     -10.286358      -279.9060
  54   2.0000     -10.285735      -279.8891
  55   2.0000     -10.285304      -279.8773
  56   2.0000     -10.284902      -279.8664
  57   2.0000     -10.284648      -279.8595
  58   2.0000     -10.283773      -279.8357
  59   2.0000     -10.283087      -279.8170
  60   2.0000     -10.282938      -279.8130
  61   2.0000     -10.280716      -279.7525
  62   2.0000     -10.280140      -279.7368
  63   2.0000     -10.277614      -279.6681
  64   2.0000     -10.277101      -279.6541
  65   2.0000     -10.275258      -279.6040
  66   2.0000     -10.275257      -279.6040
  67   2.0000     -10.274742      -279.5899
  68   2.0000     -10.272748      -279.5357
  69   2.0000     -10.270993      -279.4879
  70   2.0000     -10.268354      -279.4161
  71   2.0000      -8.081268      -219.9025
  72   2.0000      -8.068485      -219.5546
  73   2.0000      -8.061828      -219.3735
  74   2.0000      -8.061131      -219.3545
  75   2.0000      -8.057920      -219.2671
  76   2.0000      -6.050714      -164.6483
  77   2.0000      -6.046933      -164.5454
  78   2.0000      -6.042676      -164.4296
  79   2.0000      -6.038193      -164.3076
  80   2.0000      -6.034036      -164.1945
  81   2.0000      -6.031439      -164.1238
  82   2.0000      -6.030825      -164.1071
  83   2.0000      -6.029546      -164.0723
  84   2.0000      -6.027537      -164.0176
  85   2.0000      -6.027422      -164.0145
  86   2.0000      -6.026605      -163.9923
  87   2.0000      -6.023499      -163.9077
  88   2.0000      -6.022926      -163.8922
  89   2.0000      -6.022144      -163.8709
  90   2.0000      -6.019061      -163.7870
  91   2.0000      -1.332138       -36.2493
  92   2.0000      -1.319904       -35.9164
  93   2.0000      -1.121028       -30.5047
  94   2.0000      -1.118171       -30.4270
  95   2.0000      -1.022851       -27.8332
  96   2.0000      -1.016120       -27.6500
  97   2.0000      -1.012294       -27.5459
  98   2.0000      -1.009092       -27.4588
  99   2.0000      -1.006369       -27.3847
 100   2.0000      -0.995287       -27.0831
 101   2.0000      -0.991256       -26.9734
 102   2.0000      -0.990194       -26.9445
 103   2.0000      -0.987424       -26.8692
 104   2.0000      -0.984247       -26.7827
 105   2.0000      -0.981587       -26.7103
 106   2.0000      -0.960430       -26.1346
 107   2.0000      -0.957786       -26.0627
 108   2.0000      -0.929352       -25.2890
 109   2.0000      -0.920137       -25.0382
 110   2.0000      -0.916046       -24.9269
 111   2.0000      -0.909397       -24.7460
 112   2.0000      -0.903952       -24.5978
 113   2.0000      -0.895728       -24.3740
 114   2.0000      -0.890013       -24.2185
 115   2.0000      -0.886926       -24.1345
 116   2.0000      -0.874346       -23.7922
 117   2.0000      -0.869827       -23.6692
 118   2.0000      -0.861131       -23.4326
 119   2.0000      -0.858609       -23.3639
 120   2.0000      -0.853819       -23.2336
 121   2.0000      -0.849944       -23.1282
 122   2.0000      -0.844125       -22.9698
 123   2.0000      -0.842303       -22.9202
 124   2.0000      -0.839980       -22.8570
 125   2.0000      -0.834815       -22.7165
 126   2.0000      -0.829271       -22.5656
 127   2.0000      -0.821432       -22.3523
 128   2.0000      -0.805624       -21.9221
 129   2.0000      -0.790144       -21.5009
 130   2.0000      -0.775428       -21.1005
 131   2.0000      -0.766083       -20.8462
 132   2.0000      -0.761196       -20.7132
 133   2.0000      -0.755184       -20.5496
 134   2.0000      -0.740130       -20.1399
 135   2.0000      -0.729976       -19.8637
 136   2.0000      -0.712399       -19.3854
 137   2.0000      -0.708938       -19.2912
 138   2.0000      -0.706192       -19.2165
 139   2.0000      -0.703663       -19.1477
 140   2.0000      -0.698980       -19.0202
 141   2.0000      -0.697471       -18.9792
 142   2.0000      -0.693507       -18.8713
 143   2.0000      -0.684999       -18.6398
 144   2.0000      -0.674090       -18.3429
 145   2.0000      -0.669168       -18.2090
 146   2.0000      -0.667002       -18.1500
 147   2.0000      -0.665385       -18.1061
 148   2.0000      -0.663826       -18.0636
 149   2.0000      -0.647179       -17.6106
 150   2.0000      -0.645372       -17.5615
 151   2.0000      -0.643331       -17.5059
 152   2.0000      -0.638392       -17.3715
 153   2.0000      -0.632547       -17.2125
 154   2.0000      -0.627703       -17.0807
 155   2.0000      -0.623927       -16.9779
 156   2.0000      -0.620461       -16.8836
 157   2.0000      -0.617713       -16.8088
 158   2.0000      -0.617218       -16.7954
 159   2.0000      -0.608975       -16.5711
 160   2.0000      -0.606462       -16.5027
 161   2.0000      -0.600471       -16.3396
 162   2.0000      -0.597520       -16.2594
 163   2.0000      -0.586574       -15.9615
 164   2.0000      -0.583690       -15.8830
 165   2.0000      -0.579962       -15.7816
 166   2.0000      -0.577878       -15.7249
 167   2.0000      -0.575373       -15.6567
 168   2.0000      -0.569947       -15.5091
 169   2.0000      -0.562715       -15.3123
 170   2.0000      -0.561544       -15.2804
 171   2.0000      -0.560111       -15.2414
 172   2.0000      -0.554278       -15.0827
 173   2.0000      -0.550638       -14.9836
 174   2.0000      -0.542473       -14.7614
 175   2.0000      -0.536511       -14.5992
 176   2.0000      -0.531354       -14.4589
 177   2.0000      -0.529121       -14.3981
 178   2.0000      -0.526876       -14.3370
 179   2.0000      -0.525693       -14.3048
 180   2.0000      -0.525477       -14.2990
 181   2.0000      -0.522779       -14.2255
 182   2.0000      -0.519674       -14.1411
 183   2.0000      -0.517170       -14.0729
 184   2.0000      -0.516107       -14.0440
 185   2.0000      -0.514849       -14.0098
 186   2.0000      -0.512399       -13.9431
 187   2.0000      -0.509475       -13.8635
 188   2.0000      -0.507618       -13.8130
 189   2.0000      -0.506373       -13.7791
 190   2.0000      -0.504595       -13.7307
 191   2.0000      -0.498952       -13.5772
 192   2.0000      -0.498231       -13.5576
 193   2.0000      -0.496266       -13.5041
 194   2.0000      -0.495582       -13.4855
 195   2.0000      -0.493626       -13.4323
 196   2.0000      -0.490664       -13.3516
 197   2.0000      -0.489947       -13.3321
 198   2.0000      -0.487772       -13.2730
 199   2.0000      -0.487208       -13.2576
 200   2.0000      -0.486705       -13.2439
 201   2.0000      -0.482748       -13.1362
 202   2.0000      -0.481515       -13.1027
 203   2.0000      -0.475970       -12.9518
 204   2.0000      -0.474807       -12.9202
 205   2.0000      -0.471301       -12.8247
 206   2.0000      -0.469772       -12.7831
 207   2.0000      -0.468581       -12.7507
 208   2.0000      -0.465483       -12.6664
 209   2.0000      -0.461171       -12.5491
 210   2.0000      -0.457319       -12.4443
 211   2.0000      -0.455786       -12.4026
 212   2.0000      -0.452203       -12.3051
 213   2.0000      -0.449728       -12.2377
 214   2.0000      -0.441569       -12.0157
 215   2.0000      -0.439790       -11.9673
 216   2.0000      -0.437539       -11.9060
 217   2.0000      -0.436737       -11.8842
 218   2.0000      -0.435668       -11.8551
 219   2.0000      -0.433151       -11.7866
 220   2.0000      -0.431362       -11.7380
 221   2.0000      -0.430726       -11.7207
 222   2.0000      -0.429474       -11.6866
 223   2.0000      -0.425602       -11.5812
 224   2.0000      -0.423896       -11.5348
 225   2.0000      -0.423033       -11.5113
 226   2.0000      -0.421473       -11.4689
 227   2.0000      -0.420366       -11.4387
 228   2.0000      -0.417227       -11.3533
 229   2.0000      -0.415949       -11.3185
 230   2.0000      -0.414334       -11.2746
 231   2.0000      -0.412233       -11.2174
 232   2.0000      -0.410557       -11.1718
 233   2.0000      -0.407806       -11.0970
 234   2.0000      -0.404797       -11.0151
 235   2.0000      -0.397185       -10.8080
 236   2.0000      -0.393452       -10.7064
 237   2.0000      -0.386655       -10.5214
 238   2.0000      -0.376320       -10.2402
 239   2.0000      -0.367938       -10.0121
 240   2.0000      -0.361426        -9.8349
 241   2.0000      -0.358566        -9.7571
 242   2.0000      -0.353136        -9.6093
 243   2.0000      -0.352356        -9.5881
 244   2.0000      -0.345573        -9.4035
 245   2.0000      -0.339704        -9.2438
 246   2.0000      -0.337358        -9.1800
 247   2.0000      -0.335428        -9.1275
 248   2.0000      -0.327483        -8.9113
 249   2.0000      -0.324154        -8.8207
 250   2.0000      -0.316666        -8.6169
 251   2.0000      -0.309149        -8.4124
 252   2.0000      -0.302273        -8.2253
 253   2.0000      -0.287539        -7.8243
 254   2.0000      -0.285273        -7.7627
 255   2.0000      -0.283055        -7.7023
 256   2.0000      -0.244204        -6.6451
 257   2.0000      -0.215717        -5.8700
 258   0.0000      -0.126960        -3.4548
 259   0.0000      -0.097484        -2.6527
 260   0.0000      -0.069143        -1.8815
 261   0.0000      -0.064979        -1.7682
 262   0.0000      -0.054668        -1.4876

MULLIKEN ATOMIC CHARGES
-----------------------
   0 C :   -0.114956
   1 C :    0.121025
   2 O :   -0.159342
   3 C :    0.001606
   4 C :   -0.007047
   5 C :    0.282449
   6 C :   -0.341003
   7 C :   -0.217504
   8 N :    0.157670
   9 C :   -0.178528
  10 N :    0.142345
  11 C :   -0.024559
  12 C :    0.001716
  13 C :    0.079150
  14 C :    0.033351
  15 C :   -0.026788
  16 C :    0.035517
  17 C :    0.037329
  18 C :   -0.020120
  19 C :    0.018112
  20 C :   -0.003298
  21 C :   -0.016917
  22 C :    0.039613
  23 C :    0.035379
  24 C :   -0.056888
  25 S :    0.114500
  26 C :   -0.039164
  27 C :    0.028242
  28 C :    0.041375
  29 C :   -0.040598
  30 S :    0.132510
  31 C :    0.037825
  32 C :   -0.175817
  33 C :    0.236126
  34 F :   -0.163174
  35 C :    0.221514
  36 F :   -0.166617
  37 C :   -0.149297
  38 S :    0.142154
  39 C :    0.016890
  40 C :   -0.037664
  41 C :    0.045163
  42 C :    0.025157
  43 C :   -0.023386
  44 S :    0.086519
  45 C :   -0.053507
  46 C :    0.036096
  47 C :    0.037085
  48 C :   -0.019308
  49 S :    0.107306
  50 C :    0.001006
  51 C :    0.015650
  52 C :   -0.112950
  53 C :    0.119631
  54 O :   -0.162650
  55 C :    0.003064
  56 C :   -0.005777
  57 C :    0.285650
  58 C :   -0.342902
  59 C :   -0.216198
  60 N :    0.160014
  61 C :   -0.180745
  62 N :    0.143812
  63 C :   -0.024673
  64 C :    0.002154
  65 C :    0.079795
  66 C :    0.035351
  67 C :   -0.027624
  68 C :    0.036747
  69 C :    0.037088
  70 C :   -0.020910
  71 H :   -0.000970
  72 H :   -0.017314
  73 H :   -0.002171
  74 H :   -0.009640
  75 H :   -0.010220
  76 H :   -0.024512
  77 H :    0.014264
  78 H :    0.009204
  79 H :    0.002941
  80 H :   -0.003531
  81 H :   -0.004406
  82 H :   -0.002035
  83 H :    0.000415
  84 H :    0.009077
  85 H :   -0.001294
  86 H :   -0.003882
  87 H :   -0.002804
  88 H :    0.005965
  89 H :    0.008563
  90 H :    0.012960
  91 H :   -0.001334
  92 H :   -0.016506
  93 H :   -0.002962
  94 H :   -0.010399
  95 H :   -0.009587
  96 H :   -0.023600
Sum of atomic charges:   -0.0000000

LOEWDIN ATOMIC CHARGES
----------------------
   0 C :   -0.098069
   1 C :    0.083220
   2 O :   -0.151578
   3 C :   -0.033238
   4 C :   -0.004508
   5 C :    0.069312
   6 C :   -0.147245
   7 C :   -0.023425
   8 N :   -0.059045
   9 C :   -0.020833
  10 N :   -0.060171
  11 C :   -0.018637
  12 C :    0.013971
  13 C :   -0.010723
  14 C :   -0.003889
  15 C :   -0.002455
  16 C :   -0.016201
  17 C :   -0.016147
  18 C :   -0.014072
  19 C :    0.045686
  20 C :   -0.062800
  21 C :   -0.106011
  22 C :   -0.030402
  23 C :   -0.012124
  24 C :   -0.183011
  25 S :    0.405133
  26 C :   -0.161401
  27 C :   -0.032771
  28 C :   -0.019110
  29 C :   -0.148640
  30 S :    0.414513
  31 C :   -0.066730
  32 C :   -0.192531
  33 C :    0.020568
  34 F :   -0.041824
  35 C :    0.035151
  36 F :   -0.044445
  37 C :   -0.201309
  38 S :    0.450177
  39 C :   -0.052272
  40 C :   -0.155465
  41 C :   -0.016932
  42 C :   -0.036117
  43 C :   -0.157376
  44 S :    0.389324
  45 C :   -0.182761
  46 C :   -0.012408
  47 C :   -0.030420
  48 C :   -0.106645
  49 S :    0.401720
  50 C :   -0.062344
  51 C :    0.044048
  52 C :   -0.096791
  53 C :    0.083832
  54 O :   -0.153945
  55 C :   -0.033224
  56 C :   -0.004280
  57 C :    0.069190
  58 C :   -0.146045
  59 C :   -0.023752
  60 N :   -0.057696
  61 C :   -0.020634
  62 N :   -0.058769
  63 C :   -0.018449
  64 C :    0.014578
  65 C :   -0.010574
  66 C :   -0.003878
  67 C :   -0.003069
  68 C :   -0.015814
  69 C :   -0.015676
  70 C :   -0.013516
  71 H :    0.038837
  72 H :    0.033798
  73 H :    0.034670
  74 H :    0.031035
  75 H :    0.030456
  76 H :    0.029035
  77 H :    0.035173
  78 H :    0.038107
  79 H :    0.040583
  80 H :    0.035899
  81 H :    0.035206
  82 H :    0.037405
  83 H :    0.040818
  84 H :    0.047762
  85 H :    0.038553
  86 H :    0.035837
  87 H :    0.036262
  88 H :    0.041373
  89 H :    0.038387
  90 H :    0.033961
  91 H :    0.038993
  92 H :    0.034163
  93 H :    0.034344
  94 H :    0.031004
  95 H :    0.030695
  96 H :    0.029421

  Mayer bond orders larger than 0.100000
B(  0-C ,  1-C ) :   0.9759 B(  0-C ,  5-C ) :   1.0699 B(  0-C , 19-C ) :   1.5604
B(  1-C ,  2-O ) :   2.1742 B(  1-C ,  3-C ) :   0.9374 B(  3-C ,  4-C ) :   1.4220
B(  3-C , 14-C ) :   1.2413 B(  4-C ,  5-C ) :   0.9937 B(  4-C , 11-C ) :   1.2658
B(  5-C ,  6-C ) :   1.6053 B(  6-C ,  7-C ) :   1.1645 B(  6-C ,  9-C ) :   1.1297
B(  7-C ,  8-N ) :   3.0122 B(  9-C , 10-N ) :   2.9826 B( 11-C , 12-C ) :   1.4633
B( 11-C , 71-H ) :   0.9836 B( 12-C , 13-C ) :   1.2286 B( 12-C , 72-H ) :   0.9933
B( 13-C , 14-C ) :   1.2401 B( 13-C , 18-C ) :   1.2371 B( 14-C , 15-C ) :   1.2726
B( 15-C , 16-C ) :   1.4784 B( 15-C , 73-H ) :   0.9858 B( 16-C , 17-C ) :   1.2518
B( 16-C , 74-H ) :   0.9869 B( 17-C , 18-C ) :   1.4995 B( 17-C , 75-H ) :   0.9882
B( 18-C , 76-H ) :   0.9967 B( 19-C , 20-C ) :   1.1993 B( 19-C , 77-H ) :   0.9379
B( 20-C , 21-C ) :   1.5153 B( 20-C , 78-H ) :   0.9614 B( 21-C , 22-C ) :   1.1770
B( 21-C , 25-S ) :   1.0759 B( 22-C , 23-C ) :   1.5479 B( 22-C , 79-H ) :   1.0005
B( 23-C , 24-C ) :   1.2173 B( 23-C , 80-H ) :   0.9950 B( 24-C , 25-S ) :   1.0530
B( 24-C , 26-C ) :   1.4557 B( 26-C , 27-C ) :   1.2050 B( 26-C , 30-S ) :   1.0638
B( 27-C , 28-C ) :   1.5638 B( 27-C , 81-H ) :   0.9947 B( 28-C , 29-C ) :   1.1656
B( 28-C , 82-H ) :   1.0007 B( 29-C , 30-S ) :   1.0570 B( 29-C , 31-C ) :   1.5499
B( 31-C , 32-C ) :   1.2218 B( 31-C , 83-H ) :   0.9421 B( 32-C , 33-C ) :   1.3190
B( 32-C , 37-C ) :   0.1111 B( 32-C , 38-S ) :   1.0989 B( 33-C , 34-F ) :   1.1523
B( 33-C , 35-C ) :   1.3079 B( 35-C , 36-F ) :   1.1652 B( 35-C , 37-C ) :   1.3538
B( 37-C , 38-S ) :   1.0742 B( 37-C , 39-C ) :   1.2410 B( 39-C , 40-C ) :   1.4991
B( 39-C , 84-H ) :   0.9704 B( 40-C , 41-C ) :   1.1761 B( 40-C , 44-S ) :   1.0422
B( 41-C , 42-C ) :   1.5573 B( 41-C , 85-H ) :   1.0006 B( 42-C , 43-C ) :   1.2111
B( 42-C , 86-H ) :   0.9940 B( 43-C , 44-S ) :   1.0669 B( 43-C , 45-C ) :   1.4589
B( 45-C , 46-C ) :   1.2180 B( 45-C , 49-S ) :   1.0510 B( 46-C , 47-C ) :   1.5461
B( 46-C , 87-H ) :   0.9949 B( 47-C , 48-C ) :   1.1774 B( 47-C , 88-H ) :   1.0012
B( 48-C , 49-S ) :   1.0736 B( 48-C , 50-C ) :   1.5152 B( 50-C , 51-C ) :   1.1995
B( 50-C , 89-H ) :   0.9627 B( 51-C , 52-C ) :   1.5602 B( 51-C , 90-H ) :   0.9383
B( 52-C , 53-C ) :   0.9771 B( 52-C , 57-C ) :   1.0664 B( 53-C , 54-O ) :   2.1680
B( 53-C , 55-C ) :   0.9399 B( 55-C , 56-C ) :   1.4191 B( 55-C , 66-C ) :   1.2414
B( 56-C , 57-C ) :   0.9923 B( 56-C , 63-C ) :   1.2643 B( 57-C , 58-C ) :   1.6107
B( 58-C , 59-C ) :   1.1648 B( 58-C , 61-C ) :   1.1294 B( 59-C , 60-N ) :   3.0100
B( 61-C , 62-N ) :   2.9832 B( 63-C , 64-C ) :   1.4639 B( 63-C , 91-H ) :   0.9843
B( 64-C , 65-C ) :   1.2271 B( 64-C , 92-H ) :   0.9936 B( 65-C , 66-C ) :   1.2403
B( 65-C , 70-C ) :   1.2365 B( 66-C , 67-C ) :   1.2713 B( 67-C , 68-C ) :   1.4782
B( 67-C , 93-H ) :   0.9861 B( 68-C , 69-C ) :   1.2517 B( 68-C , 94-H ) :   0.9872
B( 69-C , 70-C ) :   1.4980 B( 69-C , 95-H ) :   0.9890 B( 70-C , 96-H ) :   0.9974

-----------------------------------------------------------------------------
         ABSORPTION SPECTRUM VIA TRANSITION ELECTRIC DIPOLE MOMENTS
-----------------------------------------------------------------------------
State   Energy  Wavelength   fosc         T2         TX        TY        TZ
        (cm-1)    (nm)                  (au**2)     (au)      (au)      (au)
-----------------------------------------------------------------------------
   0    7697.2   1299.2   1.746920031  74.71595   2.68838   5.70586   5.91030
   1   13560.9    737.4   0.063688104   1.54613  -0.12716   1.22926  -0.13737
   2   14287.1    699.9   0.453503032  10.44987  -1.12879   2.76701  -1.23262
   3   18888.2    529.4   0.124631550   2.17227  -1.47112   0.08922   0.01021
   4   19800.3    505.0   0.018517089   0.30788  -0.12554   0.53854  -0.04576
   5   21016.3    475.8   0.064498329   1.01034  -0.92201   0.20624  -0.34308
   6   21633.6    462.2   0.441591655   6.71998  -2.49627   0.28774  -0.63706
   7   23191.5    431.2   0.080787413   1.14681   0.37662  -0.97285   0.24193
   8   23370.0    427.9   0.071089670   1.00144   0.78660  -0.16297   0.59677
   9   24006.9    416.5   0.811927880  11.13413   3.18708  -0.92743   0.34135
  10   24981.6    400.3   0.002096254   0.02762   0.14419  -0.05737   0.05952
  11   26821.6    372.8   0.029852769   0.36642  -0.50232  -0.22522  -0.25172
  12   27067.5    369.4   0.027977662   0.34028  -0.55381   0.15696  -0.09457
  13   27430.8    364.6   0.010647803   0.12779   0.27515  -0.01063   0.22797
  14   28322.8    353.1   0.006157530   0.07157   0.16142   0.18029   0.11406
  15   28593.6    349.7   0.009846045   0.11336  -0.13969  -0.28020  -0.12385
  16   28735.1    348.0   0.024392615   0.27946  -0.34125   0.31622  -0.25103
  17   28872.5    346.3   0.022526940   0.25686   0.27082   0.33715   0.26428
  18   29098.1    343.7   0.008990069   0.10171   0.20119   0.16898   0.18078
  19   29521.0    338.7   0.058664729   0.65422  -0.73585   0.02150  -0.33508
  20   29774.7    335.9   0.011779384   0.13024  -0.32498  -0.12051  -0.10052
  21   30099.2    332.2   0.007203404   0.07879  -0.11305   0.20990   0.14816
  22   30251.7    330.6   0.035685610   0.38835   0.33663  -0.48970   0.18767
  23   30453.3    328.4   0.030924618   0.33431   0.16287  -0.44535  -0.33083
  24   30498.1    327.9   0.172735723   1.86460   0.19699  -1.34892  -0.07882
  25   30683.8    325.9   0.046466290   0.49854  -0.45568   0.53009  -0.09956
  26   31082.0    321.7   0.090250771   0.95591   0.66452  -0.68044   0.22657
  27   31155.3    321.0   0.154902279   1.63682   1.07374   0.34636   0.60328
  28   31497.6    317.5   0.080410308   0.84045  -0.65023   0.59373  -0.25522
  29   31902.3    313.5   0.064731971   0.66799   0.12917  -0.78213  -0.19895
  30   32053.6    312.0   0.055015034   0.56504   0.40825   0.25667   0.57662
  31   32659.9    306.2   0.033383237   0.33650  -0.02350  -0.53426  -0.22475
  32   33270.4    300.6   0.024334095   0.24079   0.35087   0.32372   0.11348
  33   33479.0    298.7   0.739133165   7.26819   1.58611  -2.03315   0.78662
  34   33579.6    297.8   0.257088700   2.52048   1.00643   0.89796   0.83741
  35   34205.6    292.3   0.023435519   0.22556   0.37723  -0.16929   0.23365
  36   34409.2    290.6   0.047181454   0.45141  -0.41812   0.50715  -0.13922
  37   34559.6    289.4   0.046607146   0.44398  -0.60873   0.21790  -0.16107
  38   35355.1    282.8   0.008881971   0.08271  -0.15061  -0.22628  -0.09391
  39   35626.4    280.7   0.005734658   0.05299  -0.13481  -0.15994  -0.09611
  40   35688.3    280.2   0.061375455   0.56617   0.16409  -0.70038  -0.22069
  41   36016.1    277.7   0.026662397   0.24371  -0.38869   0.22368  -0.20641
  42   36485.3    274.1   0.007289941   0.06578  -0.20604  -0.07792  -0.13136
  43   36847.4    271.4   0.006488200   0.05797   0.02199   0.11575   0.20997
  44   37206.3    268.8   0.038539990   0.34101   0.41166  -0.20976   0.35715
  45   37528.4    266.5   0.048880958   0.42880   0.31840  -0.56032   0.11604
  46   37686.4    265.3   0.026121107   0.22818  -0.39174   0.22159  -0.16006
  47   37989.8    263.2   0.222193285   1.92548  -1.12836   0.35477  -0.72556
  48   38191.1    261.8   0.047888634   0.41281   0.37084  -0.44116   0.28400
  49   38233.0    261.6   0.095934070   0.82606   0.52545  -0.44924   0.59004
  50   38334.1    260.9   0.017881052   0.15356   0.27927  -0.06292   0.26760
  51   38412.0    260.3   0.107191391   0.91869  -0.28437  -0.89882  -0.17306
  52   38874.7    257.2   0.061064768   0.51713  -0.55951   0.31025  -0.32836
  53   39384.6    253.9   0.002175222   0.01818  -0.03722  -0.07815  -0.10339
  54   39786.7    251.3   0.001792691   0.01483  -0.04550   0.05675   0.09769
  55   40153.3    249.0   0.007522505   0.06168   0.07912  -0.23517  -0.01056

FINAL SINGLE POINT ENERGY     -4781.643863737778

DIPOLE MOMENT
-------------
                                X             Y             Z
Electronic contribution:     -6.89317      19.62418      -9.99846
Nuclear contribution   :      5.81872     -18.28310       9.17666
                        -----------------------------------------
Total Dipole Moment    :     -1.07445       1.34108      -0.82180
                        -----------------------------------------
Magnitude (a.u.)       :      1.90480
Magnitude (Debye)      :      4.84163

Rotational constants in cm-1:     0.001339     0.000203     0.000182
Rotational constants in MHz :    40.146748     6.073790     5.458296

                             ****ORCA TERMINATED NORMALLY****
TOTAL RUN TIME: 0 days 0 hours 22 minutes 33 seconds 42 msec
