                         Program Version 4.2.0 -  RELEASE  -
|  1> # ORCA input file
|  2> # SCF done       -202.038537358890          0.000807860514
|  3> ! CAM-B3LYP def2-SVP def2/J RIJCOSX Grid4 TightSCF
|  4> %maxcore 5000
|  5> %tddft
|  6>     Mode sTDDFT
|  7>     Ethresh 5.0
|  8>     maxcore 5000
|  9> end
| 10>
| 11> %pal
| 12>   nprocs 6
| 13>   end
| 14> * xyz 0 1
| 15>    C       -4.61183        -3.70723         0.25178
| 16>    C       -6.00137        -3.61875         0.25068
| 17>    C       -6.65761        -2.40747        -0.33150
| 18>    C       -6.78123        -4.65167         0.79304
| 19>    C       -8.27285        -4.54728         0.80455
| 20>    C       -6.16038        -5.77872         1.32273
| 21>    C       -4.78334        -5.86258         1.31463
| 22>    C       -3.99575        -4.82413         0.78778
| 23>    C       -2.58548        -5.16238         0.96766
| 24>    C       -1.55674        -4.25300         0.96187
| 25>    C       -1.70219        -2.90483         0.57996
| 26>    N       -1.75189        -1.80549         0.25051
| 27>    C       -0.24967        -4.52167         1.41156
| 28>    N        0.82103        -4.65668         1.80479
| 29>    C       -2.53072        -6.53653         1.40868
| 30>    C       -3.90866        -6.94695         1.79558
| 31>    O       -4.22660        -7.97531         2.35066
| 32>    C       -1.52948        -7.46367         1.45825
| 33>    C       -0.27021        -7.44801         0.82953
| 34>    C        0.16973        -6.71566        -0.27039
| 35>    C        1.48642        -6.95859        -0.61072
| 36>    C        2.08359        -7.89154         0.24529
| 37>    S        0.99467        -8.50638         1.41990
| 38>    C        3.45927        -8.12497         0.05568
| 39>    C        4.07668        -7.37685        -0.95378
| 40>   Si        2.79373        -6.26760        -1.79744
| 41>    C        2.48365        -6.75168        -3.60885
| 42>    C        3.08090        -4.41438        -1.51142
| 43>    C        5.43532        -7.62592        -1.02024
| 44>    C        5.88030        -8.55624        -0.08440
| 45>    S        4.55703        -9.15114         0.89321
| 46>    C        7.20454        -9.00577         0.16875
| 47>    C        8.36385        -8.48450        -0.45532
| 48>    C        9.68199        -8.92633        -0.08773
| 49>    N       10.75442        -8.37742        -0.69060
| 50>    C       10.59663        -7.46594        -1.59424
| 51>    C        9.29839        -7.03774        -1.96043
| 52>    N        8.24163        -7.53401        -1.40503
| 53>    F        9.11748        -6.10334        -2.89613
| 54>    F       11.68454        -6.94956        -2.16034
| 55>    C        9.92837        -9.91489         0.89432
| 56>    C        8.76983       -10.47295         1.48601
| 57>    C        7.44866       -10.01501         1.13019
| 58>    N        6.50306       -10.65519         1.81552
| 59>    S        7.18837       -11.72061         2.80056
| 60>    N        8.72017       -11.42767         2.41582
| 61>    C       11.24526       -10.28532         1.27053
| 62>    C       11.61289       -11.25736         2.19954
| 63>    C       12.97929       -11.35594         2.38724
| 64>    C       13.67542       -10.43986         1.58870
| 65>    S       12.64175        -9.48217         0.60044
| 66>    C       15.07585       -10.43771         1.72883
| 67>    C       15.62064       -11.33640         2.65158
| 68>   Si       14.21625       -12.35420         3.41716
| 69>    C       14.02704       -12.06303         5.28550
| 70>    C       14.29715       -14.18639         2.92666
| 71>    C       16.99643       -11.21202         2.73676
| 72>    C       17.53035       -10.26167         1.87252
| 73>    S       16.26422        -9.46869         0.95728
| 74>    C       18.88554        -9.87312         1.80303
| 75>    C       19.52083        -9.13693         0.84952
| 76>    C       20.76951        -8.39999         1.18936
| 77>    O       21.46967        -8.56995         2.16246
| 78>    C       20.91338        -7.39115         0.12308
| 79>    C       19.93070        -7.60109        -0.86112
| 80>    C       19.85432        -6.74797        -1.94688
| 81>    C       20.75498        -5.69202        -2.05699
| 82>    C       21.74259        -5.49422        -1.07922
| 83>    C       21.81479        -6.35183         0.01417
| 84>    C       22.71440        -4.36444        -1.20514
| 85>    C       20.66044        -4.76708        -3.22831
| 86>    C       19.15735        -8.78556        -0.50560
| 87>    C       18.45781        -9.57420        -1.38192
| 88>    C       17.98385       -10.85884        -1.04662
| 89>    N       17.63166       -11.92796        -0.81951
| 90>    C       18.23891        -9.23760        -2.73190
| 91>    N       18.02918        -8.99878        -3.83534
| 92>    H       -4.03216        -2.90402        -0.17536
| 93>    H       -5.91445        -1.70664        -0.70159
| 94>    H       -7.26525        -1.90434         0.41988
| 95>    H       -7.31581        -2.68584        -1.15406
| 96>    H       -8.59086        -3.67104         1.36877
| 97>    H       -8.71679        -5.43044         1.25569
| 98>    H       -8.65808        -4.44276        -0.20930
| 99>    H       -6.74234        -6.58517         1.74335
|100>    H       -1.77279        -8.36006         2.02125
|101>    H       -0.47703        -6.05370        -0.81897
|102>    H        2.31161        -7.81817        -3.71785
|103>    H        3.33751        -6.48729        -4.22378
|104>    H        1.61815        -6.23079        -4.00545
|105>    H        3.07521        -4.17608        -0.45172
|106>    H        2.30215        -3.82640        -1.98692
|107>    H        4.03353        -4.09809        -1.92434
|108>    H        6.10624        -7.15515        -1.71225
|109>    H       10.87858       -11.85356         2.70829
|110>    H       13.99746       -11.00490         5.52651
|111>    H       14.85324       -12.50705         5.83111
|112>    H       13.11035       -12.51385         5.65115
|113>    H       14.46192       -14.30410         1.86006
|114>    H       13.37380       -14.69620         3.18222
|115>    H       15.10712       -14.68845         3.44590
|116>    H       17.62013       -11.80174         3.38488
|117>    H       19.48418       -10.11383         2.67686
|118>    H       19.09636        -6.88150        -2.70299
|119>    H       22.56705        -6.21375         0.77647
|120>    H       23.29275        -4.45704        -2.12395
|121>    H       23.40077        -4.35151        -0.36290
|122>    H       22.18982        -3.41009        -1.24180
|123>    H       19.85558        -5.06858        -3.89286
|124>    H       21.59355        -4.76501        -3.79066
|125>    H       20.47441        -3.74609        -2.89561
|126> *
|127>
|128>                          ****END OF INPUT****

CARTESIAN COORDINATES (ANGSTROEM)
---------------------------------
  C     -4.611830   -3.707230    0.251780
  C     -6.001370   -3.618750    0.250680
  C     -6.657610   -2.407470   -0.331500
  C     -6.781230   -4.651670    0.793040
  C     -8.272850   -4.547280    0.804550
  C     -6.160380   -5.778720    1.322730
  C     -4.783340   -5.862580    1.314630
  C     -3.995750   -4.824130    0.787780
  C     -2.585480   -5.162380    0.967660
  C     -1.556740   -4.253000    0.961870
  C     -1.702190   -2.904830    0.579960
  N     -1.751890   -1.805490    0.250510
  C     -0.249670   -4.521670    1.411560
  N      0.821030   -4.656680    1.804790
  C     -2.530720   -6.536530    1.408680
  C     -3.908660   -6.946950    1.795580
  O     -4.226600   -7.975310    2.350660
  C     -1.529480   -7.463670    1.458250
  C     -0.270210   -7.448010    0.829530
  C      0.169730   -6.715660   -0.270390
  C      1.486420   -6.958590   -0.610720
  C      2.083590   -7.891540    0.245290
  S      0.994670   -8.506380    1.419900
  C      3.459270   -8.124970    0.055680
  C      4.076680   -7.376850   -0.953780
  Si     2.793730   -6.267600   -1.797440
  C      2.483650   -6.751680   -3.608850
  C      3.080900   -4.414380   -1.511420
  C      5.435320   -7.625920   -1.020240
  C      5.880300   -8.556240   -0.084400
  S      4.557030   -9.151140    0.893210
  C      7.204540   -9.005770    0.168750
  C      8.363850   -8.484500   -0.455320
  C      9.681990   -8.926330   -0.087730
  N     10.754420   -8.377420   -0.690600
  C     10.596630   -7.465940   -1.594240
  C      9.298390   -7.037740   -1.960430
  N      8.241630   -7.534010   -1.405030
  F      9.117480   -6.103340   -2.896130
  F     11.684540   -6.949560   -2.160340
  C      9.928370   -9.914890    0.894320
  C      8.769830  -10.472950    1.486010
  C      7.448660  -10.015010    1.130190
  N      6.503060  -10.655190    1.815520
  S      7.188370  -11.720610    2.800560
  N      8.720170  -11.427670    2.415820
  C     11.245260  -10.285320    1.270530
  C     11.612890  -11.257360    2.199540
  C     12.979290  -11.355940    2.387240
  C     13.675420  -10.439860    1.588700
  S     12.641750   -9.482170    0.600440
  C     15.075850  -10.437710    1.728830
  C     15.620640  -11.336400    2.651580
  Si    14.216250  -12.354200    3.417160
  C     14.027040  -12.063030    5.285500
  C     14.297150  -14.186390    2.926660
  C     16.996430  -11.212020    2.736760
  C     17.530350  -10.261670    1.872520
  S     16.264220   -9.468690    0.957280
  C     18.885540   -9.873120    1.803030
  C     19.520830   -9.136930    0.849520
  C     20.769510   -8.399990    1.189360
  O     21.469670   -8.569950    2.162460
  C     20.913380   -7.391150    0.123080
  C     19.930700   -7.601090   -0.861120
  C     19.854320   -6.747970   -1.946880
  C     20.754980   -5.692020   -2.056990
  C     21.742590   -5.494220   -1.079220
  C     21.814790   -6.351830    0.014170
  C     22.714400   -4.364440   -1.205140
  C     20.660440   -4.767080   -3.228310
  C     19.157350   -8.785560   -0.505600
  C     18.457810   -9.574200   -1.381920
  C     17.983850  -10.858840   -1.046620
  N     17.631660  -11.927960   -0.819510
  C     18.238910   -9.237600   -2.731900
  N     18.029180   -8.998780   -3.835340
  H     -4.032160   -2.904020   -0.175360
  H     -5.914450   -1.706640   -0.701590
  H     -7.265250   -1.904340    0.419880
  H     -7.315810   -2.685840   -1.154060
  H     -8.590860   -3.671040    1.368770
  H     -8.716790   -5.430440    1.255690
  H     -8.658080   -4.442760   -0.209300
  H     -6.742340   -6.585170    1.743350
  H     -1.772790   -8.360060    2.021250
  H     -0.477030   -6.053700   -0.818970
  H      2.311610   -7.818170   -3.717850
  H      3.337510   -6.487290   -4.223780
  H      1.618150   -6.230790   -4.005450
  H      3.075210   -4.176080   -0.451720
  H      2.302150   -3.826400   -1.986920
  H      4.033530   -4.098090   -1.924340
  H      6.106240   -7.155150   -1.712250
  H     10.878580  -11.853560    2.708290
  H     13.997460  -11.004900    5.526510
  H     14.853240  -12.507050    5.831110
  H     13.110350  -12.513850    5.651150
  H     14.461920  -14.304100    1.860060
  H     13.373800  -14.696200    3.182220
  H     15.107120  -14.688450    3.445900
  H     17.620130  -11.801740    3.384880
  H     19.484180  -10.113830    2.676860
  H     19.096360   -6.881500   -2.702990
  H     22.567050   -6.213750    0.776470
  H     23.292750   -4.457040   -2.123950
  H     23.400770   -4.351510   -0.362900
  H     22.189820   -3.410090   -1.241800
  H     19.855580   -5.068580   -3.892860
  H     21.593550   -4.765010   -3.790660
  H     20.474410   -3.746090   -2.895610

 Total Charge           Charge          ....    0
 Multiplicity           Mult            ....    1
 Number of Electrons    NEL             ....  580
 Basis Dimension        Dim             .... 1276

ORBITAL ENERGIES
----------------

  NO   OCC          E(Eh)            E(eV)
   0   2.0000     -89.041999     -2422.9560
   1   2.0000     -88.965593     -2420.8769
   2   2.0000     -88.963965     -2420.8326
   3   2.0000     -88.958603     -2420.6867
   4   2.0000     -88.958588     -2420.6862
   5   2.0000     -66.201102     -1801.4236
   6   2.0000     -66.199398     -1801.3772
   7   2.0000     -24.815566      -675.2659
   8   2.0000     -24.813706      -675.2153
   9   2.0000     -19.204288      -522.5752
  10   2.0000     -19.202057      -522.5145
  11   2.0000     -14.456229      -393.3740
  12   2.0000     -14.453401      -393.2970
  13   2.0000     -14.451547      -393.2466
  14   2.0000     -14.451385      -393.2422
  15   2.0000     -14.407610      -392.0510
  16   2.0000     -14.407506      -392.0482
  17   2.0000     -14.404168      -391.9573
  18   2.0000     -14.401214      -391.8770
  19   2.0000     -10.431710      -283.8613
  20   2.0000     -10.429482      -283.8006
  21   2.0000     -10.355024      -281.7745
  22   2.0000     -10.353779      -281.7406
  23   2.0000     -10.344680      -281.4930
  24   2.0000     -10.343177      -281.4521
  25   2.0000     -10.339477      -281.3515
  26   2.0000     -10.337924      -281.3092
  27   2.0000     -10.333469      -281.1880
  28   2.0000     -10.332331      -281.1570
  29   2.0000     -10.330064      -281.0953
  30   2.0000     -10.328922      -281.0642
  31   2.0000     -10.316186      -280.7177
  32   2.0000     -10.315287      -280.6932
  33   2.0000     -10.312845      -280.6268
  34   2.0000     -10.312621      -280.6207
  35   2.0000     -10.311367      -280.5866
  36   2.0000     -10.311233      -280.5829
  37   2.0000     -10.309588      -280.5382
  38   2.0000     -10.308296      -280.5030
  39   2.0000     -10.307928      -280.4930
  40   2.0000     -10.307250      -280.4745
  41   2.0000     -10.306995      -280.4676
  42   2.0000     -10.306175      -280.4453
  43   2.0000     -10.305007      -280.4135
  44   2.0000     -10.303697      -280.3778
  45   2.0000     -10.303045      -280.3601
  46   2.0000     -10.300846      -280.3003
  47   2.0000     -10.294182      -280.1189
  48   2.0000     -10.291596      -280.0486
  49   2.0000     -10.290804      -280.0270
  50   2.0000     -10.290329      -280.0141
  51   2.0000     -10.288590      -279.9668
  52   2.0000     -10.288510      -279.9646
  53   2.0000     -10.287914      -279.9484
  54   2.0000     -10.287874      -279.9473
  55   2.0000     -10.284788      -279.8633
  56   2.0000     -10.282712      -279.8068
  57   2.0000     -10.282572      -279.8030
  58   2.0000     -10.282104      -279.7903
  59   2.0000     -10.280532      -279.7475
  60   2.0000     -10.280208      -279.7387
  61   2.0000     -10.279786      -279.7272
  62   2.0000     -10.277737      -279.6714
  63   2.0000     -10.273424      -279.5541
  64   2.0000     -10.272695      -279.5342
  65   2.0000     -10.271949      -279.5139
  66   2.0000     -10.271204      -279.4937
  67   2.0000     -10.270767      -279.4818
  68   2.0000     -10.269041      -279.4348
  69   2.0000     -10.259448      -279.1738
  70   2.0000     -10.259359      -279.1713
  71   2.0000     -10.256833      -279.1026
  72   2.0000     -10.256332      -279.0890
  73   2.0000     -10.252822      -278.9935
  74   2.0000     -10.251411      -278.9551
  75   2.0000     -10.250347      -278.9261
  76   2.0000     -10.246504      -278.8216
  77   2.0000      -8.133176      -221.3150
  78   2.0000      -8.061229      -219.3572
  79   2.0000      -8.058943      -219.2950
  80   2.0000      -8.052743      -219.1263
  81   2.0000      -8.052227      -219.1122
  82   2.0000      -6.104323      -166.1071
  83   2.0000      -6.096534      -165.8951
  84   2.0000      -6.095860      -165.8768
  85   2.0000      -6.030299      -164.0928
  86   2.0000      -6.028066      -164.0320
  87   2.0000      -6.026369      -163.9858
  88   2.0000      -6.024126      -163.9248
  89   2.0000      -6.023520      -163.9083
  90   2.0000      -6.022068      -163.8688
  91   2.0000      -6.021603      -163.8561
  92   2.0000      -6.021207      -163.8454
  93   2.0000      -6.017732      -163.7508
  94   2.0000      -6.017128      -163.7344
  95   2.0000      -6.015001      -163.6765
  96   2.0000      -6.014582      -163.6651
  97   2.0000      -5.365840      -146.0119
  98   2.0000      -5.364241      -145.9684
  99   2.0000      -3.729417      -101.4826
 100   2.0000      -3.728081      -101.4462
 101   2.0000      -3.727907      -101.4415
 102   2.0000      -3.726856      -101.4129
 103   2.0000      -3.726477      -101.4026
 104   2.0000      -3.725155      -101.3666
 105   2.0000      -1.342054       -36.5192
 106   2.0000      -1.327926       -36.1347
 107   2.0000      -1.139711       -31.0131
 108   2.0000      -1.118864       -30.4459
 109   2.0000      -1.116664       -30.3860
 110   2.0000      -1.114277       -30.3210
 111   2.0000      -1.039630       -28.2898
 112   2.0000      -1.010833       -27.5062
 113   2.0000      -1.007726       -27.4216
 114   2.0000      -1.002798       -27.2875
 115   2.0000      -0.999495       -27.1977
 116   2.0000      -0.994392       -27.0588
 117   2.0000      -0.988091       -26.8873
 118   2.0000      -0.986168       -26.8350
 119   2.0000      -0.984840       -26.7989
 120   2.0000      -0.983012       -26.7491
 121   2.0000      -0.980083       -26.6694
 122   2.0000      -0.970675       -26.4134
 123   2.0000      -0.958852       -26.0917
 124   2.0000      -0.947609       -25.7858
 125   2.0000      -0.945185       -25.7198
 126   2.0000      -0.905351       -24.6359
 127   2.0000      -0.897634       -24.4259
 128   2.0000      -0.895629       -24.3713
 129   2.0000      -0.893186       -24.3048
 130   2.0000      -0.885126       -24.0855
 131   2.0000      -0.883253       -24.0345
 132   2.0000      -0.865891       -23.5621
 133   2.0000      -0.863734       -23.5034
 134   2.0000      -0.861226       -23.4351
 135   2.0000      -0.849035       -23.1034
 136   2.0000      -0.842943       -22.9376
 137   2.0000      -0.842824       -22.9344
 138   2.0000      -0.826292       -22.4845
 139   2.0000      -0.823826       -22.4174
 140   2.0000      -0.822798       -22.3895
 141   2.0000      -0.815777       -22.1984
 142   2.0000      -0.812242       -22.1022
 143   2.0000      -0.802562       -21.8388
 144   2.0000      -0.800178       -21.7739
 145   2.0000      -0.791887       -21.5483
 146   2.0000      -0.789292       -21.4777
 147   2.0000      -0.785615       -21.3777
 148   2.0000      -0.773174       -21.0391
 149   2.0000      -0.768256       -20.9053
 150   2.0000      -0.765450       -20.8290
 151   2.0000      -0.760157       -20.6849
 152   2.0000      -0.753365       -20.5001
 153   2.0000      -0.747063       -20.3286
 154   2.0000      -0.743696       -20.2370
 155   2.0000      -0.737204       -20.0603
 156   2.0000      -0.726282       -19.7631
 157   2.0000      -0.709033       -19.2938
 158   2.0000      -0.697176       -18.9711
 159   2.0000      -0.690473       -18.7887
 160   2.0000      -0.687904       -18.7188
 161   2.0000      -0.682330       -18.5671
 162   2.0000      -0.676911       -18.4197
 163   2.0000      -0.675076       -18.3697
 164   2.0000      -0.670562       -18.2469
 165   2.0000      -0.670145       -18.2356
 166   2.0000      -0.662873       -18.0377
 167   2.0000      -0.660695       -17.9784
 168   2.0000      -0.654484       -17.8094
 169   2.0000      -0.648055       -17.6345
 170   2.0000      -0.638068       -17.3627
 171   2.0000      -0.633839       -17.2476
 172   2.0000      -0.621795       -16.9199
 173   2.0000      -0.620012       -16.8714
 174   2.0000      -0.617938       -16.8149
 175   2.0000      -0.615717       -16.7545
 176   2.0000      -0.611212       -16.6319
 177   2.0000      -0.606650       -16.5078
 178   2.0000      -0.604067       -16.4375
 179   2.0000      -0.601981       -16.3807
 180   2.0000      -0.593393       -16.1471
 181   2.0000      -0.587068       -15.9749
 182   2.0000      -0.584767       -15.9123
 183   2.0000      -0.577397       -15.7118
 184   2.0000      -0.569626       -15.5003
 185   2.0000      -0.569091       -15.4857
 186   2.0000      -0.565665       -15.3925
 187   2.0000      -0.564430       -15.3589
 188   2.0000      -0.559380       -15.2215
 189   2.0000      -0.552239       -15.0272
 190   2.0000      -0.544770       -14.8240
 191   2.0000      -0.542595       -14.7648
 192   2.0000      -0.540974       -14.7207
 193   2.0000      -0.533750       -14.5241
 194   2.0000      -0.531615       -14.4660
 195   2.0000      -0.530979       -14.4487
 196   2.0000      -0.528748       -14.3880
 197   2.0000      -0.527265       -14.3476
 198   2.0000      -0.522932       -14.2297
 199   2.0000      -0.521138       -14.1809
 200   2.0000      -0.519729       -14.1426
 201   2.0000      -0.517573       -14.0839
 202   2.0000      -0.516929       -14.0664
 203   2.0000      -0.512764       -13.9530
 204   2.0000      -0.511959       -13.9311
 205   2.0000      -0.510815       -13.9000
 206   2.0000      -0.508746       -13.8437
 207   2.0000      -0.508336       -13.8325
 208   2.0000      -0.507050       -13.7975
 209   2.0000      -0.504667       -13.7327
 210   2.0000      -0.497455       -13.5364
 211   2.0000      -0.495684       -13.4882
 212   2.0000      -0.489925       -13.3315
 213   2.0000      -0.488852       -13.3024
 214   2.0000      -0.488620       -13.2960
 215   2.0000      -0.487366       -13.2619
 216   2.0000      -0.486663       -13.2428
 217   2.0000      -0.485835       -13.2203
 218   2.0000      -0.484826       -13.1928
 219   2.0000      -0.483213       -13.1489
 220   2.0000      -0.482776       -13.1370
 221   2.0000      -0.481863       -13.1122
 222   2.0000      -0.479844       -13.0572
 223   2.0000      -0.477157       -12.9841
 224   2.0000      -0.474942       -12.9238
 225   2.0000      -0.473004       -12.8711
 226   2.0000      -0.471605       -12.8330
 227   2.0000      -0.471291       -12.8245
 228   2.0000      -0.470265       -12.7966
 229   2.0000      -0.469909       -12.7869
 230   2.0000      -0.469290       -12.7700
 231   2.0000      -0.468401       -12.7458
 232   2.0000      -0.466738       -12.7006
 233   2.0000      -0.465380       -12.6636
 234   2.0000      -0.462260       -12.5787
 235   2.0000      -0.459541       -12.5048
 236   2.0000      -0.454907       -12.3786
 237   2.0000      -0.450741       -12.2653
 238   2.0000      -0.446385       -12.1467
 239   2.0000      -0.442855       -12.0507
 240   2.0000      -0.441033       -12.0011
 241   2.0000      -0.438733       -11.9385
 242   2.0000      -0.438221       -11.9246
 243   2.0000      -0.437289       -11.8992
 244   2.0000      -0.435937       -11.8625
 245   2.0000      -0.435454       -11.8493
 246   2.0000      -0.434996       -11.8369
 247   2.0000      -0.433671       -11.8008
 248   2.0000      -0.433114       -11.7856
 249   2.0000      -0.431586       -11.7441
 250   2.0000      -0.430015       -11.7013
 251   2.0000      -0.428295       -11.6545
 252   2.0000      -0.425579       -11.5806
 253   2.0000      -0.421239       -11.4625
 254   2.0000      -0.419215       -11.4074
 255   2.0000      -0.415283       -11.3004
 256   2.0000      -0.412339       -11.2203
 257   2.0000      -0.409485       -11.1427
 258   2.0000      -0.406643       -11.0653
 259   2.0000      -0.404309       -11.0018
 260   2.0000      -0.403367       -10.9762
 261   2.0000      -0.400894       -10.9089
 262   2.0000      -0.397986       -10.8298
 263   2.0000      -0.395025       -10.7492
 264   2.0000      -0.390007       -10.6126
 265   2.0000      -0.389352       -10.5948
 266   2.0000      -0.388102       -10.5608
 267   2.0000      -0.381205       -10.3731
 268   2.0000      -0.379025       -10.3138
 269   2.0000      -0.376101       -10.2342
 270   2.0000      -0.370066       -10.0700
 271   2.0000      -0.365135        -9.9358
 272   2.0000      -0.357580        -9.7302
 273   2.0000      -0.353353        -9.6152
 274   2.0000      -0.343323        -9.3423
 275   2.0000      -0.342468        -9.3190
 276   2.0000      -0.329284        -8.9603
 277   2.0000      -0.328889        -8.9495
 278   2.0000      -0.327094        -8.9007
 279   2.0000      -0.326678        -8.8894
 280   2.0000      -0.325647        -8.8613
 281   2.0000      -0.323548        -8.8042
 282   2.0000      -0.321200        -8.7403
 283   2.0000      -0.320626        -8.7247
 284   2.0000      -0.317445        -8.6381
 285   2.0000      -0.301050        -8.1920
 286   2.0000      -0.297540        -8.0965
 287   2.0000      -0.287269        -7.8170
 288   2.0000      -0.257049        -6.9947
 289   2.0000      -0.224135        -6.0990
 290   0.0000      -0.116263        -3.1637
 291   0.0000      -0.079092        -2.1522
 292   0.0000      -0.075467        -2.0536
 293   0.0000      -0.050719        -1.3801
 294   0.0000      -0.046882        -1.2757

MULLIKEN ATOMIC CHARGES
-----------------------
   0 C :   -0.078645
   1 C :   -0.081738
   2 C :    0.115417
   3 C :   -0.077457
   4 C :    0.116717
   5 C :   -0.082320
   6 C :    0.007863
   7 C :    0.020416
   8 C :    0.280193
   9 C :   -0.354109
  10 C :   -0.176231
  11 N :    0.143227
  12 C :   -0.199674
  13 N :    0.166496
  14 C :   -0.146370
  15 C :    0.134226
  16 O :   -0.149843
  17 C :    0.087118
  18 C :   -0.114391
  19 C :    0.006741
  20 C :   -0.136914
  21 C :   -0.068448
  22 S :    0.172224
  23 C :   -0.055477
  24 C :   -0.103794
  25 Si:    0.553323
  26 C :   -0.204019
  27 C :   -0.209410
  28 C :   -0.041045
  29 C :   -0.184402
  30 S :    0.172877
  31 C :    0.215220
  32 C :   -0.079615
  33 C :   -0.067806
  34 N :   -0.040228
  35 C :    0.153273
  36 C :    0.137708
  37 N :    0.007911
  38 F :   -0.146833
  39 F :   -0.136258
  40 C :    0.193656
  41 C :   -0.009462
  42 C :   -0.037222
  43 N :   -0.321527
  44 S :    0.545676
  45 N :   -0.288482
  46 C :   -0.181824
  47 C :   -0.036651
  48 C :   -0.107915
  49 C :   -0.049944
  50 S :    0.175121
  51 C :   -0.076196
  52 C :   -0.118799
  53 Si:    0.549306
  54 C :   -0.206333
  55 C :   -0.206655
  56 C :    0.012920
  57 C :   -0.092630
  58 S :    0.169334
  59 C :    0.057892
  60 C :   -0.148158
  61 C :    0.140776
  62 O :   -0.148326
  63 C :    0.002462
  64 C :    0.030206
  65 C :   -0.076287
  66 C :   -0.080644
  67 C :   -0.078687
  68 C :   -0.080635
  69 C :    0.113250
  70 C :    0.113556
  71 C :    0.241895
  72 C :   -0.326474
  73 C :   -0.209295
  74 N :    0.171982
  75 C :   -0.174418
  76 N :    0.145941
  77 H :   -0.014183
  78 H :    0.023055
  79 H :    0.026843
  80 H :    0.025240
  81 H :    0.027302
  82 H :    0.015333
  83 H :    0.025353
  84 H :   -0.019384
  85 H :    0.018844
  86 H :   -0.000903
  87 H :    0.054212
  88 H :    0.046281
  89 H :    0.043488
  90 H :    0.070895
  91 H :    0.044798
  92 H :    0.044567
  93 H :   -0.004257
  94 H :   -0.010509
  95 H :    0.055046
  96 H :    0.043739
  97 H :    0.043649
  98 H :    0.065515
  99 H :    0.043214
 100 H :    0.044179
 101 H :   -0.011032
 102 H :    0.020439
 103 H :   -0.011095
 104 H :   -0.018440
 105 H :    0.027804
 106 H :    0.016002
 107 H :    0.025435
 108 H :    0.023412
 109 H :    0.026391
 110 H :    0.025439
Sum of atomic charges:   -0.0000000

LOEWDIN ATOMIC CHARGES
----------------------
   0 C :   -0.009611
   1 C :   -0.005505
   2 C :   -0.042453
   3 C :   -0.009365
   4 C :   -0.042816
   5 C :    0.005805
   6 C :   -0.049041
   7 C :   -0.016366
   8 C :    0.070470
   9 C :   -0.151560
  10 C :   -0.020289
  11 N :   -0.062915
  12 C :   -0.016147
  13 N :   -0.050956
  14 C :   -0.105681
  15 C :    0.082032
  16 O :   -0.150363
  17 C :    0.046478
  18 C :   -0.189373
  19 C :   -0.012632
  20 C :   -0.196432
  21 C :   -0.165682
  22 S :    0.459552
  23 C :   -0.196212
  24 C :   -0.194910
  25 Si:    0.681721
  26 C :   -0.242906
  27 C :   -0.240921
  28 C :   -0.037689
  29 C :   -0.164415
  30 S :    0.476952
  31 C :   -0.046044
  32 C :   -0.009511
  33 C :   -0.016123
  34 N :   -0.052571
  35 C :    0.061840
  36 C :    0.057709
  37 N :   -0.027783
  38 F :   -0.034817
  39 F :   -0.026311
  40 C :   -0.044800
  41 C :   -0.038567
  42 C :   -0.047836
  43 N :   -0.298111
  44 S :    0.667687
  45 N :   -0.277569
  46 C :   -0.167140
  47 C :   -0.037504
  48 C :   -0.196556
  49 C :   -0.197959
  50 S :    0.479630
  51 C :   -0.162666
  52 C :   -0.204411
  53 Si:    0.680415
  54 C :   -0.243079
  55 C :   -0.241183
  56 C :   -0.010737
  57 C :   -0.184848
  58 S :    0.473199
  59 C :    0.047482
  60 C :   -0.106986
  61 C :    0.082936
  62 O :   -0.150533
  63 C :   -0.049415
  64 C :   -0.014472
  65 C :   -0.008785
  66 C :   -0.004925
  67 C :   -0.010273
  68 C :    0.005485
  69 C :   -0.043349
  70 C :   -0.042484
  71 C :    0.062711
  72 C :   -0.148707
  73 C :   -0.035129
  74 N :   -0.053629
  75 C :   -0.018952
  76 N :   -0.059347
  77 H :    0.034855
  78 H :    0.035167
  79 H :    0.038046
  80 H :    0.036789
  81 H :    0.037927
  82 H :    0.032471
  83 H :    0.037124
  84 H :    0.035324
  85 H :    0.044301
  86 H :    0.032416
  87 H :    0.040113
  88 H :    0.036218
  89 H :    0.034839
  90 H :    0.046848
  91 H :    0.036354
  92 H :    0.035931
  93 H :    0.026932
  94 H :    0.026257
  95 H :    0.040453
  96 H :    0.034948
  97 H :    0.035297
  98 H :    0.044828
  99 H :    0.035108
 100 H :    0.035693
 101 H :    0.033503
 102 H :    0.049795
 103 H :    0.035354
 104 H :    0.035210
 105 H :    0.037831
 106 H :    0.032406
 107 H :    0.037003
 108 H :    0.035237
 109 H :    0.037801
 110 H :    0.036868

  Mayer bond orders larger than 0.100000
B(  0-C ,  1-C ) :   1.3720 B(  0-C ,  7-C ) :   1.3549 B(  0-C , 77-H ) :   0.9861
B(  1-C ,  2-C ) :   1.0944 B(  1-C ,  3-C ) :   1.3804 B(  2-C , 78-H ) :   0.9509
B(  2-C , 79-H ) :   0.9394 B(  2-C , 80-H ) :   0.9411 B(  3-C ,  4-C ) :   1.0928
B(  3-C ,  5-C ) :   1.3506 B(  4-C , 81-H ) :   0.9410 B(  4-C , 82-H ) :   0.9521
B(  4-C , 83-H ) :   0.9405 B(  5-C ,  6-C ) :   1.3666 B(  5-C , 84-H ) :   1.0093
B(  6-C ,  7-C ) :   1.3372 B(  6-C , 15-C ) :   0.9206 B(  7-C ,  8-C ) :   0.9968
B(  8-C ,  9-C ) :   1.6239 B(  8-C , 14-C ) :   1.0524 B(  9-C , 10-C ) :   1.1318
B(  9-C , 12-C ) :   1.1704 B( 10-C , 11-N ) :   2.9831 B( 12-C , 13-N ) :   2.9840
B( 14-C , 15-C ) :   0.9475 B( 14-C , 17-C ) :   1.6337 B( 15-C , 16-O ) :   2.2600
B( 17-C , 18-C ) :   1.1617 B( 17-C , 85-H ) :   0.9278 B( 18-C , 19-C ) :   1.3949
B( 18-C , 22-S ) :   1.0850 B( 19-C , 20-C ) :   1.3488 B( 19-C , 86-H ) :   0.9898
B( 20-C , 21-C ) :   1.4657 B( 20-C , 25-Si) :   0.8601 B( 21-C , 22-S ) :   1.1432
B( 21-C , 23-C ) :   1.1773 B( 23-C , 24-C ) :   1.4617 B( 23-C , 30-S ) :   1.0891
B( 24-C , 25-Si) :   0.8748 B( 24-C , 28-C ) :   1.2711 B( 25-Si, 26-C ) :   1.0486
B( 25-Si, 27-C ) :   1.0587 B( 26-C , 87-H ) :   0.9514 B( 26-C , 88-H ) :   0.9564
B( 26-C , 89-H ) :   0.9555 B( 27-C , 90-H ) :   0.9482 B( 27-C , 91-H ) :   0.9530
B( 27-C , 92-H ) :   0.9551 B( 28-C , 29-C ) :   1.4185 B( 28-C , 93-H ) :   0.9914
B( 29-C , 30-S ) :   1.1115 B( 29-C , 31-C ) :   1.1875 B( 31-C , 32-C ) :   1.2932
B( 31-C , 40-C ) :   0.1202 B( 31-C , 42-C ) :   1.1792 B( 32-C , 33-C ) :   1.1129
B( 32-C , 37-N ) :   1.4353 B( 33-C , 34-N ) :   1.3890 B( 33-C , 40-C ) :   1.2838
B( 34-N , 35-C ) :   1.6517 B( 35-C , 36-C ) :   1.1114 B( 35-C , 39-F ) :   1.1878
B( 36-C , 37-N ) :   1.6666 B( 36-C , 38-F ) :   1.1661 B( 40-C , 41-C ) :   1.1976
B( 40-C , 46-C ) :   1.1925 B( 41-C , 42-C ) :   1.1093 B( 41-C , 45-N ) :   1.5139
B( 42-C , 43-N ) :   1.4858 B( 43-N , 44-S ) :   1.2700 B( 43-N , 45-N ) :   0.1521
B( 44-S , 45-N ) :   1.2754 B( 46-C , 47-C ) :   1.4262 B( 46-C , 50-S ) :   1.1050
B( 47-C , 48-C ) :   1.2779 B( 47-C , 94-H ) :   0.9865 B( 48-C , 49-C ) :   1.4601
B( 48-C , 53-Si) :   0.8782 B( 49-C , 50-S ) :   1.0786 B( 49-C , 51-C ) :   1.1880
B( 51-C , 52-C ) :   1.4599 B( 51-C , 58-S ) :   1.1428 B( 52-C , 53-Si) :   0.8664
B( 52-C , 56-C ) :   1.3043 B( 53-Si, 54-C ) :   1.0462 B( 53-Si, 55-C ) :   1.0527
B( 54-C , 95-H ) :   0.9522 B( 54-C , 96-H ) :   0.9558 B( 54-C , 97-H ) :   0.9563
B( 55-C , 98-H ) :   0.9511 B( 55-C , 99-H ) :   0.9560 B( 55-C ,100-H ) :   0.9549
B( 56-C , 57-C ) :   1.3994 B( 56-C ,101-H ) :   1.0028 B( 57-C , 58-S ) :   1.0890
B( 57-C , 59-C ) :   1.1665 B( 59-C , 60-C ) :   1.6164 B( 59-C ,102-H ) :   0.9483
B( 60-C , 61-C ) :   0.9423 B( 60-C , 71-C ) :   1.0428 B( 61-C , 62-O ) :   2.2655
B( 61-C , 63-C ) :   0.9232 B( 63-C , 64-C ) :   1.3365 B( 63-C , 68-C ) :   1.3668
B( 64-C , 65-C ) :   1.3584 B( 64-C , 71-C ) :   0.9998 B( 65-C , 66-C ) :   1.3714
B( 65-C ,103-H ) :   0.9882 B( 66-C , 67-C ) :   1.3798 B( 66-C , 70-C ) :   1.0933
B( 67-C , 68-C ) :   1.3558 B( 67-C , 69-C ) :   1.0923 B( 68-C ,104-H ) :   1.0087
B( 69-C ,105-H ) :   0.9414 B( 69-C ,106-H ) :   0.9524 B( 69-C ,107-H ) :   0.9408
B( 70-C ,108-H ) :   0.9514 B( 70-C ,109-H ) :   0.9396 B( 70-C ,110-H ) :   0.9415
B( 71-C , 72-C ) :   1.6476 B( 72-C , 73-C ) :   1.1503 B( 72-C , 75-C ) :   1.1395
B( 73-C , 74-N ) :   3.0315 B( 75-C , 76-N ) :   2.9915

-----------------------------------------------------------------------------
         ABSORPTION SPECTRUM VIA TRANSITION ELECTRIC DIPOLE MOMENTS
-----------------------------------------------------------------------------
State   Energy  Wavelength   fosc         T2         TX        TY        TZ
        (cm-1)    (nm)                  (au**2)     (au)      (au)      (au)
-----------------------------------------------------------------------------
   0    8826.6   1132.9   0.979481946  36.53239   5.91961  -1.19441   0.25307
   1   16895.8    591.9   0.065500087   1.27626   0.29005  -1.09181  -0.00866
   2   17882.6    559.2   0.767982694  14.13826   3.55745  -0.81452  -0.90520
   3   18349.0    545.0   0.128160795   2.29941   1.04525   0.90168  -0.62757
   4   23872.2    418.9   0.067182045   0.92648  -0.73618   0.19290   0.58933
   5   24148.1    414.1   0.386380046   5.26752  -2.29376   0.03335  -0.07128
   6   24938.8    401.0   0.138124504   1.82335  -1.25135   0.00971  -0.50732
   7   25374.3    394.1   0.015458338   0.20056   0.06929  -0.10946  -0.42869
   8   26871.0    372.1   0.033142589   0.40605   0.29185  -0.38717   0.41349
   9   27006.4    370.3   0.035415313   0.43172   0.18142  -0.25766   0.57656
  10   27060.6    369.5   0.002296050   0.02793  -0.05285  -0.11777  -0.10616
  11   27169.5    368.1   0.052850113   0.64038   0.23586  -0.39771  -0.65313
  12   27835.4    359.3   0.123329280   1.45863  -0.81014  -0.87144   0.20713
  13   28560.6    350.1   0.256038359   2.95130   1.69597   0.27345  -0.01518
  14   29547.1    338.4   0.063067938   0.70270  -0.03943   0.69833  -0.46203
  15   30182.7    331.3   0.077580597   0.84619  -0.82747   0.16958  -0.36433
  16   30236.1    330.7   0.042751922   0.46548   0.61473  -0.14177   0.25979
  17   30406.0    328.9   0.012029000   0.13024  -0.02844   0.32928  -0.14494
  18   30628.8    326.5   0.009275202   0.09969  -0.26676  -0.14884   0.07990
  19   31027.6    322.3   0.033938048   0.36009   0.48385  -0.14001  -0.32615
  20   31214.6    320.4   0.002783825   0.02936   0.03611  -0.12707   0.10913
  21   31626.9    316.2   0.042001311   0.43720  -0.09874  -0.38140   0.53103
  22   32025.0    312.3   0.048886826   0.50255  -0.61965  -0.34162   0.04334
  23   32053.6    312.0   0.065092035   0.66854   0.22829  -0.45026   0.64318
  24   32362.2    309.0   0.205433450   2.08982  -0.41010  -1.14521   0.78111
  25   32599.4    306.8   0.003455694   0.03490   0.02994   0.03249   0.18151
  26   32694.8    305.9   0.144631687   1.45633   0.84362   0.67211   0.54120
  27   33296.9    300.3   0.013770015   0.13615   0.35795   0.08210   0.03576
  28   33433.0    299.1   0.084394647   0.83103   0.69984   0.43242  -0.39277
  29   33765.3    296.2   0.114688078   1.11821  -0.91837  -0.39589  -0.34362
  30   33831.0    295.6   0.027963926   0.27212   0.00924   0.49732  -0.15719
  31   34144.3    292.9   0.023704163   0.22855   0.31390  -0.05800   0.35589
  32   34814.0    287.2   0.104571323   0.98886   0.92916   0.15634  -0.31793
  33   34958.0    286.1   0.066683013   0.62798   0.16256   0.77276  -0.06623
  34   35259.5    283.6   0.110255925   1.02944   0.80098   0.51860  -0.34485
  35   35298.2    283.3   0.146939618   1.37045  -1.13960   0.05484  -0.26222
  36   35830.9    279.1   0.011385571   0.10461  -0.19295   0.15074  -0.21133
  37   36014.7    277.7   0.550777748   5.03469  -1.35351  -1.39559   1.12028
  38   36154.6    276.6   0.116153220   1.05765  -0.68893  -0.75218  -0.13134
  39   36439.0    274.4   0.205138076   1.85334  -0.72864  -0.77308  -0.85134
  40   36476.1    274.2   0.431097410   3.89083   1.66599   0.96560  -0.42769
  41   36573.0    273.4   0.095901975   0.86326   0.67032   0.63028   0.12917
  42   37039.2    270.0   0.009723417   0.08642   0.01819  -0.16524   0.24247
  43   37250.3    268.5   0.014087688   0.12450  -0.25389  -0.11882   0.21431
  44   37748.6    264.9   0.020681698   0.18037   0.05730  -0.15309   0.39198
  45   38238.1    261.5   0.007181734   0.06183   0.16349   0.17605  -0.06409
  46   38439.1    260.2   0.034566842   0.29605  -0.38359   0.33267  -0.19553
  47   38675.3    258.6   0.199047440   1.69433  -0.44329   0.77078  -0.95065
  48   38865.4    257.3   0.072653709   0.61542   0.45442  -0.01312   0.63933
  49   39327.8    254.3   0.001595266   0.01335  -0.00186   0.08942   0.07317
  50   40063.0    249.6   0.087307379   0.71744   0.17998   0.76829  -0.30786
  51   40137.0    249.1   0.008435453   0.06919   0.03618   0.25287  -0.06273
  52   40192.6    248.8   0.004743689   0.03885   0.14370  -0.05803   0.12182

FINAL SINGLE POINT ENERGY     -5584.143250750190

DIPOLE MOMENT
-------------
                                X             Y             Z
Electronic contribution:     18.76897     -31.99484       4.44331
Nuclear contribution   :    -20.28701      32.29302      -4.20116
                        -----------------------------------------
Total Dipole Moment    :     -1.51804       0.29818       0.24214
                        -----------------------------------------
Magnitude (a.u.)       :      1.56588
Magnitude (Debye)      :      3.98016

Rotational constants in cm-1:     0.001804     0.000192     0.000179
Rotational constants in MHz :    54.088663     5.747058     5.379968

                             ****ORCA TERMINATED NORMALLY****
TOTAL RUN TIME: 0 days 0 hours 12 minutes 3 seconds 775 msec
