                         Program Version 4.2.0 -  RELEASE  -
|  1> # ORCA input file
|  2> # SCF done       -202.932731063101          0.000404363766
|  3> ! CAM-B3LYP def2-SVP def2/J RIJCOSX Grid4 TightSCF
|  4> %maxcore 5000
|  5> %tddft
|  6>     Mode sTDDFT
|  7>     Ethresh 5.0
|  8>     maxcore 5000
|  9> end
| 10>
| 11> %pal
| 12>   nprocs 6
| 13>   end
| 14> * xyz 0 1
| 15>    C        4.66469        -6.92632        10.76167
| 16>    C        3.66348        -6.79597        11.71944
| 17>    C        3.95822        -6.06940        12.99247
| 18>    C        2.38859        -7.34207        11.49806
| 19>    C        1.31469        -7.19869        12.52790
| 20>    C        2.12900        -8.02191        10.31295
| 21>    C        3.12597        -8.14340         9.36632
| 22>    C        4.40322        -7.59839         9.57858
| 23>    C        5.23798        -7.87994         8.41749
| 24>    C        6.52039        -7.43640         8.22793
| 25>    C        7.23937        -6.67576         9.17429
| 26>    N        7.87832        -6.06009         9.90290
| 27>    C        7.30037        -7.64852         7.07097
| 28>    N        8.00038        -7.75335         6.16680
| 29>    C        4.44079        -8.64894         7.47636
| 30>    C        3.07895        -8.82791         8.06312
| 31>    O        2.15571        -9.47167         7.62037
| 32>    C        4.89704        -9.25410         6.34603
| 33>    C        4.11935        -9.88962         5.34506
| 34>    C        2.80246        -9.64577         4.89451
| 35>    C        2.55810       -10.56278         3.84671
| 36>    C        3.78788       -11.27436         3.68780
| 37>    N        4.69271       -10.86015         4.57610
| 38>    O        4.04667       -12.17778         2.76987
| 39>    C        5.34849       -12.74160         2.80528
| 40>    C        1.25520       -10.27437         3.36501
| 41>    N        0.74062        -9.20897         4.02889
| 42>    C        1.63750        -8.81114         4.93221
| 43>    O        1.46951        -7.77034         5.70323
| 44>    C        0.23327        -7.08372         5.56632
| 45>    C        0.51865       -10.95599         2.35573
| 46>    C       -0.47160       -10.31310         1.57706
| 47>    C       -1.22865       -11.02273         0.58708
| 48>    N       -2.26179       -10.40649        -0.02361
| 49>    C       -2.48315        -9.15890         0.22116
| 50>    C       -1.63220        -8.41914         1.08890
| 51>    N       -0.67926        -8.99042         1.74414
| 52>    F       -1.78995        -7.10416         1.24094
| 53>    F       -3.52429        -8.57979        -0.36924
| 54>    C       -0.97645       -12.37895         0.27542
| 55>    C       -0.00262       -13.03037         1.06357
| 56>    C        0.72476       -12.32684         2.09792
| 57>    N        1.54747       -13.13795         2.76106
| 58>    S        1.46023       -14.60155         2.11822
| 59>    N        0.36647       -14.30816         0.98625
| 60>    C       -1.68721       -13.06918        -0.74601
| 61>    C       -2.29182       -12.56582        -1.92412
| 62>    C       -2.85414       -13.68431        -2.58207
| 63>    C       -2.54186       -14.80549        -1.74876
| 64>    N       -1.84439       -14.42214        -0.68348
| 65>    O       -2.87961       -16.04894        -1.99278
| 66>    C       -2.46348       -17.00681        -1.03057
| 67>    C       -3.44122       -13.20937        -3.77332
| 68>    N       -3.22571       -11.86561        -3.88216
| 69>    C       -2.54240       -11.46628        -2.80862
| 70>    O       -2.12930       -10.23352        -2.64378
| 71>    C       -2.58140        -9.28116        -3.59394
| 72>    C       -4.07908       -13.98589        -4.76983
| 73>    C       -4.68427       -13.54157        -5.90297
| 74>    C       -4.90462       -14.47097        -7.05260
| 75>    O       -4.89090       -15.67965        -7.01886
| 76>    C       -5.06954       -13.58811        -8.21978
| 77>    C       -5.08868       -12.24424        -7.80134
| 78>    C       -5.20835       -11.23820        -8.74396
| 79>    C       -5.31588       -11.56509       -10.09270
| 80>    C       -5.30980       -12.90838       -10.50340
| 81>    C       -5.18344       -13.91835        -9.55592
| 82>    C       -5.43597       -13.25606       -11.95210
| 83>    C       -5.44142       -10.47143       -11.10429
| 84>    C       -5.00914       -12.20024        -6.34541
| 85>    C       -5.38212       -11.15636        -5.54735
| 86>    C       -5.62408       -11.27579        -4.15872
| 87>    N       -5.98749       -11.32180        -3.07061
| 88>    C       -5.67912        -9.86797        -6.03283
| 89>    N       -5.89337        -8.79278        -6.37518
| 90>    H        5.63703        -6.50442        10.95900
| 91>    H        4.98260        -5.70782        13.00214
| 92>    H        3.81230        -6.72559        13.84988
| 93>    H        3.28756        -5.21922        13.11178
| 94>    H        1.10455        -6.14680        12.71901
| 95>    H        1.62622        -7.64726        13.47062
| 96>    H        0.39888        -7.68209        12.19920
| 97>    H        1.15781        -8.45380        10.12238
| 98>    H        5.96387        -9.30774         6.16463
| 99>    H        6.10476       -11.95613         2.75559
|100>    H        5.41866       -13.40079         1.94265
|101>    H        5.49195       -13.30335         3.72998
|102>    H        0.34940        -6.13695         6.08988
|103>    H       -0.56736        -7.67235         6.01777
|104>    H        0.00116        -6.92760         4.51175
|105>    H       -2.66395       -17.98289        -1.46689
|106>    H       -3.02960       -16.87796        -0.10615
|107>    H       -1.40267       -16.88277        -0.80794
|108>    H       -2.39435        -9.63357        -4.60992
|109>    H       -2.02894        -8.36513        -3.39559
|110>    H       -3.65210        -9.10756        -3.46726
|111>    H       -3.99048       -15.06097        -4.65726
|112>    H       -5.21128       -10.20075        -8.44815
|113>    H       -5.17510       -14.95676        -9.85196
|114>    H       -4.61910       -12.81682       -12.52394
|115>    H       -6.36843       -12.86742       -12.35999
|116>    H       -5.41786       -14.33326       -12.09246
|117>    H       -5.43031        -9.49762       -10.62288
|118>    H       -6.37132       -10.57247       -11.66276
|119>    H       -4.62169       -10.51660       -11.82063
|120> *
|121>
|122>                          ****END OF INPUT****

CARTESIAN COORDINATES (ANGSTROEM)
---------------------------------
  C      4.664690   -6.926320   10.761670
  C      3.663480   -6.795970   11.719440
  C      3.958220   -6.069400   12.992470
  C      2.388590   -7.342070   11.498060
  C      1.314690   -7.198690   12.527900
  C      2.129000   -8.021910   10.312950
  C      3.125970   -8.143400    9.366320
  C      4.403220   -7.598390    9.578580
  C      5.237980   -7.879940    8.417490
  C      6.520390   -7.436400    8.227930
  C      7.239370   -6.675760    9.174290
  N      7.878320   -6.060090    9.902900
  C      7.300370   -7.648520    7.070970
  N      8.000380   -7.753350    6.166800
  C      4.440790   -8.648940    7.476360
  C      3.078950   -8.827910    8.063120
  O      2.155710   -9.471670    7.620370
  C      4.897040   -9.254100    6.346030
  C      4.119350   -9.889620    5.345060
  C      2.802460   -9.645770    4.894510
  C      2.558100  -10.562780    3.846710
  C      3.787880  -11.274360    3.687800
  N      4.692710  -10.860150    4.576100
  O      4.046670  -12.177780    2.769870
  C      5.348490  -12.741600    2.805280
  C      1.255200  -10.274370    3.365010
  N      0.740620   -9.208970    4.028890
  C      1.637500   -8.811140    4.932210
  O      1.469510   -7.770340    5.703230
  C      0.233270   -7.083720    5.566320
  C      0.518650  -10.955990    2.355730
  C     -0.471600  -10.313100    1.577060
  C     -1.228650  -11.022730    0.587080
  N     -2.261790  -10.406490   -0.023610
  C     -2.483150   -9.158900    0.221160
  C     -1.632200   -8.419140    1.088900
  N     -0.679260   -8.990420    1.744140
  F     -1.789950   -7.104160    1.240940
  F     -3.524290   -8.579790   -0.369240
  C     -0.976450  -12.378950    0.275420
  C     -0.002620  -13.030370    1.063570
  C      0.724760  -12.326840    2.097920
  N      1.547470  -13.137950    2.761060
  S      1.460230  -14.601550    2.118220
  N      0.366470  -14.308160    0.986250
  C     -1.687210  -13.069180   -0.746010
  C     -2.291820  -12.565820   -1.924120
  C     -2.854140  -13.684310   -2.582070
  C     -2.541860  -14.805490   -1.748760
  N     -1.844390  -14.422140   -0.683480
  O     -2.879610  -16.048940   -1.992780
  C     -2.463480  -17.006810   -1.030570
  C     -3.441220  -13.209370   -3.773320
  N     -3.225710  -11.865610   -3.882160
  C     -2.542400  -11.466280   -2.808620
  O     -2.129300  -10.233520   -2.643780
  C     -2.581400   -9.281160   -3.593940
  C     -4.079080  -13.985890   -4.769830
  C     -4.684270  -13.541570   -5.902970
  C     -4.904620  -14.470970   -7.052600
  O     -4.890900  -15.679650   -7.018860
  C     -5.069540  -13.588110   -8.219780
  C     -5.088680  -12.244240   -7.801340
  C     -5.208350  -11.238200   -8.743960
  C     -5.315880  -11.565090  -10.092700
  C     -5.309800  -12.908380  -10.503400
  C     -5.183440  -13.918350   -9.555920
  C     -5.435970  -13.256060  -11.952100
  C     -5.441420  -10.471430  -11.104290
  C     -5.009140  -12.200240   -6.345410
  C     -5.382120  -11.156360   -5.547350
  C     -5.624080  -11.275790   -4.158720
  N     -5.987490  -11.321800   -3.070610
  C     -5.679120   -9.867970   -6.032830
  N     -5.893370   -8.792780   -6.375180
  H      5.637030   -6.504420   10.959000
  H      4.982600   -5.707820   13.002140
  H      3.812300   -6.725590   13.849880
  H      3.287560   -5.219220   13.111780
  H      1.104550   -6.146800   12.719010
  H      1.626220   -7.647260   13.470620
  H      0.398880   -7.682090   12.199200
  H      1.157810   -8.453800   10.122380
  H      5.963870   -9.307740    6.164630
  H      6.104760  -11.956130    2.755590
  H      5.418660  -13.400790    1.942650
  H      5.491950  -13.303350    3.729980
  H      0.349400   -6.136950    6.089880
  H     -0.567360   -7.672350    6.017770
  H      0.001160   -6.927600    4.511750
  H     -2.663950  -17.982890   -1.466890
  H     -3.029600  -16.877960   -0.106150
  H     -1.402670  -16.882770   -0.807940
  H     -2.394350   -9.633570   -4.609920
  H     -2.028940   -8.365130   -3.395590
  H     -3.652100   -9.107560   -3.467260
  H     -3.990480  -15.060970   -4.657260
  H     -5.211280  -10.200750   -8.448150
  H     -5.175100  -14.956760   -9.851960
  H     -4.619100  -12.816820  -12.523940
  H     -6.368430  -12.867420  -12.359990
  H     -5.417860  -14.333260  -12.092460
  H     -5.430310   -9.497620  -10.622880
  H     -6.371320  -10.572470  -11.662760
  H     -4.621690  -10.516600  -11.820630

 Total Charge           Charge          ....    0
 Multiplicity           Mult            ....    1
 Number of Electrons    NEL             ....  520
 Basis Dimension        Dim             .... 1204

ORBITAL ENERGIES
----------------

  NO   OCC          E(Eh)            E(eV)
   0   2.0000     -89.034717     -2422.7578
   1   2.0000     -24.809785      -675.1086
   2   2.0000     -24.807865      -675.0563
   3   2.0000     -19.275548      -524.5143
   4   2.0000     -19.274967      -524.4985
   5   2.0000     -19.270864      -524.3869
   6   2.0000     -19.265206      -524.2329
   7   2.0000     -19.211922      -522.7830
   8   2.0000     -19.211843      -522.7808
   9   2.0000     -14.444941      -393.0668
  10   2.0000     -14.443683      -393.0326
  11   2.0000     -14.441463      -392.9722
  12   2.0000     -14.440669      -392.9506
  13   2.0000     -14.412861      -392.1939
  14   2.0000     -14.412798      -392.1922
  15   2.0000     -14.411898      -392.1677
  16   2.0000     -14.397458      -391.7748
  17   2.0000     -14.383597      -391.3976
  18   2.0000     -14.382550      -391.3691
  19   2.0000     -14.379975      -391.2990
  20   2.0000     -14.379194      -391.2778
  21   2.0000     -10.424127      -283.6549
  22   2.0000     -10.422912      -283.6218
  23   2.0000     -10.377983      -282.3993
  24   2.0000     -10.376028      -282.3461
  25   2.0000     -10.375809      -282.3401
  26   2.0000     -10.369078      -282.1570
  27   2.0000     -10.362535      -281.9789
  28   2.0000     -10.362082      -281.9666
  29   2.0000     -10.345815      -281.5239
  30   2.0000     -10.345480      -281.5148
  31   2.0000     -10.341127      -281.3964
  32   2.0000     -10.337383      -281.2945
  33   2.0000     -10.336539      -281.2715
  34   2.0000     -10.335462      -281.2422
  35   2.0000     -10.334817      -281.2247
  36   2.0000     -10.334233      -281.2088
  37   2.0000     -10.333305      -281.1835
  38   2.0000     -10.329611      -281.0830
  39   2.0000     -10.327069      -281.0138
  40   2.0000     -10.322582      -280.8917
  41   2.0000     -10.321257      -280.8557
  42   2.0000     -10.320786      -280.8429
  43   2.0000     -10.320544      -280.8363
  44   2.0000     -10.319134      -280.7979
  45   2.0000     -10.315554      -280.7005
  46   2.0000     -10.314669      -280.6764
  47   2.0000     -10.314149      -280.6623
  48   2.0000     -10.312400      -280.6147
  49   2.0000     -10.312227      -280.6100
  50   2.0000     -10.306445      -280.4526
  51   2.0000     -10.304363      -280.3960
  52   2.0000     -10.303806      -280.3808
  53   2.0000     -10.300504      -280.2910
  54   2.0000     -10.299487      -280.2633
  55   2.0000     -10.299265      -280.2573
  56   2.0000     -10.297951      -280.2215
  57   2.0000     -10.296219      -280.1744
  58   2.0000     -10.295434      -280.1530
  59   2.0000     -10.294316      -280.1226
  60   2.0000     -10.292774      -280.0806
  61   2.0000     -10.287435      -279.9353
  62   2.0000     -10.287069      -279.9254
  63   2.0000     -10.285952      -279.8950
  64   2.0000     -10.284885      -279.8659
  65   2.0000     -10.284628      -279.8590
  66   2.0000     -10.283589      -279.8307
  67   2.0000     -10.277111      -279.6544
  68   2.0000     -10.274683      -279.5883
  69   2.0000     -10.274404      -279.5808
  70   2.0000     -10.273490      -279.5559
  71   2.0000     -10.258711      -279.1537
  72   2.0000     -10.258145      -279.1383
  73   2.0000     -10.254911      -279.0503
  74   2.0000     -10.253822      -279.0207
  75   2.0000      -8.126293      -221.1277
  76   2.0000      -6.097272      -165.9152
  77   2.0000      -6.089387      -165.7007
  78   2.0000      -6.089341      -165.6994
  79   2.0000      -1.336382       -36.3648
  80   2.0000      -1.322150       -35.9775
  81   2.0000      -1.188211       -32.3329
  82   2.0000      -1.188155       -32.3313
  83   2.0000      -1.184619       -32.2351
  84   2.0000      -1.178854       -32.0783
  85   2.0000      -1.133261       -30.8376
  86   2.0000      -1.127156       -30.6715
  87   2.0000      -1.126196       -30.6454
  88   2.0000      -1.107918       -30.1480
  89   2.0000      -1.056777       -28.7564
  90   2.0000      -1.053024       -28.6542
  91   2.0000      -1.033683       -28.1279
  92   2.0000      -1.028163       -27.9778
  93   2.0000      -1.022371       -27.8201
  94   2.0000      -1.014664       -27.6104
  95   2.0000      -1.009287       -27.4641
  96   2.0000      -0.993141       -27.0248
  97   2.0000      -0.991219       -26.9724
  98   2.0000      -0.990498       -26.9528
  99   2.0000      -0.985201       -26.8087
 100   2.0000      -0.981219       -26.7003
 101   2.0000      -0.966314       -26.2947
 102   2.0000      -0.953615       -25.9492
 103   2.0000      -0.950535       -25.8654
 104   2.0000      -0.902244       -24.5513
 105   2.0000      -0.897998       -24.4358
 106   2.0000      -0.894661       -24.3450
 107   2.0000      -0.892611       -24.2892
 108   2.0000      -0.889682       -24.2095
 109   2.0000      -0.878208       -23.8973
 110   2.0000      -0.870443       -23.6860
 111   2.0000      -0.868153       -23.6236
 112   2.0000      -0.853564       -23.2267
 113   2.0000      -0.849516       -23.1165
 114   2.0000      -0.848982       -23.1020
 115   2.0000      -0.842388       -22.9225
 116   2.0000      -0.831667       -22.6308
 117   2.0000      -0.824243       -22.4288
 118   2.0000      -0.815801       -22.1991
 119   2.0000      -0.813893       -22.1472
 120   2.0000      -0.808547       -22.0017
 121   2.0000      -0.807038       -21.9606
 122   2.0000      -0.804963       -21.9042
 123   2.0000      -0.793058       -21.5802
 124   2.0000      -0.772911       -21.0320
 125   2.0000      -0.769307       -20.9339
 126   2.0000      -0.766818       -20.8662
 127   2.0000      -0.749138       -20.3851
 128   2.0000      -0.748609       -20.3707
 129   2.0000      -0.741089       -20.1661
 130   2.0000      -0.739585       -20.1251
 131   2.0000      -0.722036       -19.6476
 132   2.0000      -0.717999       -19.5377
 133   2.0000      -0.693958       -18.8836
 134   2.0000      -0.692226       -18.8364
 135   2.0000      -0.686209       -18.6727
 136   2.0000      -0.682216       -18.5640
 137   2.0000      -0.680788       -18.5252
 138   2.0000      -0.678173       -18.4540
 139   2.0000      -0.676179       -18.3998
 140   2.0000      -0.675150       -18.3718
 141   2.0000      -0.670169       -18.2362
 142   2.0000      -0.664410       -18.0795
 143   2.0000      -0.660437       -17.9714
 144   2.0000      -0.658996       -17.9322
 145   2.0000      -0.649733       -17.6801
 146   2.0000      -0.645212       -17.5571
 147   2.0000      -0.643962       -17.5231
 148   2.0000      -0.635694       -17.2981
 149   2.0000      -0.632784       -17.2189
 150   2.0000      -0.620612       -16.8877
 151   2.0000      -0.614058       -16.7094
 152   2.0000      -0.611382       -16.6365
 153   2.0000      -0.609724       -16.5914
 154   2.0000      -0.606500       -16.5037
 155   2.0000      -0.602945       -16.4070
 156   2.0000      -0.599004       -16.2997
 157   2.0000      -0.592480       -16.1222
 158   2.0000      -0.582244       -15.8437
 159   2.0000      -0.578253       -15.7351
 160   2.0000      -0.574949       -15.6452
 161   2.0000      -0.573079       -15.5943
 162   2.0000      -0.572324       -15.5737
 163   2.0000      -0.570842       -15.5334
 164   2.0000      -0.567731       -15.4487
 165   2.0000      -0.563512       -15.3339
 166   2.0000      -0.562082       -15.2950
 167   2.0000      -0.561262       -15.2727
 168   2.0000      -0.558683       -15.2025
 169   2.0000      -0.556172       -15.1342
 170   2.0000      -0.549788       -14.9605
 171   2.0000      -0.546436       -14.8693
 172   2.0000      -0.541147       -14.7254
 173   2.0000      -0.539934       -14.6923
 174   2.0000      -0.537063       -14.6142
 175   2.0000      -0.535987       -14.5849
 176   2.0000      -0.534895       -14.5552
 177   2.0000      -0.531119       -14.4525
 178   2.0000      -0.530426       -14.4336
 179   2.0000      -0.525178       -14.2908
 180   2.0000      -0.519936       -14.1482
 181   2.0000      -0.518788       -14.1169
 182   2.0000      -0.517276       -14.0758
 183   2.0000      -0.516729       -14.0609
 184   2.0000      -0.515117       -14.0171
 185   2.0000      -0.512942       -13.9579
 186   2.0000      -0.510958       -13.9039
 187   2.0000      -0.509032       -13.8515
 188   2.0000      -0.506597       -13.7852
 189   2.0000      -0.504727       -13.7343
 190   2.0000      -0.500221       -13.6117
 191   2.0000      -0.498143       -13.5552
 192   2.0000      -0.493482       -13.4283
 193   2.0000      -0.491647       -13.3784
 194   2.0000      -0.489848       -13.3294
 195   2.0000      -0.488543       -13.2939
 196   2.0000      -0.487272       -13.2593
 197   2.0000      -0.486716       -13.2442
 198   2.0000      -0.483947       -13.1689
 199   2.0000      -0.476034       -12.9536
 200   2.0000      -0.475924       -12.9505
 201   2.0000      -0.474566       -12.9136
 202   2.0000      -0.471857       -12.8399
 203   2.0000      -0.471694       -12.8354
 204   2.0000      -0.471204       -12.8221
 205   2.0000      -0.466400       -12.6914
 206   2.0000      -0.458715       -12.4823
 207   2.0000      -0.451429       -12.2840
 208   2.0000      -0.450547       -12.2600
 209   2.0000      -0.446090       -12.1387
 210   2.0000      -0.445143       -12.1130
 211   2.0000      -0.444694       -12.1007
 212   2.0000      -0.442480       -12.0405
 213   2.0000      -0.442172       -12.0321
 214   2.0000      -0.441070       -12.0021
 215   2.0000      -0.440121       -11.9763
 216   2.0000      -0.438980       -11.9453
 217   2.0000      -0.438272       -11.9260
 218   2.0000      -0.436220       -11.8701
 219   2.0000      -0.435676       -11.8553
 220   2.0000      -0.434106       -11.8126
 221   2.0000      -0.432542       -11.7701
 222   2.0000      -0.430467       -11.7136
 223   2.0000      -0.428236       -11.6529
 224   2.0000      -0.426061       -11.5937
 225   2.0000      -0.424137       -11.5413
 226   2.0000      -0.422882       -11.5072
 227   2.0000      -0.420992       -11.4558
 228   2.0000      -0.417147       -11.3512
 229   2.0000      -0.413482       -11.2514
 230   2.0000      -0.412635       -11.2284
 231   2.0000      -0.411733       -11.2038
 232   2.0000      -0.408226       -11.1084
 233   2.0000      -0.404175       -10.9982
 234   2.0000      -0.403593       -10.9823
 235   2.0000      -0.401126       -10.9152
 236   2.0000      -0.397257       -10.8099
 237   2.0000      -0.395977       -10.7751
 238   2.0000      -0.388586       -10.5740
 239   2.0000      -0.380614       -10.3570
 240   2.0000      -0.377539       -10.2734
 241   2.0000      -0.371945       -10.1211
 242   2.0000      -0.358388        -9.7522
 243   2.0000      -0.354659        -9.6508
 244   2.0000      -0.343147        -9.3375
 245   2.0000      -0.340475        -9.2648
 246   2.0000      -0.335734        -9.1358
 247   2.0000      -0.333224        -9.0675
 248   2.0000      -0.332808        -9.0562
 249   2.0000      -0.328578        -8.9411
 250   2.0000      -0.328147        -8.9293
 251   2.0000      -0.322452        -8.7744
 252   2.0000      -0.318477        -8.6662
 253   2.0000      -0.310355        -8.4452
 254   2.0000      -0.304109        -8.2752
 255   2.0000      -0.297731        -8.1017
 256   2.0000      -0.288414        -7.8481
 257   2.0000      -0.284682        -7.7466
 258   2.0000      -0.269824        -7.3423
 259   2.0000      -0.247248        -6.7280
 260   0.0000      -0.133137        -3.6228
 261   0.0000      -0.097130        -2.6431
 262   0.0000      -0.080038        -2.1779
 263   0.0000      -0.060805        -1.6546
 264   0.0000      -0.057187        -1.5561

MULLIKEN ATOMIC CHARGES
-----------------------
   0 C :   -0.079943
   1 C :   -0.081336
   2 C :    0.117119
   3 C :   -0.076252
   4 C :    0.118125
   5 C :   -0.078729
   6 C :   -0.015953
   7 C :    0.043594
   8 C :    0.308020
   9 C :   -0.345826
  10 C :   -0.180664
  11 N :    0.148808
  12 C :   -0.199038
  13 N :    0.170490
  14 C :   -0.071625
  15 C :    0.151833
  16 O :   -0.132563
  17 C :   -0.031399
  18 C :    0.026323
  19 C :    0.050652
  20 C :    0.036795
  21 C :    0.070287
  22 N :   -0.191360
  23 O :   -0.247954
  24 C :    0.199909
  25 C :   -0.102801
  26 N :   -0.157552
  27 C :    0.103267
  28 O :   -0.237650
  29 C :    0.193684
  30 C :    0.153761
  31 C :   -0.082204
  32 C :   -0.072788
  33 N :    0.036776
  34 C :    0.147578
  35 C :    0.129814
  36 N :    0.072339
  37 F :   -0.145258
  38 F :   -0.139469
  39 C :    0.133798
  40 C :   -0.009847
  41 C :   -0.014220
  42 N :   -0.247413
  43 S :    0.529486
  44 N :   -0.228766
  45 C :   -0.108345
  46 C :    0.069684
  47 C :    0.027005
  48 C :    0.099686
  49 N :   -0.155950
  50 O :   -0.242921
  51 C :    0.197771
  52 C :    0.029130
  53 N :   -0.217698
  54 C :    0.091890
  55 O :   -0.248326
  56 C :    0.186934
  57 C :    0.001406
  58 C :   -0.087748
  59 C :    0.139043
  60 O :   -0.138164
  61 C :   -0.006444
  62 C :    0.040162
  63 C :   -0.081125
  64 C :   -0.079236
  65 C :   -0.078467
  66 C :   -0.074181
  67 C :    0.116189
  68 C :    0.111948
  69 C :    0.268770
  70 C :   -0.271231
  71 C :   -0.195284
  72 N :    0.153982
  73 C :   -0.194003
  74 N :    0.149060
  75 H :   -0.014116
  76 H :    0.025371
  77 H :    0.027106
  78 H :    0.026362
  79 H :    0.028502
  80 H :    0.027778
  81 H :    0.015511
  82 H :   -0.021716
  83 H :    0.027822
  84 H :    0.039692
  85 H :    0.027748
  86 H :    0.030560
  87 H :    0.032965
  88 H :    0.034802
  89 H :    0.050462
  90 H :    0.036674
  91 H :    0.032890
  92 H :    0.044591
  93 H :    0.039591
  94 H :    0.031881
  95 H :    0.048582
  96 H :    0.012856
  97 H :   -0.013234
  98 H :   -0.017803
  99 H :    0.026626
 100 H :    0.027092
 101 H :    0.016913
 102 H :    0.023565
 103 H :    0.028026
 104 H :    0.027520
Sum of atomic charges:   -0.0000000

LOEWDIN ATOMIC CHARGES
----------------------
   0 C :   -0.005799
   1 C :   -0.003973
   2 C :   -0.041950
   3 C :   -0.005839
   4 C :   -0.042693
   5 C :    0.005550
   6 C :   -0.045383
   7 C :   -0.018524
   8 C :    0.073621
   9 C :   -0.131835
  10 C :   -0.016039
  11 N :   -0.052993
  12 C :   -0.024136
  13 N :   -0.043395
  14 C :   -0.064749
  15 C :    0.081541
  16 O :   -0.124189
  17 C :    0.059002
  18 C :    0.051687
  19 C :   -0.106176
  20 C :   -0.122172
  21 C :    0.102353
  22 N :   -0.180122
  23 O :   -0.044116
  24 C :    0.084243
  25 C :    0.086007
  26 N :   -0.168114
  27 C :    0.116700
  28 O :   -0.026707
  29 C :    0.088182
  30 C :   -0.022531
  31 C :    0.006538
  32 C :    0.002256
  33 N :   -0.022347
  34 C :    0.061276
  35 C :    0.056831
  36 N :   -0.016701
  37 F :   -0.033860
  38 F :   -0.025069
  39 C :   -0.024472
  40 C :   -0.036599
  41 C :   -0.042000
  42 N :   -0.266154
  43 S :    0.672645
  44 N :   -0.263810
  45 C :    0.083057
  46 C :   -0.118832
  47 C :   -0.110495
  48 C :    0.105645
  49 N :   -0.167954
  50 O :   -0.043079
  51 C :    0.088768
  52 C :    0.057518
  53 N :   -0.171748
  54 C :    0.116336
  55 O :   -0.036983
  56 C :    0.085305
  57 C :    0.043306
  58 C :   -0.043941
  59 C :    0.083097
  60 O :   -0.137419
  61 C :   -0.052956
  62 C :   -0.010058
  63 C :   -0.011120
  64 C :   -0.001179
  65 C :   -0.010177
  66 C :    0.008150
  67 C :   -0.042906
  68 C :   -0.042288
  69 C :    0.064740
  70 C :   -0.108952
  71 C :   -0.022453
  72 N :   -0.057912
  73 C :   -0.017175
  74 N :   -0.056761
  75 H :    0.035950
  76 H :    0.036121
  77 H :    0.038018
  78 H :    0.037818
  79 H :    0.038487
  80 H :    0.038587
  81 H :    0.032717
  82 H :    0.034643
  83 H :    0.052527
  84 H :    0.026925
  85 H :    0.021894
  86 H :    0.024585
  87 H :    0.024645
  88 H :    0.027970
  89 H :    0.029924
  90 H :    0.026229
  91 H :    0.026757
  92 H :    0.028570
  93 H :    0.024231
  94 H :    0.025039
  95 H :    0.029306
  96 H :    0.050394
  97 H :    0.035178
  98 H :    0.035820
  99 H :    0.037652
 100 H :    0.037843
 101 H :    0.032941
 102 H :    0.035318
 103 H :    0.038616
 104 H :    0.037774

  Mayer bond orders larger than 0.100000
B(  0-C ,  1-C ) :   1.3820 B(  0-C ,  7-C ) :   1.3428 B(  0-C , 75-H ) :   0.9829
B(  1-C ,  2-C ) :   1.0941 B(  1-C ,  3-C ) :   1.3726 B(  2-C , 76-H ) :   0.9505
B(  2-C , 77-H ) :   0.9399 B(  2-C , 78-H ) :   0.9396 B(  3-C ,  4-C ) :   1.0931
B(  3-C ,  5-C ) :   1.3527 B(  4-C , 79-H ) :   0.9403 B(  4-C , 80-H ) :   0.9398
B(  4-C , 81-H ) :   0.9515 B(  5-C ,  6-C ) :   1.3599 B(  5-C , 82-H ) :   1.0093
B(  6-C ,  7-C ) :   1.3331 B(  6-C , 15-C ) :   0.9432 B(  7-C ,  8-C ) :   0.9899
B(  8-C ,  9-C ) :   1.6457 B(  8-C , 14-C ) :   1.0518 B(  9-C , 10-C ) :   1.1445
B(  9-C , 12-C ) :   1.1391 B( 10-C , 11-N ) :   2.9666 B( 12-C , 13-N ) :   2.9910
B( 14-C , 15-C ) :   0.9227 B( 14-C , 17-C ) :   1.6087 B( 15-C , 16-O ) :   2.2347
B( 17-C , 18-C ) :   1.1411 B( 17-C , 83-H ) :   0.9354 B( 18-C , 19-C ) :   1.1872
B( 18-C , 22-N ) :   1.3988 B( 19-C , 20-C ) :   1.2976 B( 19-C , 27-C ) :   1.0590
B( 20-C , 21-C ) :   1.0857 B( 20-C , 25-C ) :   1.1801 B( 21-C , 22-N ) :   1.4657
B( 21-C , 23-O ) :   1.3044 B( 23-O , 24-C ) :   0.9183 B( 24-C , 84-H ) :   0.9699
B( 24-C , 85-H ) :   0.9788 B( 24-C , 86-H ) :   0.9741 B( 25-C , 26-N ) :   1.4858
B( 25-C , 30-C ) :   1.0473 B( 26-N , 27-C ) :   1.4335 B( 27-C , 28-O ) :   1.3267
B( 28-O , 29-C ) :   0.9049 B( 29-C , 87-H ) :   0.9791 B( 29-C , 88-H ) :   0.9759
B( 29-C , 89-H ) :   0.9666 B( 30-C , 31-C ) :   1.2942 B( 30-C , 39-C ) :   0.1524
B( 30-C , 41-C ) :   1.2353 B( 31-C , 32-C ) :   1.1019 B( 31-C , 36-N ) :   1.4650
B( 32-C , 33-N ) :   1.4495 B( 32-C , 39-C ) :   1.3214 B( 33-N , 34-C ) :   1.6657
B( 34-C , 35-C ) :   1.0915 B( 34-C , 38-F ) :   1.1674 B( 35-C , 36-N ) :   1.6931
B( 35-C , 37-F ) :   1.1668 B( 39-C , 40-C ) :   1.2007 B( 39-C , 45-C ) :   1.0712
B( 40-C , 41-C ) :   1.0901 B( 40-C , 44-N ) :   1.5443 B( 41-C , 42-N ) :   1.5344
B( 42-N , 43-S ) :   1.2835 B( 42-N , 44-N ) :   0.1532 B( 43-S , 44-N ) :   1.2901
B( 45-C , 46-C ) :   1.1936 B( 45-C , 49-N ) :   1.4730 B( 46-C , 47-C ) :   1.2778
B( 46-C , 54-C ) :   1.0562 B( 47-C , 48-C ) :   1.0575 B( 47-C , 52-C ) :   1.2106
B( 48-C , 49-N ) :   1.4633 B( 48-C , 50-O ) :   1.3303 B( 50-O , 51-C ) :   0.9064
B( 51-C , 90-H ) :   0.9797 B( 51-C , 91-H ) :   0.9759 B( 51-C , 92-H ) :   0.9683
B( 52-C , 53-N ) :   1.3460 B( 52-C , 57-C ) :   1.1276 B( 53-N , 54-C ) :   1.4529
B( 54-C , 55-O ) :   1.3154 B( 55-O , 56-C ) :   0.9054 B( 56-C , 93-H ) :   0.9673
B( 56-C , 94-H ) :   0.9787 B( 56-C , 95-H ) :   0.9754 B( 57-C , 58-C ) :   1.6348
B( 57-C , 96-H ) :   0.9548 B( 58-C , 59-C ) :   0.9200 B( 58-C , 69-C ) :   1.0204
B( 59-C , 60-O ) :   2.2756 B( 59-C , 61-C ) :   0.9236 B( 61-C , 62-C ) :   1.3312
B( 61-C , 66-C ) :   1.3600 B( 62-C , 63-C ) :   1.3520 B( 62-C , 69-C ) :   1.0048
B( 63-C , 64-C ) :   1.3760 B( 63-C , 97-H ) :   0.9877 B( 64-C , 65-C ) :   1.3739
B( 64-C , 68-C ) :   1.0926 B( 65-C , 66-C ) :   1.3613 B( 65-C , 67-C ) :   1.0932
B( 66-C , 98-H ) :   1.0094 B( 67-C , 99-H ) :   0.9407 B( 67-C ,100-H ) :   0.9409
B( 67-C ,101-H ) :   0.9516 B( 68-C ,102-H ) :   0.9514 B( 68-C ,103-H ) :   0.9402
B( 68-C ,104-H ) :   0.9409 B( 69-C , 70-C ) :   1.6938 B( 70-C , 71-C ) :   1.1370
B( 70-C , 73-C ) :   1.1492 B( 71-C , 72-N ) :   2.9772 B( 73-C , 74-N ) :   2.9749

-----------------------------------------------------------------------------
         ABSORPTION SPECTRUM VIA TRANSITION ELECTRIC DIPOLE MOMENTS
-----------------------------------------------------------------------------
State   Energy  Wavelength   fosc         T2         TX        TY        TZ
        (cm-1)    (nm)                  (au**2)     (au)      (au)      (au)
-----------------------------------------------------------------------------
   0   10271.5    973.6   0.970296109  31.09891   3.36855   0.95160   4.34123
   1   12598.0    793.8   0.032996006   0.86226   0.50797   0.11615   0.76859
   2   13179.4    758.8   0.001591803   0.03976  -0.03548   0.06086  -0.18654
   3   14575.2    686.1   0.046621779   1.05306  -0.07788  -0.31847   0.97240
   4   17972.6    556.4   0.031890320   0.58415  -0.47279  -0.60040  -0.01168
   5   19233.2    519.9   0.103680669   1.77469  -0.54408  -0.31543  -1.17438
   6   19397.6    515.5   0.014591679   0.24765   0.29361   0.10844   0.38688
   7   19808.4    504.8   0.149228409   2.48014  -0.93597   0.24752  -1.24211
   8   22114.1    452.2   0.077685947   1.15651  -0.29613  -0.93015  -0.45126
   9   22317.4    448.1   0.082924267   1.22325  -0.30487  -1.00676  -0.34168
  10   22737.1    439.8   0.049325640   0.71419   0.05719   0.47140   0.69908
  11   23247.0    430.2   0.001017197   0.01440   0.08904  -0.00813  -0.08007
  12   23573.0    424.2   0.002906622   0.04059   0.06699   0.16847  -0.08787
  13   24595.1    406.6   0.040539251   0.54263  -0.68490   0.21390   0.16670
  14   24687.3    405.1   0.036471924   0.48636   0.41947   0.55705  -0.01016
  15   25332.7    394.7   0.025512878   0.33155   0.06438  -0.55164  -0.15198
  16   26140.7    382.5   0.003019367   0.03803  -0.06037   0.00647   0.18531
  17   26224.6    381.3   0.019765739   0.24813   0.06631  -0.06754   0.48905
  18   26552.4    376.6   0.006206820   0.07696  -0.05166   0.26201  -0.07510
  19   26655.9    375.2   0.045998950   0.56811  -0.32905   0.66630  -0.12603
  20   27112.8    368.8   0.014299142   0.17362  -0.21718  -0.00270   0.35560
  21   27649.3    361.7   0.193902068   2.30873  -0.71292   1.23906  -0.51498
  22   28802.4    347.2   0.012665945   0.14477   0.22269  -0.30846   0.00604
  23   29077.2    343.9   0.256647222   2.90576   0.46780   0.14725   1.63256
  24   29523.6    338.7   0.003512272   0.03916  -0.13949   0.08162  -0.11422
  25   29954.5    333.8   0.014775655   0.16239   0.30265  -0.10649   0.24383
  26   30043.9    332.8   0.005007421   0.05487  -0.14002   0.18271  -0.04334
  27   30173.3    331.4   0.003844711   0.04195   0.08330  -0.14918   0.11294
  28   30287.0    330.2   0.025374045   0.27581   0.16837  -0.30872   0.39007
  29   30470.8    328.2   0.003065604   0.03312  -0.12745   0.09699  -0.08644
  30   30632.8    326.4   0.008096104   0.08701   0.27603  -0.07237   0.07470
  31   31090.4    321.6   0.054445143   0.57651  -0.25206  -0.05532  -0.71409
  32   31250.8    320.0   0.152066715   1.60195  -0.49474   0.76750   0.87643
  33   31279.7    319.7   0.018328813   0.19291  -0.21978   0.28327   0.25369
  34   31621.4    316.2   0.129222948   1.34535  -0.03093   0.43547   1.07459
  35   31970.7    312.8   0.031128783   0.32054   0.41923   0.03454   0.37894
  36   32252.3    310.1   0.002985693   0.03048  -0.05073   0.14276  -0.08672
  37   32296.2    309.6   0.048061179   0.48991   0.30529   0.60316   0.18141
  38   32409.3    308.6   0.045511269   0.46230   0.64873   0.19612  -0.05462
  39   32792.2    305.0   0.014785193   0.14843  -0.16395  -0.25035  -0.24265
  40   33043.6    302.6   0.167461129   1.66841  -0.35529   0.76384   0.97915
  41   33496.4    298.5   0.047362934   0.46550  -0.37125  -0.25084  -0.51453
  42   34022.7    293.9   0.012226255   0.11830  -0.01301   0.28031   0.19890
  43   34254.6    291.9   0.055724884   0.53556   0.13430   0.39518   0.60113
  44   34619.9    288.9   0.097698531   0.92905  -0.85771  -0.36868  -0.23969
  45   34779.8    287.5   0.128201892   1.21351   0.19522  -0.49467  -0.96473
  46   34911.5    286.4   0.041672510   0.39297  -0.32604  -0.09749   0.52646
  47   35325.9    283.1   0.298812958   2.78472   0.85146   1.11701   0.90113
  48   35538.8    281.4   0.498203983   4.61508  -1.69623   0.23747   1.29673
  49   36039.1    277.5   0.025728927   0.23503  -0.22907   0.20343   0.37573
  50   36195.8    276.3   0.044784921   0.40733  -0.11342   0.03417   0.62714
  51   36300.2    275.5   0.031013499   0.28127   0.27521   0.17063   0.42002
  52   36631.6    273.0   0.194399312   1.74709   1.06694  -0.10924  -0.77252
  53   36768.9    272.0   0.050144285   0.44897  -0.25471  -0.40956  -0.46514
  54   36941.2    270.7   0.009705753   0.08650   0.27115  -0.11365  -0.00771
  55   37070.0    269.8   0.032238940   0.28631   0.03521  -0.04822  -0.53174
  56   37421.8    267.2   0.016931526   0.14895   0.22330   0.30699   0.06962
  57   37488.7    266.7   0.006031516   0.05297   0.14120  -0.18168  -0.00438
  58   37607.7    265.9   0.019046276   0.16673   0.12849   0.22505   0.31555
  59   37973.4    263.3   0.075720596   0.65646   0.05742   0.58559   0.55700
  60   38085.7    262.6   0.022619098   0.19552   0.39214   0.20373  -0.01558
  61   38279.7    261.2   0.017970163   0.15455   0.07730   0.30497   0.23572
  62   38576.1    259.2   0.048168277   0.41107  -0.22557  -0.32877  -0.50210
  63   38751.0    258.1   0.036318411   0.30855   0.37337  -0.38957   0.13183
  64   38921.9    256.9   0.112696379   0.95322   0.30677   0.30618   0.87485
  65   39120.6    255.6   0.127190845   1.07035  -0.44558   0.12100  -0.92583
  66   39186.2    255.2   0.044680902   0.37537   0.09697   0.11176   0.59454
  67   39299.7    254.5   0.050658410   0.42436  -0.12604   0.63026  -0.10604
  68   39453.8    253.5   0.003486725   0.02909  -0.06549   0.08025  -0.13552
  69   39793.9    251.3   0.009391740   0.07770   0.17480  -0.18473   0.11409
  70   39890.1    250.7   0.166848509   1.37700   0.12755   0.53467   1.03675
  71   40106.7    249.3   0.005189021   0.04259   0.01964  -0.16784  -0.11848
  72   40141.6    249.1   0.015209192   0.12473   0.00763   0.34739   0.06324

FINAL SINGLE POINT ENERGY     -3777.563639227422

DIPOLE MOMENT
-------------
                                X             Y             Z
Electronic contribution:      3.83139      -5.07462       5.66138
Nuclear contribution   :     -4.65729       4.00156      -5.96897
                        -----------------------------------------
Total Dipole Moment    :     -0.82591      -1.07306      -0.30759
                        -----------------------------------------
Magnitude (a.u.)       :      1.38859
Magnitude (Debye)      :      3.52952

Rotational constants in cm-1:     0.002382     0.000291     0.000280
Rotational constants in MHz :    71.424657     8.713945     8.387046

                             ****ORCA TERMINATED NORMALLY****
TOTAL RUN TIME: 0 days 0 hours 11 minutes 38 seconds 763 msec
