                         Program Version 4.2.0 -  RELEASE  -
|  1> # ORCA input file
|  2> # SCF done       -202.927518186349          0.000892821750
|  3> ! CAM-B3LYP def2-SVP def2/J RIJCOSX Grid4 TightSCF
|  4> %maxcore 5000
|  5> %tddft
|  6>     Mode sTDDFT
|  7>     Ethresh 5.0
|  8>     maxcore 5000
|  9> end
| 10>
| 11> %pal
| 12>   nprocs 6
| 13>   end
| 14> * xyz 0 1
| 15>    C       -0.92733         0.20341         1.35899
| 16>    C       -1.16567         1.09609         0.31771
| 17>    C       -1.99897         2.31144         0.57278
| 18>    C       -0.63251         0.86187        -0.95925
| 19>    C       -0.89511         1.82000        -2.07676
| 20>    C        0.14609        -0.26891        -1.18115
| 21>    C        0.38047        -1.14593        -0.14185
| 22>    C       -0.15532        -0.92430         1.13583
| 23>    C        0.24881        -2.02027         2.00998
| 24>    C       -0.18509        -2.18991         3.30002
| 25>    C       -1.04719        -1.29303         3.96588
| 26>    N       -1.73827        -0.60801         4.57582
| 27>    C        0.11040        -3.27339         4.15412
| 28>    N        0.27467        -4.11393         4.92015
| 29>    C        1.12326        -2.89681         1.24595
| 30>    C        1.17203        -2.38743        -0.14534
| 31>    O        1.73834        -2.85962        -1.11247
| 32>    C        1.80469        -3.94767         1.80476
| 33>    C        2.66641        -4.90981         1.25278
| 34>    C        3.08369        -5.17187        -0.05285
| 35>    C        3.92836        -6.25799        -0.12741
| 36>    C        4.17751        -6.85429         1.12189
| 37>    S        3.36284        -6.06515         2.39690
| 38>    C        5.02561        -7.96343         0.94461
| 39>    C        5.32616        -8.08791        -0.42081
| 40>    C        4.66111        -6.99472        -1.22384
| 41>    C        5.69542        -6.08909        -1.89906
| 42>    C        3.68945        -7.56810        -2.25834
| 43>    C        6.13105        -9.17569        -0.68904
| 44>    C        6.45724        -9.89351         0.46312
| 45>    S        5.75727        -9.18633         1.90303
| 46>    C        7.22423       -11.08447         0.53120
| 47>    C        7.50087       -11.72398         1.76304
| 48>    C        8.21762       -12.96538         1.87022
| 49>    N        8.41987       -13.49106         3.09600
| 50>    C        7.97335       -12.87767         4.14320
| 51>    C        7.26710       -11.65518         4.03921
| 52>    N        7.05229       -11.12104         2.88113
| 53>    F        6.80943       -11.02343         5.11589
| 54>    F        8.20478       -13.44281         5.32898
| 55>    C        8.69826       -13.64765         0.72497
| 56>    C        8.45381       -12.98988        -0.50435
| 57>    C        7.74204       -11.73968        -0.61218
| 58>    N        7.64695       -11.34213        -1.88165
| 59>    S        8.37049       -12.41402        -2.83461
| 60>    N        8.84040       -13.44203        -1.69559
| 61>    C        9.35425       -14.90661         0.74954
| 62>    C        9.68735       -15.69184         1.85323
| 63>    C       10.27978       -16.88457         1.49336
| 64>    C       10.40984       -17.03028         0.10423
| 65>    S        9.80879       -15.67701        -0.76160
| 66>    C       10.99283       -18.28287        -0.16605
| 67>    C       11.23991       -18.94765         1.04549
| 68>    C       10.81795       -18.09544         2.21803
| 69>    C        9.73244       -18.77542         3.05603
| 70>    C       12.02581       -17.72811         3.08585
| 71>    C       11.82138       -20.18586         0.86961
| 72>    C       12.02714       -20.49479        -0.47512
| 73>    S       11.45434       -19.20813        -1.52638
| 74>    C       12.53277       -21.66831        -1.06472
| 75>    C       13.24343       -22.69216        -0.50739
| 76>    C       13.26254       -24.00977        -1.20425
| 77>    O       12.88995       -24.23298        -2.33420
| 78>    C       13.77305       -24.96532        -0.20565
| 79>    C       14.15404       -24.27115         0.95612
| 80>    C       14.63802       -24.97652         2.04340
| 81>    C       14.75227       -26.36245         1.97171
| 82>    C       14.38642       -27.04782         0.80286
| 83>    C       13.89129       -26.33760        -0.28646
| 84>    C       14.52483       -28.53445         0.72318
| 85>    C       15.27390       -27.11668         3.15286
| 86>    C       13.96809       -22.83926         0.73267
| 87>    C       14.59408       -21.84425         1.44176
| 88>    C       14.62160       -20.49371         1.04394
| 89>    N       14.69853       -19.38751         0.74552
| 90>    C       15.35014       -22.06955         2.60883
| 91>    N       15.95272       -22.19072         3.57906
| 92>    H       -1.34688         0.40920         2.33032
| 93>    H       -2.32529         2.34475         1.60849
| 94>    H       -2.87930         2.31313        -0.06920
| 95>    H       -1.43249         3.21657         0.35626
| 96>    H       -0.50979         2.80925        -1.83113
| 97>    H       -1.96566         1.91924        -2.25324
| 98>    H       -0.42138         1.48088        -2.99396
| 99>    H        0.56858        -0.46932        -2.15461
|100>    H        1.67362        -4.07264         2.87342
|101>    H        2.75965        -4.57014        -0.88185
|102>    H        6.38548        -5.68682        -1.16091
|103>    H        5.19473        -5.26182        -2.39538
|104>    H        6.26167        -6.65407        -2.63506
|105>    H        2.95685        -8.21024        -1.77484
|106>    H        4.23349        -8.15283        -2.99570
|107>    H        3.16622        -6.76014        -2.76308
|108>    H        6.48387        -9.47626        -1.65769
|109>    H        9.48455       -15.37209         2.85669
|110>    H        8.87933       -19.03585         2.43343
|111>    H        9.39818       -18.10515         3.84347
|112>    H       10.12388       -19.68242         3.50999
|113>    H       12.80824       -17.28453         2.47510
|114>    H       12.42696       -18.61793         3.56448
|115>    H       11.72993       -17.01727         3.85294
|116>    H       12.05132       -20.87248         1.66431
|117>    H       12.25917       -21.82922        -2.10367
|118>    H       14.92058       -24.47037         2.95317
|119>    H       13.60211       -26.84636        -1.19387
|120>    H       13.92622       -29.01750         1.49492
|121>    H       15.56159       -28.83133         0.87810
|122>    H       14.20027       -28.89978        -0.24717
|123>    H       15.49531       -26.44165         3.97485
|124>    H       16.18488       -27.65344         2.89011
|125>    H       14.54499       -27.85250         3.49097
|126> *
|127>
|128>                          ****END OF INPUT****

CARTESIAN COORDINATES (ANGSTROEM)
---------------------------------
  C     -0.927330    0.203410    1.358990
  C     -1.165670    1.096090    0.317710
  C     -1.998970    2.311440    0.572780
  C     -0.632510    0.861870   -0.959250
  C     -0.895110    1.820000   -2.076760
  C      0.146090   -0.268910   -1.181150
  C      0.380470   -1.145930   -0.141850
  C     -0.155320   -0.924300    1.135830
  C      0.248810   -2.020270    2.009980
  C     -0.185090   -2.189910    3.300020
  C     -1.047190   -1.293030    3.965880
  N     -1.738270   -0.608010    4.575820
  C      0.110400   -3.273390    4.154120
  N      0.274670   -4.113930    4.920150
  C      1.123260   -2.896810    1.245950
  C      1.172030   -2.387430   -0.145340
  O      1.738340   -2.859620   -1.112470
  C      1.804690   -3.947670    1.804760
  C      2.666410   -4.909810    1.252780
  C      3.083690   -5.171870   -0.052850
  C      3.928360   -6.257990   -0.127410
  C      4.177510   -6.854290    1.121890
  S      3.362840   -6.065150    2.396900
  C      5.025610   -7.963430    0.944610
  C      5.326160   -8.087910   -0.420810
  C      4.661110   -6.994720   -1.223840
  C      5.695420   -6.089090   -1.899060
  C      3.689450   -7.568100   -2.258340
  C      6.131050   -9.175690   -0.689040
  C      6.457240   -9.893510    0.463120
  S      5.757270   -9.186330    1.903030
  C      7.224230  -11.084470    0.531200
  C      7.500870  -11.723980    1.763040
  C      8.217620  -12.965380    1.870220
  N      8.419870  -13.491060    3.096000
  C      7.973350  -12.877670    4.143200
  C      7.267100  -11.655180    4.039210
  N      7.052290  -11.121040    2.881130
  F      6.809430  -11.023430    5.115890
  F      8.204780  -13.442810    5.328980
  C      8.698260  -13.647650    0.724970
  C      8.453810  -12.989880   -0.504350
  C      7.742040  -11.739680   -0.612180
  N      7.646950  -11.342130   -1.881650
  S      8.370490  -12.414020   -2.834610
  N      8.840400  -13.442030   -1.695590
  C      9.354250  -14.906610    0.749540
  C      9.687350  -15.691840    1.853230
  C     10.279780  -16.884570    1.493360
  C     10.409840  -17.030280    0.104230
  S      9.808790  -15.677010   -0.761600
  C     10.992830  -18.282870   -0.166050
  C     11.239910  -18.947650    1.045490
  C     10.817950  -18.095440    2.218030
  C      9.732440  -18.775420    3.056030
  C     12.025810  -17.728110    3.085850
  C     11.821380  -20.185860    0.869610
  C     12.027140  -20.494790   -0.475120
  S     11.454340  -19.208130   -1.526380
  C     12.532770  -21.668310   -1.064720
  C     13.243430  -22.692160   -0.507390
  C     13.262540  -24.009770   -1.204250
  O     12.889950  -24.232980   -2.334200
  C     13.773050  -24.965320   -0.205650
  C     14.154040  -24.271150    0.956120
  C     14.638020  -24.976520    2.043400
  C     14.752270  -26.362450    1.971710
  C     14.386420  -27.047820    0.802860
  C     13.891290  -26.337600   -0.286460
  C     14.524830  -28.534450    0.723180
  C     15.273900  -27.116680    3.152860
  C     13.968090  -22.839260    0.732670
  C     14.594080  -21.844250    1.441760
  C     14.621600  -20.493710    1.043940
  N     14.698530  -19.387510    0.745520
  C     15.350140  -22.069550    2.608830
  N     15.952720  -22.190720    3.579060
  H     -1.346880    0.409200    2.330320
  H     -2.325290    2.344750    1.608490
  H     -2.879300    2.313130   -0.069200
  H     -1.432490    3.216570    0.356260
  H     -0.509790    2.809250   -1.831130
  H     -1.965660    1.919240   -2.253240
  H     -0.421380    1.480880   -2.993960
  H      0.568580   -0.469320   -2.154610
  H      1.673620   -4.072640    2.873420
  H      2.759650   -4.570140   -0.881850
  H      6.385480   -5.686820   -1.160910
  H      5.194730   -5.261820   -2.395380
  H      6.261670   -6.654070   -2.635060
  H      2.956850   -8.210240   -1.774840
  H      4.233490   -8.152830   -2.995700
  H      3.166220   -6.760140   -2.763080
  H      6.483870   -9.476260   -1.657690
  H      9.484550  -15.372090    2.856690
  H      8.879330  -19.035850    2.433430
  H      9.398180  -18.105150    3.843470
  H     10.123880  -19.682420    3.509990
  H     12.808240  -17.284530    2.475100
  H     12.426960  -18.617930    3.564480
  H     11.729930  -17.017270    3.852940
  H     12.051320  -20.872480    1.664310
  H     12.259170  -21.829220   -2.103670
  H     14.920580  -24.470370    2.953170
  H     13.602110  -26.846360   -1.193870
  H     13.926220  -29.017500    1.494920
  H     15.561590  -28.831330    0.878100
  H     14.200270  -28.899780   -0.247170
  H     15.495310  -26.441650    3.974850
  H     16.184880  -27.653440    2.890110
  H     14.544990  -27.852500    3.490970

 Total Charge           Charge          ....    0
 Multiplicity           Mult            ....    1
 Number of Electrons    NEL             ....  564
 Basis Dimension        Dim             .... 1268

ORBITAL ENERGIES
----------------

  NO   OCC          E(Eh)            E(eV)
   0   2.0000     -89.045901     -2423.0621
   1   2.0000     -88.970507     -2421.0106
   2   2.0000     -88.967830     -2420.9377
   3   2.0000     -88.963903     -2420.8309
   4   2.0000     -88.963639     -2420.8237
   5   2.0000     -24.820097      -675.3892
   6   2.0000     -24.817814      -675.3271
   7   2.0000     -19.208700      -522.6953
   8   2.0000     -19.205778      -522.6158
   9   2.0000     -14.460300      -393.4848
  10   2.0000     -14.457875      -393.4188
  11   2.0000     -14.455756      -393.3611
  12   2.0000     -14.455520      -393.3547
  13   2.0000     -14.409004      -392.0889
  14   2.0000     -14.408785      -392.0830
  15   2.0000     -14.406104      -392.0100
  16   2.0000     -14.402756      -391.9189
  17   2.0000     -10.436288      -283.9858
  18   2.0000     -10.433640      -283.9138
  19   2.0000     -10.359385      -281.8932
  20   2.0000     -10.356465      -281.8137
  21   2.0000     -10.349136      -281.6143
  22   2.0000     -10.347652      -281.5739
  23   2.0000     -10.343935      -281.4728
  24   2.0000     -10.342238      -281.4266
  25   2.0000     -10.334610      -281.2190
  26   2.0000     -10.333902      -281.1998
  27   2.0000     -10.329744      -281.0866
  28   2.0000     -10.328934      -281.0646
  29   2.0000     -10.317798      -280.7616
  30   2.0000     -10.317114      -280.7430
  31   2.0000     -10.316893      -280.7369
  32   2.0000     -10.316493      -280.7260
  33   2.0000     -10.314668      -280.6764
  34   2.0000     -10.314254      -280.6651
  35   2.0000     -10.312721      -280.6234
  36   2.0000     -10.312334      -280.6129
  37   2.0000     -10.311980      -280.6032
  38   2.0000     -10.311205      -280.5822
  39   2.0000     -10.310662      -280.5674
  40   2.0000     -10.309593      -280.5383
  41   2.0000     -10.308516      -280.5090
  42   2.0000     -10.306763      -280.4613
  43   2.0000     -10.304316      -280.3947
  44   2.0000     -10.301203      -280.3100
  45   2.0000     -10.296740      -280.1885
  46   2.0000     -10.296716      -280.1879
  47   2.0000     -10.295256      -280.1482
  48   2.0000     -10.292904      -280.0841
  49   2.0000     -10.291726      -280.0521
  50   2.0000     -10.291219      -280.0383
  51   2.0000     -10.291037      -280.0333
  52   2.0000     -10.289037      -279.9789
  53   2.0000     -10.288300      -279.9589
  54   2.0000     -10.286389      -279.9069
  55   2.0000     -10.286357      -279.9060
  56   2.0000     -10.283808      -279.8367
  57   2.0000     -10.283683      -279.8332
  58   2.0000     -10.281964      -279.7865
  59   2.0000     -10.280966      -279.7593
  60   2.0000     -10.280812      -279.7551
  61   2.0000     -10.280702      -279.7521
  62   2.0000     -10.279855      -279.7291
  63   2.0000     -10.279396      -279.7166
  64   2.0000     -10.279106      -279.7087
  65   2.0000     -10.278582      -279.6944
  66   2.0000     -10.278495      -279.6921
  67   2.0000     -10.277704      -279.6705
  68   2.0000     -10.277321      -279.6601
  69   2.0000     -10.273416      -279.5538
  70   2.0000     -10.271992      -279.5151
  71   2.0000     -10.271919      -279.5131
  72   2.0000     -10.268945      -279.4322
  73   2.0000     -10.267261      -279.3864
  74   2.0000     -10.266023      -279.3527
  75   2.0000     -10.265868      -279.3485
  76   2.0000     -10.261671      -279.2343
  77   2.0000      -8.137106      -221.4219
  78   2.0000      -8.065709      -219.4791
  79   2.0000      -8.062875      -219.4020
  80   2.0000      -8.057579      -219.2579
  81   2.0000      -8.056850      -219.2380
  82   2.0000      -6.108271      -166.2145
  83   2.0000      -6.100481      -166.0025
  84   2.0000      -6.099725      -165.9820
  85   2.0000      -6.034934      -164.2189
  86   2.0000      -6.032044      -164.1403
  87   2.0000      -6.030933      -164.1100
  88   2.0000      -6.028040      -164.0313
  89   2.0000      -6.027837      -164.0258
  90   2.0000      -6.027124      -164.0064
  91   2.0000      -6.026416      -163.9871
  92   2.0000      -6.025121      -163.9519
  93   2.0000      -6.022636      -163.8843
  94   2.0000      -6.021849      -163.8628
  95   2.0000      -6.019591      -163.8014
  96   2.0000      -6.018946      -163.7838
  97   2.0000      -1.346713       -36.6459
  98   2.0000      -1.332477       -36.2585
  99   2.0000      -1.143852       -31.1258
 100   2.0000      -1.122462       -30.5437
 101   2.0000      -1.120585       -30.4927
 102   2.0000      -1.118582       -30.4382
 103   2.0000      -1.044135       -28.4124
 104   2.0000      -1.019598       -27.7447
 105   2.0000      -1.016878       -27.6707
 106   2.0000      -1.010834       -27.5062
 107   2.0000      -1.007639       -27.4193
 108   2.0000      -1.001271       -27.2460
 109   2.0000      -0.989281       -26.9197
 110   2.0000      -0.988929       -26.9101
 111   2.0000      -0.987051       -26.8590
 112   2.0000      -0.986354       -26.8401
 113   2.0000      -0.982720       -26.7412
 114   2.0000      -0.976559       -26.5735
 115   2.0000      -0.966255       -26.2931
 116   2.0000      -0.949263       -25.8308
 117   2.0000      -0.946595       -25.7582
 118   2.0000      -0.931846       -25.3568
 119   2.0000      -0.925689       -25.1893
 120   2.0000      -0.897996       -24.4357
 121   2.0000      -0.894143       -24.3309
 122   2.0000      -0.892881       -24.2965
 123   2.0000      -0.889544       -24.2057
 124   2.0000      -0.889243       -24.1975
 125   2.0000      -0.886330       -24.1183
 126   2.0000      -0.866783       -23.5864
 127   2.0000      -0.864350       -23.5202
 128   2.0000      -0.861732       -23.4489
 129   2.0000      -0.851448       -23.1691
 130   2.0000      -0.837350       -22.7855
 131   2.0000      -0.834150       -22.6984
 132   2.0000      -0.828031       -22.5319
 133   2.0000      -0.826394       -22.4873
 134   2.0000      -0.825700       -22.4684
 135   2.0000      -0.819409       -22.2972
 136   2.0000      -0.816576       -22.2202
 137   2.0000      -0.803528       -21.8651
 138   2.0000      -0.801039       -21.7974
 139   2.0000      -0.791251       -21.5310
 140   2.0000      -0.777786       -21.1646
 141   2.0000      -0.777394       -21.1540
 142   2.0000      -0.776420       -21.1275
 143   2.0000      -0.763878       -20.7862
 144   2.0000      -0.758204       -20.6318
 145   2.0000      -0.748608       -20.3707
 146   2.0000      -0.745255       -20.2794
 147   2.0000      -0.740967       -20.1627
 148   2.0000      -0.730687       -19.8830
 149   2.0000      -0.712212       -19.3803
 150   2.0000      -0.709213       -19.2987
 151   2.0000      -0.705530       -19.1984
 152   2.0000      -0.699283       -19.0285
 153   2.0000      -0.689102       -18.7514
 154   2.0000      -0.686918       -18.6920
 155   2.0000      -0.680249       -18.5105
 156   2.0000      -0.677399       -18.4330
 157   2.0000      -0.673319       -18.3219
 158   2.0000      -0.668730       -18.1971
 159   2.0000      -0.666230       -18.1290
 160   2.0000      -0.663752       -18.0616
 161   2.0000      -0.654045       -17.7975
 162   2.0000      -0.641400       -17.4534
 163   2.0000      -0.637380       -17.3440
 164   2.0000      -0.634206       -17.2576
 165   2.0000      -0.631732       -17.1903
 166   2.0000      -0.629075       -17.1180
 167   2.0000      -0.627325       -17.0704
 168   2.0000      -0.624605       -16.9964
 169   2.0000      -0.622306       -16.9338
 170   2.0000      -0.621355       -16.9079
 171   2.0000      -0.607191       -16.5225
 172   2.0000      -0.603144       -16.4124
 173   2.0000      -0.599057       -16.3012
 174   2.0000      -0.588911       -16.0251
 175   2.0000      -0.582129       -15.8405
 176   2.0000      -0.578798       -15.7499
 177   2.0000      -0.574082       -15.6216
 178   2.0000      -0.569799       -15.5050
 179   2.0000      -0.569430       -15.4950
 180   2.0000      -0.565778       -15.3956
 181   2.0000      -0.562655       -15.3106
 182   2.0000      -0.556167       -15.1341
 183   2.0000      -0.554274       -15.0826
 184   2.0000      -0.548547       -14.9267
 185   2.0000      -0.545824       -14.8526
 186   2.0000      -0.541792       -14.7429
 187   2.0000      -0.534634       -14.5481
 188   2.0000      -0.534245       -14.5375
 189   2.0000      -0.534036       -14.5319
 190   2.0000      -0.531765       -14.4701
 191   2.0000      -0.530993       -14.4491
 192   2.0000      -0.530772       -14.4430
 193   2.0000      -0.529838       -14.4176
 194   2.0000      -0.525366       -14.2959
 195   2.0000      -0.523750       -14.2520
 196   2.0000      -0.522749       -14.2247
 197   2.0000      -0.518488       -14.1088
 198   2.0000      -0.517538       -14.0829
 199   2.0000      -0.517161       -14.0727
 200   2.0000      -0.515645       -14.0314
 201   2.0000      -0.515364       -14.0238
 202   2.0000      -0.512954       -13.9582
 203   2.0000      -0.510701       -13.8969
 204   2.0000      -0.507160       -13.8005
 205   2.0000      -0.504299       -13.7227
 206   2.0000      -0.496220       -13.5028
 207   2.0000      -0.495659       -13.4876
 208   2.0000      -0.491926       -13.3860
 209   2.0000      -0.488395       -13.2899
 210   2.0000      -0.487463       -13.2645
 211   2.0000      -0.486279       -13.2323
 212   2.0000      -0.485747       -13.2179
 213   2.0000      -0.485485       -13.2107
 214   2.0000      -0.483744       -13.1633
 215   2.0000      -0.482956       -13.1419
 216   2.0000      -0.481273       -13.0961
 217   2.0000      -0.477855       -13.0031
 218   2.0000      -0.475155       -12.9296
 219   2.0000      -0.474363       -12.9081
 220   2.0000      -0.473322       -12.8797
 221   2.0000      -0.470587       -12.8053
 222   2.0000      -0.470321       -12.7981
 223   2.0000      -0.469800       -12.7839
 224   2.0000      -0.467707       -12.7270
 225   2.0000      -0.467644       -12.7252
 226   2.0000      -0.461929       -12.5697
 227   2.0000      -0.461694       -12.5633
 228   2.0000      -0.458662       -12.4808
 229   2.0000      -0.454342       -12.3633
 230   2.0000      -0.446537       -12.1509
 231   2.0000      -0.445096       -12.1117
 232   2.0000      -0.444079       -12.0840
 233   2.0000      -0.440397       -11.9838
 234   2.0000      -0.440039       -11.9741
 235   2.0000      -0.439698       -11.9648
 236   2.0000      -0.438407       -11.9297
 237   2.0000      -0.437806       -11.9133
 238   2.0000      -0.437412       -11.9026
 239   2.0000      -0.436396       -11.8749
 240   2.0000      -0.434650       -11.8274
 241   2.0000      -0.432546       -11.7702
 242   2.0000      -0.431595       -11.7443
 243   2.0000      -0.430840       -11.7237
 244   2.0000      -0.429744       -11.6939
 245   2.0000      -0.427505       -11.6330
 246   2.0000      -0.423685       -11.5291
 247   2.0000      -0.422910       -11.5080
 248   2.0000      -0.420903       -11.4534
 249   2.0000      -0.420358       -11.4385
 250   2.0000      -0.416539       -11.3346
 251   2.0000      -0.416379       -11.3303
 252   2.0000      -0.413861       -11.2617
 253   2.0000      -0.409739       -11.1496
 254   2.0000      -0.408436       -11.1141
 255   2.0000      -0.406886       -11.0719
 256   2.0000      -0.406644       -11.0653
 257   2.0000      -0.404934       -11.0188
 258   2.0000      -0.402432       -10.9507
 259   2.0000      -0.398893       -10.8544
 260   2.0000      -0.394762       -10.7420
 261   2.0000      -0.390807       -10.6344
 262   2.0000      -0.375265       -10.2115
 263   2.0000      -0.369243       -10.0476
 264   2.0000      -0.367603       -10.0030
 265   2.0000      -0.361256        -9.8303
 266   2.0000      -0.347374        -9.4525
 267   2.0000      -0.345773        -9.4089
 268   2.0000      -0.331546        -9.0218
 269   2.0000      -0.330160        -8.9841
 270   2.0000      -0.329789        -8.9740
 271   2.0000      -0.329531        -8.9670
 272   2.0000      -0.329122        -8.9559
 273   2.0000      -0.326132        -8.8745
 274   2.0000      -0.322826        -8.7845
 275   2.0000      -0.322164        -8.7665
 276   2.0000      -0.319093        -8.6830
 277   2.0000      -0.302617        -8.2346
 278   2.0000      -0.299678        -8.1546
 279   2.0000      -0.289765        -7.8849
 280   2.0000      -0.258389        -7.0311
 281   2.0000      -0.225773        -6.1436
 282   0.0000      -0.121518        -3.3067
 283   0.0000      -0.080353        -2.1865
 284   0.0000      -0.076326        -2.0769
 285   0.0000      -0.051994        -1.4148
 286   0.0000      -0.051784        -1.4091

MULLIKEN ATOMIC CHARGES
-----------------------
   0 C :   -0.079494
   1 C :   -0.081725
   2 C :    0.118161
   3 C :   -0.076000
   4 C :    0.118551
   5 C :   -0.083732
   6 C :   -0.002333
   7 C :    0.035862
   8 C :    0.316887
   9 C :   -0.366380
  10 C :   -0.181208
  11 N :    0.139289
  12 C :   -0.193844
  13 N :    0.149101
  14 C :   -0.099502
  15 C :    0.157146
  16 O :   -0.166142
  17 C :    0.034929
  18 C :   -0.117850
  19 C :   -0.016084
  20 C :   -0.000025
  21 C :   -0.068846
  22 S :    0.170265
  23 C :   -0.059134
  24 C :    0.044579
  25 C :   -0.104134
  26 C :    0.106343
  27 C :    0.100434
  28 C :   -0.061255
  29 C :   -0.180834
  30 S :    0.175559
  31 C :    0.179433
  32 C :   -0.063028
  33 C :   -0.074861
  34 N :    0.001938
  35 C :    0.138701
  36 C :    0.154920
  37 N :   -0.045709
  38 F :   -0.134899
  39 F :   -0.145065
  40 C :    0.210428
  41 C :   -0.036064
  42 C :   -0.003013
  43 N :   -0.292728
  44 S :    0.550093
  45 N :   -0.326769
  46 C :   -0.185817
  47 C :   -0.066124
  48 C :    0.041978
  49 C :   -0.054938
  50 S :    0.172870
  51 C :   -0.068397
  52 C :   -0.003333
  53 C :   -0.103006
  54 C :    0.105304
  55 C :    0.106913
  56 C :    0.007075
  57 C :   -0.115825
  58 S :    0.175079
  59 C :    0.075812
  60 C :   -0.149001
  61 C :    0.134309
  62 O :   -0.148512
  63 C :    0.011178
  64 C :    0.023655
  65 C :   -0.080853
  66 C :   -0.080793
  67 C :   -0.079273
  68 C :   -0.083488
  69 C :    0.118322
  70 C :    0.116529
  71 C :    0.273493
  72 C :   -0.348005
  73 C :   -0.203578
  74 N :    0.167556
  75 C :   -0.175413
  76 N :    0.144932
  77 H :   -0.015302
  78 H :    0.024343
  79 H :    0.025091
  80 H :    0.023976
  81 H :    0.025834
  82 H :    0.026701
  83 H :    0.013519
  84 H :   -0.024138
  85 H :    0.003152
  86 H :    0.007086
  87 H :    0.019489
  88 H :    0.019989
  89 H :    0.011719
  90 H :    0.021222
  91 H :    0.011908
  92 H :    0.019554
  93 H :   -0.010567
  94 H :   -0.004249
  95 H :    0.018356
  96 H :    0.015717
  97 H :    0.011343
  98 H :    0.034405
  99 H :    0.013609
 100 H :    0.012666
 101 H :   -0.003672
 102 H :    0.017869
 103 H :   -0.013403
 104 H :   -0.019474
 105 H :    0.026111
 106 H :    0.027054
 107 H :    0.014963
 108 H :    0.022705
 109 H :    0.026929
 110 H :    0.024886
Sum of atomic charges:    0.0000000

LOEWDIN ATOMIC CHARGES
----------------------
   0 C :   -0.006190
   1 C :   -0.006194
   2 C :   -0.042151
   3 C :   -0.008986
   4 C :   -0.042994
   5 C :    0.004281
   6 C :   -0.047072
   7 C :   -0.018803
   8 C :    0.079647
   9 C :   -0.149991
  10 C :   -0.016739
  11 N :   -0.063399
  12 C :   -0.025100
  13 N :   -0.058082
  14 C :   -0.108369
  15 C :    0.088122
  16 O :   -0.153839
  17 C :    0.040163
  18 C :   -0.177112
  19 C :   -0.007870
  20 C :   -0.039880
  21 C :   -0.168195
  22 S :    0.460835
  23 C :   -0.202577
  24 C :   -0.026948
  25 C :   -0.036068
  26 C :   -0.023308
  27 C :   -0.024218
  28 C :   -0.040256
  29 C :   -0.157605
  30 S :    0.478739
  31 C :   -0.048028
  32 C :   -0.014605
  33 C :   -0.009578
  34 N :   -0.028743
  35 C :    0.057543
  36 C :    0.062854
  37 N :   -0.053728
  38 F :   -0.024751
  39 F :   -0.033258
  40 C :   -0.045427
  41 C :   -0.047531
  42 C :   -0.037547
  43 N :   -0.278785
  44 S :    0.669598
  45 N :   -0.298089
  46 C :   -0.157523
  47 C :   -0.037625
  48 C :   -0.028301
  49 C :   -0.196539
  50 S :    0.477080
  51 C :   -0.169297
  52 C :   -0.029617
  53 C :   -0.035564
  54 C :   -0.024550
  55 C :   -0.021698
  56 C :   -0.010852
  57 C :   -0.180636
  58 S :    0.462559
  59 C :    0.042481
  60 C :   -0.104812
  61 C :    0.082353
  62 O :   -0.149231
  63 C :   -0.049205
  64 C :   -0.016290
  65 C :   -0.009707
  66 C :   -0.005048
  67 C :   -0.009450
  68 C :    0.006157
  69 C :   -0.042694
  70 C :   -0.042246
  71 C :    0.069187
  72 C :   -0.152023
  73 C :   -0.017636
  74 N :   -0.049675
  75 C :   -0.020945
  76 N :   -0.061249
  77 H :    0.035604
  78 H :    0.035664
  79 H :    0.037136
  80 H :    0.036621
  81 H :    0.037515
  82 H :    0.037614
  83 H :    0.031829
  84 H :    0.033448
  85 H :    0.041705
  86 H :    0.034071
  87 H :    0.029645
  88 H :    0.027498
  89 H :    0.024132
  90 H :    0.029827
  91 H :    0.024229
  92 H :    0.027329
  93 H :    0.028550
  94 H :    0.029327
  95 H :    0.028770
  96 H :    0.026336
  97 H :    0.024083
  98 H :    0.035162
  99 H :    0.025106
 100 H :    0.024767
 101 H :    0.034821
 102 H :    0.044036
 103 H :    0.034916
 104 H :    0.035314
 105 H :    0.037352
 106 H :    0.037912
 107 H :    0.032404
 108 H :    0.035094
 109 H :    0.038297
 110 H :    0.036718

  Mayer bond orders larger than 0.100000
B(  0-C ,  1-C ) :   1.3753 B(  0-C ,  7-C ) :   1.3495 B(  0-C , 77-H ) :   0.9829
B(  1-C ,  2-C ) :   1.0939 B(  1-C ,  3-C ) :   1.3806 B(  2-C , 78-H ) :   0.9506
B(  2-C , 79-H ) :   0.9400 B(  2-C , 80-H ) :   0.9402 B(  3-C ,  4-C ) :   1.0925
B(  3-C ,  5-C ) :   1.3465 B(  4-C , 81-H ) :   0.9406 B(  4-C , 82-H ) :   0.9404
B(  4-C , 83-H ) :   0.9516 B(  5-C ,  6-C ) :   1.3596 B(  5-C , 84-H ) :   1.0097
B(  6-C ,  7-C ) :   1.3396 B(  6-C , 15-C ) :   0.9564 B(  7-C ,  8-C ) :   0.9761
B(  8-C ,  9-C ) :   1.6046 B(  8-C , 14-C ) :   1.0937 B(  9-C , 10-C ) :   1.1518
B(  9-C , 12-C ) :   1.1389 B( 10-C , 11-N ) :   2.9625 B( 12-C , 13-N ) :   2.9721
B( 14-C , 15-C ) :   0.9438 B( 14-C , 17-C ) :   1.5565 B( 15-C , 16-O ) :   2.1490
B( 17-C , 18-C ) :   1.2542 B( 17-C , 85-H ) :   0.9076 B( 18-C , 19-C ) :   1.3685
B( 18-C , 22-S ) :   1.0738 B( 19-C , 20-C ) :   1.3517 B( 19-C , 86-H ) :   0.9811
B( 20-C , 21-C ) :   1.4414 B( 20-C , 25-C ) :   0.9349 B( 21-C , 22-S ) :   1.1259
B( 21-C , 23-C ) :   1.2002 B( 23-C , 24-C ) :   1.4735 B( 23-C , 30-S ) :   1.0426
B( 24-C , 25-C ) :   0.9373 B( 24-C , 28-C ) :   1.3151 B( 25-C , 26-C ) :   1.0347
B( 25-C , 27-C ) :   1.0357 B( 26-C , 87-H ) :   0.9634 B( 26-C , 88-H ) :   0.9651
B( 26-C , 89-H ) :   0.9646 B( 27-C , 90-H ) :   0.9645 B( 27-C , 91-H ) :   0.9648
B( 27-C , 92-H ) :   0.9653 B( 28-C , 29-C ) :   1.4048 B( 28-C , 93-H ) :   0.9934
B( 29-C , 30-S ) :   1.1035 B( 29-C , 31-C ) :   1.1991 B( 31-C , 32-C ) :   1.2828
B( 31-C , 40-C ) :   0.1226 B( 31-C , 42-C ) :   1.1963 B( 32-C , 33-C ) :   1.1135
B( 32-C , 37-N ) :   1.3862 B( 33-C , 34-N ) :   1.4335 B( 33-C , 40-C ) :   1.2855
B( 34-N , 35-C ) :   1.6624 B( 35-C , 36-C ) :   1.1128 B( 35-C , 39-F ) :   1.1681
B( 36-C , 37-N ) :   1.6491 B( 36-C , 38-F ) :   1.1889 B( 40-C , 41-C ) :   1.1772
B( 40-C , 46-C ) :   1.1991 B( 41-C , 42-C ) :   1.1085 B( 41-C , 45-N ) :   1.4846
B( 42-C , 43-N ) :   1.5115 B( 43-N , 44-S ) :   1.2738 B( 43-N , 45-N ) :   0.1513
B( 44-S , 45-N ) :   1.2689 B( 46-C , 47-C ) :   1.3923 B( 46-C , 50-S ) :   1.1068
B( 47-C , 48-C ) :   1.3108 B( 47-C , 94-H ) :   0.9976 B( 48-C , 49-C ) :   1.4710
B( 48-C , 53-C ) :   0.9350 B( 49-C , 50-S ) :   1.0554 B( 49-C , 51-C ) :   1.1962
B( 51-C , 52-C ) :   1.4702 B( 51-C , 58-S ) :   1.1144 B( 52-C , 53-C ) :   0.9365
B( 52-C , 56-C ) :   1.4041 B( 53-C , 54-C ) :   1.0390 B( 53-C , 55-C ) :   1.0329
B( 54-C , 95-H ) :   0.9641 B( 54-C , 96-H ) :   0.9642 B( 54-C , 97-H ) :   0.9646
B( 55-C , 98-H ) :   0.9623 B( 55-C , 99-H ) :   0.9642 B( 55-C ,100-H ) :   0.9640
B( 56-C , 57-C ) :   1.3640 B( 56-C ,101-H ) :   0.9886 B( 57-C , 58-S ) :   1.0883
B( 57-C , 59-C ) :   1.1707 B( 59-C , 60-C ) :   1.6280 B( 59-C ,102-H ) :   0.9266
B( 60-C , 61-C ) :   0.9479 B( 60-C , 71-C ) :   1.0545 B( 61-C , 62-O ) :   2.2590
B( 61-C , 63-C ) :   0.9211 B( 63-C , 64-C ) :   1.3357 B( 63-C , 68-C ) :   1.3650
B( 64-C , 65-C ) :   1.3571 B( 64-C , 71-C ) :   0.9965 B( 65-C , 66-C ) :   1.3705
B( 65-C ,103-H ) :   0.9861 B( 66-C , 67-C ) :   1.3798 B( 66-C , 70-C ) :   1.0944
B( 67-C , 68-C ) :   1.3521 B( 67-C , 69-C ) :   1.0931 B( 68-C ,104-H ) :   1.0095
B( 69-C ,105-H ) :   0.9405 B( 69-C ,106-H ) :   0.9404 B( 69-C ,107-H ) :   0.9520
B( 70-C ,108-H ) :   0.9509 B( 70-C ,109-H ) :   0.9395 B( 70-C ,110-H ) :   0.9408
B( 71-C , 72-C ) :   1.6230 B( 72-C , 73-C ) :   1.1703 B( 72-C , 75-C ) :   1.1307
B( 73-C , 74-N ) :   2.9887 B( 75-C , 76-N ) :   2.9849

-----------------------------------------------------------------------------
         ABSORPTION SPECTRUM VIA TRANSITION ELECTRIC DIPOLE MOMENTS
-----------------------------------------------------------------------------
State   Energy  Wavelength   fosc         T2         TX        TY        TZ
        (cm-1)    (nm)                  (au**2)     (au)      (au)      (au)
-----------------------------------------------------------------------------
   0    8435.6   1185.5   1.167077674  45.54702  -3.56226   5.72856   0.20230
   1   16547.0    604.3   0.006412266   0.12758  -0.11126  -0.33478   0.05586
   2   18098.5    552.5   0.856969802  15.58830   2.31296  -3.19974  -0.01378
   3   19354.1    516.7   0.689978590  11.73649  -2.08816   2.63500   0.65792
   4   23824.3    419.7   0.149032435   2.05938   0.87527  -1.13082  -0.12048
   5   24352.8    410.6   0.226010744   3.05531   0.43827  -1.67578  -0.23452
   6   24732.0    404.3   0.049446879   0.65820   0.31087  -0.38632   0.64211
   7   25214.4    396.6   0.032550406   0.42499  -0.24272   0.51502   0.31755
   8   26384.5    379.0   0.006251172   0.07800  -0.04537   0.05085  -0.27084
   9   26550.0    376.6   0.001240800   0.01539  -0.02920  -0.11141  -0.04604
  10   27350.7    365.6   0.057284173   0.68951   0.46146  -0.00042   0.69034
  11   27806.9    359.6   0.065877087   0.77993   0.49735  -0.32864  -0.65159
  12   28219.7    354.4   0.075659647   0.88265  -0.06820  -0.92835  -0.12710
  13   28620.5    349.4   0.247006848   2.84124  -0.53419   1.55240  -0.38203
  14   29614.6    337.7   0.000079197   0.00088  -0.00823   0.01430   0.02466
  15   29667.4    337.1   0.040207992   0.44618  -0.18391  -0.07089   0.63822
  16   30315.2    329.9   0.000871771   0.00947   0.08334  -0.04536   0.02157
  17   30562.7    327.2   0.015905826   0.17133   0.05481  -0.40966  -0.02248
  18   31059.6    322.0   0.041177192   0.43645   0.26392  -0.30963   0.52051
  19   31204.7    320.5   0.129017844   1.36115   0.43989  -0.86368  -0.64939
  20   31337.6    319.1   0.000448275   0.00471  -0.00939  -0.02336   0.06384
  21   31774.8    314.7   0.038183776   0.39561   0.08477   0.44683  -0.43447
  22   31864.1    313.8   0.003463083   0.03578  -0.11745   0.01297   0.14770
  23   32523.2    307.5   0.052074816   0.52712   0.19809   0.52593   0.45964
  24   32666.7    306.1   0.001588948   0.01601   0.05434  -0.09778   0.05915
  25   33044.7    302.6   0.089844123   0.89508   0.08172   0.48711   0.80693
  26   33171.8    301.5   0.059644698   0.59194   0.21086   0.37941  -0.63524
  27   33572.6    297.9   0.032820890   0.32184  -0.13771  -0.38488  -0.39338
  28   33906.1    294.9   0.062819471   0.60995  -0.20060  -0.72029   0.22559
  29   33967.9    294.4   0.051793443   0.50197  -0.21619   0.51654  -0.43408
  30   34025.6    293.9   0.166449948   1.61047  -0.07182  -0.76178  -1.01243
  31   34244.4    292.0   0.243577995   2.34166   0.02294   0.60146  -1.40690
  32   34888.7    286.6   0.087644558   0.82702  -0.24580   0.82589  -0.29070
  33   35119.2    284.7   0.026381836   0.24731  -0.13453   0.47440   0.06441
  34   35401.0    282.5   0.125323513   1.16545  -0.11351   0.94951   0.50099
  35   35913.9    278.4   0.165365143   1.51585  -0.20004   0.77054  -0.93920
  36   36247.9    275.9   0.120595862   1.09528   0.22557   0.27243  -0.98498
  37   36430.9    274.5   0.021173007   0.19133  -0.16718   0.37908   0.14030
  38   36626.9    273.0   0.616187499   5.53846   0.39753   0.89936  -2.13813
  39   37084.4    269.7   0.436707473   3.87682   0.20077   1.58311   1.15338
  40   37194.3    268.9   0.005086557   0.04502  -0.05536  -0.10258   0.17730
  41   37469.2    266.9   0.041221623   0.36218  -0.16585   0.15112  -0.55842
  42   37581.3    266.1   0.007699235   0.06745  -0.05054   0.23835  -0.08989
  43   37755.8    264.9   0.069654826   0.60736   0.05408  -0.03417   0.77670
  44   38020.1    263.0   0.022463638   0.19451  -0.15843  -0.13070  -0.39029
  45   38603.7    259.0   0.035152281   0.29978   0.26415  -0.22896  -0.42140
  46   39181.5    255.2   0.084292235   0.70824  -0.31910  -0.06113  -0.77632
  47   39398.8    253.8   0.288776361   2.41299   0.49371  -0.41100  -1.41432
  48   39983.7    250.1   0.113870667   0.93757  -0.30512  -0.73368   0.55334
  49   40033.0    249.8   0.004223108   0.03473   0.14158   0.04918   0.11075

FINAL SINGLE POINT ENERGY     -5081.393428812713

DIPOLE MOMENT
-------------
                                X             Y             Z
Electronic contribution:      7.13284       5.95751      16.71368
Nuclear contribution   :     -7.04751      -7.13404     -19.23816
                        -----------------------------------------
Total Dipole Moment    :      0.08534      -1.17653      -2.52447
                        -----------------------------------------
Magnitude (a.u.)       :      2.78648
Magnitude (Debye)      :      7.08266

Rotational constants in cm-1:     0.003111     0.000161     0.000156
Rotational constants in MHz :    93.260167     4.825496     4.661848

                             ****ORCA TERMINATED NORMALLY****
TOTAL RUN TIME: 0 days 0 hours 12 minutes 6 seconds 188 msec
