                         Program Version 4.2.0 -  RELEASE  -
|  1> # ORCA input file
|  2> # SCF done       -182.521753329084          0.000499400538
|  3> ! CAM-B3LYP def2-SVP def2/J RIJCOSX Grid4 TightSCF
|  4> %maxcore 5000
|  5> %tddft
|  6>     Mode sTDDFT
|  7>     Ethresh 5.0
|  8>     maxcore 5000
|  9> end
| 10>
| 11> %pal
| 12>   nprocs 6
| 13>   end
| 14> * xyz 0 1
| 15>    C       -7.67513        -2.72210        -3.63363
| 16>    C       -8.02398        -3.89621        -4.44940
| 17>    O       -7.74609        -5.06036        -4.27182
| 18>    C       -8.82559        -3.36305        -5.58874
| 19>    C       -8.96749        -1.97394        -5.47364
| 20>    C       -8.26374        -1.50808        -4.24836
| 21>    O       -8.18117        -0.37853        -3.83216
| 22>    C       -9.67818        -1.27185        -6.43143
| 23>    C      -10.25039        -1.94601        -7.50684
| 24>    C      -10.11078        -3.31553        -7.62034
| 25>    C       -9.39734        -4.02732        -6.66009
| 26>    F       -9.27922        -5.34972        -6.79851
| 27>    F       -9.82987         0.05110        -6.34976
| 28>    C       -6.94143        -2.58282        -2.49467
| 29>    C       -6.25380        -3.53289        -1.70466
| 30>    C       -6.13324        -4.89627        -1.83015
| 31>    C       -5.33865        -5.48690        -0.82843
| 32>    C       -4.83371        -4.52797         0.09889
| 33>    S       -5.36943        -2.92544        -0.30315
| 34>    C       -4.02637        -4.88219         1.15559
| 35>    C       -3.70284        -6.23341         1.30555
| 36>    C       -4.21001        -7.19287         0.38279
| 37>    C       -5.01650        -6.83937        -0.67177
| 38>    S       -3.67198        -8.80148         0.78290
| 39>    C       -2.77239        -8.19253         2.16242
| 40>    C       -2.89602        -6.83054         2.29545
| 41>    C       -2.03885        -9.11066         2.97885
| 42>    C       -1.24576        -8.74714         4.09269
| 43>    C       -0.54023        -9.71971         4.89117
| 44>    N        0.19636        -9.29085         5.93987
| 45>    C        0.26334        -8.03175         6.21408
| 46>    C       -0.42793        -7.07592         5.42806
| 47>    N       -1.14420        -7.43952         4.41821
| 48>    F       -0.36253        -5.77445         5.70182
| 49>    F        1.00463        -7.66590         7.25793
| 50>    C       -0.59191       -11.10707         4.61842
| 51>    C       -1.37027       -11.46285         3.49828
| 52>    C       -2.07262       -10.49201         2.70011
| 53>    N       -2.73887       -11.07108         1.69904
| 54>    S       -2.50952       -12.65483         1.75215
| 55>    N       -1.55910       -12.70206         3.04011
| 56>    C        0.06539       -12.11768         5.38934
| 57>    C        0.85629       -11.97299         6.50355
| 58>    C        1.33094       -13.19316         7.02639
| 59>    C        0.87610       -14.30987         6.26791
| 60>    S       -0.12006       -13.80267         4.93080
| 61>    C        1.20674       -15.60222         6.59706
| 62>    C        2.01638       -15.80846         7.71941
| 63>    C        2.47317       -14.68887         8.47597
| 64>    C        2.14370       -13.39432         8.14519
| 65>    S        3.45528       -15.19623         9.81539
| 66>    C        3.24995       -16.89197         9.37106
| 67>    C        2.47036       -17.03278         8.24783
| 68>    C        3.88155       -17.85296        10.19396
| 69>    C        3.90064       -19.21351        10.13854
| 70>    C        4.65899       -19.95203        11.17659
| 71>    O        5.28776       -19.47100        12.08723
| 72>    C        4.47930       -21.39469        10.86084
| 73>    C        3.67882       -21.52236         9.71809
| 74>    C        3.28316       -20.17582         9.21206
| 75>    O        2.59671       -19.96567         8.23809
| 76>    C        3.37124       -22.78086         9.23068
| 77>    C        3.85596       -23.91529         9.87567
| 78>    C        4.64473       -23.78902        11.00239
| 79>    C        4.95838       -22.52622        11.49761
| 80>    F        5.72206       -22.43618        12.58786
| 81>    F        2.61125       -22.93675         8.14435
| 82>    H      -10.80065        -1.38382        -8.24480
| 83>    H      -10.54918        -3.84884        -8.44898
| 84>    H       -6.86839        -1.55654        -2.14144
| 85>    H       -6.60283        -5.45152        -2.62198
| 86>    H       -3.64936        -4.14790         1.84917
| 87>    H       -5.39439        -7.57226        -1.36602
| 88>    H       -2.41909        -6.27838         3.08212
| 89>    H        1.08515       -11.01668         6.93279
| 90>    H        0.85642       -16.44103         6.01766
| 91>    H        2.49434       -12.55643         8.72612
| 92>    H        2.23256       -17.99051         7.82106
| 93>    H        4.44997       -17.43939        11.02422
| 94>    H        3.60571       -24.88803         9.48290
| 95>    H        5.02550       -24.66074        11.51082
| 96> *
| 97>
| 98>                          ****END OF INPUT****

CARTESIAN COORDINATES (ANGSTROEM)
---------------------------------
  C     -7.675130   -2.722100   -3.633630
  C     -8.023980   -3.896210   -4.449400
  O     -7.746090   -5.060360   -4.271820
  C     -8.825590   -3.363050   -5.588740
  C     -8.967490   -1.973940   -5.473640
  C     -8.263740   -1.508080   -4.248360
  O     -8.181170   -0.378530   -3.832160
  C     -9.678180   -1.271850   -6.431430
  C    -10.250390   -1.946010   -7.506840
  C    -10.110780   -3.315530   -7.620340
  C     -9.397340   -4.027320   -6.660090
  F     -9.279220   -5.349720   -6.798510
  F     -9.829870    0.051100   -6.349760
  C     -6.941430   -2.582820   -2.494670
  C     -6.253800   -3.532890   -1.704660
  C     -6.133240   -4.896270   -1.830150
  C     -5.338650   -5.486900   -0.828430
  C     -4.833710   -4.527970    0.098890
  S     -5.369430   -2.925440   -0.303150
  C     -4.026370   -4.882190    1.155590
  C     -3.702840   -6.233410    1.305550
  C     -4.210010   -7.192870    0.382790
  C     -5.016500   -6.839370   -0.671770
  S     -3.671980   -8.801480    0.782900
  C     -2.772390   -8.192530    2.162420
  C     -2.896020   -6.830540    2.295450
  C     -2.038850   -9.110660    2.978850
  C     -1.245760   -8.747140    4.092690
  C     -0.540230   -9.719710    4.891170
  N      0.196360   -9.290850    5.939870
  C      0.263340   -8.031750    6.214080
  C     -0.427930   -7.075920    5.428060
  N     -1.144200   -7.439520    4.418210
  F     -0.362530   -5.774450    5.701820
  F      1.004630   -7.665900    7.257930
  C     -0.591910  -11.107070    4.618420
  C     -1.370270  -11.462850    3.498280
  C     -2.072620  -10.492010    2.700110
  N     -2.738870  -11.071080    1.699040
  S     -2.509520  -12.654830    1.752150
  N     -1.559100  -12.702060    3.040110
  C      0.065390  -12.117680    5.389340
  C      0.856290  -11.972990    6.503550
  C      1.330940  -13.193160    7.026390
  C      0.876100  -14.309870    6.267910
  S     -0.120060  -13.802670    4.930800
  C      1.206740  -15.602220    6.597060
  C      2.016380  -15.808460    7.719410
  C      2.473170  -14.688870    8.475970
  C      2.143700  -13.394320    8.145190
  S      3.455280  -15.196230    9.815390
  C      3.249950  -16.891970    9.371060
  C      2.470360  -17.032780    8.247830
  C      3.881550  -17.852960   10.193960
  C      3.900640  -19.213510   10.138540
  C      4.658990  -19.952030   11.176590
  O      5.287760  -19.471000   12.087230
  C      4.479300  -21.394690   10.860840
  C      3.678820  -21.522360    9.718090
  C      3.283160  -20.175820    9.212060
  O      2.596710  -19.965670    8.238090
  C      3.371240  -22.780860    9.230680
  C      3.855960  -23.915290    9.875670
  C      4.644730  -23.789020   11.002390
  C      4.958380  -22.526220   11.497610
  F      5.722060  -22.436180   12.587860
  F      2.611250  -22.936750    8.144350
  H    -10.800650   -1.383820   -8.244800
  H    -10.549180   -3.848840   -8.448980
  H     -6.868390   -1.556540   -2.141440
  H     -6.602830   -5.451520   -2.621980
  H     -3.649360   -4.147900    1.849170
  H     -5.394390   -7.572260   -1.366020
  H     -2.419090   -6.278380    3.082120
  H      1.085150  -11.016680    6.932790
  H      0.856420  -16.441030    6.017660
  H      2.494340  -12.556430    8.726120
  H      2.232560  -17.990510    7.821060
  H      4.449970  -17.439390   11.024220
  H      3.605710  -24.888030    9.482900
  H      5.025500  -24.660740   11.510820

 Total Charge           Charge          ....    0
 Multiplicity           Mult            ....    1
 Number of Electrons    NEL             ....  496
 Basis Dimension        Dim             .... 1028

ORBITAL ENERGIES
----------------

  NO   OCC          E(Eh)            E(eV)
   0   2.0000     -89.049396     -2423.1573
   1   2.0000     -88.950105     -2420.4554
   2   2.0000     -88.949964     -2420.4516
   3   2.0000     -88.945674     -2420.3348
   4   2.0000     -88.945625     -2420.3335
   5   2.0000     -24.820983      -675.4133
   6   2.0000     -24.820822      -675.4089
   7   2.0000     -24.789753      -674.5635
   8   2.0000     -24.789732      -674.5629
   9   2.0000     -24.789401      -674.5539
  10   2.0000     -24.789340      -674.5522
  11   2.0000     -19.215785      -522.8881
  12   2.0000     -19.215775      -522.8878
  13   2.0000     -19.209846      -522.7265
  14   2.0000     -19.209779      -522.7247
  15   2.0000     -14.459003      -393.4495
  16   2.0000     -14.458851      -393.4453
  17   2.0000     -14.455858      -393.3639
  18   2.0000     -14.455735      -393.3605
  19   2.0000     -10.436747      -283.9983
  20   2.0000     -10.436452      -283.9903
  21   2.0000     -10.376681      -282.3638
  22   2.0000     -10.376659      -282.3632
  23   2.0000     -10.376498      -282.3589
  24   2.0000     -10.376465      -282.3580
  25   2.0000     -10.371380      -282.2196
  26   2.0000     -10.371355      -282.2189
  27   2.0000     -10.364377      -282.0290
  28   2.0000     -10.364345      -282.0282
  29   2.0000     -10.352576      -281.7079
  30   2.0000     -10.352324      -281.7011
  31   2.0000     -10.343809      -281.4693
  32   2.0000     -10.343545      -281.4622
  33   2.0000     -10.321108      -280.8516
  34   2.0000     -10.320946      -280.8472
  35   2.0000     -10.315323      -280.6942
  36   2.0000     -10.315182      -280.6904
  37   2.0000     -10.315139      -280.6892
  38   2.0000     -10.315119      -280.6887
  39   2.0000     -10.309307      -280.5305
  40   2.0000     -10.309238      -280.5286
  41   2.0000     -10.306119      -280.4437
  42   2.0000     -10.305960      -280.4394
  43   2.0000     -10.303959      -280.3850
  44   2.0000     -10.303918      -280.3839
  45   2.0000     -10.303500      -280.3725
  46   2.0000     -10.303454      -280.3712
  47   2.0000     -10.300579      -280.2930
  48   2.0000     -10.300557      -280.2924
  49   2.0000     -10.299760      -280.2707
  50   2.0000     -10.299760      -280.2707
  51   2.0000     -10.297336      -280.2048
  52   2.0000     -10.297191      -280.2008
  53   2.0000     -10.286074      -279.8983
  54   2.0000     -10.286022      -279.8969
  55   2.0000     -10.285677      -279.8875
  56   2.0000     -10.285626      -279.8861
  57   2.0000     -10.285002      -279.8691
  58   2.0000     -10.284962      -279.8680
  59   2.0000     -10.284373      -279.8520
  60   2.0000     -10.284286      -279.8497
  61   2.0000     -10.281434      -279.7720
  62   2.0000     -10.281339      -279.7695
  63   2.0000     -10.280948      -279.7588
  64   2.0000     -10.280907      -279.7577
  65   2.0000     -10.276350      -279.6337
  66   2.0000     -10.276265      -279.6314
  67   2.0000      -8.140209      -221.5063
  68   2.0000      -8.046122      -218.9461
  69   2.0000      -8.046063      -218.9445
  70   2.0000      -8.040427      -218.7911
  71   2.0000      -8.040379      -218.7898
  72   2.0000      -6.111241      -166.2953
  73   2.0000      -6.103558      -166.0862
  74   2.0000      -6.103076      -166.0731
  75   2.0000      -6.015664      -163.6945
  76   2.0000      -6.015581      -163.6923
  77   2.0000      -6.011768      -163.5885
  78   2.0000      -6.011721      -163.5873
  79   2.0000      -6.010241      -163.5470
  80   2.0000      -6.010187      -163.5455
  81   2.0000      -6.007380      -163.4691
  82   2.0000      -6.007300      -163.4669
  83   2.0000      -6.005871      -163.4281
  84   2.0000      -6.005844      -163.4273
  85   2.0000      -6.001567      -163.3109
  86   2.0000      -6.001501      -163.3091
  87   2.0000      -1.348500       -36.6946
  88   2.0000      -1.334800       -36.3218
  89   2.0000      -1.307356       -35.5750
  90   2.0000      -1.307351       -35.5748
  91   2.0000      -1.307080       -35.5675
  92   2.0000      -1.307057       -35.5668
  93   2.0000      -1.146616       -31.2010
  94   2.0000      -1.133247       -30.8372
  95   2.0000      -1.133191       -30.8357
  96   2.0000      -1.125817       -30.6350
  97   2.0000      -1.125810       -30.6348
  98   2.0000      -1.118685       -30.4410
  99   2.0000      -1.043371       -28.3916
 100   2.0000      -1.007643       -27.4194
 101   2.0000      -1.002741       -27.2860
 102   2.0000      -0.997709       -27.1490
 103   2.0000      -0.990541       -26.9540
 104   2.0000      -0.990388       -26.9498
 105   2.0000      -0.987508       -26.8715
 106   2.0000      -0.974780       -26.5251
 107   2.0000      -0.966001       -26.2862
 108   2.0000      -0.932503       -25.3747
 109   2.0000      -0.931224       -25.3399
 110   2.0000      -0.917914       -24.9777
 111   2.0000      -0.909759       -24.7558
 112   2.0000      -0.890918       -24.2431
 113   2.0000      -0.888719       -24.1833
 114   2.0000      -0.877097       -23.8670
 115   2.0000      -0.875834       -23.8326
 116   2.0000      -0.872456       -23.7407
 117   2.0000      -0.863879       -23.5074
 118   2.0000      -0.852735       -23.2041
 119   2.0000      -0.852734       -23.2041
 120   2.0000      -0.833021       -22.6677
 121   2.0000      -0.831036       -22.6136
 122   2.0000      -0.826382       -22.4870
 123   2.0000      -0.816310       -22.2129
 124   2.0000      -0.813284       -22.1306
 125   2.0000      -0.789492       -21.4832
 126   2.0000      -0.787806       -21.4373
 127   2.0000      -0.781890       -21.2763
 128   2.0000      -0.772330       -21.0162
 129   2.0000      -0.764937       -20.8150
 130   2.0000      -0.757943       -20.6247
 131   2.0000      -0.757855       -20.6223
 132   2.0000      -0.755723       -20.5643
 133   2.0000      -0.736755       -20.0481
 134   2.0000      -0.719186       -19.5700
 135   2.0000      -0.702528       -19.1167
 136   2.0000      -0.695471       -18.9247
 137   2.0000      -0.688485       -18.7346
 138   2.0000      -0.687420       -18.7056
 139   2.0000      -0.683857       -18.6087
 140   2.0000      -0.679090       -18.4790
 141   2.0000      -0.679013       -18.4769
 142   2.0000      -0.674128       -18.3440
 143   2.0000      -0.671236       -18.2653
 144   2.0000      -0.669263       -18.2116
 145   2.0000      -0.662301       -18.0221
 146   2.0000      -0.653555       -17.7841
 147   2.0000      -0.651223       -17.7207
 148   2.0000      -0.633116       -17.2280
 149   2.0000      -0.631797       -17.1921
 150   2.0000      -0.628297       -17.0968
 151   2.0000      -0.627168       -17.0661
 152   2.0000      -0.624331       -16.9889
 153   2.0000      -0.624198       -16.9853
 154   2.0000      -0.623837       -16.9755
 155   2.0000      -0.616696       -16.7812
 156   2.0000      -0.611789       -16.6476
 157   2.0000      -0.608653       -16.5623
 158   2.0000      -0.600555       -16.3419
 159   2.0000      -0.595449       -16.2030
 160   2.0000      -0.584396       -15.9022
 161   2.0000      -0.579797       -15.7771
 162   2.0000      -0.576146       -15.6777
 163   2.0000      -0.573346       -15.6015
 164   2.0000      -0.573343       -15.6015
 165   2.0000      -0.571896       -15.5621
 166   2.0000      -0.569358       -15.4930
 167   2.0000      -0.566572       -15.4172
 168   2.0000      -0.563393       -15.3307
 169   2.0000      -0.558396       -15.1947
 170   2.0000      -0.557933       -15.1821
 171   2.0000      -0.556230       -15.1358
 172   2.0000      -0.556217       -15.1354
 173   2.0000      -0.549130       -14.9426
 174   2.0000      -0.548772       -14.9328
 175   2.0000      -0.541030       -14.7222
 176   2.0000      -0.538189       -14.6449
 177   2.0000      -0.530965       -14.4483
 178   2.0000      -0.530602       -14.4384
 179   2.0000      -0.527920       -14.3654
 180   2.0000      -0.526626       -14.3302
 181   2.0000      -0.525161       -14.2904
 182   2.0000      -0.522826       -14.2268
 183   2.0000      -0.522734       -14.2243
 184   2.0000      -0.522527       -14.2187
 185   2.0000      -0.522355       -14.2140
 186   2.0000      -0.518083       -14.0977
 187   2.0000      -0.517479       -14.0813
 188   2.0000      -0.511887       -13.9291
 189   2.0000      -0.511237       -13.9115
 190   2.0000      -0.507674       -13.8145
 191   2.0000      -0.506700       -13.7880
 192   2.0000      -0.506650       -13.7866
 193   2.0000      -0.505203       -13.7473
 194   2.0000      -0.504533       -13.7290
 195   2.0000      -0.504142       -13.7184
 196   2.0000      -0.487875       -13.2758
 197   2.0000      -0.483384       -13.1536
 198   2.0000      -0.480163       -13.0659
 199   2.0000      -0.479117       -13.0374
 200   2.0000      -0.473389       -12.8816
 201   2.0000      -0.472051       -12.8452
 202   2.0000      -0.471798       -12.8383
 203   2.0000      -0.469783       -12.7834
 204   2.0000      -0.469497       -12.7757
 205   2.0000      -0.466702       -12.6996
 206   2.0000      -0.465729       -12.6731
 207   2.0000      -0.456260       -12.4155
 208   2.0000      -0.456239       -12.4149
 209   2.0000      -0.454887       -12.3781
 210   2.0000      -0.452764       -12.3203
 211   2.0000      -0.451876       -12.2962
 212   2.0000      -0.446943       -12.1619
 213   2.0000      -0.443792       -12.0762
 214   2.0000      -0.442105       -12.0303
 215   2.0000      -0.439460       -11.9583
 216   2.0000      -0.435278       -11.8445
 217   2.0000      -0.431462       -11.7407
 218   2.0000      -0.430240       -11.7074
 219   2.0000      -0.426572       -11.6076
 220   2.0000      -0.415227       -11.2989
 221   2.0000      -0.414529       -11.2799
 222   2.0000      -0.405704       -11.0398
 223   2.0000      -0.401169       -10.9164
 224   2.0000      -0.400482       -10.8977
 225   2.0000      -0.384571       -10.4647
 226   2.0000      -0.381234       -10.3739
 227   2.0000      -0.379065       -10.3149
 228   2.0000      -0.371046       -10.0967
 229   2.0000      -0.358203        -9.7472
 230   2.0000      -0.357649        -9.7321
 231   2.0000      -0.354280        -9.6404
 232   2.0000      -0.352700        -9.5975
 233   2.0000      -0.352261        -9.5855
 234   2.0000      -0.352184        -9.5834
 235   2.0000      -0.349174        -9.5015
 236   2.0000      -0.347684        -9.4610
 237   2.0000      -0.334844        -9.1116
 238   2.0000      -0.323266        -8.7965
 239   2.0000      -0.322170        -8.7667
 240   2.0000      -0.322025        -8.7627
 241   2.0000      -0.321984        -8.7616
 242   2.0000      -0.321792        -8.7564
 243   2.0000      -0.302727        -8.2376
 244   2.0000      -0.289108        -7.8670
 245   2.0000      -0.276741        -7.5305
 246   2.0000      -0.262619        -7.1462
 247   2.0000      -0.242213        -6.5909
 248   0.0000      -0.120082        -3.2676
 249   0.0000      -0.074540        -2.0283
 250   0.0000      -0.072915        -1.9841
 251   0.0000      -0.048057        -1.3077
 252   0.0000      -0.048042        -1.3073

MULLIKEN ATOMIC CHARGES
-----------------------
   0 C :   -0.173115
   1 C :    0.187200
   2 O :   -0.136965
   3 C :   -0.063353
   4 C :   -0.033816
   5 C :    0.137913
   6 O :   -0.128100
   7 C :    0.211457
   8 C :   -0.036158
   9 C :   -0.030531
  10 C :    0.208354
  11 F :   -0.161176
  12 F :   -0.159628
  13 C :    0.075696
  14 C :   -0.092547
  15 C :   -0.002294
  16 C :    0.097920
  17 C :   -0.034786
  18 S :    0.114501
  19 C :   -0.053419
  20 C :    0.134357
  21 C :   -0.018309
  22 C :   -0.049032
  23 S :    0.133823
  24 C :   -0.150592
  25 C :   -0.044585
  26 C :    0.203354
  27 C :   -0.073978
  28 C :   -0.073873
  29 N :   -0.000502
  30 C :    0.146250
  31 C :    0.146074
  32 N :    0.000604
  33 F :   -0.141375
  34 F :   -0.141349
  35 C :    0.202608
  36 C :   -0.019719
  37 C :   -0.021538
  38 N :   -0.317690
  39 S :    0.566901
  40 N :   -0.318621
  41 C :   -0.150736
  42 C :   -0.042577
  43 C :    0.131809
  44 C :   -0.014635
  45 S :    0.133673
  46 C :   -0.050038
  47 C :    0.096938
  48 C :   -0.031888
  49 C :   -0.054361
  50 S :    0.114272
  51 C :   -0.092342
  52 C :   -0.001118
  53 C :    0.076412
  54 C :   -0.173219
  55 C :    0.136173
  56 O :   -0.126975
  57 C :   -0.033070
  58 C :   -0.063365
  59 C :    0.188069
  60 O :   -0.138614
  61 C :    0.208600
  62 C :   -0.030753
  63 C :   -0.034738
  64 C :    0.210234
  65 F :   -0.159845
  66 F :   -0.161372
  67 H :    0.010251
  68 H :    0.009563
  69 H :    0.017039
  70 H :    0.007962
  71 H :   -0.028161
  72 H :   -0.023132
  73 H :   -0.005678
  74 H :   -0.005547
  75 H :   -0.023627
  76 H :   -0.028512
  77 H :    0.006077
  78 H :    0.017659
  79 H :    0.009504
  80 H :    0.010108
Sum of atomic charges:   -0.0000000

LOEWDIN ATOMIC CHARGES
----------------------
   0 C :   -0.130284
   1 C :    0.084038
   2 O :   -0.131098
   3 C :   -0.065064
   4 C :   -0.067727
   5 C :    0.078531
   6 O :   -0.132853
   7 C :    0.093905
   8 C :   -0.023037
   9 C :   -0.022998
  10 C :    0.093085
  11 F :   -0.044031
  12 F :   -0.042589
  13 C :    0.065572
  14 C :   -0.172600
  15 C :    0.002226
  16 C :   -0.049572
  17 C :   -0.148436
  18 S :    0.395739
  19 C :   -0.033422
  20 C :   -0.039085
  21 C :   -0.158112
  22 C :   -0.022040
  23 S :    0.425504
  24 C :   -0.148797
  25 C :   -0.032645
  26 C :   -0.037218
  27 C :   -0.004623
  28 C :   -0.004585
  29 N :   -0.028184
  30 C :    0.059210
  31 C :    0.059159
  32 N :   -0.028002
  33 F :   -0.029646
  34 F :   -0.029606
  35 C :   -0.037250
  36 C :   -0.046398
  37 C :   -0.046478
  38 N :   -0.294882
  39 S :    0.687223
  40 N :   -0.294896
  41 C :   -0.148650
  42 C :   -0.032580
  43 C :   -0.039245
  44 C :   -0.158127
  45 S :    0.425275
  46 C :   -0.021978
  47 C :   -0.049623
  48 C :   -0.148478
  49 C :   -0.033296
  50 S :    0.395909
  51 C :   -0.172362
  52 C :    0.002325
  53 C :    0.065384
  54 C :   -0.130276
  55 C :    0.078400
  56 O :   -0.132762
  57 C :   -0.067724
  58 C :   -0.065051
  59 C :    0.084057
  60 O :   -0.131256
  61 C :    0.093096
  62 C :   -0.022905
  63 C :   -0.022871
  64 C :    0.093880
  65 F :   -0.042588
  66 F :   -0.044096
  67 H :    0.045011
  68 H :    0.044864
  69 H :    0.043632
  70 H :    0.034810
  71 H :    0.032132
  72 H :    0.034389
  73 H :    0.029122
  74 H :    0.029094
  75 H :    0.034268
  76 H :    0.032052
  77 H :    0.034697
  78 H :    0.043706
  79 H :    0.044767
  80 H :    0.044964

  Mayer bond orders larger than 0.100000
B(  0-C ,  1-C ) :   0.9608 B(  0-C ,  5-C ) :   0.9768 B(  0-C , 13-C ) :   1.6769
B(  1-C ,  2-O ) :   2.1942 B(  1-C ,  3-C ) :   0.9159 B(  3-C ,  4-C ) :   1.3825
B(  3-C , 10-C ) :   1.3088 B(  4-C ,  5-C ) :   0.8840 B(  4-C ,  7-C ) :   1.3033
B(  5-C ,  6-O ) :   2.2834 B(  7-C ,  8-C ) :   1.3476 B(  7-C , 12-F ) :   1.2024
B(  8-C ,  9-C ) :   1.3433 B(  8-C , 67-H ) :   0.9911 B(  9-C , 10-C ) :   1.3490
B(  9-C , 68-H ) :   0.9907 B( 10-C , 11-F ) :   1.1974 B( 13-C , 14-C ) :   1.1340
B( 13-C , 69-H ) :   0.9340 B( 14-C , 15-C ) :   1.5214 B( 14-C , 18-S ) :   1.0536
B( 15-C , 16-C ) :   1.1597 B( 15-C , 70-H ) :   0.9782 B( 16-C , 17-C ) :   1.2594
B( 16-C , 22-C ) :   1.2968 B( 17-C , 18-S ) :   1.0576 B( 17-C , 19-C ) :   1.3804
B( 19-C , 20-C ) :   1.3109 B( 19-C , 22-C ) :   0.1008 B( 19-C , 71-H ) :   1.0032
B( 20-C , 21-C ) :   1.2555 B( 20-C , 25-C ) :   1.1338 B( 21-C , 22-C ) :   1.3993
B( 21-C , 23-S ) :   1.0071 B( 22-C , 72-H ) :   1.0026 B( 23-S , 24-C ) :   1.0817
B( 24-C , 25-C ) :   1.5236 B( 24-C , 26-C ) :   1.1592 B( 25-C , 73-H ) :   0.9920
B( 26-C , 27-C ) :   1.3008 B( 26-C , 35-C ) :   0.1282 B( 26-C , 37-C ) :   1.2027
B( 27-C , 28-C ) :   1.1061 B( 27-C , 32-N ) :   1.4288 B( 28-C , 29-N ) :   1.4289
B( 28-C , 35-C ) :   1.3016 B( 29-N , 30-C ) :   1.6707 B( 30-C , 31-C ) :   1.1034
B( 30-C , 34-F ) :   1.1736 B( 31-C , 32-N ) :   1.6718 B( 31-C , 33-F ) :   1.1728
B( 35-C , 36-C ) :   1.2011 B( 35-C , 41-C ) :   1.1608 B( 36-C , 37-C ) :   1.1201
B( 36-C , 40-N ) :   1.4669 B( 37-C , 38-N ) :   1.4685 B( 38-N , 39-S ) :   1.2845
B( 38-N , 40-N ) :   0.1562 B( 39-S , 40-N ) :   1.2846 B( 41-C , 42-C ) :   1.5225
B( 41-C , 45-S ) :   1.0821 B( 42-C , 43-C ) :   1.1324 B( 42-C , 74-H ) :   0.9926
B( 43-C , 44-C ) :   1.2558 B( 43-C , 49-C ) :   1.3113 B( 44-C , 45-S ) :   1.0066
B( 44-C , 46-C ) :   1.3986 B( 46-C , 47-C ) :   1.2967 B( 46-C , 49-C ) :   0.1007
B( 46-C , 75-H ) :   1.0032 B( 47-C , 48-C ) :   1.2596 B( 47-C , 52-C ) :   1.1582
B( 48-C , 49-C ) :   1.3795 B( 48-C , 50-S ) :   1.0573 B( 49-C , 76-H ) :   1.0037
B( 50-S , 51-C ) :   1.0545 B( 51-C , 52-C ) :   1.5212 B( 51-C , 53-C ) :   1.1345
B( 52-C , 77-H ) :   0.9799 B( 53-C , 54-C ) :   1.6788 B( 53-C , 78-H ) :   0.9327
B( 54-C , 55-C ) :   0.9777 B( 54-C , 59-C ) :   0.9597 B( 55-C , 56-O ) :   2.2846
B( 55-C , 57-C ) :   0.8849 B( 57-C , 58-C ) :   1.3832 B( 57-C , 64-C ) :   1.3036
B( 58-C , 59-C ) :   0.9151 B( 58-C , 61-C ) :   1.3094 B( 59-C , 60-O ) :   2.1930
B( 61-C , 62-C ) :   1.3474 B( 61-C , 66-F ) :   1.1976 B( 62-C , 63-C ) :   1.3435
B( 62-C , 79-H ) :   0.9916 B( 63-C , 64-C ) :   1.3476 B( 63-C , 80-H ) :   0.9910
B( 64-C , 65-F ) :   1.2016

-----------------------------------------------------------------------------
         ABSORPTION SPECTRUM VIA TRANSITION ELECTRIC DIPOLE MOMENTS
-----------------------------------------------------------------------------
State   Energy  Wavelength   fosc         T2         TX        TY        TZ
        (cm-1)    (nm)                  (au**2)     (au)      (au)      (au)
-----------------------------------------------------------------------------
   0   11766.9    849.8   1.049352898  29.35864   2.59683  -3.65975   3.03666
   1   16156.2    619.0   0.003747676   0.07637   0.05401   0.19255   0.19071
   2   18154.6    550.8   0.104514414   1.89524  -0.64476   0.93338  -0.77996
   3   22358.5    447.3   0.045067776   0.66359   0.33668   0.59481   0.44321
   4   22468.1    445.1   1.427026530  20.90941   2.13868  -3.08969   2.60562
   5   22954.8    435.6   0.004769229   0.06840   0.14542   0.19613   0.09373
   6   26318.6    380.0   0.139800156   1.74872   0.60691  -0.89679   0.75905
   7   27009.2    370.2   0.562548609   6.85684   1.21741  -1.76897   1.49850
   8   27195.1    367.7   0.000837119   0.01013   0.02820   0.08782   0.04033
   9   27204.2    367.6   0.001947835   0.02357   0.01481  -0.15254  -0.00918
  10   27282.5    366.5   0.156982858   1.89428  -0.50835  -1.01461  -0.77873
  11   28224.9    354.3   0.036893750   0.43032  -0.28198   0.44581  -0.38996
  12   29070.8    344.0   0.005358140   0.06068  -0.08331  -0.17372  -0.15349
  13   29144.1    343.1   0.002566363   0.02899   0.05362   0.13024   0.09567
  14   29848.3    335.0   0.017327746   0.19112  -0.04280  -0.38893  -0.19497
  15   29954.5    333.8   0.042463505   0.46669   0.30140   0.41099   0.45490
  16   30415.4    328.8   0.000078516   0.00085  -0.00855  -0.00021   0.02787
  17   30441.9    328.5   0.000081504   0.00088   0.01210   0.00981  -0.02528
  18   30944.7    323.2   0.057294988   0.60954  -0.05997  -0.70438  -0.33136
  19   31018.0    322.4   0.168923668   1.79288   0.71901  -0.39446   1.05844
  20   31049.2    322.1   0.196319878   2.08156  -0.39176  -1.26689  -0.56840
  21   31742.0    315.0   0.001131613   0.01174  -0.05130  -0.08448  -0.04436
  22   32123.6    311.3   0.154949942   1.58797   0.54809  -0.85022   0.75147
  23   34478.1    290.0   0.248841953   2.37605   0.78119  -1.02709   0.84314
  24   34495.0    289.9   0.016877458   0.16107   0.07882   0.35261   0.17472
  25   34625.3    288.8   0.010199736   0.09698   0.16878  -0.19015   0.17982
  26   34697.2    288.2   0.013808561   0.13102  -0.13730  -0.26967  -0.19862
  27   35104.7    284.9   0.003734020   0.03502  -0.05033  -0.14513  -0.10687
  28   35600.9    280.9   0.205133072   1.89692   0.63620  -0.93066   0.79123
  29   35879.4    278.7   0.000315131   0.00289   0.01544   0.03768  -0.03512
  30   35884.9    278.7   0.000377713   0.00347   0.02649   0.01421  -0.05061
  31   36006.4    277.7   0.319581472   2.92198  -0.62351  -1.25302  -0.98140
  32   36087.3    277.1   0.002823023   0.02575   0.00721   0.03747   0.15588
  33   36096.2    277.0   0.001758918   0.01604  -0.07616  -0.08897   0.04823
  34   36464.2    274.2   0.004953684   0.04472  -0.08413  -0.15555  -0.11597
  35   36590.9    273.3   0.000852570   0.00767   0.06303  -0.02403   0.05586
  36   36609.6    273.2   0.001289974   0.01160   0.06882  -0.02953  -0.07741
  37   36643.8    272.9   0.000392283   0.00352   0.01279   0.05715   0.00974
  38   36977.8    270.4   0.000125171   0.00111   0.02427  -0.01869   0.01326
  39   37613.6    265.9   0.049292671   0.43143   0.28446  -0.45023   0.38446
  40   37825.1    264.4   0.009380007   0.08164  -0.18101   0.18159  -0.12609
  41   37956.8    263.5   0.002318825   0.02011   0.04703  -0.12383   0.05065
  42   37992.4    263.2   0.036010648   0.31204  -0.23608   0.35173  -0.36413
  43   38224.8    261.6   0.088028876   0.75815   0.26991   0.67039   0.48567
  44   38639.7    258.8   0.020573344   0.17529  -0.24991   0.13284  -0.30852
  45   38686.6    258.5   0.000085875   0.00073  -0.00292   0.00066   0.02687
  46   38692.0    258.5   0.004671561   0.03975  -0.10267   0.04319  -0.16535
  47   38864.8    257.3   0.026550579   0.22490   0.14749  -0.42034   0.16267
  48   39108.9    255.7   0.160360856   1.34989  -0.41736  -0.80136  -0.73043
  49   39266.3    254.7   0.002865140   0.02402  -0.02621   0.15255  -0.00801
  50   39345.2    254.2   0.001266948   0.01060   0.02553  -0.09820   0.01752
  51   39697.7    251.9   0.003165329   0.02625   0.07595  -0.09387   0.10803
  52   40095.8    249.4   0.253252462   2.07936   0.50664   1.03897   0.86211

FINAL SINGLE POINT ENERGY     -4943.332280704354

DIPOLE MOMENT
-------------
                                X             Y             Z
Electronic contribution:      2.03580       3.62474       2.61805
Nuclear contribution   :     -2.50283      -4.68745      -3.49732
                        -----------------------------------------
Total Dipole Moment    :     -0.46703      -1.06271      -0.87927
                        -----------------------------------------
Magnitude (a.u.)       :      1.45622
Magnitude (Debye)      :      3.70143

Rotational constants in cm-1:     0.003117     0.000182     0.000172
Rotational constants in MHz :    93.440799     5.464670     5.164777

                             ****ORCA TERMINATED NORMALLY****
TOTAL RUN TIME: 0 days 0 hours 6 minutes 51 seconds 472 msec
