                         Program Version 4.2.0 -  RELEASE  -
|  1> # ORCA input file
|  2> # SCF done       -168.274176193626          0.000379462416
|  3> ! CAM-B3LYP def2-SVP def2/J RIJCOSX Grid4 TightSCF
|  4> %maxcore 5000
|  5> %tddft
|  6>     Mode sTDDFT
|  7>     Ethresh 5.0
|  8>     maxcore 5000
|  9> end
| 10>
| 11> %pal
| 12>   nprocs 6
| 13>   end
| 14> * xyz 0 1
| 15>    C        1.35176         2.35819        -2.63470
| 16>    C        1.93139         3.55845        -2.94715
| 17>    C        2.57118         3.81955        -4.17580
| 18>    N        3.09051         4.07732        -5.16601
| 19>    C        2.03200         4.62374        -2.02800
| 20>    N        2.16818         5.48598        -1.28275
| 21>    C        1.47004         1.12893        -3.40841
| 22>    C        1.24465         0.02306        -2.53560
| 23>    C        1.33720        -1.26602        -2.97616
| 24>    C        1.64959        -1.51010        -4.33240
| 25>    C        1.85598        -0.40832        -5.21302
| 26>    C        1.76453         0.91644        -4.72790
| 27>    C        2.15626        -0.66740        -6.56573
| 28>    C        2.25251        -1.95169        -7.02791
| 29>    C        2.05227        -3.03558        -6.15991
| 30>    C        1.75786        -2.81955        -4.84105
| 31>    C        0.90612         0.52064        -1.19109
| 32>    O        0.70875        -0.11326        -0.18127
| 33>    C        0.78259         2.00176        -1.34927
| 34>    C        0.11197         2.72133        -0.41686
| 35>    C       -0.47776         4.00927        -0.52966
| 36>    C       -0.82619         4.82561         0.52667
| 37>    C       -1.43509         6.00417         0.09689
| 38>    C       -1.59811         6.08392        -1.29302
| 39>    S       -0.96902         4.68529        -2.07766
| 40>    C       -2.22154         7.25400        -1.72767
| 41>    C       -2.53372         8.07380        -0.66530
| 42>    S       -2.06295         7.40422         0.88163
| 43>    C       -3.17134         9.35860        -0.67269
| 44>    C       -3.55950        10.03695        -1.78483
| 45>    C       -4.18563        11.31732        -1.66783
| 46>    C       -4.59736        12.03792        -2.77564
| 47>    C       -5.21095        13.29432        -2.65018
| 48>    N       -5.71391        14.32053        -2.53249
| 49>    C       -4.42603        11.54587        -4.07923
| 50>    N       -4.28383        11.12937        -5.14047
| 51>    C       -4.36315        11.80651        -0.33566
| 52>    C       -3.95048        11.06719         0.72770
| 53>    O       -3.35856         9.85491         0.57694
| 54>    C       -4.08596        11.44722         2.10455
| 55>    C       -4.63043        12.59590         2.63588
| 56>    C       -4.58292        12.57876         4.03087
| 57>    C       -4.00229        11.41661         4.56814
| 58>    S       -3.50526        10.33103         3.32137
| 59>    C       -3.95424        11.38864         5.95790
| 60>    C       -4.50323        12.53091         6.51294
| 61>    S       -5.07503        13.65711         5.27500
| 62>    C       -4.67246        12.96167         7.84849
| 63>    C       -4.42768        12.34506         9.04176
| 64>    C       -4.67530        12.97653        10.33345
| 65>    C       -4.92379        14.30267        10.57146
| 66>    C       -5.14205        14.84427        11.85707
| 67>    N       -5.33321        15.35174        12.86869
| 68>    C       -4.96267        15.33384         9.60811
| 69>    N       -4.99540        16.23857         8.90116
| 70>    C       -4.54287        11.95474        11.36410
| 71>    C       -4.12038        10.74465        10.74654
| 72>    C       -3.99380        10.94603         9.29489
| 73>    O       -3.61654        10.11351         8.49605
| 74>    C       -3.89197         9.60602        11.46482
| 75>    C       -4.08785         9.62402        12.86331
| 76>    C       -4.52302        10.82810        13.48907
| 77>    C       -4.74623        11.99214        12.71877
| 78>    C       -4.72205        10.83407        14.88480
| 79>    C       -4.49987         9.70703        15.62825
| 80>    C       -4.06933         8.52278        15.01129
| 81>    C       -3.86781         8.48200        13.65828
| 82>    H        1.17336        -2.09076        -2.29861
| 83>    H        1.91698         1.73453        -5.41479
| 84>    H        2.31321         0.17019        -7.22925
| 85>    H        2.48426        -2.13966        -8.06546
| 86>    H        2.13203        -4.04240        -6.54150
| 87>    H        1.60254        -3.65014        -4.16820
| 88>    H       -0.06599         2.21062         0.52517
| 89>    H       -0.61335         4.58393         1.55154
| 90>    H       -2.42800         7.48636        -2.75517
| 91>    H       -3.39574         9.61798        -2.76314
| 92>    H       -4.82943        12.76529        -0.18463
| 93>    H       -5.03843        13.40002         2.05332
| 94>    H       -3.55026        10.58660         6.54750
| 95>    H       -5.09205        13.95943         7.90824
| 96>    H       -3.56707         8.70265        10.97019
| 97>    H       -5.07857        12.88482        13.22376
| 98>    H       -5.05195        11.74854        15.35544
| 99>    H       -4.65438         9.72189        16.69668
|100>    H       -3.89841         7.64306        15.61350
|101>    H       -3.53665         7.57308        13.17763
|102> *
|103>
|104>                          ****END OF INPUT****

CARTESIAN COORDINATES (ANGSTROEM)
---------------------------------
  C      1.351760    2.358190   -2.634700
  C      1.931390    3.558450   -2.947150
  C      2.571180    3.819550   -4.175800
  N      3.090510    4.077320   -5.166010
  C      2.032000    4.623740   -2.028000
  N      2.168180    5.485980   -1.282750
  C      1.470040    1.128930   -3.408410
  C      1.244650    0.023060   -2.535600
  C      1.337200   -1.266020   -2.976160
  C      1.649590   -1.510100   -4.332400
  C      1.855980   -0.408320   -5.213020
  C      1.764530    0.916440   -4.727900
  C      2.156260   -0.667400   -6.565730
  C      2.252510   -1.951690   -7.027910
  C      2.052270   -3.035580   -6.159910
  C      1.757860   -2.819550   -4.841050
  C      0.906120    0.520640   -1.191090
  O      0.708750   -0.113260   -0.181270
  C      0.782590    2.001760   -1.349270
  C      0.111970    2.721330   -0.416860
  C     -0.477760    4.009270   -0.529660
  C     -0.826190    4.825610    0.526670
  C     -1.435090    6.004170    0.096890
  C     -1.598110    6.083920   -1.293020
  S     -0.969020    4.685290   -2.077660
  C     -2.221540    7.254000   -1.727670
  C     -2.533720    8.073800   -0.665300
  S     -2.062950    7.404220    0.881630
  C     -3.171340    9.358600   -0.672690
  C     -3.559500   10.036950   -1.784830
  C     -4.185630   11.317320   -1.667830
  C     -4.597360   12.037920   -2.775640
  C     -5.210950   13.294320   -2.650180
  N     -5.713910   14.320530   -2.532490
  C     -4.426030   11.545870   -4.079230
  N     -4.283830   11.129370   -5.140470
  C     -4.363150   11.806510   -0.335660
  C     -3.950480   11.067190    0.727700
  O     -3.358560    9.854910    0.576940
  C     -4.085960   11.447220    2.104550
  C     -4.630430   12.595900    2.635880
  C     -4.582920   12.578760    4.030870
  C     -4.002290   11.416610    4.568140
  S     -3.505260   10.331030    3.321370
  C     -3.954240   11.388640    5.957900
  C     -4.503230   12.530910    6.512940
  S     -5.075030   13.657110    5.275000
  C     -4.672460   12.961670    7.848490
  C     -4.427680   12.345060    9.041760
  C     -4.675300   12.976530   10.333450
  C     -4.923790   14.302670   10.571460
  C     -5.142050   14.844270   11.857070
  N     -5.333210   15.351740   12.868690
  C     -4.962670   15.333840    9.608110
  N     -4.995400   16.238570    8.901160
  C     -4.542870   11.954740   11.364100
  C     -4.120380   10.744650   10.746540
  C     -3.993800   10.946030    9.294890
  O     -3.616540   10.113510    8.496050
  C     -3.891970    9.606020   11.464820
  C     -4.087850    9.624020   12.863310
  C     -4.523020   10.828100   13.489070
  C     -4.746230   11.992140   12.718770
  C     -4.722050   10.834070   14.884800
  C     -4.499870    9.707030   15.628250
  C     -4.069330    8.522780   15.011290
  C     -3.867810    8.482000   13.658280
  H      1.173360   -2.090760   -2.298610
  H      1.916980    1.734530   -5.414790
  H      2.313210    0.170190   -7.229250
  H      2.484260   -2.139660   -8.065460
  H      2.132030   -4.042400   -6.541500
  H      1.602540   -3.650140   -4.168200
  H     -0.065990    2.210620    0.525170
  H     -0.613350    4.583930    1.551540
  H     -2.428000    7.486360   -2.755170
  H     -3.395740    9.617980   -2.763140
  H     -4.829430   12.765290   -0.184630
  H     -5.038430   13.400020    2.053320
  H     -3.550260   10.586600    6.547500
  H     -5.092050   13.959430    7.908240
  H     -3.567070    8.702650   10.970190
  H     -5.078570   12.884820   13.223760
  H     -5.051950   11.748540   15.355440
  H     -4.654380    9.721890   16.696680
  H     -3.898410    7.643060   15.613500
  H     -3.536650    7.573080   13.177630

 Total Charge           Charge          ....    0
 Multiplicity           Mult            ....    1
 Number of Electrons    NEL             ....  474
 Basis Dimension        Dim             .... 1054

ORBITAL ENERGIES
----------------

  NO   OCC          E(Eh)            E(eV)
   0   2.0000     -88.987051     -2421.4608
   1   2.0000     -88.986318     -2421.4408
   2   2.0000     -88.981347     -2421.3056
   3   2.0000     -88.979896     -2421.2661
   4   2.0000     -19.336097      -526.1620
   5   2.0000     -19.226821      -523.1884
   6   2.0000     -19.221187      -523.0351
   7   2.0000     -14.421327      -392.4243
   8   2.0000     -14.421225      -392.4215
   9   2.0000     -14.418699      -392.3527
  10   2.0000     -14.418347      -392.3432
  11   2.0000     -14.400721      -391.8635
  12   2.0000     -14.400643      -391.8614
  13   2.0000     -10.398726      -282.9637
  14   2.0000     -10.398325      -282.9528
  15   2.0000     -10.377659      -282.3905
  16   2.0000     -10.372837      -282.2592
  17   2.0000     -10.350373      -281.6480
  18   2.0000     -10.347489      -281.5695
  19   2.0000     -10.347304      -281.5645
  20   2.0000     -10.346304      -281.5372
  21   2.0000     -10.343254      -281.4543
  22   2.0000     -10.342855      -281.4434
  23   2.0000     -10.340790      -281.3872
  24   2.0000     -10.333958      -281.2013
  25   2.0000     -10.332336      -281.1572
  26   2.0000     -10.331648      -281.1384
  27   2.0000     -10.330498      -281.1071
  28   2.0000     -10.329446      -281.0785
  29   2.0000     -10.328694      -281.0581
  30   2.0000     -10.326683      -281.0033
  31   2.0000     -10.325325      -280.9664
  32   2.0000     -10.323876      -280.9269
  33   2.0000     -10.323122      -280.9064
  34   2.0000     -10.322602      -280.8923
  35   2.0000     -10.321227      -280.8549
  36   2.0000     -10.320662      -280.8395
  37   2.0000     -10.318372      -280.7772
  38   2.0000     -10.317981      -280.7665
  39   2.0000     -10.315033      -280.6863
  40   2.0000     -10.314550      -280.6732
  41   2.0000     -10.313439      -280.6429
  42   2.0000     -10.310006      -280.5495
  43   2.0000     -10.309173      -280.5269
  44   2.0000     -10.307608      -280.4843
  45   2.0000     -10.307476      -280.4807
  46   2.0000     -10.305405      -280.4243
  47   2.0000     -10.304368      -280.3961
  48   2.0000     -10.304288      -280.3939
  49   2.0000     -10.302847      -280.3547
  50   2.0000     -10.302692      -280.3505
  51   2.0000     -10.302486      -280.3449
  52   2.0000     -10.302296      -280.3397
  53   2.0000     -10.302183      -280.3366
  54   2.0000     -10.302046      -280.3329
  55   2.0000     -10.301924      -280.3296
  56   2.0000     -10.301342      -280.3138
  57   2.0000     -10.295301      -280.1494
  58   2.0000     -10.293779      -280.1080
  59   2.0000     -10.291091      -280.0348
  60   2.0000     -10.290757      -280.0257
  61   2.0000     -10.290588      -280.0211
  62   2.0000     -10.290330      -280.0141
  63   2.0000     -10.290161      -280.0095
  64   2.0000     -10.290072      -280.0071
  65   2.0000     -10.289650      -279.9956
  66   2.0000     -10.289552      -279.9929
  67   2.0000      -8.082030      -219.9232
  68   2.0000      -8.081457      -219.9076
  69   2.0000      -8.076237      -219.7656
  70   2.0000      -8.075449      -219.7441
  71   2.0000      -6.051520      -164.6702
  72   2.0000      -6.050949      -164.6547
  73   2.0000      -6.047444      -164.5593
  74   2.0000      -6.046885      -164.5441
  75   2.0000      -6.045833      -164.5155
  76   2.0000      -6.044864      -164.4891
  77   2.0000      -6.043671      -164.4566
  78   2.0000      -6.043024      -164.4390
  79   2.0000      -6.041759      -164.4046
  80   2.0000      -6.040909      -164.3815
  81   2.0000      -6.037682      -164.2937
  82   2.0000      -6.037016      -164.2756
  83   2.0000      -1.248398       -33.9706
  84   2.0000      -1.141485       -31.0614
  85   2.0000      -1.136658       -30.9300
  86   2.0000      -1.037732       -28.2381
  87   2.0000      -1.034645       -28.1541
  88   2.0000      -1.023618       -27.8541
  89   2.0000      -1.023440       -27.8492
  90   2.0000      -1.003969       -27.3194
  91   2.0000      -1.003419       -27.3044
  92   2.0000      -1.002098       -27.2685
  93   2.0000      -0.998815       -27.1791
  94   2.0000      -0.998089       -27.1594
  95   2.0000      -0.988861       -26.9083
  96   2.0000      -0.979977       -26.6665
  97   2.0000      -0.979866       -26.6635
  98   2.0000      -0.975923       -26.5562
  99   2.0000      -0.971786       -26.4436
 100   2.0000      -0.964504       -26.2455
 101   2.0000      -0.938574       -25.5399
 102   2.0000      -0.929497       -25.2929
 103   2.0000      -0.926922       -25.2228
 104   2.0000      -0.909166       -24.7397
 105   2.0000      -0.905292       -24.6342
 106   2.0000      -0.892502       -24.2862
 107   2.0000      -0.888624       -24.1807
 108   2.0000      -0.887025       -24.1372
 109   2.0000      -0.885771       -24.1030
 110   2.0000      -0.883888       -24.0518
 111   2.0000      -0.875172       -23.8146
 112   2.0000      -0.874871       -23.8065
 113   2.0000      -0.839679       -22.8488
 114   2.0000      -0.833891       -22.6913
 115   2.0000      -0.833269       -22.6744
 116   2.0000      -0.833031       -22.6679
 117   2.0000      -0.827754       -22.5243
 118   2.0000      -0.821978       -22.3672
 119   2.0000      -0.805106       -21.9080
 120   2.0000      -0.803130       -21.8543
 121   2.0000      -0.776441       -21.1280
 122   2.0000      -0.768018       -20.8988
 123   2.0000      -0.766146       -20.8479
 124   2.0000      -0.758787       -20.6476
 125   2.0000      -0.731120       -19.8948
 126   2.0000      -0.727526       -19.7970
 127   2.0000      -0.712793       -19.3961
 128   2.0000      -0.709660       -19.3108
 129   2.0000      -0.706172       -19.2159
 130   2.0000      -0.703297       -19.1377
 131   2.0000      -0.696399       -18.9500
 132   2.0000      -0.690405       -18.7869
 133   2.0000      -0.683412       -18.5966
 134   2.0000      -0.682575       -18.5738
 135   2.0000      -0.677103       -18.4249
 136   2.0000      -0.670498       -18.2452
 137   2.0000      -0.666555       -18.1379
 138   2.0000      -0.656019       -17.8512
 139   2.0000      -0.649144       -17.6641
 140   2.0000      -0.641044       -17.4437
 141   2.0000      -0.637268       -17.3410
 142   2.0000      -0.635664       -17.2973
 143   2.0000      -0.617121       -16.7927
 144   2.0000      -0.614069       -16.7097
 145   2.0000      -0.612296       -16.6614
 146   2.0000      -0.610628       -16.6160
 147   2.0000      -0.606472       -16.5030
 148   2.0000      -0.602586       -16.3972
 149   2.0000      -0.602096       -16.3839
 150   2.0000      -0.599219       -16.3056
 151   2.0000      -0.596043       -16.2191
 152   2.0000      -0.593697       -16.1553
 153   2.0000      -0.589145       -16.0315
 154   2.0000      -0.570535       -15.5251
 155   2.0000      -0.567531       -15.4433
 156   2.0000      -0.559328       -15.2201
 157   2.0000      -0.558824       -15.2064
 158   2.0000      -0.551754       -15.0140
 159   2.0000      -0.551690       -15.0122
 160   2.0000      -0.547306       -14.8930
 161   2.0000      -0.545155       -14.8344
 162   2.0000      -0.542441       -14.7606
 163   2.0000      -0.540108       -14.6971
 164   2.0000      -0.533071       -14.5056
 165   2.0000      -0.529017       -14.3953
 166   2.0000      -0.527633       -14.3576
 167   2.0000      -0.526760       -14.3339
 168   2.0000      -0.525479       -14.2990
 169   2.0000      -0.522618       -14.2212
 170   2.0000      -0.521578       -14.1929
 171   2.0000      -0.520063       -14.1516
 172   2.0000      -0.515796       -14.0355
 173   2.0000      -0.515493       -14.0273
 174   2.0000      -0.507825       -13.8186
 175   2.0000      -0.505411       -13.7529
 176   2.0000      -0.504729       -13.7344
 177   2.0000      -0.502556       -13.6753
 178   2.0000      -0.501018       -13.6334
 179   2.0000      -0.499048       -13.5798
 180   2.0000      -0.497772       -13.5451
 181   2.0000      -0.493944       -13.4409
 182   2.0000      -0.492496       -13.4015
 183   2.0000      -0.490678       -13.3520
 184   2.0000      -0.487265       -13.2591
 185   2.0000      -0.483312       -13.1516
 186   2.0000      -0.478403       -13.0180
 187   2.0000      -0.473280       -12.8786
 188   2.0000      -0.470308       -12.7977
 189   2.0000      -0.469825       -12.7846
 190   2.0000      -0.460843       -12.5402
 191   2.0000      -0.457483       -12.4488
 192   2.0000      -0.455571       -12.3967
 193   2.0000      -0.453023       -12.3274
 194   2.0000      -0.452497       -12.3131
 195   2.0000      -0.448276       -12.1982
 196   2.0000      -0.447917       -12.1884
 197   2.0000      -0.444691       -12.1007
 198   2.0000      -0.444419       -12.0933
 199   2.0000      -0.438824       -11.9410
 200   2.0000      -0.438088       -11.9210
 201   2.0000      -0.437917       -11.9163
 202   2.0000      -0.435483       -11.8501
 203   2.0000      -0.435307       -11.8453
 204   2.0000      -0.434178       -11.8146
 205   2.0000      -0.431890       -11.7523
 206   2.0000      -0.431368       -11.7381
 207   2.0000      -0.431031       -11.7290
 208   2.0000      -0.429394       -11.6844
 209   2.0000      -0.425856       -11.5881
 210   2.0000      -0.423612       -11.5271
 211   2.0000      -0.422969       -11.5096
 212   2.0000      -0.420971       -11.4552
 213   2.0000      -0.418045       -11.3756
 214   2.0000      -0.414777       -11.2867
 215   2.0000      -0.412445       -11.2232
 216   2.0000      -0.409935       -11.1549
 217   2.0000      -0.404560       -11.0086
 218   2.0000      -0.402445       -10.9511
 219   2.0000      -0.394359       -10.7311
 220   2.0000      -0.387623       -10.5478
 221   2.0000      -0.386546       -10.5184
 222   2.0000      -0.381879       -10.3915
 223   2.0000      -0.377514       -10.2727
 224   2.0000      -0.362456        -9.8629
 225   2.0000      -0.349414        -9.5080
 226   2.0000      -0.346173        -9.4199
 227   2.0000      -0.339833        -9.2473
 228   2.0000      -0.323110        -8.7923
 229   2.0000      -0.321942        -8.7605
 230   2.0000      -0.318311        -8.6617
 231   2.0000      -0.317178        -8.6309
 232   2.0000      -0.308594        -8.3973
 233   2.0000      -0.300013        -8.1638
 234   2.0000      -0.297508        -8.0956
 235   2.0000      -0.280857        -7.6425
 236   2.0000      -0.273802        -7.4505
 237   0.0000      -0.110379        -3.0036
 238   0.0000      -0.104661        -2.8480
 239   0.0000      -0.072877        -1.9831
 240   0.0000      -0.065774        -1.7898
 241   0.0000      -0.058253        -1.5851

MULLIKEN ATOMIC CHARGES
-----------------------
   0 C :    0.239406
   1 C :   -0.318136
   2 C :   -0.174753
   3 N :    0.160932
   4 C :   -0.202218
   5 N :    0.175583
   6 C :    0.039785
   7 C :    0.007271
   8 C :   -0.076503
   9 C :    0.092764
  10 C :    0.094307
  11 C :   -0.076965
  12 C :   -0.017552
  13 C :    0.037532
  14 C :    0.034824
  15 C :   -0.014107
  16 C :    0.141919
  17 O :   -0.138919
  18 C :   -0.128744
  19 C :    0.053289
  20 C :   -0.099490
  21 C :    0.014263
  22 C :    0.000105
  23 C :   -0.016809
  24 S :    0.170270
  25 C :   -0.012416
  26 C :   -0.115452
  27 S :    0.193065
  28 C :    0.288374
  29 C :   -0.176556
  30 C :    0.301833
  31 C :   -0.354832
  32 C :   -0.170029
  33 N :    0.128909
  34 C :   -0.169153
  35 N :    0.127125
  36 C :   -0.167358
  37 C :    0.280507
  38 O :   -0.247592
  39 C :   -0.109064
  40 C :   -0.017415
  41 C :   -0.009290
  42 C :   -0.024768
  43 S :    0.194160
  44 C :   -0.001412
  45 C :   -0.119489
  46 S :    0.168390
  47 C :    0.049700
  48 C :   -0.085752
  49 C :    0.316596
  50 C :   -0.350980
  51 C :   -0.184432
  52 N :    0.150090
  53 C :   -0.197165
  54 N :    0.161900
  55 C :    0.045411
  56 C :    0.001410
  57 C :    0.161499
  58 O :   -0.159188
  59 C :   -0.083265
  60 C :    0.099893
  61 C :    0.096590
  62 C :   -0.081001
  63 C :   -0.017569
  64 C :    0.034729
  65 C :    0.037636
  66 C :   -0.016146
  67 H :   -0.009991
  68 H :   -0.003952
  69 H :   -0.009087
  70 H :   -0.002574
  71 H :   -0.003819
  72 H :   -0.015778
  73 H :    0.029358
  74 H :    0.003003
  75 H :    0.007678
  76 H :    0.024737
  77 H :    0.025868
  78 H :    0.008476
  79 H :    0.021815
  80 H :    0.011156
  81 H :   -0.014234
  82 H :   -0.006708
  83 H :   -0.008289
  84 H :   -0.002055
  85 H :   -0.003659
  86 H :   -0.017489
Sum of atomic charges:   -0.0000000

LOEWDIN ATOMIC CHARGES
----------------------
   0 C :    0.059580
   1 C :   -0.135576
   2 C :   -0.019353
   3 N :   -0.045343
   4 C :   -0.034735
   5 N :   -0.046215
   6 C :   -0.022838
   7 C :   -0.058377
   8 C :    0.034487
   9 C :   -0.008870
  10 C :   -0.004527
  11 C :    0.016975
  12 C :   -0.005948
  13 C :   -0.010962
  14 C :   -0.011730
  15 C :   -0.008527
  16 C :    0.084605
  17 O :   -0.139924
  18 C :   -0.086215
  19 C :    0.047277
  20 C :   -0.162817
  21 C :   -0.023550
  22 C :   -0.193923
  23 C :   -0.183781
  24 S :    0.458333
  25 C :   -0.037152
  26 C :   -0.177308
  27 S :    0.458395
  28 C :    0.075813
  29 C :   -0.044775
  30 C :    0.054653
  31 C :   -0.176191
  32 C :   -0.030389
  33 N :   -0.068720
  34 C :   -0.029916
  35 N :   -0.068832
  36 C :   -0.042125
  37 C :    0.073971
  38 O :   -0.017987
  39 C :   -0.173078
  40 C :   -0.040914
  41 C :   -0.186498
  42 C :   -0.197896
  43 S :    0.456110
  44 C :   -0.018694
  45 C :   -0.165061
  46 S :    0.449752
  47 C :    0.046848
  48 C :   -0.087514
  49 C :    0.076405
  50 C :   -0.137904
  51 C :   -0.016673
  52 N :   -0.051117
  53 C :   -0.026072
  54 N :   -0.047131
  55 C :   -0.026669
  56 C :   -0.056161
  57 C :    0.089864
  58 O :   -0.143924
  59 C :    0.032832
  60 C :   -0.008110
  61 C :   -0.005544
  62 C :    0.020808
  63 C :   -0.004454
  64 C :   -0.012136
  65 C :   -0.011021
  66 C :   -0.009531
  67 H :    0.040050
  68 H :    0.039221
  69 H :    0.034885
  70 H :    0.034010
  71 H :    0.033389
  72 H :    0.032383
  73 H :    0.052995
  74 H :    0.041585
  75 H :    0.042503
  76 H :    0.048625
  77 H :    0.048816
  78 H :    0.042555
  79 H :    0.038536
  80 H :    0.043937
  81 H :    0.038467
  82 H :    0.039438
  83 H :    0.035258
  84 H :    0.034115
  85 H :    0.033388
  86 H :    0.031844

  Mayer bond orders larger than 0.100000
B(  0-C ,  1-C ) :   1.6739 B(  0-C ,  6-C ) :   1.0038 B(  0-C , 18-C ) :   1.0194
B(  1-C ,  2-C ) :   1.1366 B(  1-C ,  4-C ) :   1.1479 B(  2-C ,  3-N ) :   2.9934
B(  4-C ,  5-N ) :   3.0284 B(  6-C ,  7-C ) :   1.2129 B(  6-C , 11-C ) :   1.4576
B(  7-C ,  8-C ) :   1.4747 B(  7-C , 16-C ) :   0.9244 B(  8-C ,  9-C ) :   1.1877
B(  8-C , 67-H ) :   1.0153 B(  9-C , 10-C ) :   1.2551 B(  9-C , 15-C ) :   1.2444
B( 10-C , 11-C ) :   1.2060 B( 10-C , 12-C ) :   1.2401 B( 11-C , 68-H ) :   0.9948
B( 12-C , 13-C ) :   1.4908 B( 12-C , 69-H ) :   0.9975 B( 13-C , 14-C ) :   1.2594
B( 13-C , 70-H ) :   0.9887 B( 14-C , 15-C ) :   1.4898 B( 14-C , 71-H ) :   0.9894
B( 15-C , 72-H ) :   0.9978 B( 16-C , 17-O ) :   2.2757 B( 16-C , 18-C ) :   0.9280
B( 18-C , 19-C ) :   1.6879 B( 19-C , 20-C ) :   1.1141 B( 19-C , 73-H ) :   0.9455
B( 20-C , 21-C ) :   1.4774 B( 20-C , 24-S ) :   1.0995 B( 21-C , 22-C ) :   1.2577
B( 21-C , 74-H ) :   1.0066 B( 22-C , 23-C ) :   1.4005 B( 22-C , 27-S ) :   1.0712
B( 23-C , 24-S ) :   1.0858 B( 23-C , 25-C ) :   1.2746 B( 25-C , 26-C ) :   1.5419
B( 25-C , 75-H ) :   0.9928 B( 26-C , 27-S ) :   1.1044 B( 26-C , 28-C ) :   1.0608
B( 28-C , 29-C ) :   1.5883 B( 28-C , 38-O ) :   1.1149 B( 29-C , 30-C ) :   1.1168
B( 29-C , 76-H ) :   0.9664 B( 30-C , 31-C ) :   1.5399 B( 30-C , 36-C ) :   1.1174
B( 31-C , 32-C ) :   1.1306 B( 31-C , 34-C ) :   1.1316 B( 32-C , 33-N ) :   3.0034
B( 34-C , 35-N ) :   3.0027 B( 36-C , 37-C ) :   1.5948 B( 36-C , 77-H ) :   0.9633
B( 37-C , 38-O ) :   1.1176 B( 37-C , 39-C ) :   1.0562 B( 39-C , 40-C ) :   1.5493
B( 39-C , 43-S ) :   1.1039 B( 40-C , 41-C ) :   1.2615 B( 40-C , 78-H ) :   0.9931
B( 41-C , 42-C ) :   1.3853 B( 41-C , 46-S ) :   1.0981 B( 42-C , 43-S ) :   1.0681
B( 42-C , 44-C ) :   1.2589 B( 44-C , 45-C ) :   1.4700 B( 44-C , 79-H ) :   0.9778
B( 45-C , 46-S ) :   1.0846 B( 45-C , 47-C ) :   1.2078 B( 47-C , 48-C ) :   1.6181
B( 47-C , 80-H ) :   0.9099 B( 48-C , 49-C ) :   1.0682 B( 48-C , 57-C ) :   0.9327
B( 49-C , 50-C ) :   1.6294 B( 49-C , 55-C ) :   0.9867 B( 50-C , 51-C ) :   1.1501
B( 50-C , 53-C ) :   1.1367 B( 51-C , 52-N ) :   2.9647 B( 53-C , 54-N ) :   2.9794
B( 55-C , 56-C ) :   1.2157 B( 55-C , 62-C ) :   1.4492 B( 56-C , 57-C ) :   0.9583
B( 56-C , 59-C ) :   1.4661 B( 57-C , 58-O ) :   2.1620 B( 59-C , 60-C ) :   1.1805
B( 59-C , 81-H ) :   1.0163 B( 60-C , 61-C ) :   1.2548 B( 60-C , 66-C ) :   1.2439
B( 61-C , 62-C ) :   1.2075 B( 61-C , 63-C ) :   1.2406 B( 62-C , 82-H ) :   0.9892
B( 63-C , 64-C ) :   1.4887 B( 63-C , 83-H ) :   0.9971 B( 64-C , 65-C ) :   1.2603
B( 64-C , 84-H ) :   0.9888 B( 65-C , 66-C ) :   1.4892 B( 65-C , 85-H ) :   0.9886
B( 66-C , 86-H ) :   0.9974

-----------------------------------------------------------------------------
         ABSORPTION SPECTRUM VIA TRANSITION ELECTRIC DIPOLE MOMENTS
-----------------------------------------------------------------------------
State   Energy  Wavelength   fosc         T2         TX        TY        TZ
        (cm-1)    (nm)                  (au**2)     (au)      (au)      (au)
-----------------------------------------------------------------------------
   0   20899.0    478.5   1.760599604  27.73384   2.03362  -3.13904  -3.70738
   1   21779.4    459.2   1.085918075  16.41450   1.15545  -1.27656   3.66740
   2   24397.1    409.9   0.017163734   0.23161  -0.08160   0.41613   0.22756
   3   25416.4    393.4   0.056688997   0.73428  -0.13195  -0.82270   0.20009
   4   25910.0    386.0   0.122356929   1.55466  -0.06579   0.59015   1.09638
   5   26100.8    383.1   0.063270672   0.79804  -0.01143   0.30688  -0.83889
   6   27734.0    360.6   0.036441084   0.43257  -0.05997  -0.45271  -0.47331
   7   28181.0    354.8   0.016104333   0.18813  -0.24210   0.15343   0.32554
   8   28280.7    353.6   0.002336003   0.02719  -0.04690   0.15747  -0.01407
   9   28650.4    349.0   0.013325496   0.15312   0.16049  -0.07046   0.34986
  10   28906.9    345.9   0.053401420   0.60817  -0.30732   0.65910  -0.28163
  11   29275.4    341.6   0.117039929   1.31615  -0.21809   0.98686  -0.54286
  12   29736.3    336.3   0.024055369   0.26632   0.03884   0.48366   0.17572
  13   30456.9    328.3   0.053543133   0.57875   0.04780  -0.70766   0.27511
  14   30561.5    327.2   0.983492389  10.59431   0.77785  -2.66655   1.69669
  15   31543.6    317.0   0.136412155   1.42370  -0.38204   0.33272   1.08029
  16   32292.3    309.7   0.204921474   2.08912  -0.22077   1.14511   0.85388
  17   32948.5    303.5   0.061016587   0.60966  -0.18202  -0.40185  -0.64424
  18   33226.0    301.0   0.006789735   0.06727  -0.16436  -0.01572   0.20003
  19   33333.4    300.0   0.043271014   0.42736  -0.16000   0.56296  -0.29125
  20   33544.9    298.1   0.596111784   5.85029   0.17170  -1.59461   1.81054
  21   33801.7    295.8   0.671772579   6.54274  -0.05985  -2.39515  -0.89579
  22   34169.3    292.7   0.004830867   0.04654  -0.02752  -0.01320   0.21357
  23   34851.0    286.9   0.047775587   0.45130   0.09621  -0.35213  -0.56396
  24   34995.6    285.7   0.001203631   0.01132   0.03445  -0.08679   0.05103
  25   35154.8    284.5   0.003964515   0.03713   0.01540  -0.19189  -0.00828
  26   35243.3    283.7   0.023490525   0.21943  -0.00938   0.24159   0.40122
  27   35590.8    281.0   0.042739074   0.39533  -0.17244   0.39086  -0.46133
  28   37240.6    268.5   0.006066602   0.05363   0.14663  -0.02177  -0.17792
  29   37507.2    266.6   0.106274097   0.93280   0.22189  -0.31186   0.88674
  30   37919.5    263.7   0.159310705   1.38311   0.02602  -0.88377  -0.77549
  31   38209.6    261.7   0.105625121   0.91006   0.05849  -0.89608  -0.32200
  32   38345.4    260.8   0.023001529   0.19748   0.24807  -0.11017   0.35186
  33   38760.9    258.0   0.009436348   0.08015   0.22364  -0.16521   0.05327
  34   38922.5    256.9   0.004898669   0.04143   0.11198  -0.11163   0.12819
  35   39227.4    254.9   0.069410230   0.58252   0.15751  -0.62368  -0.41077
  36   39363.2    254.0   0.204117619   1.70713   0.17125  -1.23086   0.40347
  37   39802.0    251.2   0.049332062   0.40804   0.17063  -0.23375  -0.56946
  38   40019.9    249.9   0.189002103   1.55477   0.55035  -0.02063  -1.11869
  39   40164.8    249.0   0.061580242   0.50474   0.12196  -0.69978   0.01340

FINAL SINGLE POINT ENERGY     -4212.818235495155

DIPOLE MOMENT
-------------
                                X             Y             Z
Electronic contribution:     -6.15511      28.73127     -11.39512
Nuclear contribution   :      6.29287     -34.10032      13.53294
                        -----------------------------------------
Total Dipole Moment    :      0.13776      -5.36905       2.13782
                        -----------------------------------------
Magnitude (a.u.)       :      5.78065
Magnitude (Debye)      :     14.69324

Rotational constants in cm-1:     0.001366     0.000295     0.000247
Rotational constants in MHz :    40.963386     8.832322     7.397438

                             ****ORCA TERMINATED NORMALLY****
TOTAL RUN TIME: 0 days 0 hours 7 minutes 26 seconds 26 msec
