                         Program Version 4.2.0 -  RELEASE  -
|  1> # ORCA input file
|  2> # SCF done       -177.736333052910          0.000673618170
|  3> ! CAM-B3LYP def2-SVP def2/J RIJCOSX Grid4 TightSCF
|  4> %maxcore 5000
|  5> %tddft
|  6>     Mode sTDDFT
|  7>     Ethresh 5.0
|  8>     maxcore 5000
|  9> end
| 10>
| 11> %pal
| 12>   nprocs 6
| 13>   end
| 14> * xyz 0 1
| 15>    C       -0.67149         2.96705         5.05995
| 16>    S       -0.40815         3.91992         3.66618
| 17>    C       -1.29905         2.80345         2.68115
| 18>    C       -1.81728         1.76900         3.43521
| 19>    C       -1.43328         1.85894         4.80460
| 20>    C       -1.79818         0.85404         5.80750
| 21>    O       -1.48407         0.94239         6.98042
| 22>    C       -2.55669        -0.29587         5.26762
| 23>    C       -2.83441        -1.36876         6.11090
| 24>    C       -3.54317        -2.46298         5.65568
| 25>    C       -4.00259        -2.51333         4.34300
| 26>    C       -4.82070        -3.67212         3.85507
| 27>    C       -6.31240        -3.36401         4.00661
| 28>    C       -3.73770        -1.43849         3.50566
| 29>    C       -3.01833        -0.33339         3.94459
| 30>    C       -2.80374         0.78243         2.98939
| 31>    O       -3.45821         0.88075         1.96715
| 32>    C       -1.37010         2.99013         1.25874
| 33>    C       -1.30013         1.89406         0.37827
| 34>    C       -1.46641         2.08072        -1.03062
| 35>    N       -1.37794         1.01942        -1.86360
| 36>    C       -1.20477        -0.15820        -1.34336
| 37>    C       -1.00968        -0.33603         0.04648
| 38>    N       -1.02153         0.66697         0.87174
| 39>    C       -1.69162         3.36221        -1.56852
| 40>    C       -1.68908         4.46514        -0.69380
| 41>    C       -1.48681         4.28006         0.70920
| 42>    N       -1.42127         5.34827         1.53548
| 43>    C       -1.57209         6.53266         1.02034
| 44>    C       -1.87433         6.70836        -0.35040
| 45>    N       -1.93459         5.70466        -1.17466
| 46>    C       -1.92299         3.54423        -2.98897
| 47>    C       -2.80800         2.70439        -3.69128
| 48>    C       -3.04118         2.89081        -5.09273
| 49>    N       -3.87336         2.05310        -5.75974
| 50>    C       -4.44820         1.10051        -5.08885
| 51>    C       -4.27781         0.96555        -3.68947
| 52>    N       -3.48881         1.74902        -3.01872
| 53>    C       -2.44297         3.95663        -5.78128
| 54>    C       -1.55512         4.78918        -5.08312
| 55>    C       -1.27725         4.57536        -3.69552
| 56>    N       -0.36365         5.35283        -3.06938
| 57>    C        0.16775         6.33480        -3.73299
| 58>    C       -0.14012         6.57157        -5.09677
| 59>    N       -0.94203         5.79274        -5.75270
| 60>    C       -2.72835         4.22672        -7.18934
| 61>    C       -3.05215         5.50822        -7.61915
| 62>    C       -3.29574         5.74294        -8.97479
| 63>    C       -3.12362         4.66084        -9.84671
| 64>    N       -2.83009         3.44226        -9.43982
| 65>    C       -2.66445         3.21600        -8.15289
| 66>    C       -3.68467         7.07042        -9.40998
| 67>    N       -4.53987         7.33541       -10.45241
| 68>    C       -5.31506         6.40906       -11.24493
| 69>    C       -4.76214         6.27668       -12.66216
| 70>    C       -4.73575         8.72574       -10.63062
| 71>    O       -5.47649         9.19110       -11.47190
| 72>    C       -3.91249         9.32754        -9.61517
| 73>    C       -3.29447         8.28172        -8.86502
| 74>    C       -2.49957         8.91218        -7.83750
| 75>    O       -1.81938         8.47824        -6.92979
| 76>    N       -2.68478        10.30107        -8.04533
| 77>    C       -1.98978        11.23950        -7.20073
| 78>    C       -0.72539        11.77675        -7.86841
| 79>    C       -3.52459        10.55203        -9.10480
| 80>    C       -3.99684        11.80181        -9.63705
| 81>    C       -3.68916        13.05514        -9.30306
| 82>    H       -0.27109         3.25825         6.01138
| 83>    H       -2.48010        -1.31908         7.13002
| 84>    H       -3.74571        -3.28794         6.32369
| 85>    H       -4.57661        -4.56864         4.42816
| 86>    H       -4.59946        -3.86380         2.80338
| 87>    H       -6.55701        -3.18007         5.05036
| 88>    H       -6.91022        -4.20002         3.65160
| 89>    H       -6.57519        -2.47866         3.43236
| 90>    H       -4.08894        -1.43933         2.48347
| 91>    H       -1.15066        -0.99357        -2.02904
| 92>    H       -0.78225        -1.30811         0.46395
| 93>    H       -1.48528         7.37384         1.69471
| 94>    H       -2.08355         7.68826        -0.75842
| 95>    H       -5.08979         0.43092        -5.64634
| 96>    H       -4.81807         0.21675        -3.12573
| 97>    H        0.89799         6.93804        -3.20960
| 98>    H        0.31015         7.38085        -5.65255
| 99>    H       -3.13431         6.31588        -6.91017
|100>    H       -3.18953         4.77863       -10.91807
|101>    H       -2.44245         2.19679        -7.87268
|102>    H       -6.32965         6.81751       -11.30676
|103>    H       -5.35183         5.44374       -10.73677
|104>    H       -4.81661         7.23981       -13.16280
|105>    H       -5.35343         5.55700       -13.22144
|106>    H       -3.72464         5.94962       -12.65529
|107>    H       -1.71204        10.68029        -6.30127
|108>    H       -2.66741        12.04681        -6.91344
|109>    H       -0.03538        10.95832        -8.05847
|110>    H       -0.23917        12.49776        -7.21651
|111>    H       -0.95655        12.25693        -8.81644
|112>    H       -4.71033        11.63848       -10.43556
|113>    H       -2.98232        13.32491        -8.54093
|114>    H       -4.15468        13.87759        -9.81909
|115> *
|116>
|117>                          ****END OF INPUT****

CARTESIAN COORDINATES (ANGSTROEM)
---------------------------------
  C     -0.671490    2.967050    5.059950
  S     -0.408150    3.919920    3.666180
  C     -1.299050    2.803450    2.681150
  C     -1.817280    1.769000    3.435210
  C     -1.433280    1.858940    4.804600
  C     -1.798180    0.854040    5.807500
  O     -1.484070    0.942390    6.980420
  C     -2.556690   -0.295870    5.267620
  C     -2.834410   -1.368760    6.110900
  C     -3.543170   -2.462980    5.655680
  C     -4.002590   -2.513330    4.343000
  C     -4.820700   -3.672120    3.855070
  C     -6.312400   -3.364010    4.006610
  C     -3.737700   -1.438490    3.505660
  C     -3.018330   -0.333390    3.944590
  C     -2.803740    0.782430    2.989390
  O     -3.458210    0.880750    1.967150
  C     -1.370100    2.990130    1.258740
  C     -1.300130    1.894060    0.378270
  C     -1.466410    2.080720   -1.030620
  N     -1.377940    1.019420   -1.863600
  C     -1.204770   -0.158200   -1.343360
  C     -1.009680   -0.336030    0.046480
  N     -1.021530    0.666970    0.871740
  C     -1.691620    3.362210   -1.568520
  C     -1.689080    4.465140   -0.693800
  C     -1.486810    4.280060    0.709200
  N     -1.421270    5.348270    1.535480
  C     -1.572090    6.532660    1.020340
  C     -1.874330    6.708360   -0.350400
  N     -1.934590    5.704660   -1.174660
  C     -1.922990    3.544230   -2.988970
  C     -2.808000    2.704390   -3.691280
  C     -3.041180    2.890810   -5.092730
  N     -3.873360    2.053100   -5.759740
  C     -4.448200    1.100510   -5.088850
  C     -4.277810    0.965550   -3.689470
  N     -3.488810    1.749020   -3.018720
  C     -2.442970    3.956630   -5.781280
  C     -1.555120    4.789180   -5.083120
  C     -1.277250    4.575360   -3.695520
  N     -0.363650    5.352830   -3.069380
  C      0.167750    6.334800   -3.732990
  C     -0.140120    6.571570   -5.096770
  N     -0.942030    5.792740   -5.752700
  C     -2.728350    4.226720   -7.189340
  C     -3.052150    5.508220   -7.619150
  C     -3.295740    5.742940   -8.974790
  C     -3.123620    4.660840   -9.846710
  N     -2.830090    3.442260   -9.439820
  C     -2.664450    3.216000   -8.152890
  C     -3.684670    7.070420   -9.409980
  N     -4.539870    7.335410  -10.452410
  C     -5.315060    6.409060  -11.244930
  C     -4.762140    6.276680  -12.662160
  C     -4.735750    8.725740  -10.630620
  O     -5.476490    9.191100  -11.471900
  C     -3.912490    9.327540   -9.615170
  C     -3.294470    8.281720   -8.865020
  C     -2.499570    8.912180   -7.837500
  O     -1.819380    8.478240   -6.929790
  N     -2.684780   10.301070   -8.045330
  C     -1.989780   11.239500   -7.200730
  C     -0.725390   11.776750   -7.868410
  C     -3.524590   10.552030   -9.104800
  C     -3.996840   11.801810   -9.637050
  C     -3.689160   13.055140   -9.303060
  H     -0.271090    3.258250    6.011380
  H     -2.480100   -1.319080    7.130020
  H     -3.745710   -3.287940    6.323690
  H     -4.576610   -4.568640    4.428160
  H     -4.599460   -3.863800    2.803380
  H     -6.557010   -3.180070    5.050360
  H     -6.910220   -4.200020    3.651600
  H     -6.575190   -2.478660    3.432360
  H     -4.088940   -1.439330    2.483470
  H     -1.150660   -0.993570   -2.029040
  H     -0.782250   -1.308110    0.463950
  H     -1.485280    7.373840    1.694710
  H     -2.083550    7.688260   -0.758420
  H     -5.089790    0.430920   -5.646340
  H     -4.818070    0.216750   -3.125730
  H      0.897990    6.938040   -3.209600
  H      0.310150    7.380850   -5.652550
  H     -3.134310    6.315880   -6.910170
  H     -3.189530    4.778630  -10.918070
  H     -2.442450    2.196790   -7.872680
  H     -6.329650    6.817510  -11.306760
  H     -5.351830    5.443740  -10.736770
  H     -4.816610    7.239810  -13.162800
  H     -5.353430    5.557000  -13.221440
  H     -3.724640    5.949620  -12.655290
  H     -1.712040   10.680290   -6.301270
  H     -2.667410   12.046810   -6.913440
  H     -0.035380   10.958320   -8.058470
  H     -0.239170   12.497760   -7.216510
  H     -0.956550   12.256930   -8.816440
  H     -4.710330   11.638480  -10.435560
  H     -2.982320   13.324910   -8.540930
  H     -4.154680   13.877590   -9.819090

 Total Charge           Charge          ....    0
 Multiplicity           Mult            ....    1
 Number of Electrons    NEL             ....  464
 Basis Dimension        Dim             .... 1107

ORBITAL ENERGIES
----------------

  NO   OCC          E(Eh)            E(eV)
   0   2.0000     -88.959291     -2420.7054
   1   2.0000     -19.194538      -522.3099
   2   2.0000     -19.192839      -522.2637
   3   2.0000     -19.185311      -522.0588
   4   2.0000     -19.183026      -521.9967
   5   2.0000     -14.449693      -393.1961
   6   2.0000     -14.447193      -393.1281
   7   2.0000     -14.425404      -392.5352
   8   2.0000     -14.422251      -392.4494
   9   2.0000     -14.420405      -392.3992
  10   2.0000     -14.418310      -392.3422
  11   2.0000     -14.417758      -392.3271
  12   2.0000     -14.417443      -392.3186
  13   2.0000     -14.415877      -392.2760
  14   2.0000     -14.411061      -392.1449
  15   2.0000     -14.393977      -391.6800
  16   2.0000     -10.368259      -282.1347
  17   2.0000     -10.367411      -282.1116
  18   2.0000     -10.350708      -281.6571
  19   2.0000     -10.348263      -281.5906
  20   2.0000     -10.339482      -281.3516
  21   2.0000     -10.331088      -281.1232
  22   2.0000     -10.321935      -280.8741
  23   2.0000     -10.318208      -280.7727
  24   2.0000     -10.317474      -280.7527
  25   2.0000     -10.316967      -280.7390
  26   2.0000     -10.316632      -280.7298
  27   2.0000     -10.315395      -280.6962
  28   2.0000     -10.315182      -280.6904
  29   2.0000     -10.315055      -280.6869
  30   2.0000     -10.314692      -280.6770
  31   2.0000     -10.314596      -280.6744
  32   2.0000     -10.314467      -280.6709
  33   2.0000     -10.314408      -280.6693
  34   2.0000     -10.313060      -280.6326
  35   2.0000     -10.311969      -280.6029
  36   2.0000     -10.311545      -280.5914
  37   2.0000     -10.308385      -280.5054
  38   2.0000     -10.305428      -280.4249
  39   2.0000     -10.303599      -280.3752
  40   2.0000     -10.303316      -280.3675
  41   2.0000     -10.301966      -280.3307
  42   2.0000     -10.297174      -280.2003
  43   2.0000     -10.294483      -280.1271
  44   2.0000     -10.293898      -280.1112
  45   2.0000     -10.290610      -280.0217
  46   2.0000     -10.288955      -279.9767
  47   2.0000     -10.288668      -279.9689
  48   2.0000     -10.287449      -279.9357
  49   2.0000     -10.285856      -279.8924
  50   2.0000     -10.283260      -279.8217
  51   2.0000     -10.280399      -279.7439
  52   2.0000     -10.280167      -279.7376
  53   2.0000     -10.278483      -279.6917
  54   2.0000     -10.276181      -279.6291
  55   2.0000     -10.273853      -279.5658
  56   2.0000     -10.273089      -279.5450
  57   2.0000     -10.271051      -279.4895
  58   2.0000     -10.270322      -279.4697
  59   2.0000     -10.269809      -279.4557
  60   2.0000     -10.267805      -279.4012
  61   2.0000     -10.267362      -279.3891
  62   2.0000     -10.261134      -279.2197
  63   2.0000     -10.256301      -279.0881
  64   2.0000     -10.253617      -279.0151
  65   2.0000     -10.253001      -278.9983
  66   2.0000     -10.252739      -278.9912
  67   2.0000      -8.054064      -219.1622
  68   2.0000      -6.023193      -163.8994
  69   2.0000      -6.018637      -163.7754
  70   2.0000      -6.016935      -163.7291
  71   2.0000      -1.127133       -30.6709
  72   2.0000      -1.120473       -30.4896
  73   2.0000      -1.111823       -30.2542
  74   2.0000      -1.107716       -30.1425
  75   2.0000      -1.084652       -29.5149
  76   2.0000      -1.078034       -29.3348
  77   2.0000      -1.073710       -29.2171
  78   2.0000      -1.069481       -29.1021
  79   2.0000      -1.057119       -28.7657
  80   2.0000      -1.047925       -28.5155
  81   2.0000      -1.031023       -28.0556
  82   2.0000      -1.011313       -27.5192
  83   2.0000      -1.002028       -27.2666
  84   2.0000      -0.996987       -27.1294
  85   2.0000      -0.992321       -27.0024
  86   2.0000      -0.983153       -26.7529
  87   2.0000      -0.957620       -26.0582
  88   2.0000      -0.953053       -25.9339
  89   2.0000      -0.938143       -25.5282
  90   2.0000      -0.922987       -25.1158
  91   2.0000      -0.904971       -24.6255
  92   2.0000      -0.894927       -24.3522
  93   2.0000      -0.890025       -24.2188
  94   2.0000      -0.883664       -24.0457
  95   2.0000      -0.868297       -23.6276
  96   2.0000      -0.864286       -23.5184
  97   2.0000      -0.863064       -23.4852
  98   2.0000      -0.857672       -23.3384
  99   2.0000      -0.855860       -23.2891
 100   2.0000      -0.835660       -22.7395
 101   2.0000      -0.832367       -22.6498
 102   2.0000      -0.814735       -22.1701
 103   2.0000      -0.812144       -22.0996
 104   2.0000      -0.803328       -21.8597
 105   2.0000      -0.798825       -21.7371
 106   2.0000      -0.787707       -21.4346
 107   2.0000      -0.781509       -21.2659
 108   2.0000      -0.770123       -20.9561
 109   2.0000      -0.763486       -20.7755
 110   2.0000      -0.754582       -20.5332
 111   2.0000      -0.751475       -20.4487
 112   2.0000      -0.747363       -20.3368
 113   2.0000      -0.734262       -19.9803
 114   2.0000      -0.727198       -19.7881
 115   2.0000      -0.722375       -19.6568
 116   2.0000      -0.717423       -19.5221
 117   2.0000      -0.711934       -19.3727
 118   2.0000      -0.706544       -19.2260
 119   2.0000      -0.704547       -19.1717
 120   2.0000      -0.695619       -18.9288
 121   2.0000      -0.687682       -18.7128
 122   2.0000      -0.678539       -18.4640
 123   2.0000      -0.669201       -18.2099
 124   2.0000      -0.666828       -18.1453
 125   2.0000      -0.662376       -18.0242
 126   2.0000      -0.659477       -17.9453
 127   2.0000      -0.657156       -17.8821
 128   2.0000      -0.645502       -17.5650
 129   2.0000      -0.638779       -17.3821
 130   2.0000      -0.636572       -17.3220
 131   2.0000      -0.627684       -17.0802
 132   2.0000      -0.619488       -16.8571
 133   2.0000      -0.609283       -16.5794
 134   2.0000      -0.605153       -16.4670
 135   2.0000      -0.596804       -16.2399
 136   2.0000      -0.591563       -16.0973
 137   2.0000      -0.588623       -16.0173
 138   2.0000      -0.584621       -15.9083
 139   2.0000      -0.584447       -15.9036
 140   2.0000      -0.580757       -15.8032
 141   2.0000      -0.577407       -15.7120
 142   2.0000      -0.573611       -15.6087
 143   2.0000      -0.572263       -15.5721
 144   2.0000      -0.568531       -15.4705
 145   2.0000      -0.563819       -15.3423
 146   2.0000      -0.560745       -15.2586
 147   2.0000      -0.557177       -15.1616
 148   2.0000      -0.551618       -15.0103
 149   2.0000      -0.545101       -14.8330
 150   2.0000      -0.541742       -14.7416
 151   2.0000      -0.537710       -14.6318
 152   2.0000      -0.535610       -14.5747
 153   2.0000      -0.533756       -14.5242
 154   2.0000      -0.530699       -14.4410
 155   2.0000      -0.526960       -14.3393
 156   2.0000      -0.523892       -14.2558
 157   2.0000      -0.522325       -14.2132
 158   2.0000      -0.518849       -14.1186
 159   2.0000      -0.517043       -14.0695
 160   2.0000      -0.512812       -13.9543
 161   2.0000      -0.511026       -13.9057
 162   2.0000      -0.509680       -13.8691
 163   2.0000      -0.507893       -13.8205
 164   2.0000      -0.507348       -13.8056
 165   2.0000      -0.505609       -13.7583
 166   2.0000      -0.504552       -13.7296
 167   2.0000      -0.502104       -13.6630
 168   2.0000      -0.500482       -13.6188
 169   2.0000      -0.496625       -13.5139
 170   2.0000      -0.495523       -13.4839
 171   2.0000      -0.495021       -13.4702
 172   2.0000      -0.494084       -13.4447
 173   2.0000      -0.489199       -13.3118
 174   2.0000      -0.485243       -13.2041
 175   2.0000      -0.482754       -13.1364
 176   2.0000      -0.476252       -12.9595
 177   2.0000      -0.473766       -12.8918
 178   2.0000      -0.469835       -12.7849
 179   2.0000      -0.469652       -12.7799
 180   2.0000      -0.466272       -12.6879
 181   2.0000      -0.463760       -12.6196
 182   2.0000      -0.458742       -12.4830
 183   2.0000      -0.455939       -12.4067
 184   2.0000      -0.454673       -12.3723
 185   2.0000      -0.453935       -12.3522
 186   2.0000      -0.451179       -12.2772
 187   2.0000      -0.447103       -12.1663
 188   2.0000      -0.446769       -12.1572
 189   2.0000      -0.444257       -12.0888
 190   2.0000      -0.442283       -12.0351
 191   2.0000      -0.435323       -11.8457
 192   2.0000      -0.432291       -11.7632
 193   2.0000      -0.431471       -11.7409
 194   2.0000      -0.428814       -11.6686
 195   2.0000      -0.427681       -11.6378
 196   2.0000      -0.422894       -11.5075
 197   2.0000      -0.416883       -11.3440
 198   2.0000      -0.416329       -11.3289
 199   2.0000      -0.414538       -11.2801
 200   2.0000      -0.411884       -11.2079
 201   2.0000      -0.408342       -11.1116
 202   2.0000      -0.407546       -11.0899
 203   2.0000      -0.406775       -11.0689
 204   2.0000      -0.406152       -11.0520
 205   2.0000      -0.402063       -10.9407
 206   2.0000      -0.386707       -10.5228
 207   2.0000      -0.385998       -10.5035
 208   2.0000      -0.367656       -10.0044
 209   2.0000      -0.365211        -9.9379
 210   2.0000      -0.350069        -9.5259
 211   2.0000      -0.346384        -9.4256
 212   2.0000      -0.341102        -9.2819
 213   2.0000      -0.334205        -9.0942
 214   2.0000      -0.331282        -9.0146
 215   2.0000      -0.329774        -8.9736
 216   2.0000      -0.327155        -8.9023
 217   2.0000      -0.325821        -8.8660
 218   2.0000      -0.322907        -8.7867
 219   2.0000      -0.322344        -8.7714
 220   2.0000      -0.320669        -8.7259
 221   2.0000      -0.318234        -8.6596
 222   2.0000      -0.317266        -8.6332
 223   2.0000      -0.314050        -8.5457
 224   2.0000      -0.311854        -8.4860
 225   2.0000      -0.308235        -8.3875
 226   2.0000      -0.306301        -8.3349
 227   2.0000      -0.304596        -8.2885
 228   2.0000      -0.300632        -8.1806
 229   2.0000      -0.286854        -7.8057
 230   2.0000      -0.255323        -6.9477
 231   2.0000      -0.242462        -6.5977
 232   0.0000      -0.082035        -2.2323
 233   0.0000      -0.067550        -1.8381
 234   0.0000      -0.060949        -1.6585
 235   0.0000      -0.042886        -1.1670
 236   0.0000      -0.017164        -0.4670

MULLIKEN ATOMIC CHARGES
-----------------------
   0 C :   -0.107682
   1 S :    0.209982
   2 C :   -0.264436
   3 C :    0.133032
   4 C :   -0.023752
   5 C :    0.141545
   6 O :   -0.160751
   7 C :   -0.029185
   8 C :   -0.013815
   9 C :    0.009949
  10 C :    0.000436
  11 C :    0.070436
  12 C :    0.022473
  13 C :   -0.076647
  14 C :    0.015703
  15 C :    0.108152
  16 O :   -0.170239
  17 C :    0.124116
  18 C :   -0.060427
  19 C :   -0.034079
  20 N :    0.008919
  21 C :    0.025070
  22 C :    0.038686
  23 N :   -0.010840
  24 C :    0.036210
  25 C :   -0.041505
  26 C :   -0.068907
  27 N :   -0.029494
  28 C :    0.034915
  29 C :    0.021694
  30 N :    0.011494
  31 C :    0.033663
  32 C :   -0.042254
  33 C :   -0.058850
  34 N :   -0.006463
  35 C :    0.025399
  36 C :    0.021820
  37 N :    0.009927
  38 C :    0.085490
  39 C :   -0.079944
  40 C :   -0.031535
  41 N :    0.006875
  42 C :    0.022386
  43 C :    0.046019
  44 N :    0.005204
  45 C :   -0.067067
  46 C :    0.078295
  47 C :   -0.041198
  48 C :   -0.017379
  49 N :   -0.060257
  50 C :    0.047375
  51 C :    0.143555
  52 N :   -0.267975
  53 C :    0.109658
  54 C :   -0.003451
  55 C :    0.155354
  56 O :   -0.196926
  57 C :   -0.044602
  58 C :   -0.046302
  59 C :    0.141504
  60 O :   -0.204832
  61 N :   -0.269016
  62 C :    0.102041
  63 C :    0.005022
  64 C :    0.078324
  65 C :   -0.021149
  66 C :   -0.008790
  67 H :    0.029562
  68 H :   -0.006870
  69 H :   -0.023839
  70 H :    0.002319
  71 H :    0.006852
  72 H :    0.010915
  73 H :    0.017567
  74 H :    0.016186
  75 H :   -0.021610
  76 H :    0.007117
  77 H :    0.009350
  78 H :    0.013366
  79 H :    0.008954
  80 H :    0.012037
  81 H :    0.010606
  82 H :    0.005547
  83 H :    0.014864
  84 H :    0.006385
  85 H :   -0.014233
  86 H :   -0.004370
  87 H :    0.028563
  88 H :    0.034575
  89 H :    0.038520
  90 H :    0.021140
  91 H :    0.019065
  92 H :    0.033157
  93 H :    0.020704
  94 H :    0.024944
  95 H :    0.018577
  96 H :    0.019616
  97 H :    0.016904
  98 H :    0.019862
  99 H :    0.032694
Sum of atomic charges:   -0.0000000

LOEWDIN ATOMIC CHARGES
----------------------
   0 C :   -0.144618
   1 S :    0.515279
   2 C :   -0.131684
   3 C :   -0.077924
   4 C :   -0.103243
   5 C :    0.081060
   6 O :   -0.156531
   7 C :   -0.059022
   8 C :    0.016887
   9 C :   -0.016535
  10 C :   -0.004096
  11 C :   -0.027324
  12 C :   -0.047040
  13 C :    0.002953
  14 C :   -0.041787
  15 C :    0.087695
  16 O :   -0.153606
  17 C :   -0.028561
  18 C :    0.006157
  19 C :    0.006730
  20 N :   -0.020810
  21 C :    0.005951
  22 C :    0.012309
  23 N :   -0.025609
  24 C :    0.002143
  25 C :    0.002827
  26 C :   -0.009151
  27 N :   -0.051898
  28 C :    0.013385
  29 C :    0.001734
  30 N :   -0.014059
  31 C :   -0.004556
  32 C :    0.003452
  33 C :   -0.010241
  34 N :   -0.035567
  35 C :    0.007034
  36 C :    0.002892
  37 N :   -0.016903
  38 C :   -0.008885
  39 C :   -0.008110
  40 C :    0.003474
  41 N :   -0.025164
  42 C :    0.004833
  43 C :    0.021265
  44 N :   -0.021985
  45 C :   -0.031743
  46 C :    0.061710
  47 C :   -0.070023
  48 C :    0.024360
  49 N :   -0.072347
  50 C :    0.050004
  51 C :    0.097119
  52 N :   -0.001282
  53 C :    0.037692
  54 C :   -0.061690
  55 C :    0.082205
  56 O :   -0.196086
  57 C :   -0.118561
  58 C :   -0.137802
  59 C :    0.084476
  60 O :   -0.202680
  61 N :   -0.005503
  62 C :    0.034128
  63 C :   -0.063376
  64 C :    0.070446
  65 C :   -0.028256
  66 C :   -0.023549
  67 H :    0.031139
  68 H :    0.035409
  69 H :    0.027740
  70 H :    0.026343
  71 H :    0.028205
  72 H :    0.024415
  73 H :    0.024021
  74 H :    0.025754
  75 H :    0.029469
  76 H :    0.023961
  77 H :    0.025344
  78 H :    0.026715
  79 H :    0.024897
  80 H :    0.025884
  81 H :    0.025429
  82 H :    0.022994
  83 H :    0.026799
  84 H :    0.038185
  85 H :    0.020575
  86 H :    0.021130
  87 H :    0.033370
  88 H :    0.028267
  89 H :    0.033075
  90 H :    0.030042
  91 H :    0.019517
  92 H :    0.033190
  93 H :    0.021242
  94 H :    0.031130
  95 H :    0.028476
  96 H :    0.022579
  97 H :    0.048640
  98 H :    0.021456
  99 H :    0.032211

  Mayer bond orders larger than 0.100000
B(  0-C ,  1-S ) :   1.1876 B(  0-C ,  4-C ) :   1.5238 B(  0-C , 67-H ) :   0.9681
B(  1-S ,  2-C ) :   1.1908 B(  2-C ,  3-C ) :   1.4997 B(  2-C , 17-C ) :   1.0676
B(  3-C ,  4-C ) :   1.2164 B(  3-C , 15-C ) :   0.9548 B(  4-C ,  5-C ) :   0.9532
B(  5-C ,  6-O ) :   2.2508 B(  5-C ,  7-C ) :   0.9361 B(  7-C ,  8-C ) :   1.3932
B(  7-C , 14-C ) :   1.3474 B(  8-C ,  9-C ) :   1.3533 B(  8-C , 68-H ) :   0.9943
B(  9-C , 10-C ) :   1.3704 B(  9-C , 69-H ) :   0.9956 B( 10-C , 11-C ) :   1.0373
B( 10-C , 13-C ) :   1.3299 B( 11-C , 12-C ) :   1.0983 B( 11-C , 70-H ) :   0.9345
B( 11-C , 71-H ) :   0.9348 B( 12-C , 72-H ) :   0.9689 B( 12-C , 73-H ) :   0.9690
B( 12-C , 74-H ) :   0.9714 B( 13-C , 14-C ) :   1.3890 B( 13-C , 75-H ) :   0.9998
B( 14-C , 15-C ) :   0.9229 B( 15-C , 16-O ) :   2.2051 B( 17-C , 18-C ) :   1.3017
B( 17-C , 24-C ) :   0.1498 B( 17-C , 26-C ) :   1.2864 B( 18-C , 19-C ) :   1.1374
B( 18-C , 23-N ) :   1.4355 B( 19-C , 20-N ) :   1.4186 B( 19-C , 24-C ) :   1.3370
B( 20-N , 21-C ) :   1.7014 B( 21-C , 22-C ) :   1.1698 B( 21-C , 76-H ) :   0.9727
B( 22-C , 23-N ) :   1.6983 B( 22-C , 77-H ) :   0.9723 B( 24-C , 25-C ) :   1.3416
B( 24-C , 31-C ) :   0.9438 B( 25-C , 26-C ) :   1.1535 B( 25-C , 30-N ) :   1.4173
B( 26-C , 27-N ) :   1.4325 B( 27-N , 28-C ) :   1.6975 B( 28-C , 29-C ) :   1.1770
B( 28-C , 78-H ) :   0.9730 B( 29-C , 30-N ) :   1.6957 B( 29-C , 79-H ) :   0.9737
B( 31-C , 32-C ) :   1.3340 B( 31-C , 38-C ) :   0.1541 B( 31-C , 40-C ) :   1.3392
B( 32-C , 33-C ) :   1.1439 B( 32-C , 37-N ) :   1.4183 B( 33-C , 34-N ) :   1.4440
B( 33-C , 38-C ) :   1.3195 B( 34-N , 35-C ) :   1.7126 B( 35-C , 36-C ) :   1.1679
B( 35-C , 80-H ) :   0.9733 B( 36-C , 37-N ) :   1.7023 B( 36-C , 81-H ) :   0.9734
B( 38-C , 39-C ) :   1.3179 B( 38-C , 45-C ) :   0.9372 B( 39-C , 40-C ) :   1.1395
B( 39-C , 44-N ) :   1.4633 B( 40-C , 41-N ) :   1.4115 B( 41-N , 42-C ) :   1.7014
B( 42-C , 43-C ) :   1.1595 B( 42-C , 82-H ) :   0.9729 B( 43-C , 44-N ) :   1.7063
B( 43-C , 83-H ) :   0.9714 B( 45-C , 46-C ) :   1.4126 B( 45-C , 50-C ) :   1.3577
B( 46-C , 47-C ) :   1.3893 B( 46-C , 84-H ) :   0.9788 B( 47-C , 48-C ) :   1.3143
B( 47-C , 51-C ) :   0.9913 B( 48-C , 49-N ) :   1.5621 B( 48-C , 85-H ) :   0.9935
B( 49-N , 50-C ) :   1.5493 B( 50-C , 86-H ) :   0.9814 B( 51-C , 52-N ) :   1.2149
B( 51-C , 58-C ) :   1.4088 B( 52-N , 53-C ) :   0.9374 B( 52-N , 55-C ) :   1.0192
B( 53-C , 54-C ) :   1.1143 B( 53-C , 87-H ) :   0.9335 B( 53-C , 88-H ) :   0.9492
B( 54-C , 89-H ) :   0.9604 B( 54-C , 90-H ) :   0.9666 B( 54-C , 91-H ) :   0.9632
B( 55-C , 56-O ) :   2.1153 B( 55-C , 57-C ) :   0.9877 B( 57-C , 58-C ) :   1.1887
B( 57-C , 64-C ) :   1.4077 B( 58-C , 59-C ) :   0.9844 B( 59-C , 60-O ) :   2.0717
B( 59-C , 61-N ) :   1.0413 B( 61-N , 62-C ) :   0.9481 B( 61-N , 64-C ) :   1.1600
B( 62-C , 63-C ) :   1.1175 B( 62-C , 92-H ) :   0.9245 B( 62-C , 93-H ) :   0.9518
B( 63-C , 94-H ) :   0.9613 B( 63-C , 95-H ) :   0.9683 B( 63-C , 96-H ) :   0.9680
B( 64-C , 65-C ) :   1.1492 B( 65-C , 66-C ) :   1.8776 B( 65-C , 97-H ) :   0.9362
B( 66-C , 98-H ) :   0.9604 B( 66-C , 99-H ) :   0.9403

-----------------------------------------------------------------------------
         ABSORPTION SPECTRUM VIA TRANSITION ELECTRIC DIPOLE MOMENTS
-----------------------------------------------------------------------------
State   Energy  Wavelength   fosc         T2         TX        TY        TZ
        (cm-1)    (nm)                  (au**2)     (au)      (au)      (au)
-----------------------------------------------------------------------------
   0   20111.8    497.2   0.575986526   9.42838  -0.18638   0.90828  -2.92723
   1   22200.9    450.4   0.008904409   0.13204  -0.03577   0.12041  -0.34097
   2   22515.5    444.1   0.153499349   2.24440  -0.17660  -1.46582   0.25413
   3   23106.8    432.8   0.324101596   4.61761   0.57199   1.54261   1.38231
   4   24731.0    404.4   0.030265631   0.40289  -0.35855  -0.52047  -0.05868
   5   25403.2    393.7   0.007288433   0.09445  -0.13068   0.24314   0.13513
   6   25779.4    387.9   0.019519773   0.24927  -0.18272   0.10659   0.45224
   7   26194.8    381.8   0.002911652   0.03659   0.02204   0.18676   0.03506
   8   26538.3    376.8   0.030367095   0.37671  -0.01368  -0.31739   0.52515
   9   27010.1    370.2   0.017969417   0.21902  -0.30292  -0.07587  -0.34858
  10   27831.4    359.3   0.005209314   0.06162  -0.17041   0.17566   0.04154
  11   28925.3    345.7   0.091134872   1.03725  -0.23642  -0.91609   0.37700
  12   29190.5    342.6   0.000135682   0.00153   0.00114   0.01829  -0.03456
  13   29410.3    340.0   0.003236133   0.03622  -0.07556   0.09664   0.14552
  14   29780.1    335.8   0.013761946   0.15214  -0.38593   0.04070   0.03919
  15   29943.4    334.0   0.091699869   1.00819   0.26274   0.00755   0.96907
  16   30831.5    324.3   0.007887699   0.08422   0.06272   0.28236   0.02369
  17   30887.4    323.8   0.066227008   0.70588   0.44728   0.67067  -0.23669
  18   31457.0    317.9   0.001225785   0.01283   0.10412  -0.04315  -0.01116
  19   31869.2    313.8   0.025368954   0.26206  -0.13123   0.43578   0.23439
  20   32626.4    306.5   0.014295433   0.14425  -0.37790  -0.00133  -0.03784
  21   32675.8    306.0   0.034188422   0.34445  -0.12143   0.11878  -0.56178
  22   33480.4    298.7   0.006848800   0.06734  -0.22219  -0.11926   0.06128
  23   33630.6    297.3   0.009146255   0.08953   0.05983  -0.11145   0.27117
  24   33946.4    294.6   0.000404999   0.00393   0.05388   0.00085  -0.03200
  25   34099.2    293.3   0.012677555   0.12240   0.12321   0.22137  -0.24127
  26   34382.6    290.8   0.003480890   0.03333  -0.04449   0.03997  -0.17249
  27   34565.8    289.3   0.087236080   0.83086   0.27688  -0.13019   0.85863
  28   35009.1    285.6   0.006687337   0.06289   0.02497   0.22834  -0.10060
  29   35032.8    285.4   0.025864077   0.24305  -0.26907  -0.38453   0.15096
  30   35332.6    283.0   0.009449536   0.08805   0.00297  -0.17731  -0.23791
  31   35609.7    280.8   0.003976393   0.03676   0.07525  -0.02355  -0.17477
  32   35759.5    279.6   0.005737199   0.05282   0.06083   0.21413   0.05715
  33   35921.2    278.4   0.021472848   0.19680   0.24468  -0.31775   0.18964
  34   36352.4    275.1   0.001901668   0.01722   0.04504   0.03373  -0.11855
  35   36509.1    273.9   0.006501632   0.05863   0.09269   0.16516   0.15086
  36   36624.8    273.0   0.001101575   0.00990   0.08573   0.04780  -0.01633
  37   36650.9    272.8   0.007100265   0.06378   0.14876  -0.06850   0.19224
  38   36955.3    270.6   0.067513635   0.60144  -0.06783  -0.68317   0.36072
  39   37098.8    269.6   0.050953996   0.45216   0.05522   0.51346  -0.43067
  40   37260.3    268.4   0.003888545   0.03436  -0.02422  -0.16408   0.08274
  41   37309.5    268.0   0.011060621   0.09760   0.08866  -0.26682   0.13617
  42   37542.3    266.4   0.058899327   0.51649  -0.29123   0.56211  -0.34016
  43   37962.3    263.4   0.045895497   0.39801   0.29989  -0.45113  -0.32336
  44   38145.9    262.2   0.025435578   0.21952   0.04153   0.31704  -0.34246
  45   38499.1    259.7   0.026614516   0.22758  -0.00848  -0.47166  -0.07103
  46   38615.6    259.0   0.004914310   0.04190   0.20033   0.04198   0.00144
  47   38772.4    257.9   0.027732737   0.23548   0.33414   0.34232  -0.08151
  48   38850.4    257.4   0.004897428   0.04150  -0.18616  -0.00485   0.08260
  49   38943.6    256.8   0.017675052   0.14942  -0.18293  -0.33069  -0.08123
  50   39049.5    256.1   0.008880951   0.07487  -0.19180   0.17323   0.08988
  51   39317.4    254.3   0.174779121   1.46346   0.11444  -1.09206  -0.50771
  52   39510.7    253.1   0.165778010   1.38130   0.18390  -1.12799  -0.27406
  53   39841.9    251.0   0.131059162   1.08294  -0.68783  -0.70573  -0.33431
  54   39919.4    250.5   0.180221560   1.48627  -0.50151  -1.03132  -0.41370
  55   40041.3    249.7   0.176376171   1.45013  -0.81315   0.82639  -0.32558
  56   40184.5    248.9   0.512138616   4.19570  -0.06936  -1.92952   0.68400

FINAL SINGLE POINT ENERGY     -3260.976593823794

DIPOLE MOMENT
-------------
                                X             Y             Z
Electronic contribution:     21.09692     -11.26742      36.21209
Nuclear contribution   :    -20.95014      11.56700     -36.24444
                        -----------------------------------------
Total Dipole Moment    :      0.14677       0.29959      -0.03235
                        -----------------------------------------
Magnitude (a.u.)       :      0.33517
Magnitude (Debye)      :      0.85195

Rotational constants in cm-1:     0.002572     0.000450     0.000404
Rotational constants in MHz :    77.095457    13.475989    12.115883

                             ****ORCA TERMINATED NORMALLY****
TOTAL RUN TIME: 0 days 0 hours 8 minutes 56 seconds 167 msec
