                         Program Version 4.2.0 -  RELEASE  -
|  1> # ORCA input file
|  2> # SCF done       -177.423510207528          0.000785308662
|  3> ! CAM-B3LYP def2-SVP def2/J RIJCOSX Grid4 TightSCF
|  4> %maxcore 5000
|  5> %tddft
|  6>     Mode sTDDFT
|  7>     Ethresh 5.0
|  8>     maxcore 5000
|  9> end
| 10>
| 11> %pal
| 12>   nprocs 6
| 13>   end
| 14> * xyz 0 1
| 15>    C        0.41559         0.96883        -0.39098
| 16>    S       -0.21556         2.21274         0.59522
| 17>    C       -1.14506         2.85028        -0.72631
| 18>    C       -0.98378         2.08696        -1.86430
| 19>    C       -0.07054         1.01155        -1.66799
| 20>    C        0.29217         0.06934        -2.73443
| 21>    O        1.10050        -0.82526        -2.57643
| 22>    C       -0.39675         0.30924        -4.02113
| 23>    C       -0.08277        -0.50910        -5.10352
| 24>    C       -0.69995        -0.33626        -6.32662
| 25>    C       -1.65849         0.65755        -6.50378
| 26>    C       -2.30044         0.87968        -7.84018
| 27>    C       -1.49554         1.90107        -8.64822
| 28>    C       -1.97480         1.47255        -5.42594
| 29>    C       -1.35978         1.31585        -4.18850
| 30>    C       -1.76653         2.22529        -3.09297
| 31>    O       -2.70154         2.99878        -3.20194
| 32>    C       -1.96403         4.01055        -0.49175
| 33>    N       -1.91555         5.18581        -1.19358
| 34>    C       -1.00017         5.52982        -2.25829
| 35>    C       -1.73490         5.85343        -3.55480
| 36>    C       -2.81232         6.13499        -0.66202
| 37>    O       -2.91528         7.27314        -1.08300
| 38>    C       -3.46083         5.45050         0.43039
| 39>    C       -2.89065         4.15301         0.52257
| 40>    C       -3.52336         3.45293         1.62223
| 41>    O       -3.35899         2.34244         2.07871
| 42>    N       -4.43686         4.39008         2.13719
| 43>    C       -5.31968         4.05751         3.23039
| 44>    C       -6.71660         3.68983         2.73712
| 45>    C       -4.41472         5.57652         1.43996
| 46>    C       -5.22463         6.68945         1.76517
| 47>    C       -5.17858         7.84956         1.05269
| 48>    C       -5.96634         8.97301         1.39017
| 49>    N       -5.95785        10.15018         0.67782
| 50>    C       -5.22365        10.40736        -0.53894
| 51>    C       -5.89986         9.77668        -1.75291
| 52>    C       -6.81596        11.10913         1.23338
| 53>    O       -6.97208        12.22464         0.77523
| 54>    C       -7.38558        10.45409         2.39260
| 55>    C       -6.84711         9.14491         2.45993
| 56>    C       -7.40607         8.49387         3.62093
| 57>    O       -7.25531         7.37765         4.08474
| 58>    N       -8.25641         9.45768         4.18557
| 59>    C       -8.96832         9.19828         5.41293
| 60>    C       -8.27633         9.83373         6.61677
| 61>    C       -8.25259        10.63354         3.46713
| 62>    C       -9.02876        11.76929         3.81398
| 63>    C       -9.01817        12.91095         3.08441
| 64>    C       -9.78727        14.06366         3.41141
| 65>    O       -9.73252        15.13086         2.57142
| 66>    C      -10.51748        16.10823         3.03673
| 67>    C      -11.09960        15.67334         4.23029
| 68>    C      -10.62821        14.36007         4.46008
| 69>    N      -11.93720        16.35252         5.14723
| 70>    O      -12.20115        17.52163         4.94740
| 71>    O      -12.33307        15.71156         6.10021
| 72>    C      -10.57286        17.33060         2.25929
| 73>    C      -11.68379        18.17548         2.20782
| 74>    C      -11.62083        19.30668         1.41436
| 75>    C      -10.46378        19.55034         0.68792
| 76>    N       -9.40926        18.75097         0.72067
| 77>    C       -9.45901        17.67850         1.47834
| 78>    H        1.11078         0.25421         0.00453
| 79>    H        0.65572        -1.28333        -4.95642
| 80>    H       -0.44239        -0.98176        -7.15379
| 81>    H       -3.31798         1.25033        -7.70459
| 82>    H       -2.34597        -0.06133        -8.39148
| 83>    H       -1.45135         2.85125        -8.12073
| 84>    H       -1.95811         2.06352        -9.61842
| 85>    H       -0.47873         1.54669        -8.80285
| 86>    H       -2.71769         2.25096        -5.52776
| 87>    H       -0.31293         4.69316        -2.40211
| 88>    H       -0.42822         6.40790        -1.93627
| 89>    H       -2.37265         5.02036        -3.83703
| 90>    H       -1.01452         6.03941        -4.34682
| 91>    H       -2.35039         6.73766        -3.41804
| 92>    H       -5.37204         4.89556         3.92952
| 93>    H       -4.86700         3.19819         3.73284
| 94>    H       -7.18046         4.53213         2.22955
| 95>    H       -7.33898         3.41026         3.58227
| 96>    H       -6.66232         2.84996         2.04830
| 97>    H       -5.89099         6.60965         2.61197
| 98>    H       -4.51430         7.92592         0.20385
| 99>    H       -4.20206        10.03357        -0.43742
|100>    H       -5.19889        11.49462        -0.65277
|101>    H       -5.93743         8.69458        -1.65485
|102>    H       -5.33902        10.02278        -2.64979
|103>    H       -6.91344        10.15681        -1.85792
|104>    H       -8.98092         8.11088         5.53012
|105>    H       -9.99857         9.55376         5.32208
|106>    H       -7.27278         9.42920         6.72305
|107>    H       -8.83665         9.61530         7.52157
|108>    H       -8.20258        10.91286         6.50100
|109>    H       -9.65262        11.70232         4.69300
|110>    H       -8.40540        12.98860         2.19593
|111>    H      -10.88650        13.75278         5.30198
|112>    H      -12.57559        17.95444         2.77009
|113>    H      -12.46021        19.98090         1.35453
|114>    H      -10.37172        20.41786         0.04803
|115>    H       -8.57268        17.05823         1.48251
|116> *
|117>
|118>                          ****END OF INPUT****

CARTESIAN COORDINATES (ANGSTROEM)
---------------------------------
  C      0.415590    0.968830   -0.390980
  S     -0.215560    2.212740    0.595220
  C     -1.145060    2.850280   -0.726310
  C     -0.983780    2.086960   -1.864300
  C     -0.070540    1.011550   -1.667990
  C      0.292170    0.069340   -2.734430
  O      1.100500   -0.825260   -2.576430
  C     -0.396750    0.309240   -4.021130
  C     -0.082770   -0.509100   -5.103520
  C     -0.699950   -0.336260   -6.326620
  C     -1.658490    0.657550   -6.503780
  C     -2.300440    0.879680   -7.840180
  C     -1.495540    1.901070   -8.648220
  C     -1.974800    1.472550   -5.425940
  C     -1.359780    1.315850   -4.188500
  C     -1.766530    2.225290   -3.092970
  O     -2.701540    2.998780   -3.201940
  C     -1.964030    4.010550   -0.491750
  N     -1.915550    5.185810   -1.193580
  C     -1.000170    5.529820   -2.258290
  C     -1.734900    5.853430   -3.554800
  C     -2.812320    6.134990   -0.662020
  O     -2.915280    7.273140   -1.083000
  C     -3.460830    5.450500    0.430390
  C     -2.890650    4.153010    0.522570
  C     -3.523360    3.452930    1.622230
  O     -3.358990    2.342440    2.078710
  N     -4.436860    4.390080    2.137190
  C     -5.319680    4.057510    3.230390
  C     -6.716600    3.689830    2.737120
  C     -4.414720    5.576520    1.439960
  C     -5.224630    6.689450    1.765170
  C     -5.178580    7.849560    1.052690
  C     -5.966340    8.973010    1.390170
  N     -5.957850   10.150180    0.677820
  C     -5.223650   10.407360   -0.538940
  C     -5.899860    9.776680   -1.752910
  C     -6.815960   11.109130    1.233380
  O     -6.972080   12.224640    0.775230
  C     -7.385580   10.454090    2.392600
  C     -6.847110    9.144910    2.459930
  C     -7.406070    8.493870    3.620930
  O     -7.255310    7.377650    4.084740
  N     -8.256410    9.457680    4.185570
  C     -8.968320    9.198280    5.412930
  C     -8.276330    9.833730    6.616770
  C     -8.252590   10.633540    3.467130
  C     -9.028760   11.769290    3.813980
  C     -9.018170   12.910950    3.084410
  C     -9.787270   14.063660    3.411410
  O     -9.732520   15.130860    2.571420
  C    -10.517480   16.108230    3.036730
  C    -11.099600   15.673340    4.230290
  C    -10.628210   14.360070    4.460080
  N    -11.937200   16.352520    5.147230
  O    -12.201150   17.521630    4.947400
  O    -12.333070   15.711560    6.100210
  C    -10.572860   17.330600    2.259290
  C    -11.683790   18.175480    2.207820
  C    -11.620830   19.306680    1.414360
  C    -10.463780   19.550340    0.687920
  N     -9.409260   18.750970    0.720670
  C     -9.459010   17.678500    1.478340
  H      1.110780    0.254210    0.004530
  H      0.655720   -1.283330   -4.956420
  H     -0.442390   -0.981760   -7.153790
  H     -3.317980    1.250330   -7.704590
  H     -2.345970   -0.061330   -8.391480
  H     -1.451350    2.851250   -8.120730
  H     -1.958110    2.063520   -9.618420
  H     -0.478730    1.546690   -8.802850
  H     -2.717690    2.250960   -5.527760
  H     -0.312930    4.693160   -2.402110
  H     -0.428220    6.407900   -1.936270
  H     -2.372650    5.020360   -3.837030
  H     -1.014520    6.039410   -4.346820
  H     -2.350390    6.737660   -3.418040
  H     -5.372040    4.895560    3.929520
  H     -4.867000    3.198190    3.732840
  H     -7.180460    4.532130    2.229550
  H     -7.338980    3.410260    3.582270
  H     -6.662320    2.849960    2.048300
  H     -5.890990    6.609650    2.611970
  H     -4.514300    7.925920    0.203850
  H     -4.202060   10.033570   -0.437420
  H     -5.198890   11.494620   -0.652770
  H     -5.937430    8.694580   -1.654850
  H     -5.339020   10.022780   -2.649790
  H     -6.913440   10.156810   -1.857920
  H     -8.980920    8.110880    5.530120
  H     -9.998570    9.553760    5.322080
  H     -7.272780    9.429200    6.723050
  H     -8.836650    9.615300    7.521570
  H     -8.202580   10.912860    6.501000
  H     -9.652620   11.702320    4.693000
  H     -8.405400   12.988600    2.195930
  H    -10.886500   13.752780    5.301980
  H    -12.575590   17.954440    2.770090
  H    -12.460210   19.980900    1.354530
  H    -10.371720   20.417860    0.048030
  H     -8.572680   17.058230    1.482510

 Total Charge           Charge          ....    0
 Multiplicity           Mult            ....    1
 Number of Electrons    NEL             ....  450
 Basis Dimension        Dim             .... 1076

ORBITAL ENERGIES
----------------

  NO   OCC          E(Eh)            E(eV)
   0   2.0000     -88.981581     -2421.3119
   1   2.0000     -19.320715      -525.7434
   2   2.0000     -19.246317      -523.7189
   3   2.0000     -19.246038      -523.7113
   4   2.0000     -19.216626      -522.9110
   5   2.0000     -19.208571      -522.6918
   6   2.0000     -19.196355      -522.3594
   7   2.0000     -19.191114      -522.2168
   8   2.0000     -19.190485      -522.1996
   9   2.0000     -19.184285      -522.0309
  10   2.0000     -14.657731      -398.8571
  11   2.0000     -14.457342      -393.4043
  12   2.0000     -14.453023      -393.2868
  13   2.0000     -14.451798      -393.2534
  14   2.0000     -14.447790      -393.1444
  15   2.0000     -14.404622      -391.9697
  16   2.0000     -10.378039      -282.4008
  17   2.0000     -10.377429      -282.3842
  18   2.0000     -10.373538      -282.2783
  19   2.0000     -10.372442      -282.2485
  20   2.0000     -10.370415      -282.1933
  21   2.0000     -10.370290      -282.1899
  22   2.0000     -10.364245      -282.0254
  23   2.0000     -10.353564      -281.7348
  24   2.0000     -10.342926      -281.4453
  25   2.0000     -10.342703      -281.4393
  26   2.0000     -10.337894      -281.3084
  27   2.0000     -10.337007      -281.2843
  28   2.0000     -10.336009      -281.2571
  29   2.0000     -10.329828      -281.0889
  30   2.0000     -10.315588      -280.7014
  31   2.0000     -10.312981      -280.6305
  32   2.0000     -10.312426      -280.6154
  33   2.0000     -10.309177      -280.5270
  34   2.0000     -10.302774      -280.3527
  35   2.0000     -10.302734      -280.3516
  36   2.0000     -10.302121      -280.3350
  37   2.0000     -10.301183      -280.3094
  38   2.0000     -10.299470      -280.2628
  39   2.0000     -10.299453      -280.2624
  40   2.0000     -10.297859      -280.2190
  41   2.0000     -10.296693      -280.1873
  42   2.0000     -10.296488      -280.1817
  43   2.0000     -10.291242      -280.0389
  44   2.0000     -10.290645      -280.0227
  45   2.0000     -10.290542      -280.0199
  46   2.0000     -10.289616      -279.9947
  47   2.0000     -10.289396      -279.9887
  48   2.0000     -10.287166      -279.9280
  49   2.0000     -10.282656      -279.8053
  50   2.0000     -10.282643      -279.8050
  51   2.0000     -10.282205      -279.7930
  52   2.0000     -10.280114      -279.7361
  53   2.0000     -10.274156      -279.5740
  54   2.0000     -10.268334      -279.4156
  55   2.0000     -10.264399      -279.3085
  56   2.0000     -10.263100      -279.2732
  57   2.0000     -10.263046      -279.2717
  58   2.0000     -10.260304      -279.1971
  59   2.0000     -10.259199      -279.1670
  60   2.0000     -10.253999      -279.0255
  61   2.0000     -10.252723      -278.9908
  62   2.0000     -10.240846      -278.6676
  63   2.0000      -8.077043      -219.7875
  64   2.0000      -6.046136      -164.5237
  65   2.0000      -6.041630      -164.4011
  66   2.0000      -6.039807      -164.3515
  67   2.0000      -1.328467       -36.1494
  68   2.0000      -1.242866       -33.8201
  69   2.0000      -1.145860       -31.1804
  70   2.0000      -1.135998       -30.9121
  71   2.0000      -1.133450       -30.8427
  72   2.0000      -1.129950       -30.7475
  73   2.0000      -1.127787       -30.6886
  74   2.0000      -1.124202       -30.5911
  75   2.0000      -1.122659       -30.5491
  76   2.0000      -1.065898       -29.0046
  77   2.0000      -1.061821       -28.8936
  78   2.0000      -1.056352       -28.7448
  79   2.0000      -1.052309       -28.6348
  80   2.0000      -1.041872       -28.3508
  81   2.0000      -1.003863       -27.3165
  82   2.0000      -0.969688       -26.3865
  83   2.0000      -0.954928       -25.9849
  84   2.0000      -0.939839       -25.5743
  85   2.0000      -0.928878       -25.2761
  86   2.0000      -0.924449       -25.1555
  87   2.0000      -0.911747       -24.8099
  88   2.0000      -0.908254       -24.7148
  89   2.0000      -0.906753       -24.6740
  90   2.0000      -0.880778       -23.9672
  91   2.0000      -0.876788       -23.8586
  92   2.0000      -0.871735       -23.7211
  93   2.0000      -0.869866       -23.6702
  94   2.0000      -0.859096       -23.3772
  95   2.0000      -0.851093       -23.1594
  96   2.0000      -0.849541       -23.1172
  97   2.0000      -0.831729       -22.6325
  98   2.0000      -0.825086       -22.4517
  99   2.0000      -0.823656       -22.4128
 100   2.0000      -0.819414       -22.2974
 101   2.0000      -0.811292       -22.0764
 102   2.0000      -0.794352       -21.6154
 103   2.0000      -0.788693       -21.4614
 104   2.0000      -0.759936       -20.6789
 105   2.0000      -0.756093       -20.5743
 106   2.0000      -0.751126       -20.4392
 107   2.0000      -0.747246       -20.3336
 108   2.0000      -0.741421       -20.1751
 109   2.0000      -0.735803       -20.0222
 110   2.0000      -0.728291       -19.8178
 111   2.0000      -0.712967       -19.4008
 112   2.0000      -0.708220       -19.2716
 113   2.0000      -0.707180       -19.2433
 114   2.0000      -0.703567       -19.1450
 115   2.0000      -0.699100       -19.0235
 116   2.0000      -0.689193       -18.7539
 117   2.0000      -0.678946       -18.4751
 118   2.0000      -0.674734       -18.3605
 119   2.0000      -0.672343       -18.2954
 120   2.0000      -0.659196       -17.9376
 121   2.0000      -0.655385       -17.8339
 122   2.0000      -0.654024       -17.7969
 123   2.0000      -0.648108       -17.6359
 124   2.0000      -0.644114       -17.5272
 125   2.0000      -0.640088       -17.4177
 126   2.0000      -0.634516       -17.2661
 127   2.0000      -0.622602       -16.9419
 128   2.0000      -0.619846       -16.8669
 129   2.0000      -0.609945       -16.5974
 130   2.0000      -0.602022       -16.3819
 131   2.0000      -0.596449       -16.2302
 132   2.0000      -0.591717       -16.1014
 133   2.0000      -0.589188       -16.0326
 134   2.0000      -0.583624       -15.8812
 135   2.0000      -0.581373       -15.8200
 136   2.0000      -0.580492       -15.7960
 137   2.0000      -0.574995       -15.6464
 138   2.0000      -0.573064       -15.5939
 139   2.0000      -0.570365       -15.5204
 140   2.0000      -0.568237       -15.4625
 141   2.0000      -0.565281       -15.3821
 142   2.0000      -0.560776       -15.2595
 143   2.0000      -0.552815       -15.0429
 144   2.0000      -0.546580       -14.8732
 145   2.0000      -0.545697       -14.8492
 146   2.0000      -0.543194       -14.7811
 147   2.0000      -0.540378       -14.7044
 148   2.0000      -0.537884       -14.6366
 149   2.0000      -0.535454       -14.5705
 150   2.0000      -0.532763       -14.4972
 151   2.0000      -0.530430       -14.4337
 152   2.0000      -0.527015       -14.3408
 153   2.0000      -0.521848       -14.2002
 154   2.0000      -0.520977       -14.1765
 155   2.0000      -0.519691       -14.1415
 156   2.0000      -0.518654       -14.1133
 157   2.0000      -0.516849       -14.0642
 158   2.0000      -0.516469       -14.0538
 159   2.0000      -0.516001       -14.0411
 160   2.0000      -0.513008       -13.9597
 161   2.0000      -0.506906       -13.7936
 162   2.0000      -0.504817       -13.7368
 163   2.0000      -0.503062       -13.6890
 164   2.0000      -0.500685       -13.6243
 165   2.0000      -0.495478       -13.4827
 166   2.0000      -0.494243       -13.4490
 167   2.0000      -0.493245       -13.4219
 168   2.0000      -0.491856       -13.3841
 169   2.0000      -0.490607       -13.3501
 170   2.0000      -0.487321       -13.2607
 171   2.0000      -0.484383       -13.1807
 172   2.0000      -0.481060       -13.0903
 173   2.0000      -0.478412       -13.0182
 174   2.0000      -0.475442       -12.9374
 175   2.0000      -0.469160       -12.7665
 176   2.0000      -0.467244       -12.7144
 177   2.0000      -0.464793       -12.6477
 178   2.0000      -0.464138       -12.6298
 179   2.0000      -0.459636       -12.5073
 180   2.0000      -0.456682       -12.4270
 181   2.0000      -0.455120       -12.3844
 182   2.0000      -0.454735       -12.3740
 183   2.0000      -0.452224       -12.3056
 184   2.0000      -0.449526       -12.2322
 185   2.0000      -0.446262       -12.1434
 186   2.0000      -0.445675       -12.1274
 187   2.0000      -0.442684       -12.0460
 188   2.0000      -0.441335       -12.0093
 189   2.0000      -0.439330       -11.9548
 190   2.0000      -0.438090       -11.9210
 191   2.0000      -0.435767       -11.8578
 192   2.0000      -0.430329       -11.7098
 193   2.0000      -0.427695       -11.6382
 194   2.0000      -0.423313       -11.5189
 195   2.0000      -0.422284       -11.4909
 196   2.0000      -0.417879       -11.3711
 197   2.0000      -0.416276       -11.3274
 198   2.0000      -0.414627       -11.2826
 199   2.0000      -0.406794       -11.0694
 200   2.0000      -0.402595       -10.9552
 201   2.0000      -0.400238       -10.8910
 202   2.0000      -0.395431       -10.7602
 203   2.0000      -0.392378       -10.6772
 204   2.0000      -0.384882       -10.4732
 205   2.0000      -0.373720       -10.1694
 206   2.0000      -0.361119        -9.8265
 207   2.0000      -0.351414        -9.5625
 208   2.0000      -0.347916        -9.4673
 209   2.0000      -0.346436        -9.4270
 210   2.0000      -0.345098        -9.3906
 211   2.0000      -0.341815        -9.3013
 212   2.0000      -0.340691        -9.2707
 213   2.0000      -0.334816        -9.1108
 214   2.0000      -0.334121        -9.0919
 215   2.0000      -0.331900        -9.0315
 216   2.0000      -0.329277        -8.9601
 217   2.0000      -0.327719        -8.9177
 218   2.0000      -0.322897        -8.7865
 219   2.0000      -0.321067        -8.7367
 220   2.0000      -0.316587        -8.6148
 221   2.0000      -0.310493        -8.4489
 222   2.0000      -0.296458        -8.0670
 223   2.0000      -0.259391        -7.0584
 224   2.0000      -0.230663        -6.2767
 225   0.0000      -0.100148        -2.7252
 226   0.0000      -0.066669        -1.8141
 227   0.0000      -0.057621        -1.5679
 228   0.0000      -0.050696        -1.3795
 229   0.0000      -0.033042        -0.8991

MULLIKEN ATOMIC CHARGES
-----------------------
   0 C :   -0.103841
   1 S :    0.243358
   2 C :   -0.287913
   3 C :    0.151350
   4 C :   -0.027231
   5 C :    0.143912
   6 O :   -0.150279
   7 C :   -0.032108
   8 C :   -0.016637
   9 C :    0.016311
  10 C :    0.003714
  11 C :    0.065520
  12 C :    0.024260
  13 C :   -0.075920
  14 C :    0.020593
  15 C :    0.099719
  16 O :   -0.164364
  17 C :    0.102570
  18 N :   -0.241243
  19 C :    0.128687
  20 C :   -0.022726
  21 C :    0.176135
  22 O :   -0.221295
  23 C :   -0.067883
  24 C :   -0.039077
  25 C :    0.138039
  26 O :   -0.186889
  27 N :   -0.267812
  28 C :    0.095989
  29 C :    0.010899
  30 C :    0.147242
  31 C :   -0.022393
  32 C :   -0.012175
  33 C :    0.134170
  34 N :   -0.253205
  35 C :    0.094467
  36 C :    0.010678
  37 C :    0.163686
  38 O :   -0.209116
  39 C :   -0.067181
  40 C :   -0.058873
  41 C :    0.162951
  42 O :   -0.217187
  43 N :   -0.257396
  44 C :    0.097252
  45 C :    0.004131
  46 C :    0.133596
  47 C :   -0.026697
  48 C :    0.030138
  49 C :    0.192620
  50 O :   -0.170686
  51 C :    0.135296
  52 C :    0.113424
  53 C :   -0.089049
  54 N :    0.266891
  55 O :   -0.244386
  56 O :   -0.240287
  57 C :   -0.061133
  58 C :    0.076666
  59 C :    0.000448
  60 C :    0.030433
  61 N :   -0.062305
  62 C :    0.018876
  63 H :    0.041212
  64 H :   -0.000891
  65 H :   -0.018311
  66 H :    0.012863
  67 H :    0.007431
  68 H :    0.013763
  69 H :    0.021892
  70 H :    0.010296
  71 H :   -0.010437
  72 H :    0.022649
  73 H :    0.021514
  74 H :    0.038866
  75 H :    0.005833
  76 H :    0.037363
  77 H :    0.039687
  78 H :    0.037670
  79 H :    0.018463
  80 H :    0.022918
  81 H :    0.023898
  82 H :   -0.003806
  83 H :   -0.001990
  84 H :    0.043292
  85 H :    0.038881
  86 H :    0.021377
  87 H :    0.024967
  88 H :    0.020467
  89 H :    0.043927
  90 H :    0.024029
  91 H :    0.030039
  92 H :    0.025235
  93 H :    0.015869
  94 H :   -0.026399
  95 H :    0.026552
  96 H :    0.002847
  97 H :    0.002913
  98 H :    0.002024
  99 H :    0.011876
 100 H :    0.014488
Sum of atomic charges:   -0.0000000

LOEWDIN ATOMIC CHARGES
----------------------
   0 C :   -0.132240
   1 S :    0.529757
   2 C :   -0.148985
   3 C :   -0.086124
   4 C :   -0.096681
   5 C :    0.081833
   6 O :   -0.146753
   7 C :   -0.059281
   8 C :    0.019406
   9 C :   -0.009664
  10 C :    0.000223
  11 C :   -0.026727
  12 C :   -0.046315
  13 C :    0.008701
  14 C :   -0.048906
  15 C :    0.087937
  16 O :   -0.138301
  17 C :    0.049497
  18 N :    0.013800
  19 C :    0.041811
  20 C :   -0.068967
  21 C :    0.084599
  22 O :   -0.205963
  23 C :   -0.119704
  24 C :   -0.119513
  25 C :    0.077550
  26 O :   -0.193504
  27 N :   -0.001893
  28 C :    0.036853
  29 C :   -0.058813
  30 C :    0.080107
  31 C :   -0.005790
  32 C :    0.000815
  33 C :    0.070235
  34 N :    0.006259
  35 C :    0.037525
  36 C :   -0.058349
  37 C :    0.079104
  38 O :   -0.200531
  39 C :   -0.119760
  40 C :   -0.114597
  41 C :    0.081175
  42 O :   -0.206537
  43 N :   -0.000052
  44 C :    0.035865
  45 C :   -0.061017
  46 C :    0.075444
  47 C :   -0.041196
  48 C :    0.017346
  49 C :    0.026102
  50 O :    0.046482
  51 C :    0.081354
  52 C :   -0.082114
  53 C :   -0.030917
  54 N :    0.287680
  55 O :   -0.204225
  56 O :   -0.204423
  57 C :   -0.075743
  58 C :    0.034788
  59 C :   -0.042144
  60 C :    0.033723
  61 N :   -0.067886
  62 C :    0.040462
  63 H :    0.036980
  64 H :    0.037389
  65 H :    0.030212
  66 H :    0.030901
  67 H :    0.028592
  68 H :    0.025059
  69 H :    0.026019
  70 H :    0.024014
  71 H :    0.033272
  72 H :    0.025756
  73 H :    0.028597
  74 H :    0.023770
  75 H :    0.023477
  76 H :    0.027680
  77 H :    0.029773
  78 H :    0.035633
  79 H :    0.023892
  80 H :    0.031490
  81 H :    0.029014
  82 H :    0.035421
  83 H :    0.036685
  84 H :    0.031394
  85 H :    0.035926
  86 H :    0.024821
  87 H :    0.032571
  88 H :    0.027855
  89 H :    0.037950
  90 H :    0.023007
  91 H :    0.032721
  92 H :    0.031394
  93 H :    0.021918
  94 H :    0.028910
  95 H :    0.046410
  96 H :    0.040789
  97 H :    0.031591
  98 H :    0.035735
  99 H :    0.024560
 100 H :    0.026007

  Mayer bond orders larger than 0.100000
B(  0-C ,  1-S ) :   1.1945 B(  0-C ,  4-C ) :   1.5470 B(  0-C , 63-H ) :   0.9659
B(  1-S ,  2-C ) :   1.2143 B(  2-C ,  3-C ) :   1.4840 B(  2-C , 17-C ) :   1.0370
B(  3-C ,  4-C ) :   1.2019 B(  3-C , 15-C ) :   0.9540 B(  4-C ,  5-C ) :   0.9434
B(  5-C ,  6-O ) :   2.2625 B(  5-C ,  7-C ) :   0.9325 B(  7-C ,  8-C ) :   1.3986
B(  7-C , 14-C ) :   1.3354 B(  8-C ,  9-C ) :   1.3529 B(  8-C , 64-H ) :   0.9953
B(  9-C , 10-C ) :   1.3646 B(  9-C , 65-H ) :   0.9959 B( 10-C , 11-C ) :   1.0360
B( 10-C , 13-C ) :   1.3317 B( 11-C , 12-C ) :   1.0990 B( 11-C , 66-H ) :   0.9355
B( 11-C , 67-H ) :   0.9338 B( 12-C , 68-H ) :   0.9704 B( 12-C , 69-H ) :   0.9690
B( 12-C , 70-H ) :   0.9694 B( 13-C , 14-C ) :   1.3805 B( 13-C , 71-H ) :   1.0038
B( 14-C , 15-C ) :   0.9362 B( 15-C , 16-O ) :   2.1437 B( 17-C , 18-N ) :   1.2170
B( 17-C , 24-C ) :   1.4391 B( 18-N , 19-C ) :   0.9388 B( 18-N , 21-C ) :   1.0551
B( 19-C , 20-C ) :   1.1046 B( 19-C , 72-H ) :   0.9488 B( 19-C , 73-H ) :   0.9452
B( 20-C , 74-H ) :   0.9577 B( 20-C , 75-H ) :   0.9629 B( 20-C , 76-H ) :   0.9615
B( 21-C , 22-O ) :   1.9905 B( 21-C , 23-C ) :   1.0059 B( 22-O , 83-H ) :   0.1082
B( 23-C , 24-C ) :   1.2208 B( 23-C , 30-C ) :   1.3324 B( 24-C , 25-C ) :   0.9485
B( 25-C , 26-O ) :   2.1685 B( 25-C , 27-N ) :   1.0340 B( 27-N , 28-C ) :   0.9402
B( 27-N , 30-C ) :   1.1637 B( 28-C , 29-C ) :   1.1263 B( 28-C , 77-H ) :   0.9471
B( 28-C , 78-H ) :   0.9277 B( 29-C , 79-H ) :   0.9668 B( 29-C , 80-H ) :   0.9672
B( 29-C , 81-H ) :   0.9639 B( 30-C , 31-C ) :   1.1517 B( 31-C , 32-C ) :   1.5354
B( 31-C , 82-H ) :   0.9504 B( 32-C , 33-C ) :   1.1565 B( 32-C , 83-H ) :   0.9470
B( 33-C , 34-N ) :   1.1643 B( 33-C , 40-C ) :   1.3193 B( 34-N , 35-C ) :   0.9370
B( 34-N , 37-C ) :   1.0686 B( 35-C , 36-C ) :   1.1265 B( 35-C , 84-H ) :   0.9467
B( 35-C , 85-H ) :   0.9285 B( 36-C , 86-H ) :   0.9668 B( 36-C , 87-H ) :   0.9675
B( 36-C , 88-H ) :   0.9638 B( 37-C , 38-O ) :   2.0335 B( 37-C , 39-C ) :   0.9791
B( 38-O , 95-H ) :   0.1085 B( 39-C , 40-C ) :   1.2594 B( 39-C , 46-C ) :   1.3416
B( 40-C , 41-C ) :   0.9904 B( 41-C , 42-O ) :   2.0149 B( 41-C , 43-N ) :   1.0652
B( 42-O , 82-H ) :   0.1050 B( 43-N , 44-C ) :   0.9463 B( 43-N , 46-C ) :   1.1535
B( 44-C , 45-C ) :   1.1210 B( 44-C , 89-H ) :   0.9278 B( 44-C , 90-H ) :   0.9497
B( 45-C , 91-H ) :   0.9633 B( 45-C , 92-H ) :   0.9680 B( 45-C , 93-H ) :   0.9685
B( 46-C , 47-C ) :   1.1655 B( 47-C , 48-C ) :   1.6049 B( 47-C , 94-H ) :   0.9631
B( 48-C , 49-C ) :   1.1139 B( 48-C , 95-H ) :   0.9419 B( 49-C , 50-O ) :   1.1025
B( 49-C , 53-C ) :   1.4295 B( 50-O , 51-C ) :   1.2192 B( 51-C , 52-C ) :   1.4017
B( 51-C , 57-C ) :   1.0294 B( 52-C , 53-C ) :   1.2312 B( 52-C , 54-N ) :   0.9350
B( 53-C , 96-H ) :   1.0160 B( 54-N , 55-O ) :   1.5117 B( 54-N , 56-O ) :   1.5455
B( 55-O , 56-O ) :   0.2625 B( 57-C , 58-C ) :   1.4068 B( 57-C , 62-C ) :   1.3180
B( 58-C , 59-C ) :   1.4275 B( 58-C , 97-H ) :   0.9747 B( 59-C , 60-C ) :   1.3769
B( 59-C , 98-H ) :   0.9742 B( 60-C , 61-N ) :   1.5318 B( 60-C , 99-H ) :   0.9821
B( 61-N , 62-C ) :   1.5765 B( 62-C ,100-H ) :   0.9878

-----------------------------------------------------------------------------
         ABSORPTION SPECTRUM VIA TRANSITION ELECTRIC DIPOLE MOMENTS
-----------------------------------------------------------------------------
State   Energy  Wavelength   fosc         T2         TX        TY        TZ
        (cm-1)    (nm)                  (au**2)     (au)      (au)      (au)
-----------------------------------------------------------------------------
   0   13175.7    759.0   0.994304810  24.84403  -3.12286   3.15789   2.26264
   1   18391.6    543.7   0.016630545   0.29769   0.04174  -0.46361   0.28462
   2   20650.0    484.3   0.009799282   0.15622   0.14587  -0.10963   0.35061
   3   23760.2    420.9   0.029920088   0.41456  -0.15980  -0.58196   0.22437
   4   25059.9    399.0   0.053873456   0.70774   0.21285   0.34521  -0.73706
   5   25642.8    390.0   0.003225574   0.04141   0.09540   0.13033  -0.12379
   6   26102.7    383.1   0.024809754   0.31290   0.08702  -0.54752   0.07454
   7   27458.0    364.2   0.014806252   0.17752  -0.11688  -0.33672   0.22469
   8   27596.3    362.4   0.011812478   0.14092  -0.16613   0.33330  -0.04725
   9   27952.4    357.8   0.438815080   5.16819   0.77193  -2.12644   0.22490
  10   28649.1    349.1   0.008985340   0.10325  -0.14768   0.25186  -0.13420
  11   29569.3    338.2   0.000658905   0.00734  -0.05441   0.01685  -0.06397
  12   29775.5    335.8   0.091703331   1.01392   0.10787  -0.88396   0.46999
  13   31071.6    321.8   0.000778757   0.00825   0.08514  -0.00835  -0.03055
  14   31246.0    320.0   0.024359632   0.25666  -0.35178   0.28999   0.22094
  15   31379.9    318.7   0.017063543   0.17902   0.30592  -0.10533  -0.27265
  16   32127.8    311.3   0.001255335   0.01286   0.04792  -0.10087   0.01983
  17   32685.3    305.9   0.303654495   3.05846   0.75585  -1.40702  -0.71234
  18   33033.5    302.7   0.196602088   1.95934  -0.11441  -1.22630   0.66516
  19   33698.7    296.7   0.067986128   0.66417  -0.11049   0.54316  -0.59745
  20   34026.3    293.9   0.034247054   0.33135   0.34805  -0.44030   0.12783
  21   34599.1    289.0   0.019401985   0.18461  -0.11373   0.35314  -0.21673
  22   35279.2    283.5   0.009927781   0.09264  -0.15073   0.17243   0.20048
  23   35425.5    282.3   0.083110577   0.77235  -0.51942   0.57692   0.41197
  24   35676.1    280.3   0.008201615   0.07568   0.09748  -0.01784  -0.25664
  25   36071.8    277.2   0.065057293   0.59375  -0.27758  -0.07155  -0.71525
  26   36242.7    275.9   0.022650174   0.20574  -0.20940  -0.05588   0.39846
  27   36658.3    272.8   0.008446564   0.07585  -0.07441  -0.22100   0.14655
  28   37699.3    265.3   0.082288987   0.71860  -0.00977   0.46712   0.70732
  29   37863.5    264.1   0.013060039   0.11355  -0.26391   0.20613  -0.03760
  30   38013.6    263.1   0.020347182   0.17621  -0.10079   0.09057  -0.39731
  31   38451.1    260.1   0.211171602   1.80802   0.37450  -1.27415   0.21049
  32   38932.1    256.9   0.139482837   1.17947  -0.08647   1.00988  -0.39005
  33   39022.5    256.3   0.014657909   0.12366  -0.08996   0.12847   0.31474
  34   39275.4    254.6   0.018708399   0.15682  -0.01876  -0.06463  -0.39024
  35   39470.2    253.4   0.019947219   0.16638   0.04750   0.37139  -0.16184
  36   39495.3    253.2   0.012660802   0.10553   0.30594  -0.08865   0.06384
  37   39696.5    251.9   0.341825506   2.83484   0.22940  -1.46235   0.80234
  38   40016.2    249.9   0.038722300   0.31857  -0.10085  -0.50823   0.22381
  39   40094.3    249.4   0.017971186   0.14756  -0.04904  -0.29432   0.24193

FINAL SINGLE POINT ENERGY     -3213.988171757862

DIPOLE MOMENT
-------------
                                X             Y             Z
Electronic contribution:      0.21252      13.97846      30.25675
Nuclear contribution   :     -0.29315     -14.37548     -31.30867
                        -----------------------------------------
Total Dipole Moment    :     -0.08063      -0.39702      -1.05192
                        -----------------------------------------
Magnitude (a.u.)       :      1.12724
Magnitude (Debye)      :      2.86521

Rotational constants in cm-1:     0.002740     0.000344     0.000317
Rotational constants in MHz :    82.130870    10.325720     9.496110

                             ****ORCA TERMINATED NORMALLY****
TOTAL RUN TIME: 0 days 0 hours 8 minutes 23 seconds 863 msec
