                         Program Version 4.2.0 -  RELEASE  -
|  1> # ORCA input file
|  2> # SCF done       -146.447200126603          0.000311613202
|  3> ! CAM-B3LYP def2-SVP def2/J RIJCOSX Grid4 TightSCF
|  4> %maxcore 5000
|  5> %tddft
|  6>     Mode sTDDFT
|  7>     Ethresh 5.0
|  8>     maxcore 5000
|  9> end
| 10>
| 11> %pal
| 12>   nprocs 6
| 13>   end
| 14> * xyz 0 1
| 15>    C        3.91462        -9.79819         5.89692
| 16>    C        2.95110       -10.73829         5.70393
| 17>    S        3.47050       -12.28829         6.25922
| 18>    C        5.02255       -11.65896         6.76343
| 19>   Cl        6.19360       -12.65900         7.46832
| 20>    C        5.10155       -10.32411         6.50346
| 21>    C        6.08395        -9.24954         6.67382
| 22>    O        7.19763        -9.33105         7.15095
| 23>    C        5.42603        -8.03855         6.13731
| 24>    C        4.09632        -8.37835         5.66210
| 25>    C        3.15368        -7.55853         5.09491
| 26>    C        1.90045        -8.06028         4.68563
| 27>    N        0.87615        -8.45056         4.34652
| 28>    C        3.29163        -6.17845         4.85416
| 29>    N        3.34271        -5.05181         4.63301
| 30>    C        5.97431        -6.78463         6.09199
| 31>    C        7.22650        -6.31349         6.51017
| 32>    S        8.54152        -7.22971         7.24986
| 33>    C        9.53176        -5.82313         7.36801
| 34>    C        8.91666        -4.71441         6.88091
| 35>    C        7.60653        -4.97822         6.38804
| 36>    C        7.02943        -3.77049         5.89871
| 37>    C        7.92547        -2.74182         6.06500
| 38>    C        9.18608        -3.27527         6.70285
| 39>    O       10.16799        -2.63645         6.99048
| 40>    C        7.83101        -1.36553         5.75771
| 41>    C        6.76368        -0.75433         5.17708
| 42>    C        6.67735         0.62849         4.89985
| 43>    S        5.23386         1.23207         4.07462
| 44>    C        5.80265         2.85909         4.10410
| 45>    C        7.01335         2.94440         4.70394
| 46>    C        7.52788         1.68842         5.16199
| 47>    C        8.79171         1.93423         5.78296
| 48>    C        9.09365         3.27088         5.73730
| 49>    C        7.98200         4.00756         5.04865
| 50>    O        7.88429         5.19248         4.83295
| 51>    C       10.27411         3.86062         6.27807
| 52>    C       10.56302         5.17676         6.21872
| 53>    C       11.73901         5.80911         6.76635
| 54>    C       11.94966         7.17106         6.53632
| 55>    C       13.08126         7.79613         7.04826
| 56>    C       13.94955         7.02248         7.82541
| 57>    N       13.75356         5.74255         8.06701
| 58>    C       12.69613         5.14990         7.55185
| 59>    C       13.34217         9.20551         6.81625
| 60>    S       13.73193        10.24082         8.14130
| 61>    C       13.80766        11.62335         7.14726
| 62>    C       13.56046        11.32000         5.82952
| 63>    C       13.30310         9.91797         5.62737
| 64>    C       13.12032         9.44390         4.29511
| 65>    C       13.02010         8.06742         3.99608
| 66>    N       12.97382         6.96342         3.68794
| 67>    C       13.11241        10.34014         3.24726
| 68>    C       13.30292        11.71441         3.45477
| 69>    C       13.54194        12.20983         4.71534
| 70>    C       13.77802        13.58478         4.92508
| 71>    N       13.96926        14.70167         5.10141
| 72>    H        1.97362       -10.63461         5.27643
| 73>    H        5.35620        -6.00310         5.66727
| 74>    H       10.51387        -5.89965         7.79394
| 75>    H        6.04556        -3.69010         5.47144
| 76>    H        8.70483        -0.78854         6.02254
| 77>    H        5.90316        -1.34590         4.89496
| 78>    H        5.20430         3.64066         3.67818
| 79>    H        9.42481         1.18890         6.23001
| 80>    H       10.95500         3.16791         6.75661
| 81>    H        9.87277         5.83718         5.71245
| 82>    H       11.22100         7.73731         5.97309
| 83>    H       14.83888         7.46003         8.26048
| 84>    H       12.59967         4.10103         7.79340
| 85>    H       14.02311        12.58508         7.56814
| 86>    H       12.97182         9.97339         2.24145
| 87>    H       13.28452        12.38562         2.60943
| 88> *
| 89>
| 90>                          ****END OF INPUT****

CARTESIAN COORDINATES (ANGSTROEM)
---------------------------------
  C      3.914620   -9.798190    5.896920
  C      2.951100  -10.738290    5.703930
  S      3.470500  -12.288290    6.259220
  C      5.022550  -11.658960    6.763430
  Cl     6.193600  -12.659000    7.468320
  C      5.101550  -10.324110    6.503460
  C      6.083950   -9.249540    6.673820
  O      7.197630   -9.331050    7.150950
  C      5.426030   -8.038550    6.137310
  C      4.096320   -8.378350    5.662100
  C      3.153680   -7.558530    5.094910
  C      1.900450   -8.060280    4.685630
  N      0.876150   -8.450560    4.346520
  C      3.291630   -6.178450    4.854160
  N      3.342710   -5.051810    4.633010
  C      5.974310   -6.784630    6.091990
  C      7.226500   -6.313490    6.510170
  S      8.541520   -7.229710    7.249860
  C      9.531760   -5.823130    7.368010
  C      8.916660   -4.714410    6.880910
  C      7.606530   -4.978220    6.388040
  C      7.029430   -3.770490    5.898710
  C      7.925470   -2.741820    6.065000
  C      9.186080   -3.275270    6.702850
  O     10.167990   -2.636450    6.990480
  C      7.831010   -1.365530    5.757710
  C      6.763680   -0.754330    5.177080
  C      6.677350    0.628490    4.899850
  S      5.233860    1.232070    4.074620
  C      5.802650    2.859090    4.104100
  C      7.013350    2.944400    4.703940
  C      7.527880    1.688420    5.161990
  C      8.791710    1.934230    5.782960
  C      9.093650    3.270880    5.737300
  C      7.982000    4.007560    5.048650
  O      7.884290    5.192480    4.832950
  C     10.274110    3.860620    6.278070
  C     10.563020    5.176760    6.218720
  C     11.739010    5.809110    6.766350
  C     11.949660    7.171060    6.536320
  C     13.081260    7.796130    7.048260
  C     13.949550    7.022480    7.825410
  N     13.753560    5.742550    8.067010
  C     12.696130    5.149900    7.551850
  C     13.342170    9.205510    6.816250
  S     13.731930   10.240820    8.141300
  C     13.807660   11.623350    7.147260
  C     13.560460   11.320000    5.829520
  C     13.303100    9.917970    5.627370
  C     13.120320    9.443900    4.295110
  C     13.020100    8.067420    3.996080
  N     12.973820    6.963420    3.687940
  C     13.112410   10.340140    3.247260
  C     13.302920   11.714410    3.454770
  C     13.541940   12.209830    4.715340
  C     13.778020   13.584780    4.925080
  N     13.969260   14.701670    5.101410
  H      1.973620  -10.634610    5.276430
  H      5.356200   -6.003100    5.667270
  H     10.513870   -5.899650    7.793940
  H      6.045560   -3.690100    5.471440
  H      8.704830   -0.788540    6.022540
  H      5.903160   -1.345900    4.894960
  H      5.204300    3.640660    3.678180
  H      9.424810    1.188900    6.230010
  H     10.955000    3.167910    6.756610
  H      9.872770    5.837180    5.712450
  H     11.221000    7.737310    5.973090
  H     14.838880    7.460030    8.260480
  H     12.599670    4.101030    7.793400
  H     14.023110   12.585080    7.568140
  H     12.971820    9.973390    2.241450
  H     13.284520   12.385620    2.609430

 Total Charge           Charge          ....    0
 Multiplicity           Mult            ....    1
 Number of Electrons    NEL             ....  420
 Basis Dimension        Dim             ....  898

ORBITAL ENERGIES
----------------

  NO   OCC          E(Eh)            E(eV)
   0   2.0000    -101.619797     -2765.2153
   1   2.0000     -88.995547     -2421.6920
   2   2.0000     -88.988943     -2421.5123
   3   2.0000     -88.970640     -2421.0142
   4   2.0000     -88.966479     -2420.9010
   5   2.0000     -19.230975      -523.3014
   6   2.0000     -19.227558      -523.2085
   7   2.0000     -19.220788      -523.0242
   8   2.0000     -14.428132      -392.6094
   9   2.0000     -14.420611      -392.4048
  10   2.0000     -14.416726      -392.2991
  11   2.0000     -14.413971      -392.2241
  12   2.0000     -14.402680      -391.9168
  13   2.0000     -10.382388      -282.5191
  14   2.0000     -10.378647      -282.4173
  15   2.0000     -10.375616      -282.3349
  16   2.0000     -10.368460      -282.1401
  17   2.0000     -10.352112      -281.6953
  18   2.0000     -10.348447      -281.5955
  19   2.0000     -10.334153      -281.2066
  20   2.0000     -10.333197      -281.1806
  21   2.0000     -10.332835      -281.1707
  22   2.0000     -10.332027      -281.1487
  23   2.0000     -10.331267      -281.1281
  24   2.0000     -10.326693      -281.0036
  25   2.0000     -10.323498      -280.9167
  26   2.0000     -10.323390      -280.9137
  27   2.0000     -10.323378      -280.9134
  28   2.0000     -10.319156      -280.7985
  29   2.0000     -10.318822      -280.7894
  30   2.0000     -10.314796      -280.6799
  31   2.0000     -10.314776      -280.6793
  32   2.0000     -10.313410      -280.6422
  33   2.0000     -10.313225      -280.6371
  34   2.0000     -10.311895      -280.6009
  35   2.0000     -10.311490      -280.5899
  36   2.0000     -10.311179      -280.5815
  37   2.0000     -10.311152      -280.5807
  38   2.0000     -10.310368      -280.5594
  39   2.0000     -10.308204      -280.5005
  40   2.0000     -10.307200      -280.4732
  41   2.0000     -10.306190      -280.4457
  42   2.0000     -10.304839      -280.4089
  43   2.0000     -10.303910      -280.3836
  44   2.0000     -10.302350      -280.3412
  45   2.0000     -10.302334      -280.3408
  46   2.0000     -10.299346      -280.2594
  47   2.0000     -10.297266      -280.2029
  48   2.0000     -10.293812      -280.1089
  49   2.0000     -10.292389      -280.0701
  50   2.0000     -10.290519      -280.0192
  51   2.0000     -10.290365      -280.0151
  52   2.0000     -10.286698      -279.9153
  53   2.0000     -10.286269      -279.9036
  54   2.0000     -10.280600      -279.7493
  55   2.0000     -10.280008      -279.7332
  56   2.0000     -10.277053      -279.6528
  57   2.0000      -9.574552      -260.5368
  58   2.0000      -8.091152      -220.1714
  59   2.0000      -8.084108      -219.9798
  60   2.0000      -8.064422      -219.4441
  61   2.0000      -8.062349      -219.3877
  62   2.0000      -7.345189      -199.8728
  63   2.0000      -7.334579      -199.5840
  64   2.0000      -7.334067      -199.5701
  65   2.0000      -6.060575      -164.9166
  66   2.0000      -6.055930      -164.7902
  67   2.0000      -6.053411      -164.7217
  68   2.0000      -6.052912      -164.7081
  69   2.0000      -6.048545      -164.5893
  70   2.0000      -6.047509      -164.5611
  71   2.0000      -6.034125      -164.1969
  72   2.0000      -6.031870      -164.1355
  73   2.0000      -6.029207      -164.0631
  74   2.0000      -6.027412      -164.0142
  75   2.0000      -6.026347      -163.9852
  76   2.0000      -6.024222      -163.9274
  77   2.0000      -1.144768       -31.1507
  78   2.0000      -1.142884       -31.0995
  79   2.0000      -1.133276       -30.8380
  80   2.0000      -1.040834       -28.3225
  81   2.0000      -1.040496       -28.3133
  82   2.0000      -1.025048       -27.8930
  83   2.0000      -1.022076       -27.8121
  84   2.0000      -1.014796       -27.6140
  85   2.0000      -1.005561       -27.3627
  86   2.0000      -1.002904       -27.2904
  87   2.0000      -1.001213       -27.2444
  88   2.0000      -0.996943       -27.1282
  89   2.0000      -0.991061       -26.9681
  90   2.0000      -0.961769       -26.1711
  91   2.0000      -0.958673       -26.0868
  92   2.0000      -0.950986       -25.8776
  93   2.0000      -0.943691       -25.6791
  94   2.0000      -0.921078       -25.0638
  95   2.0000      -0.914172       -24.8759
  96   2.0000      -0.910793       -24.7840
  97   2.0000      -0.903932       -24.5973
  98   2.0000      -0.898779       -24.4570
  99   2.0000      -0.889814       -24.2131
 100   2.0000      -0.859334       -23.3837
 101   2.0000      -0.852842       -23.2070
 102   2.0000      -0.845855       -23.0169
 103   2.0000      -0.841971       -22.9112
 104   2.0000      -0.835175       -22.7263
 105   2.0000      -0.813916       -22.1478
 106   2.0000      -0.802921       -21.8486
 107   2.0000      -0.795494       -21.6465
 108   2.0000      -0.785664       -21.3790
 109   2.0000      -0.782369       -21.2893
 110   2.0000      -0.759960       -20.6796
 111   2.0000      -0.758116       -20.6294
 112   2.0000      -0.748562       -20.3694
 113   2.0000      -0.743245       -20.2247
 114   2.0000      -0.728177       -19.8147
 115   2.0000      -0.724819       -19.7233
 116   2.0000      -0.706435       -19.2231
 117   2.0000      -0.703718       -19.1491
 118   2.0000      -0.695662       -18.9299
 119   2.0000      -0.683547       -18.6003
 120   2.0000      -0.680238       -18.5102
 121   2.0000      -0.679433       -18.4883
 122   2.0000      -0.652201       -17.7473
 123   2.0000      -0.649725       -17.6799
 124   2.0000      -0.648904       -17.6576
 125   2.0000      -0.642743       -17.4899
 126   2.0000      -0.635373       -17.2894
 127   2.0000      -0.631292       -17.1783
 128   2.0000      -0.620542       -16.8858
 129   2.0000      -0.614511       -16.7217
 130   2.0000      -0.609717       -16.5912
 131   2.0000      -0.606049       -16.4914
 132   2.0000      -0.601065       -16.3558
 133   2.0000      -0.594612       -16.1802
 134   2.0000      -0.588522       -16.0145
 135   2.0000      -0.579462       -15.7680
 136   2.0000      -0.571024       -15.5384
 137   2.0000      -0.565282       -15.3821
 138   2.0000      -0.560424       -15.2499
 139   2.0000      -0.554773       -15.0961
 140   2.0000      -0.553392       -15.0586
 141   2.0000      -0.547529       -14.8990
 142   2.0000      -0.544508       -14.8168
 143   2.0000      -0.541534       -14.7359
 144   2.0000      -0.537201       -14.6180
 145   2.0000      -0.534263       -14.5380
 146   2.0000      -0.532683       -14.4950
 147   2.0000      -0.527739       -14.3605
 148   2.0000      -0.526174       -14.3179
 149   2.0000      -0.525185       -14.2910
 150   2.0000      -0.519016       -14.1231
 151   2.0000      -0.515335       -14.0230
 152   2.0000      -0.512204       -13.9378
 153   2.0000      -0.509282       -13.8583
 154   2.0000      -0.502818       -13.6824
 155   2.0000      -0.502397       -13.6709
 156   2.0000      -0.498820       -13.5736
 157   2.0000      -0.496900       -13.5213
 158   2.0000      -0.496632       -13.5140
 159   2.0000      -0.494290       -13.4503
 160   2.0000      -0.489433       -13.3181
 161   2.0000      -0.486296       -13.2328
 162   2.0000      -0.480083       -13.0637
 163   2.0000      -0.479310       -13.0427
 164   2.0000      -0.477567       -12.9953
 165   2.0000      -0.475483       -12.9385
 166   2.0000      -0.473146       -12.8750
 167   2.0000      -0.471631       -12.8337
 168   2.0000      -0.469358       -12.7719
 169   2.0000      -0.461863       -12.5679
 170   2.0000      -0.461239       -12.5510
 171   2.0000      -0.460073       -12.5192
 172   2.0000      -0.456351       -12.4179
 173   2.0000      -0.454103       -12.3568
 174   2.0000      -0.449902       -12.2425
 175   2.0000      -0.448445       -12.2028
 176   2.0000      -0.447110       -12.1665
 177   2.0000      -0.445334       -12.1181
 178   2.0000      -0.444016       -12.0823
 179   2.0000      -0.441950       -12.0261
 180   2.0000      -0.439158       -11.9501
 181   2.0000      -0.435889       -11.8611
 182   2.0000      -0.427334       -11.6284
 183   2.0000      -0.425966       -11.5911
 184   2.0000      -0.423099       -11.5131
 185   2.0000      -0.422319       -11.4919
 186   2.0000      -0.420429       -11.4405
 187   2.0000      -0.420044       -11.4300
 188   2.0000      -0.419471       -11.4144
 189   2.0000      -0.415885       -11.3168
 190   2.0000      -0.411070       -11.1858
 191   2.0000      -0.404949       -11.0192
 192   2.0000      -0.385856       -10.4997
 193   2.0000      -0.383655       -10.4398
 194   2.0000      -0.380919       -10.3653
 195   2.0000      -0.375879       -10.2282
 196   2.0000      -0.351532        -9.5657
 197   2.0000      -0.345922        -9.4130
 198   2.0000      -0.341033        -9.2800
 199   2.0000      -0.340570        -9.2674
 200   2.0000      -0.338001        -9.1975
 201   2.0000      -0.335197        -9.1212
 202   2.0000      -0.330624        -8.9967
 203   2.0000      -0.329677        -8.9710
 204   2.0000      -0.324158        -8.8208
 205   2.0000      -0.321945        -8.7606
 206   2.0000      -0.302679        -8.2363
 207   2.0000      -0.282890        -7.6978
 208   2.0000      -0.276150        -7.5144
 209   2.0000      -0.250884        -6.8269
 210   0.0000      -0.111763        -3.0412
 211   0.0000      -0.078504        -2.1362
 212   0.0000      -0.076121        -2.0714
 213   0.0000      -0.059031        -1.6063
 214   0.0000      -0.050294        -1.3686

MULLIKEN ATOMIC CHARGES
-----------------------
   0 C :    0.024320
   1 C :   -0.126998
   2 S :    0.185296
   3 C :   -0.172927
   4 Cl:   -0.000344
   5 C :    0.080936
   6 C :    0.164843
   7 O :   -0.155416
   8 C :   -0.108461
   9 C :    0.314096
  10 C :   -0.344360
  11 C :   -0.194422
  12 N :    0.156613
  13 C :   -0.177051
  14 N :    0.139280
  15 C :   -0.057940
  16 C :   -0.092279
  17 S :    0.197910
  18 C :   -0.092932
  19 C :    0.012735
  20 C :    0.085836
  21 C :   -0.028414
  22 C :   -0.021303
  23 C :    0.157370
  24 O :   -0.120929
  25 C :    0.000047
  26 C :    0.081687
  27 C :   -0.146651
  28 S :    0.128328
  29 C :   -0.110684
  30 C :    0.003542
  31 C :    0.117562
  32 C :   -0.039212
  33 C :   -0.000890
  34 C :    0.169494
  35 O :   -0.131120
  36 C :   -0.016901
  37 C :    0.011340
  38 C :    0.077007
  39 C :    0.003840
  40 C :    0.013078
  41 C :    0.001062
  42 N :   -0.049340
  43 C :   -0.006019
  44 C :   -0.199843
  45 S :    0.213537
  46 C :   -0.143960
  47 C :    0.090151
  48 C :    0.190588
  49 C :   -0.081659
  50 C :   -0.211083
  51 N :    0.139782
  52 C :    0.011678
  53 C :    0.018539
  54 C :   -0.048346
  55 C :   -0.188976
  56 N :    0.126642
  57 H :    0.053783
  58 H :   -0.002780
  59 H :    0.038495
  60 H :    0.014512
  61 H :   -0.022196
  62 H :   -0.009405
  63 H :    0.036824
  64 H :    0.006804
  65 H :   -0.019351
  66 H :    0.007924
  67 H :    0.002421
  68 H :   -0.005397
  69 H :   -0.001187
  70 H :    0.041268
  71 H :    0.005265
  72 H :    0.004340
Sum of atomic charges:   -0.0000000

LOEWDIN ATOMIC CHARGES
----------------------
   0 C :   -0.059227
   1 C :   -0.146821
   2 S :    0.473996
   3 C :   -0.271816
   4 Cl:    0.192009
   5 C :   -0.116134
   6 C :    0.081563
   7 O :   -0.152282
   8 C :   -0.104728
   9 C :    0.078326
  10 C :   -0.146576
  11 C :   -0.016440
  12 N :   -0.054385
  13 C :   -0.016719
  14 N :   -0.061532
  15 C :    0.060137
  16 C :   -0.185567
  17 S :    0.494408
  18 C :   -0.113063
  19 C :   -0.114633
  20 C :   -0.006786
  21 C :    0.009154
  22 C :   -0.037998
  23 C :    0.092461
  24 O :   -0.113892
  25 C :   -0.024106
  26 C :   -0.007059
  27 C :   -0.163001
  28 S :    0.433566
  29 C :   -0.123546
  30 C :   -0.097595
  31 C :   -0.043390
  32 C :    0.017545
  33 C :   -0.045783
  34 C :    0.095308
  35 O :   -0.120073
  36 C :   -0.021941
  37 C :    0.004781
  38 C :   -0.039796
  39 C :    0.032071
  40 C :   -0.075839
  41 C :    0.017722
  42 N :   -0.061729
  43 C :    0.036195
  44 C :   -0.170692
  45 S :    0.530610
  46 C :   -0.191557
  47 C :   -0.038869
  48 C :   -0.039161
  49 C :   -0.047450
  50 C :   -0.028587
  51 N :   -0.043331
  52 C :    0.011592
  53 C :    0.009631
  54 C :   -0.046025
  55 C :   -0.026943
  56 N :   -0.044848
  57 H :    0.038012
  58 H :    0.049858
  59 H :    0.036328
  60 H :    0.033965
  61 H :    0.031713
  62 H :    0.032824
  63 H :    0.035318
  64 H :    0.031925
  65 H :    0.029028
  66 H :    0.033632
  67 H :    0.034149
  68 H :    0.017657
  69 H :    0.020535
  70 H :    0.033829
  71 H :    0.045246
  72 H :    0.044826

  Mayer bond orders larger than 0.100000
B(  0-C ,  1-C ) :   1.5501 B(  0-C ,  5-C ) :   1.2265 B(  0-C ,  9-C ) :   0.9915
B(  1-C ,  2-S ) :   1.1605 B(  1-C , 57-H ) :   0.9533 B(  2-S ,  3-C ) :   1.1475
B(  3-C ,  4-Cl) :   1.1283 B(  3-C ,  5-C ) :   1.4769 B(  5-C ,  6-C ) :   0.9605
B(  6-C ,  7-O ) :   2.1737 B(  6-C ,  8-C ) :   0.9578 B(  8-C ,  9-C ) :   1.0916
B(  8-C , 15-C ) :   1.5361 B(  9-C , 10-C ) :   1.6301 B( 10-C , 11-C ) :   1.1502
B( 10-C , 13-C ) :   1.1450 B( 11-C , 12-N ) :   2.9901 B( 13-C , 14-N ) :   2.9697
B( 15-C , 16-C ) :   1.2631 B( 15-C , 58-H ) :   0.9386 B( 16-C , 17-S ) :   1.0670
B( 16-C , 20-C ) :   1.3638 B( 17-S , 18-C ) :   1.1682 B( 18-C , 19-C ) :   1.5451
B( 18-C , 59-H ) :   0.9657 B( 19-C , 20-C ) :   1.2387 B( 19-C , 23-C ) :   0.9031
B( 20-C , 21-C ) :   1.0845 B( 21-C , 22-C ) :   1.5768 B( 21-C , 60-H ) :   0.9950
B( 22-C , 23-C ) :   0.9269 B( 22-C , 25-C ) :   1.1690 B( 23-C , 24-O ) :   2.2544
B( 25-C , 26-C ) :   1.6098 B( 25-C , 61-H ) :   0.9675 B( 26-C , 27-C ) :   1.1512
B( 26-C , 62-H ) :   0.9597 B( 27-C , 28-S ) :   1.0916 B( 27-C , 31-C ) :   1.4440
B( 28-S , 29-C ) :   1.1540 B( 29-C , 30-C ) :   1.5901 B( 29-C , 63-H ) :   0.9692
B( 30-C , 31-C ) :   1.2247 B( 30-C , 34-C ) :   0.9226 B( 31-C , 32-C ) :   1.0383
B( 32-C , 33-C ) :   1.5971 B( 32-C , 64-H ) :   1.0143 B( 33-C , 34-C ) :   0.9364
B( 33-C , 36-C ) :   1.1221 B( 34-C , 35-O ) :   2.2122 B( 36-C , 37-C ) :   1.6756
B( 36-C , 65-H ) :   0.9748 B( 37-C , 38-C ) :   1.0372 B( 37-C , 66-H ) :   0.9775
B( 38-C , 39-C ) :   1.3716 B( 38-C , 43-C ) :   1.3222 B( 39-C , 40-C ) :   1.3808
B( 39-C , 67-H ) :   0.9901 B( 40-C , 41-C ) :   1.3429 B( 40-C , 44-C ) :   0.9770
B( 41-C , 42-N ) :   1.5583 B( 41-C , 68-H ) :   0.9889 B( 42-N , 43-C ) :   1.5772
B( 43-C , 69-H ) :   0.9823 B( 44-C , 45-S ) :   1.2200 B( 44-C , 46-C ) :   0.1161
B( 44-C , 48-C ) :   1.4300 B( 45-S , 46-C ) :   1.2063 B( 46-C , 47-C ) :   1.4603
B( 46-C , 70-H ) :   0.9506 B( 47-C , 48-C ) :   1.1686 B( 47-C , 54-C ) :   1.1824
B( 48-C , 49-C ) :   1.1886 B( 49-C , 50-C ) :   1.0905 B( 49-C , 52-C ) :   1.5536
B( 50-C , 51-N ) :   3.0270 B( 52-C , 53-C ) :   1.1754 B( 52-C , 71-H ) :   0.9943
B( 53-C , 54-C ) :   1.5503 B( 53-C , 72-H ) :   0.9958 B( 54-C , 55-C ) :   1.0769
B( 55-C , 56-N ) :   3.0399

-----------------------------------------------------------------------------
         ABSORPTION SPECTRUM VIA TRANSITION ELECTRIC DIPOLE MOMENTS
-----------------------------------------------------------------------------
State   Energy  Wavelength   fosc         T2         TX        TY        TZ
        (cm-1)    (nm)                  (au**2)     (au)      (au)      (au)
-----------------------------------------------------------------------------
   0   15261.3    655.3   1.109007527  23.92311   1.61995   4.61380  -0.10839
   1   21478.2    465.6   0.026085653   0.39983   0.46910   0.26082   0.33430
   2   23098.7    432.9   0.272665722   3.88614  -0.69413  -1.84489  -0.02648
   3   24808.1    403.1   0.147260371   1.95419   1.21214   0.55246   0.42391
   4   24968.2    400.5   0.341539134   4.50329   1.83521   0.89823   0.57312
   5   25051.5    399.2   0.083724198   1.10025  -0.39063   0.94450  -0.23577
   6   26604.2    375.9   0.193660058   2.39644  -0.36138  -1.50116  -0.11115
   7   26811.8    373.0   0.000217746   0.00267   0.02354   0.00663  -0.04556
   8   28304.8    353.3   0.043892004   0.51051   0.00220  -0.71316   0.04360
   9   28407.7    352.0   0.053067438   0.61499   0.71194  -0.09477   0.31489
  10   28567.1    350.1   0.164351505   1.89401  -0.32005   1.28640  -0.36980
  11   28763.2    347.7   0.004372628   0.05005  -0.09326   0.19259  -0.06526
  12   29130.5    343.3   0.000487193   0.00551   0.02991   0.00283  -0.06785
  13   29689.1    336.8   0.325198589   3.60601  -0.74604  -1.74569   0.04481
  14   30172.9    331.4   0.089179376   0.97302  -0.64541  -0.71649  -0.20763
  15   30746.8    325.2   0.222444364   2.38175  -0.56642  -1.43484  -0.04647
  16   32641.3    306.4   0.010283148   0.10371  -0.20590   0.22833  -0.09584
  17   32991.4    303.1   0.208521269   2.08078  -0.02168   1.41684  -0.26996
  18   33281.9    300.5   0.011300060   0.11178  -0.04551  -0.33079  -0.01678
  19   33940.9    294.6   0.004961075   0.04812   0.00399  -0.16390   0.14575
  20   34163.9    292.7   0.013854361   0.13350  -0.04096   0.33337  -0.14383
  21   34393.4    290.8   0.077405262   0.74092  -0.30763   0.73834  -0.31802
  22   34856.4    286.9   0.021276985   0.20096  -0.33943   0.27400  -0.10328
  23   35028.2    285.5   0.000106987   0.00101   0.01077  -0.02929   0.00565
  24   35490.6    281.8   0.198988259   1.84582  -0.94130  -0.94468  -0.25951
  25   36038.4    277.5   0.417757709   3.81623   1.44522  -0.95480   0.90329
  26   36286.5    275.6   0.003197196   0.02901   0.00280  -0.07055   0.15499
  27   37503.9    266.6   0.255409929   2.24201  -0.12576   1.44284  -0.38001
  28   37732.8    265.0   0.007006660   0.06113   0.08838   0.21979   0.07081
  29   38285.8    261.2   0.200585374   1.72479  -0.34657  -1.09784  -0.63200
  30   38392.6    260.5   0.035758859   0.30663  -0.05202   0.54021   0.10998
  31   38650.0    258.7   0.094814454   0.80761   0.20796   0.57705  -0.65679
  32   38890.6    257.1   0.000985122   0.00834   0.02967  -0.08198  -0.02717
  33   38924.8    256.9   0.062334745   0.52721   0.04983   0.70486  -0.16703
  34   39235.3    254.9   0.130126346   1.09185   0.93033  -0.09959   0.46522
  35   39473.3    253.3   0.187771783   1.56604  -0.13727  -0.93557   0.81970
  36   39758.3    251.5   0.060611261   0.50188   0.53345   0.14005   0.44463
  37   39938.9    250.4   0.140116795   1.15497   0.98418   0.25709   0.34677
  38   40102.9    249.4   0.109697463   0.90053   0.31356   0.61674  -0.64949

FINAL SINGLE POINT ENERGY     -4235.175400304264

DIPOLE MOMENT
-------------
                                X             Y             Z
Electronic contribution:    -18.30366     -58.31607       5.34041
Nuclear contribution   :     18.05317      56.85116      -4.95257
                        -----------------------------------------
Total Dipole Moment    :     -0.25049      -1.46491       0.38783
                        -----------------------------------------
Magnitude (a.u.)       :      1.53594
Magnitude (Debye)      :      3.90406

Rotational constants in cm-1:     0.004067     0.000265     0.000252
Rotational constants in MHz :   121.913027     7.945065     7.562099

                             ****ORCA TERMINATED NORMALLY****
TOTAL RUN TIME: 0 days 0 hours 5 minutes 25 seconds 585 msec
