                         Program Version 4.2.0 -  RELEASE  -
|  1> # ORCA input file
|  2> # SCF done       -139.109880623142          0.000971721938
|  3> ! CAM-B3LYP def2-SVP def2/J RIJCOSX Grid4 TightSCF
|  4> %maxcore 5000
|  5> %tddft
|  6>     Mode sTDDFT
|  7>     Ethresh 5.0
|  8>     maxcore 5000
|  9> end
| 10>
| 11> %pal
| 12>   nprocs 6
| 13>   end
| 14> * xyz 0 1
| 15>    C        2.52099        -8.58623         0.13474
| 16>    C        1.67335        -9.63256        -0.05603
| 17>    S        2.40758       -10.86397        -1.01757
| 18>    C        3.89061        -9.95027        -1.17124
| 19>   Cl        5.21043       -10.54955        -2.04695
| 20>    C        3.79106        -8.76678        -0.50347
| 21>    C        4.64034        -7.60062        -0.24681
| 22>    O        5.77217        -7.40603        -0.64125
| 23>    C        3.81864        -6.70311         0.59478
| 24>    C        2.51645        -7.30758         0.81944
| 25>    C        1.45652        -6.81501         1.53695
| 26>    C        0.25464        -7.54380         1.65865
| 27>    N       -0.72797        -8.12534         1.77061
| 28>    C        1.41604        -5.58338         2.21793
| 29>    N        1.31545        -4.59562         2.79645
| 30>    C        4.21991        -5.49888         1.10721
| 31>    C        5.44619        -4.82446         1.01269
| 32>    S        6.89567        -5.32502         0.13740
| 33>    C        7.77039        -3.94195         0.67877
| 34>    C        7.02327        -3.13960         1.48087
| 35>    C        5.69732        -3.62172         1.66920
| 36>    C        4.99238        -2.72393         2.52184
| 37>    C        5.82676        -1.69970         2.90438
| 38>    C        7.17943        -1.89704         2.26135
| 39>    O        8.15986        -1.19975         2.36480
| 40>    C        5.49448        -0.64076         3.78254
| 41>    C        6.39310         0.26766         4.24731
| 42>    C        6.10244         1.29607         5.16576
| 43>    S        4.47201         1.65432         5.74764
| 44>    C        5.04199         2.91499         6.78367
| 45>    C        6.38574         3.05770         6.70086
| 46>    C        6.99803         2.14913         5.78066
| 47>    C        8.40654         2.36587         5.79632
| 48>    C        8.71522         3.35878         6.69189
| 49>    C        7.45190         3.87594         7.32057
| 50>    O        7.33246         4.75180         8.14391
| 51>    C       10.03017         3.80516         6.99965
| 52>    C       10.33179         4.74923         7.92000
| 53>    C       11.67017         5.13278         8.22669
| 54>    O       12.71529         4.54899         7.57978
| 55>    C       13.86516         5.05949         8.04193
| 56>    C       13.56351         6.00147         9.02654
| 57>    C       12.15251         6.04254         9.13631
| 58>    N       14.41946         6.75558         9.86468
| 59>    O       15.61956         6.57570         9.78980
| 60>    O       13.88836         7.53590        10.62760
| 61>    C       15.08442         4.52973         7.46270
| 62>    C       16.27490         5.24950         7.33828
| 63>    C       17.36312         4.63478         6.74554
| 64>    C       17.22734         3.33432         6.28163
| 65>    N       16.10174         2.64548         6.38591
| 66>    C       15.06763         3.22054         6.95723
| 67>    H        0.67177        -9.77167         0.29949
| 68>    H        3.49548        -4.96355         1.70914
| 69>    H        8.79181        -3.80758         0.37801
| 70>    H        3.96765        -2.83615         2.83103
| 71>    H        4.46546        -0.59108         4.12080
| 72>    H        7.42370         0.20323         3.92643
| 73>    H        4.33948         3.45794         7.38541
| 74>    H        9.11769         1.82134         5.20034
| 75>    H       10.83385         3.32443         6.45468
| 76>    H        9.55385         5.24815         8.47658
| 77>    H       11.59488         6.66073         9.80822
| 78>    H       16.34927         6.26355         7.69392
| 79>    H       18.29739         5.16203         6.63717
| 80>    H       18.04763         2.81772         5.80169
| 81>    H       14.17344         2.61672         7.03437
| 82> *
| 83>
| 84>                          ****END OF INPUT****

CARTESIAN COORDINATES (ANGSTROEM)
---------------------------------
  C      2.520990   -8.586230    0.134740
  C      1.673350   -9.632560   -0.056030
  S      2.407580  -10.863970   -1.017570
  C      3.890610   -9.950270   -1.171240
  Cl     5.210430  -10.549550   -2.046950
  C      3.791060   -8.766780   -0.503470
  C      4.640340   -7.600620   -0.246810
  O      5.772170   -7.406030   -0.641250
  C      3.818640   -6.703110    0.594780
  C      2.516450   -7.307580    0.819440
  C      1.456520   -6.815010    1.536950
  C      0.254640   -7.543800    1.658650
  N     -0.727970   -8.125340    1.770610
  C      1.416040   -5.583380    2.217930
  N      1.315450   -4.595620    2.796450
  C      4.219910   -5.498880    1.107210
  C      5.446190   -4.824460    1.012690
  S      6.895670   -5.325020    0.137400
  C      7.770390   -3.941950    0.678770
  C      7.023270   -3.139600    1.480870
  C      5.697320   -3.621720    1.669200
  C      4.992380   -2.723930    2.521840
  C      5.826760   -1.699700    2.904380
  C      7.179430   -1.897040    2.261350
  O      8.159860   -1.199750    2.364800
  C      5.494480   -0.640760    3.782540
  C      6.393100    0.267660    4.247310
  C      6.102440    1.296070    5.165760
  S      4.472010    1.654320    5.747640
  C      5.041990    2.914990    6.783670
  C      6.385740    3.057700    6.700860
  C      6.998030    2.149130    5.780660
  C      8.406540    2.365870    5.796320
  C      8.715220    3.358780    6.691890
  C      7.451900    3.875940    7.320570
  O      7.332460    4.751800    8.143910
  C     10.030170    3.805160    6.999650
  C     10.331790    4.749230    7.920000
  C     11.670170    5.132780    8.226690
  O     12.715290    4.548990    7.579780
  C     13.865160    5.059490    8.041930
  C     13.563510    6.001470    9.026540
  C     12.152510    6.042540    9.136310
  N     14.419460    6.755580    9.864680
  O     15.619560    6.575700    9.789800
  O     13.888360    7.535900   10.627600
  C     15.084420    4.529730    7.462700
  C     16.274900    5.249500    7.338280
  C     17.363120    4.634780    6.745540
  C     17.227340    3.334320    6.281630
  N     16.101740    2.645480    6.385910
  C     15.067630    3.220540    6.957230
  H      0.671770   -9.771670    0.299490
  H      3.495480   -4.963550    1.709140
  H      8.791810   -3.807580    0.378010
  H      3.967650   -2.836150    2.831030
  H      4.465460   -0.591080    4.120800
  H      7.423700    0.203230    3.926430
  H      4.339480    3.457940    7.385410
  H      9.117690    1.821340    5.200340
  H     10.833850    3.324430    6.454680
  H      9.553850    5.248150    8.476580
  H     11.594880    6.660730    9.808220
  H     16.349270    6.263550    7.693920
  H     18.297390    5.162030    6.637170
  H     18.047630    2.817720    5.801690
  H     14.173440    2.616720    7.034370

 Total Charge           Charge          ....    0
 Multiplicity           Mult            ....    1
 Number of Electrons    NEL             ....  384
 Basis Dimension        Dim             ....  819

ORBITAL ENERGIES
----------------

  NO   OCC          E(Eh)            E(eV)
   0   2.0000    -101.620842     -2765.2437
   1   2.0000     -88.996479     -2421.7173
   2   2.0000     -88.972242     -2421.0578
   3   2.0000     -88.968406     -2420.9534
   4   2.0000     -19.314674      -525.5790
   5   2.0000     -19.240849      -523.5701
   6   2.0000     -19.239904      -523.5444
   7   2.0000     -19.234795      -523.4054
   8   2.0000     -19.229160      -523.2520
   9   2.0000     -19.222906      -523.0819
  10   2.0000     -14.651894      -398.6983
  11   2.0000     -14.428630      -392.6230
  12   2.0000     -14.421723      -392.4350
  13   2.0000     -14.404013      -391.9531
  14   2.0000     -10.383782      -282.5571
  15   2.0000     -10.381717      -282.5009
  16   2.0000     -10.379813      -282.4491
  17   2.0000     -10.371488      -282.2225
  18   2.0000     -10.371477      -282.2222
  19   2.0000     -10.353139      -281.7232
  20   2.0000     -10.349850      -281.6337
  21   2.0000     -10.345673      -281.5201
  22   2.0000     -10.334336      -281.2116
  23   2.0000     -10.332980      -281.1747
  24   2.0000     -10.331594      -281.1370
  25   2.0000     -10.329439      -281.0783
  26   2.0000     -10.328739      -281.0593
  27   2.0000     -10.324808      -280.9523
  28   2.0000     -10.324380      -280.9407
  29   2.0000     -10.322999      -280.9031
  30   2.0000     -10.319293      -280.8022
  31   2.0000     -10.315916      -280.7103
  32   2.0000     -10.312077      -280.6059
  33   2.0000     -10.311243      -280.5832
  34   2.0000     -10.309880      -280.5461
  35   2.0000     -10.307716      -280.4872
  36   2.0000     -10.307541      -280.4825
  37   2.0000     -10.305880      -280.4372
  38   2.0000     -10.303649      -280.3765
  39   2.0000     -10.303461      -280.3714
  40   2.0000     -10.300864      -280.3007
  41   2.0000     -10.297841      -280.2185
  42   2.0000     -10.294537      -280.1286
  43   2.0000     -10.294240      -280.1205
  44   2.0000     -10.293802      -280.1086
  45   2.0000     -10.293679      -280.1052
  46   2.0000     -10.291187      -280.0374
  47   2.0000     -10.288513      -279.9647
  48   2.0000     -10.288262      -279.9578
  49   2.0000     -10.287443      -279.9355
  50   2.0000     -10.282782      -279.8087
  51   2.0000     -10.281223      -279.7663
  52   2.0000      -9.575636      -260.5663
  53   2.0000      -8.092187      -220.1996
  54   2.0000      -8.066094      -219.4896
  55   2.0000      -8.064003      -219.4327
  56   2.0000      -7.346278      -199.9024
  57   2.0000      -7.335662      -199.6135
  58   2.0000      -7.335131      -199.5991
  59   2.0000      -6.061595      -164.9444
  60   2.0000      -6.056957      -164.8182
  61   2.0000      -6.054410      -164.7489
  62   2.0000      -6.035777      -164.2418
  63   2.0000      -6.033510      -164.1802
  64   2.0000      -6.030868      -164.1083
  65   2.0000      -6.029085      -164.0597
  66   2.0000      -6.028015      -164.0306
  67   2.0000      -6.025913      -163.9734
  68   2.0000      -1.322818       -35.9957
  69   2.0000      -1.235764       -33.6268
  70   2.0000      -1.147342       -31.2208
  71   2.0000      -1.146408       -31.1953
  72   2.0000      -1.140175       -31.0257
  73   2.0000      -1.135806       -30.9069
  74   2.0000      -1.041917       -28.3520
  75   2.0000      -1.040802       -28.3217
  76   2.0000      -1.022924       -27.8352
  77   2.0000      -1.016573       -27.6623
  78   2.0000      -1.008176       -27.4339
  79   2.0000      -1.003717       -27.3125
  80   2.0000      -0.992191       -26.9989
  81   2.0000      -0.959995       -26.1228
  82   2.0000      -0.953283       -25.9402
  83   2.0000      -0.949037       -25.8246
  84   2.0000      -0.946093       -25.7445
  85   2.0000      -0.928100       -25.2549
  86   2.0000      -0.915277       -24.9060
  87   2.0000      -0.905760       -24.6470
  88   2.0000      -0.900537       -24.5049
  89   2.0000      -0.897448       -24.4208
  90   2.0000      -0.871732       -23.7210
  91   2.0000      -0.849459       -23.1150
  92   2.0000      -0.846779       -23.0420
  93   2.0000      -0.843524       -22.9535
  94   2.0000      -0.836263       -22.7559
  95   2.0000      -0.820031       -22.3142
  96   2.0000      -0.805556       -21.9203
  97   2.0000      -0.795505       -21.6468
  98   2.0000      -0.786008       -21.3884
  99   2.0000      -0.760108       -20.6836
 100   2.0000      -0.753109       -20.4931
 101   2.0000      -0.750657       -20.4264
 102   2.0000      -0.742850       -20.2140
 103   2.0000      -0.729593       -19.8532
 104   2.0000      -0.728053       -19.8113
 105   2.0000      -0.707873       -19.2622
 106   2.0000      -0.703105       -19.1324
 107   2.0000      -0.690228       -18.7820
 108   2.0000      -0.685415       -18.6511
 109   2.0000      -0.681089       -18.5334
 110   2.0000      -0.660571       -17.9750
 111   2.0000      -0.653248       -17.7758
 112   2.0000      -0.647719       -17.6253
 113   2.0000      -0.643475       -17.5099
 114   2.0000      -0.638193       -17.3661
 115   2.0000      -0.634711       -17.2714
 116   2.0000      -0.633127       -17.2283
 117   2.0000      -0.619908       -16.8685
 118   2.0000      -0.617881       -16.8134
 119   2.0000      -0.609139       -16.5755
 120   2.0000      -0.607502       -16.5310
 121   2.0000      -0.597592       -16.2613
 122   2.0000      -0.589509       -16.0413
 123   2.0000      -0.587238       -15.9796
 124   2.0000      -0.581866       -15.8334
 125   2.0000      -0.581147       -15.8138
 126   2.0000      -0.577602       -15.7174
 127   2.0000      -0.567232       -15.4352
 128   2.0000      -0.560679       -15.2569
 129   2.0000      -0.556802       -15.1513
 130   2.0000      -0.556055       -15.1310
 131   2.0000      -0.551292       -15.0014
 132   2.0000      -0.545058       -14.8318
 133   2.0000      -0.541355       -14.7310
 134   2.0000      -0.537099       -14.6152
 135   2.0000      -0.533881       -14.5276
 136   2.0000      -0.528254       -14.3745
 137   2.0000      -0.527897       -14.3648
 138   2.0000      -0.525980       -14.3126
 139   2.0000      -0.519731       -14.1426
 140   2.0000      -0.514911       -14.0114
 141   2.0000      -0.510248       -13.8846
 142   2.0000      -0.509945       -13.8763
 143   2.0000      -0.506242       -13.7755
 144   2.0000      -0.503943       -13.7130
 145   2.0000      -0.501375       -13.6431
 146   2.0000      -0.498348       -13.5607
 147   2.0000      -0.497967       -13.5504
 148   2.0000      -0.494235       -13.4488
 149   2.0000      -0.491077       -13.3629
 150   2.0000      -0.485191       -13.2027
 151   2.0000      -0.479089       -13.0367
 152   2.0000      -0.478187       -13.0121
 153   2.0000      -0.477094       -12.9824
 154   2.0000      -0.473916       -12.8959
 155   2.0000      -0.471854       -12.8398
 156   2.0000      -0.468066       -12.7367
 157   2.0000      -0.461311       -12.5529
 158   2.0000      -0.460285       -12.5250
 159   2.0000      -0.457314       -12.4441
 160   2.0000      -0.452799       -12.3213
 161   2.0000      -0.450748       -12.2655
 162   2.0000      -0.449455       -12.2303
 163   2.0000      -0.443049       -12.0560
 164   2.0000      -0.436664       -11.8822
 165   2.0000      -0.428383       -11.6569
 166   2.0000      -0.426366       -11.6020
 167   2.0000      -0.425983       -11.5916
 168   2.0000      -0.423431       -11.5221
 169   2.0000      -0.421385       -11.4665
 170   2.0000      -0.416746       -11.3402
 171   2.0000      -0.406036       -11.0488
 172   2.0000      -0.394947       -10.7470
 173   2.0000      -0.389323       -10.5940
 174   2.0000      -0.386965       -10.5299
 175   2.0000      -0.386131       -10.5072
 176   2.0000      -0.383090       -10.4244
 177   2.0000      -0.379464       -10.3258
 178   2.0000      -0.369115       -10.0441
 179   2.0000      -0.359395        -9.7796
 180   2.0000      -0.351919        -9.5762
 181   2.0000      -0.347674        -9.4607
 182   2.0000      -0.341709        -9.2984
 183   2.0000      -0.338983        -9.2242
 184   2.0000      -0.335821        -9.1382
 185   2.0000      -0.331058        -9.0085
 186   2.0000      -0.329055        -8.9540
 187   2.0000      -0.323306        -8.7976
 188   2.0000      -0.314420        -8.5558
 189   2.0000      -0.303530        -8.2595
 190   2.0000      -0.275449        -7.4953
 191   2.0000      -0.249714        -6.7951
 192   0.0000      -0.112420        -3.0591
 193   0.0000      -0.077069        -2.0971
 194   0.0000      -0.061421        -1.6713
 195   0.0000      -0.053071        -1.4441
 196   0.0000      -0.051433        -1.3996

MULLIKEN ATOMIC CHARGES
-----------------------
   0 C :    0.024935
   1 C :   -0.127876
   2 S :    0.187208
   3 C :   -0.175610
   4 Cl:    0.000436
   5 C :    0.083496
   6 C :    0.166407
   7 O :   -0.155592
   8 C :   -0.105357
   9 C :    0.312022
  10 C :   -0.341052
  11 C :   -0.194232
  12 N :    0.153374
  13 C :   -0.180127
  14 N :    0.145599
  15 C :   -0.058688
  16 C :   -0.095711
  17 S :    0.198621
  18 C :   -0.092262
  19 C :    0.011161
  20 C :    0.099219
  21 C :   -0.030995
  22 C :    0.004693
  23 C :    0.170772
  24 O :   -0.128242
  25 C :   -0.039334
  26 C :   -0.005758
  27 C :   -0.093131
  28 S :    0.117583
  29 C :   -0.107789
  30 C :    0.018248
  31 C :    0.101045
  32 C :   -0.015284
  33 C :   -0.005938
  34 C :    0.167150
  35 O :   -0.135351
  36 C :   -0.031807
  37 C :   -0.006050
  38 C :    0.198641
  39 O :   -0.191941
  40 C :    0.141195
  41 C :    0.107984
  42 C :   -0.071187
  43 N :    0.267549
  44 O :   -0.249514
  45 O :   -0.238301
  46 C :   -0.058652
  47 C :    0.075947
  48 C :    0.001655
  49 C :    0.030642
  50 N :   -0.063754
  51 C :    0.012001
  52 H :    0.054137
  53 H :    0.000630
  54 H :    0.039163
  55 H :    0.014927
  56 H :   -0.007782
  57 H :    0.019383
  58 H :    0.038763
  59 H :    0.000434
  60 H :   -0.007691
  61 H :    0.025339
  62 H :    0.005359
  63 H :    0.004928
  64 H :    0.000404
  65 H :    0.009273
  66 H :    0.004685
Sum of atomic charges:   -0.0000000

LOEWDIN ATOMIC CHARGES
----------------------
   0 C :   -0.058987
   1 C :   -0.146923
   2 S :    0.475059
   3 C :   -0.271892
   4 Cl:    0.192534
   5 C :   -0.116241
   6 C :    0.081701
   7 O :   -0.152068
   8 C :   -0.103157
   9 C :    0.077657
  10 C :   -0.144702
  11 C :   -0.016040
  12 N :   -0.053538
  13 C :   -0.018436
  14 N :   -0.057799
  15 C :    0.059886
  16 C :   -0.183834
  17 S :    0.495981
  18 C :   -0.113560
  19 C :   -0.113127
  20 C :   -0.009545
  21 C :    0.008847
  22 C :   -0.035930
  23 C :    0.099287
  24 O :   -0.114649
  25 C :   -0.032906
  26 C :   -0.008446
  27 C :   -0.159662
  28 S :    0.426519
  29 C :   -0.115811
  30 C :   -0.100100
  31 C :   -0.045682
  32 C :    0.027382
  33 C :   -0.054034
  34 C :    0.093977
  35 O :   -0.122451
  36 C :   -0.018641
  37 C :   -0.022175
  38 C :    0.034008
  39 O :    0.034364
  40 C :    0.077273
  41 C :   -0.082492
  42 C :   -0.036958
  43 N :    0.287598
  44 O :   -0.209140
  45 O :   -0.201913
  46 C :   -0.073408
  47 C :    0.034581
  48 C :   -0.041885
  49 C :    0.031117
  50 N :   -0.070173
  51 C :    0.034800
  52 H :    0.038146
  53 H :    0.050399
  54 H :    0.036409
  55 H :    0.037193
  56 H :    0.028341
  57 H :    0.039638
  58 H :    0.035755
  59 H :    0.034488
  60 H :    0.032210
  61 H :    0.043590
  62 H :    0.044546
  63 H :    0.032236
  64 H :    0.035344
  65 H :    0.023609
  66 H :    0.021829

  Mayer bond orders larger than 0.100000
B(  0-C ,  1-C ) :   1.5490 B(  0-C ,  5-C ) :   1.2261 B(  0-C ,  9-C ) :   0.9926
B(  1-C ,  2-S ) :   1.1612 B(  1-C , 52-H ) :   0.9533 B(  2-S ,  3-C ) :   1.1488
B(  3-C ,  4-Cl) :   1.1299 B(  3-C ,  5-C ) :   1.4750 B(  5-C ,  6-C ) :   0.9600
B(  6-C ,  7-O ) :   2.1723 B(  6-C ,  8-C ) :   0.9571 B(  8-C ,  9-C ) :   1.0893
B(  8-C , 15-C ) :   1.5394 B(  9-C , 10-C ) :   1.6323 B( 10-C , 11-C ) :   1.1491
B( 10-C , 13-C ) :   1.1449 B( 11-C , 12-N ) :   2.9887 B( 13-C , 14-N ) :   2.9694
B( 15-C , 16-C ) :   1.2590 B( 15-C , 53-H ) :   0.9406 B( 16-C , 17-S ) :   1.0689
B( 16-C , 20-C ) :   1.3682 B( 17-S , 18-C ) :   1.1678 B( 18-C , 19-C ) :   1.5425
B( 18-C , 54-H ) :   0.9663 B( 19-C , 20-C ) :   1.2446 B( 19-C , 23-C ) :   0.9183
B( 20-C , 21-C ) :   1.0647 B( 21-C , 22-C ) :   1.5608 B( 21-C , 55-H ) :   1.0087
B( 22-C , 23-C ) :   0.9268 B( 22-C , 25-C ) :   1.1579 B( 23-C , 24-O ) :   2.2108
B( 25-C , 26-C ) :   1.6082 B( 25-C , 56-H ) :   0.9812 B( 26-C , 27-C ) :   1.1583
B( 26-C , 57-H ) :   0.9640 B( 27-C , 28-S ) :   1.0683 B( 27-C , 31-C ) :   1.4472
B( 28-S , 29-C ) :   1.1522 B( 29-C , 30-C ) :   1.5984 B( 29-C , 58-H ) :   0.9686
B( 30-C , 31-C ) :   1.2034 B( 30-C , 34-C ) :   0.9214 B( 31-C , 32-C ) :   1.0590
B( 32-C , 33-C ) :   1.5826 B( 32-C , 59-H ) :   1.0158 B( 33-C , 34-C ) :   0.9405
B( 33-C , 36-C ) :   1.1162 B( 34-C , 35-O ) :   2.2101 B( 36-C , 37-C ) :   1.6533
B( 36-C , 60-H ) :   0.9866 B( 37-C , 38-C ) :   1.1078 B( 37-C , 61-H ) :   0.9601
B( 38-C , 39-O ) :   1.1042 B( 38-C , 42-C ) :   1.4238 B( 39-O , 40-C ) :   1.2052
B( 40-C , 41-C ) :   1.4208 B( 40-C , 46-C ) :   1.0253 B( 41-C , 42-C ) :   1.2107
B( 41-C , 43-N ) :   0.9357 B( 42-C , 62-H ) :   1.0260 B( 43-N , 44-O ) :   1.5079
B( 43-N , 45-O ) :   1.5533 B( 44-O , 45-O ) :   0.2612 B( 46-C , 47-C ) :   1.4082
B( 46-C , 51-C ) :   1.3204 B( 47-C , 48-C ) :   1.4255 B( 47-C , 63-H ) :   0.9742
B( 48-C , 49-C ) :   1.3777 B( 48-C , 64-H ) :   0.9746 B( 49-C , 50-N ) :   1.5303
B( 49-C , 65-H ) :   0.9820 B( 50-N , 51-C ) :   1.5788 B( 51-C , 66-H ) :   0.9878

-----------------------------------------------------------------------------
         ABSORPTION SPECTRUM VIA TRANSITION ELECTRIC DIPOLE MOMENTS
-----------------------------------------------------------------------------
State   Energy  Wavelength   fosc         T2         TX        TY        TZ
        (cm-1)    (nm)                  (au**2)     (au)      (au)      (au)
-----------------------------------------------------------------------------
   0   15623.7    640.1   1.249108501  26.32036  -2.33413  -3.92948  -2.33053
   1   21467.2    465.8   0.102949038   1.57878  -1.20140   0.06829  -0.36161
   2   23194.7    431.1   0.294622828   4.18171  -1.20616  -1.40401  -0.86928
   3   24701.9    404.8   0.146711517   1.95529  -1.20169  -0.71427   0.03229
   4   25067.8    398.9   0.294570031   3.86854  -1.65543  -1.05927   0.07770
   5   26500.9    377.3   0.000549993   0.00683   0.01032   0.01922   0.07973
   6   26956.3    371.0   0.140429060   1.71503   1.24462  -0.21008  -0.34901
   7   28246.9    354.0   0.011681434   0.13614  -0.07087   0.25572   0.25638
   8   28430.8    351.7   0.226904877   2.62742   0.48363  -1.00416  -1.17694
   9   28585.3    349.8   0.246696740   2.84116  -0.55218  -1.31669  -0.89587
  10   28932.2    345.6   0.002723375   0.03099   0.08261   0.15535   0.00546
  11   29393.0    340.2   0.588445979   6.59080  -1.49456  -1.71040  -1.19651
  12   29884.9    334.6   0.049277851   0.54285  -0.40333   0.61250   0.07081
  13   30927.9    323.3   0.143337653   1.52576  -0.55177  -0.87895  -0.66989
  14   31581.0    316.6   0.023403920   0.24397  -0.32462   0.31746   0.19445
  15   32646.6    306.3   0.075059417   0.75691   0.05958  -0.57299  -0.65195
  16   32752.1    305.3   0.052047907   0.52317   0.04010   0.60071   0.40088
  17   34563.2    289.3   0.083670944   0.79696  -0.09102   0.66821   0.58495
  18   35013.7    285.6   0.005887714   0.05536  -0.20238   0.11390   0.03779
  19   35150.6    284.5   0.443362470   4.15243  -1.85877   0.70069   0.45434
  20   36050.5    277.4   0.110858153   1.01235   0.12978  -0.88896  -0.45306
  21   36285.1    275.6   0.242761038   2.20255  -1.24925   0.61242   0.51659
  22   36678.7    272.6   0.007926408   0.07114   0.15264  -0.10259  -0.19318
  23   36810.7    271.7   0.001887629   0.01688  -0.06901   0.07949   0.07616
  24   37471.5    266.9   0.268485978   2.35883   0.36077  -1.20830  -0.87675
  25   37687.4    265.3   0.000134150   0.00117   0.00967  -0.03252  -0.00453
  26   37904.4    263.8   0.044575573   0.38715   0.42209  -0.33468  -0.31143
  27   38077.2    262.6   0.008023143   0.06937  -0.01657   0.20074   0.16969
  28   38258.9    261.4   0.010288761   0.08853   0.25110   0.12767   0.09582
  29   39317.7    254.3   0.084984261   0.71158  -0.04586  -0.66696  -0.51444
  30   39699.3    251.9   0.174942522   1.45073  -1.07661  -0.51516  -0.16201
  31   40242.2    248.5   0.053971678   0.44153   0.25991  -0.38372  -0.47616

FINAL SINGLE POINT ENERGY     -3778.840164836575

DIPOLE MOMENT
-------------
                                X             Y             Z
Electronic contribution:    -30.31102     -48.81927     -28.76683
Nuclear contribution   :     30.25014      47.31498      26.89405
                        -----------------------------------------
Total Dipole Moment    :     -0.06088      -1.50429      -1.87278
                        -----------------------------------------
Magnitude (a.u.)       :      2.40289
Magnitude (Debye)      :      6.10767

Rotational constants in cm-1:     0.003081     0.000357     0.000324
Rotational constants in MHz :    92.362632    10.698929     9.705041

                             ****ORCA TERMINATED NORMALLY****
TOTAL RUN TIME: 0 days 0 hours 4 minutes 22 seconds 99 msec
