                         Program Version 4.2.0 -  RELEASE  -
|  1> # ORCA input file
|  2> # SCF done       -192.613612830482          0.000348734004
|  3> ! CAM-B3LYP def2-SVP def2/J RIJCOSX Grid4 TightSCF
|  4> %maxcore 5000
|  5> %tddft
|  6>     Mode sTDDFT
|  7>     Ethresh 5.0
|  8>     maxcore 5000
|  9> end
| 10>
| 11> %pal
| 12>   nprocs 6
| 13>   end
| 14> * xyz 0 1
| 15>    C        4.02377        -1.57546        -3.21161
| 16>    O        4.80667        -0.50719        -3.35768
| 17>    C        5.05694        -0.00256        -2.11955
| 18>    C        4.41769        -0.76973        -1.17031
| 19>    C        3.74384        -1.79517        -1.88304
| 20>    C        2.95141        -2.82247        -1.34431
| 21>    N        2.30355        -3.65351        -0.89465
| 22>    C        5.87128         1.15498        -1.95771
| 23>    C        6.44280         1.82384        -2.98806
| 24>    C        7.24806         2.97703        -2.84971
| 25>    S        7.58631         3.67738        -1.30695
| 26>    C        8.55389         4.94982        -1.99463
| 27>    C        8.61240         4.82110        -3.39710
| 28>    C        7.87204         3.70640        -3.88215
| 29>    C        7.83033         3.45802        -5.26174
| 30>    C        8.50117         4.27770        -6.14214
| 31>    C        8.43626         4.01606        -7.57935
| 32>    C        8.36269         2.80886        -8.12368
| 33>    C        9.24621         5.39104        -5.65241
| 34>    C        9.99526         6.27184        -6.60257
| 35>    C        9.29403         5.64604        -4.30547
| 36>    C        9.15490         5.94611        -1.21417
| 37>    C        9.04195         6.01098         0.14426
| 38>    C        9.57692         6.98044         1.02899
| 39>    C        9.29058         6.84646         2.41451
| 40>    C        8.50558         5.79680         3.09825
| 41>    O        7.91367         4.84657         2.65606
| 42>    N        8.53010         6.11885         4.47028
| 43>    C        9.23551         7.29476         4.71763
| 44>    O        9.39167         7.82256         5.78671
| 45>    C        9.72830         7.73995         3.38878
| 46>    C       10.50143         8.84909         3.09002
| 47>    C       10.80529         8.99208         1.74688
| 48>    C       10.38164         8.12121         0.73678
| 49>    C       10.94143         8.66141        -0.51927
| 50>    O       10.87279         8.28644        -1.65454
| 51>    O       11.65416         9.80194        -0.21636
| 52>    C       11.61636        10.06383         1.12581
| 53>    O       12.15882        10.99827         1.62692
| 54>    C        7.94439         5.27334         5.39843
| 55>    C        7.72646         5.58620         6.68439
| 56>    C        7.14830         4.70533         7.65637
| 57>    C        7.38065         3.36437         7.91226
| 58>    N        8.25677         2.47198         7.27359
| 59>    O        8.73607         2.77071         6.19090
| 60>    O        8.50953         1.43189         7.86087
| 61>    C        6.67356         2.97812         9.11267
| 62>    C        6.04408         4.06320         9.61627
| 63>    C        6.29390         5.18664         8.74878
| 64>    C        5.71399         6.43605         8.82258
| 65>    C        5.42389         7.30769         7.72720
| 66>    C        4.54803         8.25815         8.14772
| 67>    C        4.30485         8.09273         9.55396
| 68>    N        3.61050         9.05526        10.29291
| 69>    O        3.71049         9.05646        11.51479
| 70>    O        2.94253         9.86978         9.66977
| 71>    C        5.02896         6.99056        10.00802
| 72>    C        5.21661         6.52544        11.32293
| 73>    S        6.79823         6.00467        11.84385
| 74>    C        6.28935         5.79805        13.47669
| 75>    C        4.91942         6.07821        13.61905
| 76>    C        4.30992         6.48327        12.39711
| 77>    C        2.93135         6.71759        12.35394
| 78>    C        2.17767         6.65573        13.51009
| 79>    C        0.74930         6.95337        13.45505
| 80>    C        0.22536         7.88846        12.67243
| 81>    C        2.79323         6.29963        14.74316
| 82>    C        1.97871         6.24967        15.99758
| 83>    C        4.13222         5.99911        14.78064
| 84>    C        7.19942         5.39828        14.50276
| 85>    C        8.48278         5.08797        14.30164
| 86>    H        3.72192        -2.10662        -4.09305
| 87>    H        4.42579        -0.62565        -0.10981
| 88>    H        6.01630         1.48636        -0.93963
| 89>    H        6.28023         1.46454        -3.99476
| 90>    H        7.25076         2.63101        -5.64056
| 91>    H        8.45857         4.88629        -8.22089
| 92>    H        8.37748         1.90959        -7.53057
| 93>    H        8.30764         2.67357        -9.19009
| 94>    H        9.30399         6.82354        -7.23993
| 95>    H       10.64494         5.67948        -7.24500
| 96>    H       10.60162         6.98996        -6.05712
| 97>    H        9.86201         6.48643        -3.93682
| 98>    H        9.72379         6.68696        -1.75159
| 99>    H        8.46266         5.23534         0.62716
|100>    H       10.84346         9.54446         3.83773
|101>    H        7.64255         4.33271         4.96073
|102>    H        7.97654         6.57502         7.04362
|103>    H        6.67035         1.97566         9.49539
|104>    H        5.37028         4.07205        10.45045
|105>    H        5.75878         7.15786         6.72045
|106>    H        4.09941         9.04046         7.56474
|107>    H        2.44366         6.90536        11.41137
|108>    H        0.11060         6.37988        14.11346
|109>    H        0.83946         8.51588        12.04897
|110>    H       -0.83297         8.08496        12.65628
|111>    H        1.44550         7.18774        16.14091
|112>    H        2.61329         6.07191        16.86193
|113>    H        1.24113         5.44872        15.94441
|114>    H        4.58659         5.70026        15.71335
|115>    H        6.78506         5.35367        15.50062
|116>    H        8.92255         5.11733        13.31841
|117>    H        9.12421         4.79515        15.11315
|118> *
|119>
|120>                          ****END OF INPUT****

CARTESIAN COORDINATES (ANGSTROEM)
---------------------------------
  C      4.023770   -1.575460   -3.211610
  O      4.806670   -0.507190   -3.357680
  C      5.056940   -0.002560   -2.119550
  C      4.417690   -0.769730   -1.170310
  C      3.743840   -1.795170   -1.883040
  C      2.951410   -2.822470   -1.344310
  N      2.303550   -3.653510   -0.894650
  C      5.871280    1.154980   -1.957710
  C      6.442800    1.823840   -2.988060
  C      7.248060    2.977030   -2.849710
  S      7.586310    3.677380   -1.306950
  C      8.553890    4.949820   -1.994630
  C      8.612400    4.821100   -3.397100
  C      7.872040    3.706400   -3.882150
  C      7.830330    3.458020   -5.261740
  C      8.501170    4.277700   -6.142140
  C      8.436260    4.016060   -7.579350
  C      8.362690    2.808860   -8.123680
  C      9.246210    5.391040   -5.652410
  C      9.995260    6.271840   -6.602570
  C      9.294030    5.646040   -4.305470
  C      9.154900    5.946110   -1.214170
  C      9.041950    6.010980    0.144260
  C      9.576920    6.980440    1.028990
  C      9.290580    6.846460    2.414510
  C      8.505580    5.796800    3.098250
  O      7.913670    4.846570    2.656060
  N      8.530100    6.118850    4.470280
  C      9.235510    7.294760    4.717630
  O      9.391670    7.822560    5.786710
  C      9.728300    7.739950    3.388780
  C     10.501430    8.849090    3.090020
  C     10.805290    8.992080    1.746880
  C     10.381640    8.121210    0.736780
  C     10.941430    8.661410   -0.519270
  O     10.872790    8.286440   -1.654540
  O     11.654160    9.801940   -0.216360
  C     11.616360   10.063830    1.125810
  O     12.158820   10.998270    1.626920
  C      7.944390    5.273340    5.398430
  C      7.726460    5.586200    6.684390
  C      7.148300    4.705330    7.656370
  C      7.380650    3.364370    7.912260
  N      8.256770    2.471980    7.273590
  O      8.736070    2.770710    6.190900
  O      8.509530    1.431890    7.860870
  C      6.673560    2.978120    9.112670
  C      6.044080    4.063200    9.616270
  C      6.293900    5.186640    8.748780
  C      5.713990    6.436050    8.822580
  C      5.423890    7.307690    7.727200
  C      4.548030    8.258150    8.147720
  C      4.304850    8.092730    9.553960
  N      3.610500    9.055260   10.292910
  O      3.710490    9.056460   11.514790
  O      2.942530    9.869780    9.669770
  C      5.028960    6.990560   10.008020
  C      5.216610    6.525440   11.322930
  S      6.798230    6.004670   11.843850
  C      6.289350    5.798050   13.476690
  C      4.919420    6.078210   13.619050
  C      4.309920    6.483270   12.397110
  C      2.931350    6.717590   12.353940
  C      2.177670    6.655730   13.510090
  C      0.749300    6.953370   13.455050
  C      0.225360    7.888460   12.672430
  C      2.793230    6.299630   14.743160
  C      1.978710    6.249670   15.997580
  C      4.132220    5.999110   14.780640
  C      7.199420    5.398280   14.502760
  C      8.482780    5.087970   14.301640
  H      3.721920   -2.106620   -4.093050
  H      4.425790   -0.625650   -0.109810
  H      6.016300    1.486360   -0.939630
  H      6.280230    1.464540   -3.994760
  H      7.250760    2.631010   -5.640560
  H      8.458570    4.886290   -8.220890
  H      8.377480    1.909590   -7.530570
  H      8.307640    2.673570   -9.190090
  H      9.303990    6.823540   -7.239930
  H     10.644940    5.679480   -7.245000
  H     10.601620    6.989960   -6.057120
  H      9.862010    6.486430   -3.936820
  H      9.723790    6.686960   -1.751590
  H      8.462660    5.235340    0.627160
  H     10.843460    9.544460    3.837730
  H      7.642550    4.332710    4.960730
  H      7.976540    6.575020    7.043620
  H      6.670350    1.975660    9.495390
  H      5.370280    4.072050   10.450450
  H      5.758780    7.157860    6.720450
  H      4.099410    9.040460    7.564740
  H      2.443660    6.905360   11.411370
  H      0.110600    6.379880   14.113460
  H      0.839460    8.515880   12.048970
  H     -0.832970    8.084960   12.656280
  H      1.445500    7.187740   16.140910
  H      2.613290    6.071910   16.861930
  H      1.241130    5.448720   15.944410
  H      4.586590    5.700260   15.713350
  H      6.785060    5.353670   15.500620
  H      8.922550    5.117330   13.318410
  H      9.124210    4.795150   15.113150

 Total Charge           Charge          ....    0
 Multiplicity           Mult            ....    1
 Number of Electrons    NEL             ....  502
 Basis Dimension        Dim             .... 1162

ORBITAL ENERGIES
----------------

  NO   OCC          E(Eh)            E(eV)
   0   2.0000     -88.978475     -2421.2274
   1   2.0000     -88.972859     -2421.0746
   2   2.0000     -19.317636      -525.6596
   3   2.0000     -19.292563      -524.9773
   4   2.0000     -19.243172      -523.6333
   5   2.0000     -19.238854      -523.5158
   6   2.0000     -19.238788      -523.5140
   7   2.0000     -19.237978      -523.4920
   8   2.0000     -19.228925      -523.2456
   9   2.0000     -19.228547      -523.2354
  10   2.0000     -19.223444      -523.0965
  11   2.0000     -19.221060      -523.0316
  12   2.0000     -14.637627      -398.3101
  13   2.0000     -14.630305      -398.1108
  14   2.0000     -14.487453      -394.2236
  15   2.0000     -14.407208      -392.0401
  16   2.0000     -10.438088      -284.0348
  17   2.0000     -10.430645      -283.8323
  18   2.0000     -10.417426      -283.4726
  19   2.0000     -10.416714      -283.4532
  20   2.0000     -10.357944      -281.8540
  21   2.0000     -10.350096      -281.6404
  22   2.0000     -10.339226      -281.3447
  23   2.0000     -10.328105      -281.0420
  24   2.0000     -10.327422      -281.0234
  25   2.0000     -10.326491      -280.9981
  26   2.0000     -10.325610      -280.9741
  27   2.0000     -10.324078      -280.9325
  28   2.0000     -10.321719      -280.8682
  29   2.0000     -10.321595      -280.8649
  30   2.0000     -10.320594      -280.8377
  31   2.0000     -10.320025      -280.8221
  32   2.0000     -10.319866      -280.8178
  33   2.0000     -10.318217      -280.7730
  34   2.0000     -10.318194      -280.7723
  35   2.0000     -10.317624      -280.7568
  36   2.0000     -10.316194      -280.7179
  37   2.0000     -10.314918      -280.6832
  38   2.0000     -10.312454      -280.6161
  39   2.0000     -10.309605      -280.5386
  40   2.0000     -10.308105      -280.4978
  41   2.0000     -10.301437      -280.3164
  42   2.0000     -10.299788      -280.2715
  43   2.0000     -10.296497      -280.1819
  44   2.0000     -10.296421      -280.1799
  45   2.0000     -10.296136      -280.1721
  46   2.0000     -10.292932      -280.0849
  47   2.0000     -10.291782      -280.0536
  48   2.0000     -10.290667      -280.0233
  49   2.0000     -10.290180      -280.0100
  50   2.0000     -10.289723      -279.9976
  51   2.0000     -10.288205      -279.9563
  52   2.0000     -10.286710      -279.9156
  53   2.0000     -10.285346      -279.8785
  54   2.0000     -10.285320      -279.8778
  55   2.0000     -10.284715      -279.8613
  56   2.0000     -10.283138      -279.8184
  57   2.0000     -10.282883      -279.8115
  58   2.0000     -10.282555      -279.8025
  59   2.0000     -10.279774      -279.7269
  60   2.0000     -10.279423      -279.7173
  61   2.0000     -10.278815      -279.7008
  62   2.0000     -10.278286      -279.6864
  63   2.0000     -10.276140      -279.6280
  64   2.0000     -10.275357      -279.6067
  65   2.0000     -10.275163      -279.6014
  66   2.0000     -10.272960      -279.5415
  67   2.0000     -10.270990      -279.4879
  68   2.0000     -10.269321      -279.4424
  69   2.0000     -10.269037      -279.4347
  70   2.0000     -10.265187      -279.3299
  71   2.0000      -8.072986      -219.6771
  72   2.0000      -8.067648      -219.5319
  73   2.0000      -6.041982      -164.4107
  74   2.0000      -6.037855      -164.2984
  75   2.0000      -6.036519      -164.2620
  76   2.0000      -6.035791      -164.2422
  77   2.0000      -6.032605      -164.1555
  78   2.0000      -6.030507      -164.0984
  79   2.0000      -1.307601       -35.5816
  80   2.0000      -1.298981       -35.3471
  81   2.0000      -1.243262       -33.8309
  82   2.0000      -1.236399       -33.6441
  83   2.0000      -1.185143       -32.2494
  84   2.0000      -1.168157       -31.7872
  85   2.0000      -1.161367       -31.6024
  86   2.0000      -1.129408       -30.7327
  87   2.0000      -1.124124       -30.5890
  88   2.0000      -1.115635       -30.3580
  89   2.0000      -1.077424       -29.3182
  90   2.0000      -1.016925       -27.6719
  91   2.0000      -1.007721       -27.4215
  92   2.0000      -1.005048       -27.3487
  93   2.0000      -1.000631       -27.2286
  94   2.0000      -0.992937       -27.0192
  95   2.0000      -0.985942       -26.8289
  96   2.0000      -0.952062       -25.9069
  97   2.0000      -0.950074       -25.8528
  98   2.0000      -0.937023       -25.4977
  99   2.0000      -0.932482       -25.3741
 100   2.0000      -0.926537       -25.2124
 101   2.0000      -0.917363       -24.9627
 102   2.0000      -0.906619       -24.6704
 103   2.0000      -0.902328       -24.5536
 104   2.0000      -0.891065       -24.2471
 105   2.0000      -0.885276       -24.0896
 106   2.0000      -0.881647       -23.9908
 107   2.0000      -0.880682       -23.9646
 108   2.0000      -0.871200       -23.7066
 109   2.0000      -0.863107       -23.4863
 110   2.0000      -0.862345       -23.4656
 111   2.0000      -0.849308       -23.1108
 112   2.0000      -0.848294       -23.0833
 113   2.0000      -0.833930       -22.6924
 114   2.0000      -0.825369       -22.4594
 115   2.0000      -0.820997       -22.3405
 116   2.0000      -0.803734       -21.8707
 117   2.0000      -0.797562       -21.7028
 118   2.0000      -0.794998       -21.6330
 119   2.0000      -0.784466       -21.3464
 120   2.0000      -0.776182       -21.1210
 121   2.0000      -0.769752       -20.9460
 122   2.0000      -0.765141       -20.8206
 123   2.0000      -0.763482       -20.7754
 124   2.0000      -0.753061       -20.4918
 125   2.0000      -0.749783       -20.4026
 126   2.0000      -0.735125       -20.0038
 127   2.0000      -0.723672       -19.6921
 128   2.0000      -0.721154       -19.6236
 129   2.0000      -0.719307       -19.5733
 130   2.0000      -0.712095       -19.3771
 131   2.0000      -0.707406       -19.2495
 132   2.0000      -0.697969       -18.9927
 133   2.0000      -0.689654       -18.7664
 134   2.0000      -0.675051       -18.3691
 135   2.0000      -0.667611       -18.1666
 136   2.0000      -0.664490       -18.0817
 137   2.0000      -0.663497       -18.0547
 138   2.0000      -0.659040       -17.9334
 139   2.0000      -0.651987       -17.7415
 140   2.0000      -0.646811       -17.6006
 141   2.0000      -0.643554       -17.5120
 142   2.0000      -0.637640       -17.3511
 143   2.0000      -0.631351       -17.1799
 144   2.0000      -0.625939       -17.0327
 145   2.0000      -0.624981       -17.0066
 146   2.0000      -0.620690       -16.8898
 147   2.0000      -0.619654       -16.8616
 148   2.0000      -0.618367       -16.8266
 149   2.0000      -0.613928       -16.7058
 150   2.0000      -0.612713       -16.6728
 151   2.0000      -0.608470       -16.5573
 152   2.0000      -0.603118       -16.4117
 153   2.0000      -0.600805       -16.3487
 154   2.0000      -0.598134       -16.2761
 155   2.0000      -0.587905       -15.9977
 156   2.0000      -0.583126       -15.8677
 157   2.0000      -0.579192       -15.7606
 158   2.0000      -0.578366       -15.7381
 159   2.0000      -0.577318       -15.7096
 160   2.0000      -0.575704       -15.6657
 161   2.0000      -0.574573       -15.6349
 162   2.0000      -0.570672       -15.5288
 163   2.0000      -0.566553       -15.4167
 164   2.0000      -0.564602       -15.3636
 165   2.0000      -0.562816       -15.3150
 166   2.0000      -0.554084       -15.0774
 167   2.0000      -0.548683       -14.9304
 168   2.0000      -0.548310       -14.9203
 169   2.0000      -0.544046       -14.8042
 170   2.0000      -0.541477       -14.7344
 171   2.0000      -0.541137       -14.7251
 172   2.0000      -0.538795       -14.6614
 173   2.0000      -0.531494       -14.4627
 174   2.0000      -0.531021       -14.4498
 175   2.0000      -0.528182       -14.3726
 176   2.0000      -0.526786       -14.3346
 177   2.0000      -0.525403       -14.2969
 178   2.0000      -0.520156       -14.1542
 179   2.0000      -0.518519       -14.1096
 180   2.0000      -0.517216       -14.0742
 181   2.0000      -0.514304       -13.9949
 182   2.0000      -0.513931       -13.9848
 183   2.0000      -0.510333       -13.8869
 184   2.0000      -0.506640       -13.7864
 185   2.0000      -0.505985       -13.7686
 186   2.0000      -0.505612       -13.7584
 187   2.0000      -0.503861       -13.7107
 188   2.0000      -0.500518       -13.6198
 189   2.0000      -0.497703       -13.5432
 190   2.0000      -0.497459       -13.5366
 191   2.0000      -0.495076       -13.4717
 192   2.0000      -0.492075       -13.3901
 193   2.0000      -0.491176       -13.3656
 194   2.0000      -0.490527       -13.3479
 195   2.0000      -0.489845       -13.3293
 196   2.0000      -0.486738       -13.2448
 197   2.0000      -0.484333       -13.1794
 198   2.0000      -0.483251       -13.1499
 199   2.0000      -0.480502       -13.0751
 200   2.0000      -0.470967       -12.8157
 201   2.0000      -0.469830       -12.7847
 202   2.0000      -0.467132       -12.7113
 203   2.0000      -0.463772       -12.6199
 204   2.0000      -0.463116       -12.6020
 205   2.0000      -0.459058       -12.4916
 206   2.0000      -0.457921       -12.4607
 207   2.0000      -0.453177       -12.3316
 208   2.0000      -0.452966       -12.3258
 209   2.0000      -0.448287       -12.1985
 210   2.0000      -0.436813       -11.8863
 211   2.0000      -0.434760       -11.8304
 212   2.0000      -0.431804       -11.7500
 213   2.0000      -0.430970       -11.7273
 214   2.0000      -0.426223       -11.5981
 215   2.0000      -0.424808       -11.5596
 216   2.0000      -0.424150       -11.5417
 217   2.0000      -0.421941       -11.4816
 218   2.0000      -0.420442       -11.4408
 219   2.0000      -0.416904       -11.3445
 220   2.0000      -0.416506       -11.3337
 221   2.0000      -0.415388       -11.3033
 222   2.0000      -0.410004       -11.1568
 223   2.0000      -0.400213       -10.8904
 224   2.0000      -0.395443       -10.7606
 225   2.0000      -0.394831       -10.7439
 226   2.0000      -0.384910       -10.4739
 227   2.0000      -0.378961       -10.3120
 228   2.0000      -0.377154       -10.2629
 229   2.0000      -0.374297       -10.1851
 230   2.0000      -0.372871       -10.1463
 231   2.0000      -0.371563       -10.1107
 232   2.0000      -0.369951       -10.0669
 233   2.0000      -0.368259       -10.0208
 234   2.0000      -0.365537        -9.9468
 235   2.0000      -0.365290        -9.9400
 236   2.0000      -0.362927        -9.8757
 237   2.0000      -0.357222        -9.7205
 238   2.0000      -0.356495        -9.7007
 239   2.0000      -0.353758        -9.6262
 240   2.0000      -0.343092        -9.3360
 241   2.0000      -0.332939        -9.0597
 242   2.0000      -0.328889        -8.9495
 243   2.0000      -0.323032        -8.7901
 244   2.0000      -0.308664        -8.3992
 245   2.0000      -0.305543        -8.3143
 246   2.0000      -0.302819        -8.2401
 247   2.0000      -0.301760        -8.2113
 248   2.0000      -0.278756        -7.5853
 249   2.0000      -0.246435        -6.7058
 250   2.0000      -0.237143        -6.4530
 251   0.0000      -0.122386        -3.3303
 252   0.0000      -0.094540        -2.5726
 253   0.0000      -0.090808        -2.4710
 254   0.0000      -0.066063        -1.7977
 255   0.0000      -0.042797        -1.1646

MULLIKEN ATOMIC CHARGES
-----------------------
   0 C :    0.136700
   1 O :   -0.179805
   2 C :    0.174185
   3 C :   -0.030130
   4 C :   -0.129533
   5 C :   -0.128276
   6 N :    0.136276
   7 C :   -0.020552
   8 C :   -0.006021
   9 C :   -0.072667
  10 S :    0.145965
  11 C :   -0.101521
  12 C :    0.130734
  13 C :    0.135242
  14 C :   -0.108031
  15 C :    0.086387
  16 C :   -0.038135
  17 C :   -0.012608
  18 C :   -0.076836
  19 C :    0.095239
  20 C :   -0.101955
  21 C :    0.028747
  22 C :   -0.110030
  23 C :    0.135665
  24 C :   -0.053345
  25 C :    0.205862
  26 O :   -0.146246
  27 N :   -0.237264
  28 C :    0.215332
  29 O :   -0.138272
  30 C :   -0.002624
  31 C :   -0.091744
  32 C :   -0.020442
  33 C :   -0.108949
  34 C :    0.250158
  35 O :   -0.122541
  36 O :   -0.227615
  37 C :    0.226518
  38 O :   -0.099243
  39 C :    0.138436
  40 C :   -0.100726
  41 C :    0.060904
  42 C :    0.066606
  43 N :    0.269550
  44 O :   -0.259004
  45 O :   -0.252694
  46 C :    0.002221
  47 C :    0.016023
  48 C :    0.001904
  49 C :    0.031158
  50 C :   -0.011405
  51 C :    0.023388
  52 C :    0.044536
  53 N :    0.266557
  54 O :   -0.257571
  55 O :   -0.270232
  56 C :    0.069412
  57 C :   -0.260211
  58 S :    0.192847
  59 C :   -0.103706
  60 C :    0.119400
  61 C :    0.215638
  62 C :   -0.064286
  63 C :    0.065679
  64 C :   -0.047741
  65 C :   -0.005639
  66 C :   -0.069424
  67 C :    0.097570
  68 C :   -0.097088
  69 C :   -0.002623
  70 C :   -0.010873
  71 H :    0.024797
  72 H :    0.001634
  73 H :    0.012409
  74 H :    0.003390
  75 H :   -0.034385
  76 H :    0.001226
  77 H :    0.019961
  78 H :    0.026275
  79 H :    0.033948
  80 H :    0.033985
  81 H :    0.019529
  82 H :   -0.018066
  83 H :    0.009985
  84 H :    0.009258
  85 H :    0.018225
  86 H :    0.044287
  87 H :    0.047312
  88 H :   -0.002887
  89 H :    0.005518
  90 H :   -0.008553
  91 H :    0.003341
  92 H :   -0.027317
  93 H :   -0.001964
  94 H :    0.036053
  95 H :    0.026055
  96 H :    0.037040
  97 H :    0.009556
  98 H :    0.033416
  99 H :   -0.040866
 100 H :    0.000155
 101 H :    0.033360
 102 H :    0.036097
Sum of atomic charges:   -0.0000000

LOEWDIN ATOMIC CHARGES
----------------------
   0 C :    0.081291
   1 O :    0.030780
   2 C :    0.030789
   3 C :   -0.031984
   4 C :   -0.114079
   5 C :   -0.032186
   6 N :   -0.049438
   7 C :   -0.032382
   8 C :   -0.032035
   9 C :   -0.153663
  10 S :    0.489789
  11 C :   -0.186268
  12 C :   -0.022350
  13 C :   -0.046981
  14 C :   -0.004525
  15 C :   -0.024905
  16 C :   -0.021227
  17 C :   -0.035311
  18 C :   -0.004935
  19 C :   -0.044139
  20 C :   -0.025136
  21 C :    0.016016
  22 C :   -0.076887
  23 C :    0.039687
  24 C :   -0.049273
  25 C :    0.108927
  26 O :   -0.130128
  27 N :   -0.011881
  28 C :    0.100727
  29 O :   -0.126592
  30 C :   -0.022605
  31 C :    0.017979
  32 C :   -0.035835
  33 C :   -0.067596
  34 C :    0.117960
  35 O :   -0.112078
  36 O :   -0.055170
  37 C :    0.099733
  38 O :   -0.097759
  39 C :    0.068592
  40 C :   -0.065239
  41 C :    0.014064
  42 C :   -0.048926
  43 N :    0.284953
  44 O :   -0.215393
  45 O :   -0.217420
  46 C :   -0.002835
  47 C :   -0.053838
  48 C :    0.019216
  49 C :    0.037974
  50 C :   -0.057877
  51 C :    0.030422
  52 C :   -0.078797
  53 N :    0.280225
  54 O :   -0.214217
  55 O :   -0.235951
  56 C :   -0.005782
  57 C :   -0.171662
  58 S :    0.519433
  59 C :   -0.149790
  60 C :   -0.043067
  61 C :   -0.025881
  62 C :    0.009320
  63 C :   -0.009334
  64 C :   -0.028713
  65 C :   -0.018891
  66 C :   -0.009876
  67 C :   -0.043952
  68 C :   -0.022826
  69 C :   -0.041925
  70 C :   -0.020892
  71 H :    0.034182
  72 H :    0.041202
  73 H :    0.036104
  74 H :    0.036784
  75 H :    0.026578
  76 H :    0.029869
  77 H :    0.021623
  78 H :    0.026491
  79 H :    0.036955
  80 H :    0.037204
  81 H :    0.034249
  82 H :    0.032751
  83 H :    0.032337
  84 H :    0.023004
  85 H :    0.051446
  86 H :    0.034908
  87 H :    0.039072
  88 H :    0.034907
  89 H :    0.026769
  90 H :    0.028980
  91 H :    0.037898
  92 H :    0.026631
  93 H :    0.027895
  94 H :    0.027227
  95 H :    0.026499
  96 H :    0.038865
  97 H :    0.030117
  98 H :    0.036292
  99 H :    0.024742
 100 H :    0.037002
 101 H :    0.022053
 102 H :    0.031920

  Mayer bond orders larger than 0.100000
B(  0-C ,  1-O ) :   1.1839 B(  0-C ,  4-C ) :   1.5143 B(  0-C , 71-H ) :   1.0106
B(  1-O ,  2-C ) :   1.1285 B(  2-C ,  3-C ) :   1.4697 B(  2-C ,  7-C ) :   1.1438
B(  3-C ,  4-C ) :   1.2366 B(  3-C , 72-H ) :   1.0210 B(  4-C ,  5-C ) :   1.0820
B(  5-C ,  6-N ) :   3.0550 B(  7-C ,  8-C ) :   1.6278 B(  7-C , 73-H ) :   0.9640
B(  8-C ,  9-C ) :   1.1773 B(  8-C , 74-H ) :   0.9740 B(  9-C , 10-S ) :   1.1652
B(  9-C , 11-C ) :   0.1006 B(  9-C , 13-C ) :   1.2879 B( 10-S , 11-C ) :   1.1055
B( 11-C , 12-C ) :   1.2813 B( 11-C , 21-C ) :   1.2463 B( 12-C , 13-C ) :   1.2122
B( 12-C , 20-C ) :   1.2113 B( 13-C , 14-C ) :   1.1999 B( 14-C , 15-C ) :   1.5145
B( 14-C , 75-H ) :   0.9916 B( 15-C , 16-C ) :   1.0285 B( 15-C , 18-C ) :   1.2053
B( 16-C , 17-C ) :   1.9781 B( 16-C , 76-H ) :   0.9507 B( 17-C , 77-H ) :   0.9583
B( 17-C , 78-H ) :   0.9506 B( 18-C , 19-C ) :   1.0874 B( 18-C , 20-C ) :   1.5396
B( 19-C , 79-H ) :   0.9397 B( 19-C , 80-H ) :   0.9428 B( 19-C , 81-H ) :   0.9547
B( 20-C , 82-H ) :   0.9924 B( 21-C , 22-C ) :   1.5221 B( 21-C , 83-H ) :   0.9468
B( 22-C , 23-C ) :   1.2258 B( 22-C , 84-H ) :   0.9508 B( 23-C , 24-C ) :   1.3017
B( 23-C , 33-C ) :   1.2264 B( 24-C , 25-C ) :   0.9215 B( 24-C , 30-C ) :   1.3961
B( 25-C , 26-O ) :   2.1297 B( 25-C , 27-N ) :   1.0262 B( 27-N , 28-C ) :   1.0304
B( 27-N , 39-C ) :   1.0317 B( 28-C , 29-O ) :   2.2084 B( 28-C , 30-C ) :   0.8745
B( 30-C , 31-C ) :   1.3338 B( 31-C , 32-C ) :   1.3256 B( 31-C , 85-H ) :   1.0273
B( 32-C , 33-C ) :   1.3829 B( 32-C , 37-C ) :   0.8852 B( 33-C , 34-C ) :   0.9389
B( 34-C , 35-O ) :   2.1549 B( 34-C , 36-O ) :   1.0634 B( 36-O , 37-C ) :   1.0487
B( 37-C , 38-O ) :   2.3028 B( 39-C , 40-C ) :   1.7291 B( 39-C , 86-H ) :   0.9622
B( 40-C , 41-C ) :   1.0839 B( 40-C , 87-H ) :   0.9295 B( 41-C , 42-C ) :   1.5550
B( 41-C , 48-C ) :   1.0580 B( 42-C , 43-N ) :   0.9539 B( 42-C , 46-C ) :   1.1104
B( 43-N , 44-O ) :   1.4957 B( 43-N , 45-O ) :   1.5329 B( 44-O , 45-O ) :   0.2559
B( 46-C , 47-C ) :   1.6081 B( 46-C , 88-H ) :   1.0125 B( 47-C , 48-C ) :   1.1069
B( 47-C , 89-H ) :   0.9979 B( 48-C , 49-C ) :   1.4860 B( 49-C , 50-C ) :   1.1429
B( 49-C , 56-C ) :   1.0326 B( 50-C , 51-C ) :   1.5594 B( 50-C , 90-H ) :   1.0037
B( 51-C , 52-C ) :   1.1344 B( 51-C , 91-H ) :   1.0114 B( 52-C , 53-N ) :   0.9733
B( 52-C , 56-C ) :   1.4839 B( 53-N , 54-O ) :   1.4722 B( 53-N , 55-O ) :   1.4924
B( 54-O , 55-O ) :   0.2419 B( 56-C , 57-C ) :   1.1911 B( 57-C , 58-S ) :   1.1302
B( 57-C , 61-C ) :   1.2880 B( 58-S , 59-C ) :   1.1853 B( 59-C , 60-C ) :   1.2929
B( 59-C , 69-C ) :   1.1438 B( 60-C , 61-C ) :   1.2237 B( 60-C , 68-C ) :   1.1893
B( 61-C , 62-C ) :   1.2052 B( 62-C , 63-C ) :   1.4985 B( 62-C , 92-H ) :   0.9854
B( 63-C , 64-C ) :   1.0279 B( 63-C , 66-C ) :   1.2229 B( 64-C , 65-C ) :   1.9725
B( 64-C , 93-H ) :   0.9506 B( 65-C , 94-H ) :   0.9541 B( 65-C , 95-H ) :   0.9519
B( 66-C , 67-C ) :   1.0883 B( 66-C , 68-C ) :   1.5378 B( 67-C , 96-H ) :   0.9417
B( 67-C , 97-H ) :   0.9542 B( 67-C , 98-H ) :   0.9415 B( 68-C , 99-H ) :   0.9881
B( 69-C , 70-C ) :   1.8950 B( 69-C ,100-H ) :   0.9606 B( 70-C ,101-H ) :   0.9579
B( 70-C ,102-H ) :   0.9493

-----------------------------------------------------------------------------
         ABSORPTION SPECTRUM VIA TRANSITION ELECTRIC DIPOLE MOMENTS
-----------------------------------------------------------------------------
State   Energy  Wavelength   fosc         T2         TX        TY        TZ
        (cm-1)    (nm)                  (au**2)     (au)      (au)      (au)
-----------------------------------------------------------------------------
   0    9354.8   1069.0   0.218105874   7.67551  -0.51301   0.23073   2.71277
   1   13883.7    720.3   0.044891771   1.06448  -0.14470  -0.38791  -0.94503
   2   15263.8    655.1   0.232452141   5.01357   1.17974   1.80081   0.61552
   3   15721.9    636.1   0.110137157   2.30624  -0.47049  -0.94452  -1.09213
   4   16922.9    590.9   0.641075360  12.47121  -1.59100  -2.57802  -1.81487
   5   20986.1    476.5   0.079640355   1.24933  -0.16607  -0.54529   0.96146
   6   21486.3    465.4   0.005258637   0.08057  -0.15659   0.02833   0.23506
   7   22166.7    451.1   0.049066526   0.72872  -0.77482   0.10663  -0.34207
   8   22300.1    448.4   0.094400955   1.39362   0.92816  -0.49016   0.54026
   9   24609.8    406.3   0.027543956   0.36846   0.17359   0.13569  -0.56561
  10   25074.8    398.8   0.008393615   0.11020  -0.16006  -0.19281   0.21773
  11   25153.3    397.6   0.026513221   0.34701   0.44818   0.15652   0.34877
  12   26255.4    380.9   0.318019312   3.98759  -0.10852   1.19064  -1.59943
  13   26414.6    378.6   0.140514951   1.75127   0.73763  -0.08246  -1.09562
  14   27847.0    359.1   0.267709065   3.16490  -0.96069  -0.06431   1.49594
  15   28717.0    348.2   0.097423510   1.11687  -0.34911   0.38153   0.92164
  16   28872.1    346.4   0.045115856   0.51443  -0.19049  -0.14881   0.67528
  17   29137.3    343.2   0.181480269   2.05048  -0.08098   0.66054  -1.26791
  18   29398.5    340.2   0.226098235   2.53191  -0.92600   1.13631   0.61906
  19   29632.2    337.5   0.107239768   1.19143  -0.49964  -0.96324  -0.11810
  20   29864.1    334.9   0.047463245   0.52322  -0.25831  -0.23116   0.63487
  21   30107.4    332.1   0.097300591   1.06394   0.08847  -0.40653   0.94385
  22   30810.9    324.6   0.007918906   0.08461  -0.20828   0.13827   0.14870
  23   30946.4    323.1   0.055626243   0.59176   0.65400  -0.28850   0.28428
  24   31176.8    320.8   0.145596653   1.53743  -0.37415  -0.70875   0.94611
  25   31862.6    313.8   0.036404014   0.37614  -0.06043   0.04897   0.60835
  26   32075.7    311.8   0.004762817   0.04888  -0.07569   0.13364   0.15904
  27   32278.9    309.8   0.023624330   0.24094  -0.42518   0.09467  -0.22629
  28   32659.5    306.2   0.068693944   0.69244  -0.59658   0.37264   0.44461
  29   32916.8    303.8   0.027971188   0.27975  -0.17804  -0.15070  -0.47470
  30   33035.0    302.7   0.100767998   1.00421   0.93966  -0.26038  -0.23120
  31   33146.7    301.7   0.013383137   0.13292  -0.33457   0.13857   0.04222
  32   33228.2    300.9   0.372514231   3.69072   0.70462  -1.68919  -0.58383
  33   33466.3    298.8   0.026401573   0.25972  -0.04085  -0.27805  -0.42513
  34   33577.4    297.8   0.033284116   0.32634   0.07167   0.56603   0.02856
  35   33960.3    294.5   0.348989959   3.38312   1.04391   1.27483  -0.81743
  36   34046.7    293.7   0.020644591   0.19962   0.16356  -0.41560   0.01223
  37   34428.4    290.5   0.198424419   1.89738  -0.28118   1.33925   0.15725
  38   34851.7    286.9   0.017332742   0.16373   0.30107   0.27001   0.01334
  39   34995.3    285.8   0.001129707   0.01063  -0.09054   0.04809  -0.01083
  40   35514.7    281.6   0.022347560   0.20716   0.19290   0.29620  -0.28672
  41   35602.3    280.9   0.002980342   0.02756   0.04466  -0.15453   0.04107
  42   35691.4    280.2   0.013068957   0.12055   0.07932  -0.17208   0.29094
  43   35782.1    279.5   0.019555205   0.17992   0.18645   0.32642  -0.19648
  44   35874.5    278.7   0.008734743   0.08016  -0.06953  -0.22190  -0.16150
  45   35923.3    278.4   0.026013998   0.23840  -0.15045   0.38126  -0.26534
  46   36266.3    275.7   0.042937029   0.38977  -0.15466   0.60461   0.01703
  47   36385.5    274.8   0.066873133   0.60506   0.44939  -0.63423  -0.02936
  48   36478.2    274.1   0.001577890   0.01424   0.00327  -0.11004   0.04604
  49   37670.6    265.5   0.032557635   0.28453  -0.41235   0.30533  -0.14585
  50   37748.9    264.9   0.005313656   0.04634  -0.13797  -0.09330   0.13639
  51   38227.8    261.6   0.068798373   0.59248   0.71778  -0.27589  -0.03409
  52   38456.6    260.0   0.345243731   2.95550  -1.62667   0.51909   0.19997
  53   38669.9    258.6   0.019535619   0.16631  -0.23041  -0.20112   0.26977
  54   38821.7    257.6   0.116616705   0.98892  -0.77644   0.40142   0.47426
  55   38935.9    256.8   0.035956622   0.30402  -0.08854   0.10574   0.53386
  56   39195.1    255.1   0.078859696   0.66237  -0.42683   0.50249  -0.47717
  57   39497.8    253.2   0.066193133   0.55172   0.56090   0.28344  -0.39594
  58   39733.1    251.7   0.005486779   0.04546  -0.17796  -0.01876   0.11593
  59   39782.1    251.4   0.007649914   0.06331   0.14796   0.19461   0.05951
  60   40009.1    249.9   0.028182725   0.23190   0.23405  -0.30135  -0.29378
  61   40305.4    248.1   0.009944257   0.08122   0.02862   0.19484  -0.20602

FINAL SINGLE POINT ENERGY     -3878.386508806203

DIPOLE MOMENT
-------------
                                X             Y             Z
Electronic contribution:     22.05839       5.47832      -7.52203
Nuclear contribution   :    -22.42845      -5.86257       7.12956
                        -----------------------------------------
Total Dipole Moment    :     -0.37006      -0.38425      -0.39247
                        -----------------------------------------
Magnitude (a.u.)       :      0.66229
Magnitude (Debye)      :      1.68340

Rotational constants in cm-1:     0.001230     0.000343     0.000294
Rotational constants in MHz :    36.863079    10.277004     8.817937

                             ****ORCA TERMINATED NORMALLY****
TOTAL RUN TIME: 0 days 0 hours 10 minutes 30 seconds 947 msec
