                         Program Version 4.2.0 -  RELEASE  -
|  1> # ORCA input file
|  2> # SCF done       -134.976142809848          0.000732363719
|  3> ! CAM-B3LYP def2-SVP def2/J RIJCOSX Grid4 TightSCF
|  4> %maxcore 5000
|  5> %tddft
|  6>     Mode sTDDFT
|  7>     Ethresh 5.0
|  8>     maxcore 5000
|  9> end
| 10>
| 11> %pal
| 12>   nprocs 6
| 13>   end
| 14> * xyz 0 1
| 15>    C       -5.16230         4.70880         7.07646
| 16>    S       -6.28253         5.54425         8.10493
| 17>    C       -7.59496         5.27952         7.01080
| 18>    C       -7.17664         4.58737         5.92324
| 19>    C       -5.77776         4.25538         5.95440
| 20>    C       -5.45099         3.52563         4.75501
| 21>    C       -6.57167         3.39050         3.98893
| 22>    C       -7.73406         4.05193         4.67604
| 23>    O       -8.86807         4.10743         4.25523
| 24>    C       -6.81675         2.77208         2.73084
| 25>    C       -5.96475         2.11586         1.91374
| 26>    C       -6.42280         1.56512         0.67708
| 27>    O       -7.73755         1.71363         0.35222
| 28>    C       -7.97199         1.13465        -0.83671
| 29>    C       -6.76649         0.59213        -1.30135
| 30>    C       -5.78252         0.87410        -0.32330
| 31>    N       -6.53480        -0.10056        -2.49772
| 32>    O       -7.48033        -0.26580        -3.25587
| 33>    O       -5.40707        -0.49621        -2.71315
| 34>    C       -9.30249         1.19289        -1.31975
| 35>    S       -9.86650         0.52455        -2.84189
| 36>    C      -11.48111         1.06019        -2.53714
| 37>    C      -11.59282         1.70844        -1.35070
| 38>    C      -10.35497         1.79104        -0.64689
| 39>    C      -10.56238         2.48420         0.58230
| 40>    C      -11.87861         2.84598         0.69191
| 41>    C      -12.62775         2.37754        -0.52680
| 42>    O      -13.80306         2.52515        -0.75488
| 43>    C      -12.51140         3.55476         1.75187
| 44>    C      -11.84107         3.99681         2.84147
| 45>    C      -12.37905         4.71392         3.94154
| 46>    O      -13.69322         5.06010         4.03342
| 47>    C      -13.88698         5.72881         5.18419
| 48>    C      -12.65682         5.81712         5.85828
| 49>    C      -11.70309         5.16424         5.05090
| 50>    N      -12.35116         6.41786         7.08526
| 51>    O      -13.24774         6.95649         7.71583
| 52>    O      -11.19182         6.36671         7.45717
| 53>    C      -15.20053         6.17593         5.46249
| 54>    S      -15.66981         7.04216         6.92093
| 55>    C      -17.31102         7.13481         6.39780
| 56>    C      -17.49578         6.54750         5.18937
| 57>    C      -16.30117         5.99656         4.64404
| 58>    C      -16.60763         5.41024         3.37215
| 59>    C      -17.93464         5.56792         3.09540
| 60>    C      -18.59914         6.29983         4.23115
| 61>    O      -19.75830         6.61515         4.34343
| 62>    C      -18.59372         5.10790         1.90394
| 63>    C      -19.89168         5.26676         1.64133
| 64>    H       -4.13807         4.61789         7.37893
| 65>    H       -8.57219         5.65345         7.25431
| 66>    H       -4.46941         3.15410         4.52113
| 67>    H       -7.84815         2.86320         2.41284
| 68>    H       -4.92085         1.98108         2.14890
| 69>    H       -4.75172         0.59257        -0.37786
| 70>    H      -12.24775         0.85785        -3.25994
| 71>    H       -9.79299         2.68294         1.30285
| 72>    H      -13.57272         3.73169         1.64356
| 73>    H      -10.78152         3.81849         2.94325
| 74>    H      -10.66022         5.04129         5.25563
| 75>    H      -18.03757         7.62116         7.01923
| 76>    H      -15.88914         4.92338         2.73796
| 77>    H      -17.95082         4.60139         1.19296
| 78>    H      -20.54947         5.76664         2.33034
| 79>    H      -20.32572         4.89807         0.72778
| 80> *
| 81>
| 82>                          ****END OF INPUT****

CARTESIAN COORDINATES (ANGSTROEM)
---------------------------------
  C     -5.162300    4.708800    7.076460
  S     -6.282530    5.544250    8.104930
  C     -7.594960    5.279520    7.010800
  C     -7.176640    4.587370    5.923240
  C     -5.777760    4.255380    5.954400
  C     -5.450990    3.525630    4.755010
  C     -6.571670    3.390500    3.988930
  C     -7.734060    4.051930    4.676040
  O     -8.868070    4.107430    4.255230
  C     -6.816750    2.772080    2.730840
  C     -5.964750    2.115860    1.913740
  C     -6.422800    1.565120    0.677080
  O     -7.737550    1.713630    0.352220
  C     -7.971990    1.134650   -0.836710
  C     -6.766490    0.592130   -1.301350
  C     -5.782520    0.874100   -0.323300
  N     -6.534800   -0.100560   -2.497720
  O     -7.480330   -0.265800   -3.255870
  O     -5.407070   -0.496210   -2.713150
  C     -9.302490    1.192890   -1.319750
  S     -9.866500    0.524550   -2.841890
  C    -11.481110    1.060190   -2.537140
  C    -11.592820    1.708440   -1.350700
  C    -10.354970    1.791040   -0.646890
  C    -10.562380    2.484200    0.582300
  C    -11.878610    2.845980    0.691910
  C    -12.627750    2.377540   -0.526800
  O    -13.803060    2.525150   -0.754880
  C    -12.511400    3.554760    1.751870
  C    -11.841070    3.996810    2.841470
  C    -12.379050    4.713920    3.941540
  O    -13.693220    5.060100    4.033420
  C    -13.886980    5.728810    5.184190
  C    -12.656820    5.817120    5.858280
  C    -11.703090    5.164240    5.050900
  N    -12.351160    6.417860    7.085260
  O    -13.247740    6.956490    7.715830
  O    -11.191820    6.366710    7.457170
  C    -15.200530    6.175930    5.462490
  S    -15.669810    7.042160    6.920930
  C    -17.311020    7.134810    6.397800
  C    -17.495780    6.547500    5.189370
  C    -16.301170    5.996560    4.644040
  C    -16.607630    5.410240    3.372150
  C    -17.934640    5.567920    3.095400
  C    -18.599140    6.299830    4.231150
  O    -19.758300    6.615150    4.343430
  C    -18.593720    5.107900    1.903940
  C    -19.891680    5.266760    1.641330
  H     -4.138070    4.617890    7.378930
  H     -8.572190    5.653450    7.254310
  H     -4.469410    3.154100    4.521130
  H     -7.848150    2.863200    2.412840
  H     -4.920850    1.981080    2.148900
  H     -4.751720    0.592570   -0.377860
  H    -12.247750    0.857850   -3.259940
  H     -9.792990    2.682940    1.302850
  H    -13.572720    3.731690    1.643560
  H    -10.781520    3.818490    2.943250
  H    -10.660220    5.041290    5.255630
  H    -18.037570    7.621160    7.019230
  H    -15.889140    4.923380    2.737960
  H    -17.950820    4.601390    1.192960
  H    -20.549470    5.766640    2.330340
  H    -20.325720    4.898070    0.727780

 Total Charge           Charge          ....    0
 Multiplicity           Mult            ....    1
 Number of Electrons    NEL             ....  360
 Basis Dimension        Dim             ....  778

ORBITAL ENERGIES
----------------

  NO   OCC          E(Eh)            E(eV)
   0   2.0000     -88.974579     -2421.1214
   1   2.0000     -88.968738     -2420.9624
   2   2.0000     -88.964586     -2420.8494
   3   2.0000     -19.320720      -525.7435
   4   2.0000     -19.315937      -525.6134
   5   2.0000     -19.246884      -523.7343
   6   2.0000     -19.245564      -523.6984
   7   2.0000     -19.245209      -523.6888
   8   2.0000     -19.244966      -523.6821
   9   2.0000     -19.238665      -523.5107
  10   2.0000     -19.220605      -523.0192
  11   2.0000     -19.215630      -522.8839
  12   2.0000     -14.655791      -398.8043
  13   2.0000     -14.655618      -398.7996
  14   2.0000     -10.383749      -282.5562
  15   2.0000     -10.382054      -282.5100
  16   2.0000     -10.379763      -282.4477
  17   2.0000     -10.367315      -282.1090
  18   2.0000     -10.363337      -282.0007
  19   2.0000     -10.357241      -281.8349
  20   2.0000     -10.345247      -281.5085
  21   2.0000     -10.335944      -281.2553
  22   2.0000     -10.330252      -281.1004
  23   2.0000     -10.324854      -280.9536
  24   2.0000     -10.324563      -280.9457
  25   2.0000     -10.321409      -280.8598
  26   2.0000     -10.317864      -280.7633
  27   2.0000     -10.315902      -280.7100
  28   2.0000     -10.314518      -280.6723
  29   2.0000     -10.310071      -280.5513
  30   2.0000     -10.305046      -280.4146
  31   2.0000     -10.301981      -280.3312
  32   2.0000     -10.300350      -280.2868
  33   2.0000     -10.298664      -280.2409
  34   2.0000     -10.298294      -280.2308
  35   2.0000     -10.296404      -280.1794
  36   2.0000     -10.295837      -280.1640
  37   2.0000     -10.294014      -280.1144
  38   2.0000     -10.292447      -280.0717
  39   2.0000     -10.290215      -280.0110
  40   2.0000     -10.289175      -279.9827
  41   2.0000     -10.288017      -279.9512
  42   2.0000     -10.286951      -279.9222
  43   2.0000     -10.284800      -279.8636
  44   2.0000     -10.283988      -279.8415
  45   2.0000     -10.279788      -279.7273
  46   2.0000     -10.274678      -279.5882
  47   2.0000     -10.270608      -279.4775
  48   2.0000     -10.260090      -279.1912
  49   2.0000      -8.070538      -219.6105
  50   2.0000      -8.062422      -219.3896
  51   2.0000      -8.058501      -219.2830
  52   2.0000      -6.040055      -164.3583
  53   2.0000      -6.035301      -164.2289
  54   2.0000      -6.032715      -164.1585
  55   2.0000      -6.032286      -164.1469
  56   2.0000      -6.028397      -164.0410
  57   2.0000      -6.027271      -164.0104
  58   2.0000      -6.024248      -163.9281
  59   2.0000      -6.023324      -163.9030
  60   2.0000      -6.020260      -163.8196
  61   2.0000      -1.325617       -36.0719
  62   2.0000      -1.324996       -36.0550
  63   2.0000      -1.243127       -33.8272
  64   2.0000      -1.235332       -33.6151
  65   2.0000      -1.150494       -31.3065
  66   2.0000      -1.143561       -31.1179
  67   2.0000      -1.142737       -31.0955
  68   2.0000      -1.132761       -30.8240
  69   2.0000      -1.128537       -30.7090
  70   2.0000      -1.011886       -27.5348
  71   2.0000      -1.007574       -27.4175
  72   2.0000      -1.003146       -27.2970
  73   2.0000      -0.958334       -26.0776
  74   2.0000      -0.953505       -25.9462
  75   2.0000      -0.953196       -25.9378
  76   2.0000      -0.944965       -25.7138
  77   2.0000      -0.936754       -25.4904
  78   2.0000      -0.927819       -25.2472
  79   2.0000      -0.916360       -24.9354
  80   2.0000      -0.882036       -24.0014
  81   2.0000      -0.874206       -23.7883
  82   2.0000      -0.864471       -23.5235
  83   2.0000      -0.847714       -23.0675
  84   2.0000      -0.844801       -22.9882
  85   2.0000      -0.842792       -22.9335
  86   2.0000      -0.827095       -22.5064
  87   2.0000      -0.818568       -22.2744
  88   2.0000      -0.798645       -21.7322
  89   2.0000      -0.795927       -21.6583
  90   2.0000      -0.786365       -21.3981
  91   2.0000      -0.764269       -20.7968
  92   2.0000      -0.753437       -20.5021
  93   2.0000      -0.745490       -20.2858
  94   2.0000      -0.734744       -19.9934
  95   2.0000      -0.731549       -19.9064
  96   2.0000      -0.709130       -19.2964
  97   2.0000      -0.703558       -19.1448
  98   2.0000      -0.696621       -18.9560
  99   2.0000      -0.685774       -18.6609
 100   2.0000      -0.672248       -18.2928
 101   2.0000      -0.667621       -18.1669
 102   2.0000      -0.659615       -17.9490
 103   2.0000      -0.656293       -17.8586
 104   2.0000      -0.643756       -17.5175
 105   2.0000      -0.638158       -17.3652
 106   2.0000      -0.637909       -17.3584
 107   2.0000      -0.637042       -17.3348
 108   2.0000      -0.634582       -17.2678
 109   2.0000      -0.629049       -17.1173
 110   2.0000      -0.627834       -17.0842
 111   2.0000      -0.604656       -16.4535
 112   2.0000      -0.601004       -16.3542
 113   2.0000      -0.597508       -16.2590
 114   2.0000      -0.593050       -16.1377
 115   2.0000      -0.588238       -16.0068
 116   2.0000      -0.587055       -15.9746
 117   2.0000      -0.584551       -15.9064
 118   2.0000      -0.583532       -15.8787
 119   2.0000      -0.579578       -15.7711
 120   2.0000      -0.577439       -15.7129
 121   2.0000      -0.575265       -15.6537
 122   2.0000      -0.568572       -15.4716
 123   2.0000      -0.551353       -15.0031
 124   2.0000      -0.548306       -14.9202
 125   2.0000      -0.544304       -14.8113
 126   2.0000      -0.536172       -14.5900
 127   2.0000      -0.533071       -14.5056
 128   2.0000      -0.527790       -14.3619
 129   2.0000      -0.523763       -14.2523
 130   2.0000      -0.523306       -14.2399
 131   2.0000      -0.518887       -14.1196
 132   2.0000      -0.518140       -14.0993
 133   2.0000      -0.516180       -14.0460
 134   2.0000      -0.509299       -13.8587
 135   2.0000      -0.503998       -13.7145
 136   2.0000      -0.500899       -13.6301
 137   2.0000      -0.495782       -13.4909
 138   2.0000      -0.494176       -13.4472
 139   2.0000      -0.491023       -13.3614
 140   2.0000      -0.487599       -13.2682
 141   2.0000      -0.484710       -13.1896
 142   2.0000      -0.474643       -12.9157
 143   2.0000      -0.473109       -12.8739
 144   2.0000      -0.472235       -12.8502
 145   2.0000      -0.469943       -12.7878
 146   2.0000      -0.465828       -12.6758
 147   2.0000      -0.464974       -12.6526
 148   2.0000      -0.463276       -12.6064
 149   2.0000      -0.462374       -12.5818
 150   2.0000      -0.450871       -12.2688
 151   2.0000      -0.438064       -11.9203
 152   2.0000      -0.436338       -11.8734
 153   2.0000      -0.435714       -11.8564
 154   2.0000      -0.429582       -11.6895
 155   2.0000      -0.426597       -11.6083
 156   2.0000      -0.424713       -11.5570
 157   2.0000      -0.407916       -11.1000
 158   2.0000      -0.399017       -10.8578
 159   2.0000      -0.393540       -10.7088
 160   2.0000      -0.393158       -10.6984
 161   2.0000      -0.393103       -10.6969
 162   2.0000      -0.391444       -10.6517
 163   2.0000      -0.388401       -10.5689
 164   2.0000      -0.385158       -10.4807
 165   2.0000      -0.383044       -10.4231
 166   2.0000      -0.367440        -9.9986
 167   2.0000      -0.365906        -9.9568
 168   2.0000      -0.355652        -9.6778
 169   2.0000      -0.354225        -9.6390
 170   2.0000      -0.351920        -9.5762
 171   2.0000      -0.344654        -9.3785
 172   2.0000      -0.335875        -9.1396
 173   2.0000      -0.334552        -9.1036
 174   2.0000      -0.325428        -8.8553
 175   2.0000      -0.314036        -8.5453
 176   2.0000      -0.304824        -8.2947
 177   2.0000      -0.280351        -7.6287
 178   2.0000      -0.266347        -7.2477
 179   2.0000      -0.244989        -6.6665
 180   0.0000      -0.091001        -2.4763
 181   0.0000      -0.078233        -2.1288
 182   0.0000      -0.071279        -1.9396
 183   0.0000      -0.041807        -1.1376
 184   0.0000      -0.036526        -0.9939

MULLIKEN ATOMIC CHARGES
-----------------------
   0 C :   -0.140377
   1 S :    0.127906
   2 C :   -0.122258
   3 C :    0.008186
   4 C :    0.093241
   5 C :    0.006485
   6 C :   -0.015778
   7 C :    0.179244
   8 O :   -0.149079
   9 C :    0.027905
  10 C :    0.001291
  11 C :    0.201193
  12 O :   -0.214760
  13 C :    0.130005
  14 C :    0.087907
  15 C :   -0.077756
  16 N :    0.280218
  17 O :   -0.266373
  18 O :   -0.240992
  19 C :   -0.192698
  20 S :    0.200633
  21 C :   -0.108846
  22 C :    0.012385
  23 C :    0.122854
  24 C :   -0.004589
  25 C :   -0.029098
  26 C :    0.159879
  27 O :   -0.122928
  28 C :    0.007442
  29 C :    0.006166
  30 C :    0.190852
  31 O :   -0.203964
  32 C :    0.126353
  33 C :    0.099014
  34 C :   -0.059367
  35 N :    0.294369
  36 O :   -0.258510
  37 O :   -0.259155
  38 C :   -0.193680
  39 S :    0.190748
  40 C :   -0.100314
  41 C :    0.002764
  42 C :    0.114963
  43 C :   -0.021170
  44 C :   -0.009601
  45 C :    0.163134
  46 O :   -0.124661
  47 C :   -0.039795
  48 C :    0.008717
  49 H :    0.026446
  50 H :    0.052674
  51 H :   -0.007538
  52 H :   -0.001558
  53 H :   -0.005086
  54 H :    0.000195
  55 H :    0.036128
  56 H :   -0.037092
  57 H :   -0.008066
  58 H :    0.000137
  59 H :   -0.023209
  60 H :    0.033973
  61 H :   -0.010587
  62 H :   -0.009891
  63 H :    0.043803
  64 H :    0.021566
Sum of atomic charges:    0.0000000

LOEWDIN ATOMIC CHARGES
----------------------
   0 C :   -0.168853
   1 S :    0.451125
   2 C :   -0.116159
   3 C :   -0.109947
   4 C :   -0.064031
   5 C :    0.041609
   6 C :   -0.066780
   7 C :    0.107128
   8 O :   -0.132775
   9 C :   -0.016546
  10 C :   -0.025274
  11 C :    0.039550
  12 O :    0.027951
  13 C :    0.066977
  14 C :   -0.088082
  15 C :   -0.039391
  16 N :    0.288792
  17 O :   -0.229885
  18 O :   -0.204019
  19 C :   -0.204589
  20 S :    0.488425
  21 C :   -0.125738
  22 C :   -0.105008
  23 C :   -0.028092
  24 C :    0.017646
  25 C :   -0.049131
  26 C :    0.089802
  27 O :   -0.119407
  28 C :   -0.022135
  29 C :   -0.012908
  30 C :    0.035826
  31 O :    0.027126
  32 C :    0.067580
  33 C :   -0.092287
  34 C :   -0.028496
  35 N :    0.293628
  36 O :   -0.223012
  37 O :   -0.221045
  38 C :   -0.201244
  39 S :    0.483338
  40 C :   -0.127422
  41 C :   -0.103126
  42 C :   -0.029421
  43 C :    0.015771
  44 C :   -0.043293
  45 C :    0.093848
  46 O :   -0.115178
  47 C :   -0.035149
  48 C :   -0.014105
  49 H :    0.027965
  50 H :    0.038080
  51 H :    0.031956
  52 H :    0.031436
  53 H :    0.037052
  54 H :    0.043837
  55 H :    0.034805
  56 H :    0.026402
  57 H :    0.032460
  58 H :    0.038599
  59 H :    0.034063
  60 H :    0.034351
  61 H :    0.030350
  62 H :    0.031907
  63 H :    0.028087
  64 H :    0.025054

  Mayer bond orders larger than 0.100000
B(  0-C ,  1-S ) :   1.1379 B(  0-C ,  4-C ) :   1.5474 B(  0-C , 49-H ) :   0.9687
B(  1-S ,  2-C ) :   1.1749 B(  2-C ,  3-C ) :   1.5862 B(  2-C , 50-H ) :   0.9640
B(  3-C ,  4-C ) :   1.2077 B(  3-C ,  7-C ) :   0.9358 B(  4-C ,  5-C ) :   1.0207
B(  5-C ,  6-C ) :   1.6287 B(  5-C , 51-H ) :   1.0132 B(  6-C ,  7-C ) :   0.9693
B(  6-C ,  9-C ) :   1.1190 B(  7-C ,  8-O ) :   2.0893 B(  9-C , 10-C ) :   1.6582
B(  9-C , 52-H ) :   0.9650 B( 10-C , 11-C ) :   1.1393 B( 10-C , 53-H ) :   0.9676
B( 11-C , 12-O ) :   1.0880 B( 11-C , 15-C ) :   1.4202 B( 12-O , 13-C ) :   1.2019
B( 13-C , 14-C ) :   1.3717 B( 13-C , 19-C ) :   1.2002 B( 14-C , 15-C ) :   1.2026
B( 14-C , 16-N ) :   0.9666 B( 15-C , 54-H ) :   1.0262 B( 16-N , 17-O ) :   1.4656
B( 16-N , 18-O ) :   1.5492 B( 17-O , 18-O ) :   0.2555 B( 19-C , 20-S ) :   1.0997
B( 19-C , 23-C ) :   1.4196 B( 20-S , 21-C ) :   1.1510 B( 21-C , 22-C ) :   1.5738
B( 21-C , 55-H ) :   0.9659 B( 22-C , 23-C ) :   1.2203 B( 22-C , 26-C ) :   0.8992
B( 23-C , 24-C ) :   1.0591 B( 24-C , 25-C ) :   1.6004 B( 24-C , 56-H ) :   1.0217
B( 25-C , 26-C ) :   0.9249 B( 25-C , 28-C ) :   1.1158 B( 26-C , 27-O ) :   2.2704
B( 28-C , 29-C ) :   1.5980 B( 28-C , 57-H ) :   0.9939 B( 29-C , 30-C ) :   1.1575
B( 29-C , 58-H ) :   0.9455 B( 30-C , 31-O ) :   1.0945 B( 30-C , 34-C ) :   1.4247
B( 31-O , 32-C ) :   1.2112 B( 32-C , 33-C ) :   1.3475 B( 32-C , 38-C ) :   1.2002
B( 33-C , 34-C ) :   1.1836 B( 33-C , 35-N ) :   0.9740 B( 34-C , 59-H ) :   1.0139
B( 35-N , 36-O ) :   1.4749 B( 35-N , 37-O ) :   1.5078 B( 36-O , 37-O ) :   0.2516
B( 38-C , 39-S ) :   1.0999 B( 38-C , 42-C ) :   1.4320 B( 39-S , 40-C ) :   1.1492
B( 40-C , 41-C ) :   1.5756 B( 40-C , 60-H ) :   0.9667 B( 41-C , 42-C ) :   1.2267
B( 41-C , 45-C ) :   0.9130 B( 42-C , 43-C ) :   1.0401 B( 43-C , 44-C ) :   1.6044
B( 43-C , 61-H ) :   1.0238 B( 44-C , 45-C ) :   0.9370 B( 44-C , 47-C ) :   1.1128
B( 45-C , 46-O ) :   2.2316 B( 47-C , 48-C ) :   1.9103 B( 47-C , 62-H ) :   0.9694
B( 48-C , 63-H ) :   0.9404 B( 48-C , 64-H ) :   0.9466

-----------------------------------------------------------------------------
         ABSORPTION SPECTRUM VIA TRANSITION ELECTRIC DIPOLE MOMENTS
-----------------------------------------------------------------------------
State   Energy  Wavelength   fosc         T2         TX        TY        TZ
        (cm-1)    (nm)                  (au**2)     (au)      (au)      (au)
-----------------------------------------------------------------------------
   0   17190.6    581.7   0.607359342  11.63132  -3.11256   1.14758   0.79145
   1   20750.1    481.9   0.277038639   4.39538   1.47137  -0.95605  -1.14735
   2   21806.7    458.6   0.137791583   2.08022  -0.79462  -0.42163  -1.12740
   3   22615.0    442.2   0.370633727   5.39539  -1.11421  -0.75636  -1.89258
   4   24745.0    404.1   0.096026540   1.27755   0.10248  -0.54479  -0.98501
   5   25118.8    398.1   0.049506541   0.64884   0.50269   0.19026   0.59996
   6   27191.0    367.8   0.095967168   1.16191  -0.96801   0.37901   0.28498
   7   27607.1    362.2   0.000012708   0.00015   0.01043  -0.00625   0.00190
   8   27664.1    361.5   0.009389143   0.11173   0.30356  -0.11361  -0.08172
   9   27927.1    358.1   0.000002764   0.00003   0.00036   0.00567  -0.00058
  10   28218.8    354.4   0.042832775   0.49970  -0.18344  -0.29222  -0.61698
  11   28961.3    345.3   0.124862787   1.41935  -0.32625  -0.48092  -1.04001
  12   29862.0    334.9   0.163724073   1.80496  -1.18041  -0.07269  -0.63743
  13   30672.9    326.0   0.000004245   0.00005   0.00501   0.00449  -0.00052
  14   30831.9    324.3   0.025437859   0.27162  -0.50016   0.04772  -0.13849
  15   31395.8    318.5   0.503812837   5.28292  -0.82680   1.16551   1.80026
  16   31955.9    312.9   0.024799620   0.25549  -0.05757   0.24851   0.43637
  17   32515.2    307.5   0.096437837   0.97642   0.60283  -0.47568  -0.62188
  18   32835.7    304.5   0.192976898   1.93479   0.15302  -0.68859  -1.19884
  19   34076.6    293.5   0.128282205   1.23933  -0.08523   0.53501   0.97254
  20   34172.6    292.6   0.121260426   1.16820  -0.74647   0.49624   0.60393
  21   34409.6    290.6   0.275706697   2.63781  -0.29814   0.80487   1.37880
  22   34659.7    288.5   0.072782212   0.69132   0.69345   0.08780   0.45025
  23   35856.2    278.9   0.000729825   0.00670  -0.02600  -0.04329   0.06443
  24   35939.1    278.2   0.309177627   2.83215  -0.56843  -0.64225  -1.44795
  25   37042.9    270.0   0.316899796   2.81639   0.69553   0.59064   1.40847
  26   37216.0    268.7   0.011187942   0.09897  -0.19038   0.15130   0.19959
  27   38157.9    262.1   0.072491895   0.62543   0.37600   0.25496   0.64734
  28   38552.6    259.4   0.000365050   0.00312  -0.00874  -0.05375   0.01232
  29   38690.1    258.5   0.000271698   0.00231  -0.00845   0.04217  -0.02150
  30   39041.9    256.1   0.016400214   0.13829   0.28662  -0.15979  -0.17494
  31   39180.5    255.2   0.107106389   0.89995   0.51012   0.28179   0.74855
  32   39508.2    253.1   0.045262318   0.37716  -0.36751   0.30140   0.38891
  33   39732.4    251.7   0.000140566   0.00116   0.01954   0.02154  -0.01786
  34   40271.2    248.3   0.000109160   0.00089  -0.00349   0.00627   0.02900

FINAL SINGLE POINT ENERGY     -3321.184394442111

DIPOLE MOMENT
-------------
                                X             Y             Z
Electronic contribution:      8.60277      -1.12096       1.72181
Nuclear contribution   :     -6.04115       1.06068      -0.70116
                        -----------------------------------------
Total Dipole Moment    :      2.56162      -0.06028       1.02066
                        -----------------------------------------
Magnitude (a.u.)       :      2.75813
Magnitude (Debye)      :      7.01061

Rotational constants in cm-1:     0.001940     0.001015     0.000666
Rotational constants in MHz :    58.160471    30.418763    19.973123

                             ****ORCA TERMINATED NORMALLY****
TOTAL RUN TIME: 0 days 0 hours 4 minutes 38 seconds 57 msec
