                         Program Version 4.2.0 -  RELEASE  -
|  1> # ORCA input file
|  2> # SCF done       -162.218184979173          0.000818653424
|  3> ! CAM-B3LYP def2-SVP def2/J RIJCOSX Grid4 TightSCF
|  4> %maxcore 5000
|  5> %tddft
|  6>     Mode sTDDFT
|  7>     Ethresh 5.0
|  8>     maxcore 5000
|  9> end
| 10>
| 11> %pal
| 12>   nprocs 6
| 13>   end
| 14> * xyz 0 1
| 15>    C        5.70422        -7.41217         0.04092
| 16>    S        4.15585        -6.75341         0.32792
| 17>    C        3.34954        -8.05417        -0.49974
| 18>    C        4.29428        -8.97455        -0.98244
| 19>    C        5.64525        -8.59208        -0.66774
| 20>    C        6.72351        -9.39948        -1.09154
| 21>    C        6.46868       -10.54069        -1.80616
| 22>    C        7.53776       -11.35480        -2.24651
| 23>    N        8.41820       -12.00064        -2.59413
| 24>    C        5.12304       -10.92184        -2.12074
| 25>    C        4.89467       -12.10077        -2.86278
| 26>    N        4.68839       -13.05252        -3.46814
| 27>    C        4.06008       -10.14945        -1.71151
| 28>    C        1.95056        -8.09963        -0.64402
| 29>    C        1.10087        -7.11720        -0.22897
| 30>    C       -0.29138        -7.12748        -0.40184
| 31>    S       -1.13208        -8.47592        -1.10466
| 32>    C       -2.66924        -7.67608        -1.03530
| 33>    C       -2.53675        -6.39967        -0.46216
| 34>    C       -1.19735        -6.09357        -0.08867
| 35>    C       -0.91777        -4.86110         0.51682
| 36>    C       -1.92347        -3.95234         0.76033
| 37>    C       -1.61465        -2.67203         1.39463
| 38>    C       -0.67258        -2.49325         2.31119
| 39>    C       -3.26495        -4.25825         0.38422
| 40>    C       -4.36507        -3.28108         0.66486
| 41>    C       -3.55093        -5.45807        -0.21088
| 42>    C       -3.84791        -8.28161        -1.52225
| 43>    C       -3.97535        -9.59533        -1.83000
| 44>    C       -5.16707       -10.19340        -2.35121
| 45>    C       -6.15986        -9.48241        -3.05234
| 46>    N       -7.27077       -10.03772        -3.46728
| 47>    C       -7.45920       -11.34630        -3.21307
| 48>    C       -6.41923       -12.07971        -2.60279
| 49>    N       -5.31231       -11.52185        -2.18979
| 50>    C       -8.69417       -11.94484        -3.59881
| 51>    S       -9.17237       -13.47253        -2.94443
| 52>    C      -10.66814       -13.49072        -3.83174
| 53>    C      -10.76621       -12.34595        -4.64502
| 54>    C       -9.65765       -11.46322        -4.49958
| 55>    C       -9.61495       -10.27663        -5.24757
| 56>    C      -10.63206        -9.96471        -6.12049
| 57>    C      -10.57329        -8.72739        -6.89729
| 58>    C       -9.45243        -8.16396        -7.32827
| 59>    C      -11.74619       -10.84531        -6.26205
| 60>    C      -12.84615       -10.51935        -7.22524
| 61>    C      -11.79881       -12.00566        -5.53487
| 62>    C      -11.61659       -14.51343        -3.68240
| 63>    C      -11.51786       -15.55598        -2.80758
| 64>    C      -12.49837       -16.54880        -2.64365
| 65>    S      -13.93725       -16.59638        -3.61557
| 66>    C      -14.56363       -17.99573        -2.80918
| 67>    C      -13.68404       -18.41886        -1.80889
| 68>    C      -12.50813       -17.60261        -1.71218
| 69>    C      -11.53230       -17.89346        -0.74801
| 70>    C      -11.70917       -18.96013         0.10332
| 71>    C      -10.73570       -19.25430         1.08274
| 72>    N       -9.93508       -19.47706         1.87254
| 73>    C      -12.88032       -19.77590         0.00791
| 74>    C      -13.04315       -20.86482         0.89411
| 75>    N      -13.19942       -21.74995         1.60493
| 76>    C      -13.84519       -19.50851        -0.93196
| 77>    C      -15.81731       -18.57454        -3.17403
| 78>    C      -16.61603       -18.11950        -4.14179
| 79>    H        6.57620        -6.90399         0.40053
| 80>    H        7.73710        -9.11225        -0.85537
| 81>    H        3.05387       -10.45280        -1.95823
| 82>    H        1.53963        -8.96999        -1.13770
| 83>    H        1.51965        -6.24021         0.24751
| 84>    H        0.09786        -4.61443         0.78370
| 85>    H       -2.21765        -1.82981         1.08367
| 86>    H       -0.07224        -3.30669         2.68339
| 87>    H       -0.48088        -1.52554         2.74186
| 88>    H       -4.24039        -2.37927         0.06515
| 89>    H       -4.36195        -2.99079         1.71434
| 90>    H       -5.33242        -3.71628         0.42687
| 91>    H       -4.56951        -5.69162        -0.48285
| 92>    H       -4.70531        -7.62859        -1.61581
| 93>    H       -3.15841       -10.27710        -1.63585
| 94>    H       -6.03576        -8.43700        -3.30249
| 95>    H       -6.50056       -13.15105        -2.46776
| 96>    H       -8.78061        -9.61041        -5.10630
| 97>    H      -11.52263        -8.26510        -7.13123
| 98>    H       -8.48565        -8.60399        -7.15019
| 99>    H       -9.46258        -7.24661        -7.89174
|100>    H      -12.44210       -10.32450        -8.21751
|101>    H      -13.38911        -9.63108        -6.90192
|102>    H      -13.55219       -11.34336        -7.29227
|103>    H      -12.63841       -12.67448        -5.65355
|104>    H      -12.50317       -14.43988        -4.29875
|105>    H      -10.64084       -15.62477        -2.17814
|106>    H      -10.64394       -17.28603        -0.66487
|107>    H      -14.72288       -20.13406        -0.98937
|108>    H      -16.11010       -19.44544        -2.60323
|109>    H      -16.35350       -17.25531        -4.72940
|110>    H      -17.55030       -18.59855        -4.37154
|111> *
|112>
|113>                          ****END OF INPUT****

CARTESIAN COORDINATES (ANGSTROEM)
---------------------------------
  C      5.704220   -7.412170    0.040920
  S      4.155850   -6.753410    0.327920
  C      3.349540   -8.054170   -0.499740
  C      4.294280   -8.974550   -0.982440
  C      5.645250   -8.592080   -0.667740
  C      6.723510   -9.399480   -1.091540
  C      6.468680  -10.540690   -1.806160
  C      7.537760  -11.354800   -2.246510
  N      8.418200  -12.000640   -2.594130
  C      5.123040  -10.921840   -2.120740
  C      4.894670  -12.100770   -2.862780
  N      4.688390  -13.052520   -3.468140
  C      4.060080  -10.149450   -1.711510
  C      1.950560   -8.099630   -0.644020
  C      1.100870   -7.117200   -0.228970
  C     -0.291380   -7.127480   -0.401840
  S     -1.132080   -8.475920   -1.104660
  C     -2.669240   -7.676080   -1.035300
  C     -2.536750   -6.399670   -0.462160
  C     -1.197350   -6.093570   -0.088670
  C     -0.917770   -4.861100    0.516820
  C     -1.923470   -3.952340    0.760330
  C     -1.614650   -2.672030    1.394630
  C     -0.672580   -2.493250    2.311190
  C     -3.264950   -4.258250    0.384220
  C     -4.365070   -3.281080    0.664860
  C     -3.550930   -5.458070   -0.210880
  C     -3.847910   -8.281610   -1.522250
  C     -3.975350   -9.595330   -1.830000
  C     -5.167070  -10.193400   -2.351210
  C     -6.159860   -9.482410   -3.052340
  N     -7.270770  -10.037720   -3.467280
  C     -7.459200  -11.346300   -3.213070
  C     -6.419230  -12.079710   -2.602790
  N     -5.312310  -11.521850   -2.189790
  C     -8.694170  -11.944840   -3.598810
  S     -9.172370  -13.472530   -2.944430
  C    -10.668140  -13.490720   -3.831740
  C    -10.766210  -12.345950   -4.645020
  C     -9.657650  -11.463220   -4.499580
  C     -9.614950  -10.276630   -5.247570
  C    -10.632060   -9.964710   -6.120490
  C    -10.573290   -8.727390   -6.897290
  C     -9.452430   -8.163960   -7.328270
  C    -11.746190  -10.845310   -6.262050
  C    -12.846150  -10.519350   -7.225240
  C    -11.798810  -12.005660   -5.534870
  C    -11.616590  -14.513430   -3.682400
  C    -11.517860  -15.555980   -2.807580
  C    -12.498370  -16.548800   -2.643650
  S    -13.937250  -16.596380   -3.615570
  C    -14.563630  -17.995730   -2.809180
  C    -13.684040  -18.418860   -1.808890
  C    -12.508130  -17.602610   -1.712180
  C    -11.532300  -17.893460   -0.748010
  C    -11.709170  -18.960130    0.103320
  C    -10.735700  -19.254300    1.082740
  N     -9.935080  -19.477060    1.872540
  C    -12.880320  -19.775900    0.007910
  C    -13.043150  -20.864820    0.894110
  N    -13.199420  -21.749950    1.604930
  C    -13.845190  -19.508510   -0.931960
  C    -15.817310  -18.574540   -3.174030
  C    -16.616030  -18.119500   -4.141790
  H      6.576200   -6.903990    0.400530
  H      7.737100   -9.112250   -0.855370
  H      3.053870  -10.452800   -1.958230
  H      1.539630   -8.969990   -1.137700
  H      1.519650   -6.240210    0.247510
  H      0.097860   -4.614430    0.783700
  H     -2.217650   -1.829810    1.083670
  H     -0.072240   -3.306690    2.683390
  H     -0.480880   -1.525540    2.741860
  H     -4.240390   -2.379270    0.065150
  H     -4.361950   -2.990790    1.714340
  H     -5.332420   -3.716280    0.426870
  H     -4.569510   -5.691620   -0.482850
  H     -4.705310   -7.628590   -1.615810
  H     -3.158410  -10.277100   -1.635850
  H     -6.035760   -8.437000   -3.302490
  H     -6.500560  -13.151050   -2.467760
  H     -8.780610   -9.610410   -5.106300
  H    -11.522630   -8.265100   -7.131230
  H     -8.485650   -8.603990   -7.150190
  H     -9.462580   -7.246610   -7.891740
  H    -12.442100  -10.324500   -8.217510
  H    -13.389110   -9.631080   -6.901920
  H    -13.552190  -11.343360   -7.292270
  H    -12.638410  -12.674480   -5.653550
  H    -12.503170  -14.439880   -4.298750
  H    -10.640840  -15.624770   -2.178140
  H    -10.643940  -17.286030   -0.664870
  H    -14.722880  -20.134060   -0.989370
  H    -16.110100  -19.445440   -2.603230
  H    -16.353500  -17.255310   -4.729400
  H    -17.550300  -18.598550   -4.371540

 Total Charge           Charge          ....    0
 Multiplicity           Mult            ....    1
 Number of Electrons    NEL             ....  462
 Basis Dimension        Dim             .... 1072

ORBITAL ENERGIES
----------------

  NO   OCC          E(Eh)            E(eV)
   0   2.0000     -88.987213     -2421.4652
   1   2.0000     -88.981533     -2421.3106
   2   2.0000     -88.974924     -2421.1308
   3   2.0000     -88.972973     -2421.0777
   4   2.0000     -14.425861      -392.5476
   5   2.0000     -14.422240      -392.4491
   6   2.0000     -14.405506      -391.9937
   7   2.0000     -14.405108      -391.9829
   8   2.0000     -14.404169      -391.9574
   9   2.0000     -14.403865      -391.9491
  10   2.0000     -10.329816      -281.0886
  11   2.0000     -10.328203      -281.0447
  12   2.0000     -10.327600      -281.0283
  13   2.0000     -10.326642      -281.0022
  14   2.0000     -10.326524      -280.9990
  15   2.0000     -10.326243      -280.9914
  16   2.0000     -10.325909      -280.9823
  17   2.0000     -10.321243      -280.8553
  18   2.0000     -10.320567      -280.8369
  19   2.0000     -10.318827      -280.7896
  20   2.0000     -10.317834      -280.7625
  21   2.0000     -10.316119      -280.7159
  22   2.0000     -10.315331      -280.6944
  23   2.0000     -10.314117      -280.6614
  24   2.0000     -10.313847      -280.6541
  25   2.0000     -10.312910      -280.6286
  26   2.0000     -10.312900      -280.6283
  27   2.0000     -10.312096      -280.6064
  28   2.0000     -10.311881      -280.6005
  29   2.0000     -10.311374      -280.5867
  30   2.0000     -10.305297      -280.4214
  31   2.0000     -10.304749      -280.4065
  32   2.0000     -10.304351      -280.3956
  33   2.0000     -10.304110      -280.3891
  34   2.0000     -10.303822      -280.3812
  35   2.0000     -10.303705      -280.3781
  36   2.0000     -10.302989      -280.3586
  37   2.0000     -10.302738      -280.3518
  38   2.0000     -10.301937      -280.3300
  39   2.0000     -10.301416      -280.3158
  40   2.0000     -10.298899      -280.2473
  41   2.0000     -10.297451      -280.2079
  42   2.0000     -10.297091      -280.1981
  43   2.0000     -10.296501      -280.1820
  44   2.0000     -10.291109      -280.0353
  45   2.0000     -10.290401      -280.0161
  46   2.0000     -10.289011      -279.9782
  47   2.0000     -10.288781      -279.9720
  48   2.0000     -10.287758      -279.9441
  49   2.0000     -10.286464      -279.9089
  50   2.0000     -10.285599      -279.8854
  51   2.0000     -10.284284      -279.8496
  52   2.0000     -10.283479      -279.8277
  53   2.0000     -10.281417      -279.7716
  54   2.0000     -10.281287      -279.7680
  55   2.0000     -10.279959      -279.7319
  56   2.0000     -10.279490      -279.7192
  57   2.0000     -10.275686      -279.6156
  58   2.0000     -10.274295      -279.5778
  59   2.0000     -10.273664      -279.5606
  60   2.0000     -10.273218      -279.5485
  61   2.0000     -10.270304      -279.4692
  62   2.0000     -10.268714      -279.4259
  63   2.0000     -10.266407      -279.3631
  64   2.0000      -8.082375      -219.9326
  65   2.0000      -8.076628      -219.7762
  66   2.0000      -8.069717      -219.5882
  67   2.0000      -8.067974      -219.5407
  68   2.0000      -6.051256      -164.6630
  69   2.0000      -6.047035      -164.5482
  70   2.0000      -6.045513      -164.5068
  71   2.0000      -6.045499      -164.5064
  72   2.0000      -6.041568      -164.3994
  73   2.0000      -6.039456      -164.3420
  74   2.0000      -6.038689      -164.3211
  75   2.0000      -6.036885      -164.2720
  76   2.0000      -6.034713      -164.2129
  77   2.0000      -6.033000      -164.1663
  78   2.0000      -6.032496      -164.1526
  79   2.0000      -6.030698      -164.1036
  80   2.0000      -1.081516       -29.4295
  81   2.0000      -1.020672       -27.7739
  82   2.0000      -1.020412       -27.7668
  83   2.0000      -1.009455       -27.4687
  84   2.0000      -1.006059       -27.3763
  85   2.0000      -0.997941       -27.1554
  86   2.0000      -0.997405       -27.1408
  87   2.0000      -0.996029       -27.1033
  88   2.0000      -0.985264       -26.8104
  89   2.0000      -0.985057       -26.8048
  90   2.0000      -0.958634       -26.0857
  91   2.0000      -0.958368       -26.0785
  92   2.0000      -0.952898       -25.9297
  93   2.0000      -0.948043       -25.7976
  94   2.0000      -0.929357       -25.2891
  95   2.0000      -0.926073       -25.1997
  96   2.0000      -0.911652       -24.8073
  97   2.0000      -0.901186       -24.5225
  98   2.0000      -0.892009       -24.2728
  99   2.0000      -0.883856       -24.0509
 100   2.0000      -0.880391       -23.9567
 101   2.0000      -0.878662       -23.9096
 102   2.0000      -0.875130       -23.8135
 103   2.0000      -0.868551       -23.6345
 104   2.0000      -0.868308       -23.6279
 105   2.0000      -0.861610       -23.4456
 106   2.0000      -0.857005       -23.3203
 107   2.0000      -0.848302       -23.0835
 108   2.0000      -0.832141       -22.6437
 109   2.0000      -0.820371       -22.3234
 110   2.0000      -0.814065       -22.1518
 111   2.0000      -0.802368       -21.8335
 112   2.0000      -0.790520       -21.5111
 113   2.0000      -0.781335       -21.2612
 114   2.0000      -0.772519       -21.0213
 115   2.0000      -0.764582       -20.8053
 116   2.0000      -0.756901       -20.5963
 117   2.0000      -0.756009       -20.5721
 118   2.0000      -0.746666       -20.3178
 119   2.0000      -0.739304       -20.1175
 120   2.0000      -0.731718       -19.9111
 121   2.0000      -0.727998       -19.8098
 122   2.0000      -0.723809       -19.6958
 123   2.0000      -0.719662       -19.5830
 124   2.0000      -0.707558       -19.2536
 125   2.0000      -0.691767       -18.8239
 126   2.0000      -0.682454       -18.5705
 127   2.0000      -0.673891       -18.3375
 128   2.0000      -0.671323       -18.2676
 129   2.0000      -0.665348       -18.1050
 130   2.0000      -0.663866       -18.0647
 131   2.0000      -0.651154       -17.7188
 132   2.0000      -0.645436       -17.5632
 133   2.0000      -0.639958       -17.4141
 134   2.0000      -0.637606       -17.3501
 135   2.0000      -0.629325       -17.1248
 136   2.0000      -0.623004       -16.9528
 137   2.0000      -0.615956       -16.7610
 138   2.0000      -0.612532       -16.6678
 139   2.0000      -0.610160       -16.6033
 140   2.0000      -0.607754       -16.5378
 141   2.0000      -0.604800       -16.4574
 142   2.0000      -0.602932       -16.4066
 143   2.0000      -0.592805       -16.1310
 144   2.0000      -0.586799       -15.9676
 145   2.0000      -0.574114       -15.6224
 146   2.0000      -0.566600       -15.4180
 147   2.0000      -0.564290       -15.3551
 148   2.0000      -0.557806       -15.1787
 149   2.0000      -0.553515       -15.0619
 150   2.0000      -0.551572       -15.0090
 151   2.0000      -0.551023       -14.9941
 152   2.0000      -0.548740       -14.9320
 153   2.0000      -0.544653       -14.8208
 154   2.0000      -0.537130       -14.6161
 155   2.0000      -0.534147       -14.5349
 156   2.0000      -0.532308       -14.4848
 157   2.0000      -0.530730       -14.4419
 158   2.0000      -0.529511       -14.4087
 159   2.0000      -0.527717       -14.3599
 160   2.0000      -0.526864       -14.3367
 161   2.0000      -0.526807       -14.3351
 162   2.0000      -0.522495       -14.2178
 163   2.0000      -0.521474       -14.1900
 164   2.0000      -0.517424       -14.0798
 165   2.0000      -0.513146       -13.9634
 166   2.0000      -0.512192       -13.9374
 167   2.0000      -0.505371       -13.7519
 168   2.0000      -0.501364       -13.6428
 169   2.0000      -0.500880       -13.6296
 170   2.0000      -0.497477       -13.5370
 171   2.0000      -0.494194       -13.4477
 172   2.0000      -0.493222       -13.4213
 173   2.0000      -0.489749       -13.3267
 174   2.0000      -0.485083       -13.1998
 175   2.0000      -0.484147       -13.1743
 176   2.0000      -0.483980       -13.1698
 177   2.0000      -0.482035       -13.1169
 178   2.0000      -0.478445       -13.0191
 179   2.0000      -0.471433       -12.8284
 180   2.0000      -0.469481       -12.7752
 181   2.0000      -0.466568       -12.6960
 182   2.0000      -0.462263       -12.5788
 183   2.0000      -0.460832       -12.5399
 184   2.0000      -0.458535       -12.4774
 185   2.0000      -0.458420       -12.4742
 186   2.0000      -0.453603       -12.3432
 187   2.0000      -0.444553       -12.0969
 188   2.0000      -0.441795       -12.0219
 189   2.0000      -0.441261       -12.0073
 190   2.0000      -0.438213       -11.9244
 191   2.0000      -0.436092       -11.8667
 192   2.0000      -0.433494       -11.7960
 193   2.0000      -0.432467       -11.7680
 194   2.0000      -0.432260       -11.7624
 195   2.0000      -0.431667       -11.7463
 196   2.0000      -0.431330       -11.7371
 197   2.0000      -0.430271       -11.7083
 198   2.0000      -0.426912       -11.6169
 199   2.0000      -0.425115       -11.5680
 200   2.0000      -0.425001       -11.5649
 201   2.0000      -0.420273       -11.4362
 202   2.0000      -0.418459       -11.3869
 203   2.0000      -0.415703       -11.3118
 204   2.0000      -0.415141       -11.2966
 205   2.0000      -0.414193       -11.2708
 206   2.0000      -0.412002       -11.2111
 207   2.0000      -0.411376       -11.1941
 208   2.0000      -0.406640       -11.0652
 209   2.0000      -0.406569       -11.0633
 210   2.0000      -0.406446       -11.0600
 211   2.0000      -0.401918       -10.9367
 212   2.0000      -0.393515       -10.7081
 213   2.0000      -0.389123       -10.5886
 214   2.0000      -0.382720       -10.4143
 215   2.0000      -0.374830       -10.1996
 216   2.0000      -0.367244        -9.9932
 217   2.0000      -0.360625        -9.8131
 218   2.0000      -0.353406        -9.6167
 219   2.0000      -0.345267        -9.3952
 220   2.0000      -0.336517        -9.1571
 221   2.0000      -0.330140        -8.9836
 222   2.0000      -0.329519        -8.9667
 223   2.0000      -0.324035        -8.8175
 224   2.0000      -0.320298        -8.7157
 225   2.0000      -0.305292        -8.3074
 226   2.0000      -0.303264        -8.2522
 227   2.0000      -0.289380        -7.8744
 228   2.0000      -0.276811        -7.5324
 229   2.0000      -0.237780        -6.4703
 230   2.0000      -0.220577        -6.0022
 231   0.0000      -0.100540        -2.7358
 232   0.0000      -0.085501        -2.3266
 233   0.0000      -0.057484        -1.5642
 234   0.0000      -0.046507        -1.2655
 235   0.0000      -0.020451        -0.5565

MULLIKEN ATOMIC CHARGES
-----------------------
   0 C :   -0.120310
   1 S :    0.157425
   2 C :   -0.110770
   3 C :    0.139631
   4 C :    0.109345
   5 C :   -0.022066
   6 C :   -0.072529
   7 C :   -0.174266
   8 N :    0.166930
   9 C :   -0.073860
  10 C :   -0.175658
  11 N :    0.167463
  12 C :   -0.047917
  13 C :   -0.014684
  14 C :   -0.013687
  15 C :   -0.088751
  16 S :    0.140880
  17 C :   -0.092291
  18 C :    0.137441
  19 C :    0.136731
  20 C :   -0.113909
  21 C :    0.088174
  22 C :   -0.038369
  23 C :   -0.010379
  24 C :   -0.073287
  25 C :    0.099532
  26 C :   -0.103520
  27 C :    0.000776
  28 C :    0.023117
  29 C :   -0.017689
  30 C :    0.010019
  31 N :   -0.045291
  32 C :   -0.026860
  33 C :   -0.016518
  34 N :   -0.032618
  35 C :   -0.075335
  36 S :    0.139898
  37 C :   -0.088137
  38 C :    0.134209
  39 C :    0.105192
  40 C :   -0.101909
  41 C :    0.101420
  42 C :   -0.039334
  43 C :   -0.007741
  44 C :   -0.067946
  45 C :    0.096615
  46 C :   -0.104944
  47 C :   -0.007933
  48 C :   -0.021563
  49 C :   -0.082538
  50 S :    0.140128
  51 C :   -0.112540
  52 C :    0.130262
  53 C :    0.124262
  54 C :   -0.049403
  55 C :   -0.072599
  56 C :   -0.180933
  57 N :    0.168376
  58 C :   -0.069124
  59 C :   -0.179875
  60 N :    0.168981
  61 C :   -0.050065
  62 C :   -0.001587
  63 C :   -0.021789
  64 H :    0.027416
  65 H :   -0.006764
  66 H :   -0.005628
  67 H :   -0.002695
  68 H :   -0.005887
  69 H :   -0.037307
  70 H :   -0.000170
  71 H :    0.020090
  72 H :    0.025145
  73 H :    0.032171
  74 H :    0.033727
  75 H :    0.010031
  76 H :   -0.042187
  77 H :   -0.003726
  78 H :    0.002751
  79 H :   -0.000601
  80 H :    0.008702
  81 H :   -0.021722
  82 H :   -0.005624
  83 H :    0.022864
  84 H :    0.021847
  85 H :    0.033524
  86 H :    0.032455
  87 H :    0.008296
  88 H :   -0.045524
  89 H :   -0.004266
  90 H :   -0.004485
  91 H :   -0.006890
  92 H :   -0.006255
  93 H :   -0.001066
  94 H :    0.023404
  95 H :    0.032088
Sum of atomic charges:   -0.0000000

LOEWDIN ATOMIC CHARGES
----------------------
   0 C :   -0.187895
   1 S :    0.495595
   2 C :   -0.162348
   3 C :   -0.051343
   4 C :   -0.050764
   5 C :    0.034490
   6 C :   -0.056037
   7 C :   -0.031627
   8 N :   -0.038445
   9 C :   -0.060773
  10 C :   -0.033758
  11 N :   -0.040945
  12 C :    0.034951
  13 C :   -0.054711
  14 C :   -0.033949
  15 C :   -0.173258
  16 S :    0.475145
  17 C :   -0.171376
  18 C :   -0.038541
  19 C :   -0.040365
  20 C :   -0.007385
  21 C :   -0.022786
  22 C :   -0.021442
  23 C :   -0.034551
  24 C :   -0.013080
  25 C :   -0.044049
  26 C :   -0.026276
  27 C :   -0.029895
  28 C :   -0.031848
  29 C :   -0.020203
  30 C :    0.009698
  31 N :   -0.042756
  32 C :   -0.030938
  33 C :   -0.000763
  34 N :   -0.043025
  35 C :   -0.177151
  36 S :    0.476088
  37 C :   -0.175998
  38 C :   -0.034000
  39 C :   -0.033970
  40 C :    0.003994
  41 C :   -0.026922
  42 C :   -0.022667
  43 C :   -0.033221
  44 C :   -0.008473
  45 C :   -0.044771
  46 C :   -0.033736
  47 C :   -0.030066
  48 C :   -0.058268
  49 C :   -0.155277
  50 S :    0.486978
  51 C :   -0.171684
  52 C :   -0.043759
  53 C :   -0.050295
  54 C :    0.035362
  55 C :   -0.060905
  56 C :   -0.033618
  57 N :   -0.041076
  58 C :   -0.054910
  59 C :   -0.032053
  60 N :   -0.039081
  61 C :    0.031986
  62 C :   -0.041423
  63 C :   -0.040599
  64 H :    0.028413
  65 H :    0.044292
  66 H :    0.042171
  67 H :    0.027681
  68 H :    0.026691
  69 H :    0.025445
  70 H :    0.029569
  71 H :    0.021663
  72 H :    0.026310
  73 H :    0.035696
  74 H :    0.036912
  75 H :    0.030647
  76 H :    0.024456
  77 H :    0.032971
  78 H :    0.030182
  79 H :    0.022390
  80 H :    0.019385
  81 H :    0.026620
  82 H :    0.027489
  83 H :    0.023397
  84 H :    0.024784
  85 H :    0.036879
  86 H :    0.035874
  87 H :    0.029516
  88 H :    0.022806
  89 H :    0.027376
  90 H :    0.026960
  91 H :    0.041905
  92 H :    0.041646
  93 H :    0.036449
  94 H :    0.017940
  95 H :    0.030250

  Mayer bond orders larger than 0.100000
B(  0-C ,  1-S ) :   1.1874 B(  0-C ,  4-C ) :   1.4238 B(  0-C , 64-H ) :   0.9702
B(  1-S ,  2-C ) :   1.1652 B(  2-C ,  3-C ) :   1.3034 B(  2-C , 13-C ) :   1.2122
B(  3-C ,  4-C ) :   1.1847 B(  3-C , 12-C ) :   1.2054 B(  4-C ,  5-C ) :   1.1492
B(  5-C ,  6-C ) :   1.5826 B(  5-C , 65-H ) :   1.0079 B(  6-C ,  7-C ) :   1.0769
B(  6-C ,  9-C ) :   1.2218 B(  7-C ,  8-N ) :   3.0465 B(  9-C , 10-C ) :   1.0837
B(  9-C , 12-C ) :   1.5667 B( 10-C , 11-N ) :   3.0393 B( 12-C , 66-H ) :   0.9965
B( 13-C , 14-C ) :   1.5904 B( 13-C , 67-H ) :   0.9650 B( 14-C , 15-C ) :   1.2306
B( 14-C , 68-H ) :   0.9660 B( 15-C , 16-S ) :   1.1310 B( 15-C , 17-C ) :   0.1013
B( 15-C , 19-C ) :   1.2844 B( 16-S , 17-C ) :   1.1333 B( 17-C , 18-C ) :   1.3119
B( 17-C , 27-C ) :   1.1978 B( 18-C , 19-C ) :   1.2120 B( 18-C , 26-C ) :   1.1887
B( 19-C , 20-C ) :   1.1997 B( 20-C , 21-C ) :   1.5136 B( 20-C , 69-H ) :   0.9917
B( 21-C , 22-C ) :   1.0307 B( 21-C , 24-C ) :   1.2026 B( 22-C , 23-C ) :   1.9757
B( 22-C , 70-H ) :   0.9503 B( 23-C , 71-H ) :   0.9579 B( 23-C , 72-H ) :   0.9507
B( 24-C , 25-C ) :   1.0869 B( 24-C , 26-C ) :   1.5558 B( 25-C , 73-H ) :   0.9401
B( 25-C , 74-H ) :   0.9431 B( 25-C , 75-H ) :   0.9544 B( 26-C , 76-H ) :   0.9909
B( 27-C , 28-C ) :   1.6392 B( 27-C , 77-H ) :   0.9591 B( 28-C , 29-C ) :   1.0849
B( 28-C , 78-H ) :   0.9713 B( 29-C , 30-C ) :   1.2894 B( 29-C , 34-N ) :   1.4645
B( 30-C , 31-N ) :   1.5950 B( 30-C , 79-H ) :   0.9737 B( 31-N , 32-C ) :   1.4971
B( 32-C , 33-C ) :   1.2783 B( 32-C , 35-C ) :   1.0897 B( 33-C , 34-N ) :   1.6276
B( 33-C , 80-H ) :   0.9745 B( 35-C , 36-S ) :   1.1621 B( 35-C , 37-C ) :   0.1078
B( 35-C , 39-C ) :   1.3280 B( 36-S , 37-C ) :   1.1229 B( 37-C , 38-C ) :   1.2879
B( 37-C , 47-C ) :   1.2310 B( 38-C , 39-C ) :   1.2027 B( 38-C , 46-C ) :   1.2010
B( 39-C , 40-C ) :   1.2216 B( 40-C , 41-C ) :   1.4741 B( 40-C , 81-H ) :   0.9848
B( 41-C , 42-C ) :   1.0327 B( 41-C , 44-C ) :   1.2019 B( 42-C , 43-C ) :   1.9767
B( 42-C , 82-H ) :   0.9515 B( 43-C , 83-H ) :   0.9568 B( 43-C , 84-H ) :   0.9501
B( 44-C , 45-C ) :   1.0870 B( 44-C , 46-C ) :   1.5523 B( 45-C , 85-H ) :   0.9431
B( 45-C , 86-H ) :   0.9401 B( 45-C , 87-H ) :   0.9543 B( 46-C , 88-H ) :   0.9883
B( 47-C , 48-C ) :   1.5751 B( 47-C , 89-H ) :   0.9659 B( 48-C , 49-C ) :   1.2260
B( 48-C , 90-H ) :   0.9650 B( 49-C , 50-S ) :   1.1470 B( 49-C , 53-C ) :   1.2972
B( 50-S , 51-C ) :   1.1293 B( 51-C , 52-C ) :   1.3545 B( 51-C , 62-C ) :   1.1485
B( 52-C , 53-C ) :   1.1848 B( 52-C , 61-C ) :   1.1796 B( 53-C , 54-C ) :   1.2098
B( 54-C , 55-C ) :   1.5598 B( 54-C , 91-H ) :   0.9954 B( 55-C , 56-C ) :   1.0833
B( 55-C , 58-C ) :   1.2291 B( 56-C , 57-N ) :   3.0406 B( 58-C , 59-C ) :   1.0771
B( 58-C , 61-C ) :   1.5840 B( 59-C , 60-N ) :   3.0456 B( 61-C , 92-H ) :   0.9953
B( 62-C , 63-C ) :   1.8978 B( 62-C , 93-H ) :   0.9582 B( 63-C , 94-H ) :   0.9583
B( 63-C , 95-H ) :   0.9486

-----------------------------------------------------------------------------
         ABSORPTION SPECTRUM VIA TRANSITION ELECTRIC DIPOLE MOMENTS
-----------------------------------------------------------------------------
State   Energy  Wavelength   fosc         T2         TX        TY        TZ
        (cm-1)    (nm)                  (au**2)     (au)      (au)      (au)
-----------------------------------------------------------------------------
   0   12875.6    776.7   1.836744927  46.96305  -6.01611  -3.26788  -0.30062
   1   16334.2    612.2   0.466590039   9.40401   1.51531  -2.57760   0.68105
   2   19036.7    525.3   0.004493012   0.07770  -0.12290   0.24124  -0.06632
   3   20888.9    478.7   0.115619405   1.82217   0.04142   0.88225   1.02083
   4   23137.4    432.2   0.077565114   1.10364   0.57357   0.24555  -0.84520
   5   23529.8    425.0   0.034108739   0.47722   0.55177  -0.40935  -0.07211
   6   24970.6    400.5   0.009523300   0.12555  -0.08435   0.18225  -0.29193
   7   27211.5    367.5   0.090182277   1.09105  -0.32615   0.80584   0.57905
   8   28179.2    354.9   0.092135946   1.07641  -0.23645   0.03632  -1.00954
   9   28874.2    346.3   0.016849696   0.19211   0.17700   0.09536   0.38947
  10   28936.5    345.6   0.004387702   0.04992   0.09363  -0.16757   0.11434
  11   29567.7    338.2   0.114688456   1.27696  -0.38229  -0.33777  -1.00833
  12   30002.6    333.3   0.058635624   0.64340  -0.11053   0.20454  -0.76769
  13   30483.0    328.1   0.250323773   2.70346  -0.80756   0.93966  -1.08090
  14   30582.2    327.0   0.053045334   0.57102   0.14050   0.36741   0.64521
  15   31170.5    320.8   0.045021464   0.47550  -0.49881   0.40571   0.24918
  16   31307.1    319.4   0.395119233   4.15490  -0.02032  -2.02606   0.22264
  17   32095.8    311.6   0.127586230   1.30867   0.15693   1.10543   0.24915
  18   32355.7    309.1   0.129671329   1.31938  -0.77118  -0.78185   0.33670
  19   32716.4    305.7   0.188427483   1.89607  -0.69518  -0.97553  -0.67907
  20   34130.1    293.0   0.032231453   0.31090  -0.07221   0.03459   0.55180
  21   34644.3    288.6   0.047684542   0.45313   0.62681  -0.23026   0.08497
  22   34680.4    288.3   0.042591262   0.40431  -0.22414   0.34029   0.48813
  23   35173.9    284.3   0.110415346   1.03344  -0.89234   0.45691  -0.16855
  24   35559.4    281.2   0.115672087   1.07090  -0.31168   0.08967  -0.98271
  25   35882.1    278.7   0.523436223   4.80243   1.12287  -1.67170   0.86430
  26   36301.6    275.5   0.133121898   1.20726   0.26943  -0.42973   0.97468
  27   36494.8    274.0   0.023762471   0.21436  -0.06592  -0.35764  -0.28653
  28   36555.3    273.6   0.114333461   1.02967   0.55350  -0.15116   0.83693
  29   37039.9    270.0   0.053097744   0.47194   0.55461  -0.40441   0.02813
  30   37346.8    267.8   0.189465687   1.67014   0.15184  -1.07343  -0.70345
  31   37670.6    265.5   0.274219401   2.39646  -0.46933   1.35186   0.59048
  32   38160.8    262.0   0.016706186   0.14412  -0.00508  -0.03202  -0.37825
  33   38599.9    259.1   0.020139607   0.17177   0.29115   0.19463   0.22162
  34   38818.5    257.6   0.089884862   0.76230  -0.33902   0.36819  -0.71540
  35   38995.8    256.4   0.064468627   0.54426  -0.03427  -0.62155   0.39593
  36   39360.3    254.1   0.054286098   0.45405  -0.44358  -0.09613  -0.49805
  37   39638.0    252.3   0.034275696   0.28468   0.39270  -0.24105  -0.26899
  38   39850.6    250.9   0.024895300   0.20566  -0.34524   0.27056  -0.11520
  39   39916.9    250.5   0.047441486   0.39127   0.06244   0.46890  -0.40927
  40   40158.6    249.0   0.079624666   0.65275  -0.09161   0.59072   0.54352

FINAL SINGLE POINT ENERGY     -3994.563761897010

DIPOLE MOMENT
-------------
                                X             Y             Z
Electronic contribution:     34.42675     -48.38344      13.98243
Nuclear contribution   :    -37.15373      54.56168     -15.12775
                        -----------------------------------------
Total Dipole Moment    :     -2.72698       6.17824      -1.14532
                        -----------------------------------------
Magnitude (a.u.)       :      6.84973
Magnitude (Debye)      :     17.41064

Rotational constants in cm-1:     0.001220     0.000284     0.000256
Rotational constants in MHz :    36.585220     8.515385     7.676270

                             ****ORCA TERMINATED NORMALLY****
TOTAL RUN TIME: 0 days 0 hours 7 minutes 32 seconds 537 msec
