                         Program Version 4.2.0 -  RELEASE  -
|  1> # ORCA input file
|  2> # SCF done       -137.006419996154          0.000466999644
|  3> ! CAM-B3LYP def2-SVP def2/J RIJCOSX Grid4 TightSCF
|  4> %maxcore 5000
|  5> %tddft
|  6>     Mode sTDDFT
|  7>     Ethresh 5.0
|  8>     maxcore 5000
|  9> end
| 10>
| 11> %pal
| 12>   nprocs 6
| 13>   end
| 14> * xyz 0 1
| 15>    C       -7.55352        -4.31073         3.57957
| 16>    S       -6.92511        -5.73709         2.89096
| 17>    C       -5.27256        -5.21890         3.07627
| 18>    C       -5.23521        -3.95292         3.68939
| 19>    C       -6.55632        -3.44082         3.96191
| 20>    C       -6.72354        -2.17426         4.56376
| 21>    C       -5.62195        -1.43317         4.90146
| 22>    C       -5.76694        -0.15978         5.49767
| 23>    N       -5.89620         0.87281         5.97775
| 24>    C       -4.30809        -1.94854         4.66258
| 25>    C       -3.17418        -1.19422         5.02938
| 26>    N       -2.22272        -0.61482         5.30382
| 27>    C       -4.12975        -3.18135         4.07511
| 28>    C       -4.27783        -6.09882         2.59909
| 29>    C       -2.93559        -5.88967         2.49520
| 30>    C       -2.02424        -6.84181         2.00935
| 31>    S       -2.48723        -8.45097         1.45040
| 32>    C       -0.85014        -8.92841         1.06538
| 33>    C        0.01217        -7.87148         1.36713
| 34>    C       -0.64644        -6.73111         1.88090
| 35>    N        0.34753        -5.81514         2.11100
| 36>    C        1.51463        -6.41722         1.74181
| 37>    N        1.36298        -7.63095         1.29746
| 38>    C       -0.48903       -10.17207         0.54251
| 39>    S       -1.59108       -11.48155         0.13983
| 40>    C       -0.31235       -12.54870        -0.40833
| 41>    C        0.91744       -11.89613        -0.27166
| 42>    C        0.80396       -10.58950         0.24808
| 43>    N        2.07262       -10.09506         0.31293
| 44>    C        2.87904       -11.08368        -0.15284
| 45>    N        2.24203       -12.16818        -0.50967
| 46>    C       -0.51587       -13.83849        -0.90285
| 47>    S       -2.06098       -14.63908        -1.10193
| 48>    C       -1.36004       -16.12227        -1.75280
| 49>    C        0.02921       -15.97430        -1.79747
| 50>    C        0.47462       -14.71269        -1.33097
| 51>    N        1.83119       -14.71803        -1.44289
| 52>    C        2.15046       -15.93716        -1.95459
| 53>    N        1.12211       -16.70714        -2.17729
| 54>    C       -2.21208       -17.17361        -2.12531
| 55>    S       -3.93089       -16.96451        -1.98245
| 56>    C       -4.28094       -18.54790        -2.58698
| 57>    C       -3.09582       -19.22684        -2.88912
| 58>    C       -1.91463       -18.45447        -2.63187
| 59>    C       -0.64882       -19.00328        -2.88459
| 60>    C       -0.55197       -20.28467        -3.37874
| 61>    C        0.71683       -20.84973        -3.63494
| 62>    N        1.74785       -21.30729        -3.84040
| 63>    C       -1.72621       -21.05799        -3.63761
| 64>    C       -1.60079       -22.37096        -4.14534
| 65>    N       -1.52441       -23.43793        -4.55707
| 66>    C       -2.97289       -20.53424        -3.39667
| 67>    C       -5.62113       -19.01964        -2.73131
| 68>    C       -6.71378       -18.31260        -2.43368
| 69>    H       -8.61220        -4.17466         3.67137
| 70>    H       -7.71811        -1.80005         4.75463
| 71>    H       -3.12333        -3.53955         3.93671
| 72>    H       -4.64771        -7.05764         2.25450
| 73>    H       -2.49486        -4.94586         2.77773
| 74>    H        0.24618        -4.88436         2.47797
| 75>    H        2.46413        -5.92389         1.81628
| 76>    H        2.27716        -9.15321         0.64867
| 77>    H        3.94451       -10.97888        -0.21914
| 78>    H        2.40681       -13.91606        -1.18014
| 79>    H        3.16039       -16.23659        -2.15540
| 80>    H        0.24072       -18.42112        -2.69576
| 81>    H       -3.85079       -21.12930        -3.59699
| 82>    H       -5.72175       -20.02628        -3.11414
| 83>    H       -6.64662       -17.30741        -2.05120
| 84>    H       -7.69992       -18.71978        -2.56401
| 85> *
| 86>
| 87>                          ****END OF INPUT****

CARTESIAN COORDINATES (ANGSTROEM)
---------------------------------
  C     -7.553520   -4.310730    3.579570
  S     -6.925110   -5.737090    2.890960
  C     -5.272560   -5.218900    3.076270
  C     -5.235210   -3.952920    3.689390
  C     -6.556320   -3.440820    3.961910
  C     -6.723540   -2.174260    4.563760
  C     -5.621950   -1.433170    4.901460
  C     -5.766940   -0.159780    5.497670
  N     -5.896200    0.872810    5.977750
  C     -4.308090   -1.948540    4.662580
  C     -3.174180   -1.194220    5.029380
  N     -2.222720   -0.614820    5.303820
  C     -4.129750   -3.181350    4.075110
  C     -4.277830   -6.098820    2.599090
  C     -2.935590   -5.889670    2.495200
  C     -2.024240   -6.841810    2.009350
  S     -2.487230   -8.450970    1.450400
  C     -0.850140   -8.928410    1.065380
  C      0.012170   -7.871480    1.367130
  C     -0.646440   -6.731110    1.880900
  N      0.347530   -5.815140    2.111000
  C      1.514630   -6.417220    1.741810
  N      1.362980   -7.630950    1.297460
  C     -0.489030  -10.172070    0.542510
  S     -1.591080  -11.481550    0.139830
  C     -0.312350  -12.548700   -0.408330
  C      0.917440  -11.896130   -0.271660
  C      0.803960  -10.589500    0.248080
  N      2.072620  -10.095060    0.312930
  C      2.879040  -11.083680   -0.152840
  N      2.242030  -12.168180   -0.509670
  C     -0.515870  -13.838490   -0.902850
  S     -2.060980  -14.639080   -1.101930
  C     -1.360040  -16.122270   -1.752800
  C      0.029210  -15.974300   -1.797470
  C      0.474620  -14.712690   -1.330970
  N      1.831190  -14.718030   -1.442890
  C      2.150460  -15.937160   -1.954590
  N      1.122110  -16.707140   -2.177290
  C     -2.212080  -17.173610   -2.125310
  S     -3.930890  -16.964510   -1.982450
  C     -4.280940  -18.547900   -2.586980
  C     -3.095820  -19.226840   -2.889120
  C     -1.914630  -18.454470   -2.631870
  C     -0.648820  -19.003280   -2.884590
  C     -0.551970  -20.284670   -3.378740
  C      0.716830  -20.849730   -3.634940
  N      1.747850  -21.307290   -3.840400
  C     -1.726210  -21.057990   -3.637610
  C     -1.600790  -22.370960   -4.145340
  N     -1.524410  -23.437930   -4.557070
  C     -2.972890  -20.534240   -3.396670
  C     -5.621130  -19.019640   -2.731310
  C     -6.713780  -18.312600   -2.433680
  H     -8.612200   -4.174660    3.671370
  H     -7.718110   -1.800050    4.754630
  H     -3.123330   -3.539550    3.936710
  H     -4.647710   -7.057640    2.254500
  H     -2.494860   -4.945860    2.777730
  H      0.246180   -4.884360    2.477970
  H      2.464130   -5.923890    1.816280
  H      2.277160   -9.153210    0.648670
  H      3.944510  -10.978880   -0.219140
  H      2.406810  -13.916060   -1.180140
  H      3.160390  -16.236590   -2.155400
  H      0.240720  -18.421120   -2.695760
  H     -3.850790  -21.129300   -3.596990
  H     -5.721750  -20.026280   -3.114140
  H     -6.646620  -17.307410   -2.051200
  H     -7.699920  -18.719780   -2.564010

 Total Charge           Charge          ....    0
 Multiplicity           Mult            ....    1
 Number of Electrons    NEL             ....  400
 Basis Dimension        Dim             ....  856

ORBITAL ENERGIES
----------------

  NO   OCC          E(Eh)            E(eV)
   0   2.0000     -88.988502     -2421.5003
   1   2.0000     -88.978457     -2421.2269
   2   2.0000     -88.978123     -2421.2178
   3   2.0000     -88.975972     -2421.1593
   4   2.0000     -88.971860     -2421.0474
   5   2.0000     -14.502217      -394.6254
   6   2.0000     -14.475566      -393.9002
   7   2.0000     -14.463556      -393.5734
   8   2.0000     -14.436197      -392.8289
   9   2.0000     -14.424362      -392.5069
  10   2.0000     -14.411712      -392.1626
  11   2.0000     -14.410416      -392.1274
  12   2.0000     -14.403727      -391.9453
  13   2.0000     -14.397090      -391.7647
  14   2.0000     -14.390703      -391.5909
  15   2.0000     -10.374495      -282.3044
  16   2.0000     -10.362051      -281.9657
  17   2.0000     -10.348291      -281.5913
  18   2.0000     -10.338002      -281.3113
  19   2.0000     -10.337295      -281.2921
  20   2.0000     -10.333257      -281.1822
  21   2.0000     -10.332293      -281.1560
  22   2.0000     -10.330925      -281.1188
  23   2.0000     -10.330828      -281.1161
  24   2.0000     -10.327652      -281.0297
  25   2.0000     -10.325581      -280.9733
  26   2.0000     -10.324847      -280.9534
  27   2.0000     -10.324170      -280.9350
  28   2.0000     -10.323278      -280.9107
  29   2.0000     -10.320586      -280.8374
  30   2.0000     -10.319776      -280.8154
  31   2.0000     -10.319264      -280.8015
  32   2.0000     -10.318014      -280.7674
  33   2.0000     -10.317275      -280.7473
  34   2.0000     -10.315679      -280.7039
  35   2.0000     -10.315612      -280.7021
  36   2.0000     -10.314088      -280.6606
  37   2.0000     -10.313507      -280.6448
  38   2.0000     -10.311142      -280.5804
  39   2.0000     -10.310252      -280.5562
  40   2.0000     -10.309497      -280.5357
  41   2.0000     -10.309199      -280.5276
  42   2.0000     -10.309004      -280.5223
  43   2.0000     -10.308381      -280.5053
  44   2.0000     -10.307639      -280.4851
  45   2.0000     -10.300238      -280.2837
  46   2.0000     -10.298479      -280.2359
  47   2.0000     -10.296438      -280.1803
  48   2.0000     -10.295800      -280.1630
  49   2.0000     -10.295306      -280.1495
  50   2.0000     -10.290636      -280.0224
  51   2.0000     -10.290091      -280.0076
  52   2.0000     -10.285647      -279.8867
  53   2.0000     -10.275227      -279.6031
  54   2.0000      -8.083922      -219.9747
  55   2.0000      -8.072976      -219.6768
  56   2.0000      -8.072548      -219.6652
  57   2.0000      -8.071281      -219.6307
  58   2.0000      -8.066534      -219.5015
  59   2.0000      -6.052779      -164.7045
  60   2.0000      -6.048510      -164.5883
  61   2.0000      -6.047105      -164.5501
  62   2.0000      -6.042711      -164.4305
  63   2.0000      -6.042181      -164.4161
  64   2.0000      -6.040354      -164.3664
  65   2.0000      -6.038470      -164.3151
  66   2.0000      -6.038063      -164.3040
  67   2.0000      -6.036330      -164.2569
  68   2.0000      -6.036157      -164.2522
  69   2.0000      -6.034448      -164.2057
  70   2.0000      -6.034164      -164.1980
  71   2.0000      -6.033931      -164.1916
  72   2.0000      -6.032008      -164.1393
  73   2.0000      -6.027945      -164.0287
  74   2.0000      -1.148306       -31.2470
  75   2.0000      -1.135023       -30.8855
  76   2.0000      -1.123217       -30.5643
  77   2.0000      -1.023227       -27.8434
  78   2.0000      -1.014246       -27.5990
  79   2.0000      -1.010151       -27.4876
  80   2.0000      -1.003328       -27.3020
  81   2.0000      -1.002087       -27.2682
  82   2.0000      -0.994378       -27.0584
  83   2.0000      -0.991714       -26.9859
  84   2.0000      -0.990327       -26.9482
  85   2.0000      -0.983937       -26.7743
  86   2.0000      -0.975991       -26.5581
  87   2.0000      -0.974005       -26.5040
  88   2.0000      -0.969746       -26.3881
  89   2.0000      -0.962370       -26.1874
  90   2.0000      -0.946083       -25.7442
  91   2.0000      -0.921266       -25.0689
  92   2.0000      -0.907086       -24.6831
  93   2.0000      -0.894231       -24.3333
  94   2.0000      -0.879695       -23.9377
  95   2.0000      -0.873319       -23.7642
  96   2.0000      -0.867524       -23.6065
  97   2.0000      -0.861748       -23.4494
  98   2.0000      -0.855000       -23.2657
  99   2.0000      -0.848780       -23.0965
 100   2.0000      -0.842333       -22.9210
 101   2.0000      -0.830671       -22.6037
 102   2.0000      -0.826955       -22.5026
 103   2.0000      -0.806921       -21.9574
 104   2.0000      -0.781757       -21.2727
 105   2.0000      -0.764399       -20.8004
 106   2.0000      -0.759532       -20.6679
 107   2.0000      -0.746217       -20.3056
 108   2.0000      -0.740568       -20.1519
 109   2.0000      -0.737194       -20.0601
 110   2.0000      -0.728517       -19.8239
 111   2.0000      -0.727041       -19.7838
 112   2.0000      -0.722695       -19.6655
 113   2.0000      -0.713189       -19.4069
 114   2.0000      -0.709288       -19.3007
 115   2.0000      -0.705738       -19.2041
 116   2.0000      -0.698193       -18.9988
 117   2.0000      -0.692291       -18.8382
 118   2.0000      -0.683079       -18.5875
 119   2.0000      -0.679871       -18.5002
 120   2.0000      -0.660926       -17.9847
 121   2.0000      -0.647594       -17.6219
 122   2.0000      -0.644253       -17.5310
 123   2.0000      -0.637214       -17.3395
 124   2.0000      -0.619321       -16.8526
 125   2.0000      -0.614703       -16.7269
 126   2.0000      -0.612016       -16.6538
 127   2.0000      -0.611196       -16.6315
 128   2.0000      -0.596924       -16.2431
 129   2.0000      -0.590103       -16.0575
 130   2.0000      -0.580473       -15.7955
 131   2.0000      -0.573367       -15.6021
 132   2.0000      -0.568818       -15.4783
 133   2.0000      -0.565602       -15.3908
 134   2.0000      -0.562506       -15.3066
 135   2.0000      -0.561446       -15.2777
 136   2.0000      -0.556604       -15.1460
 137   2.0000      -0.552840       -15.0436
 138   2.0000      -0.550685       -14.9849
 139   2.0000      -0.548786       -14.9332
 140   2.0000      -0.546869       -14.8811
 141   2.0000      -0.543693       -14.7946
 142   2.0000      -0.536866       -14.6089
 143   2.0000      -0.530914       -14.4469
 144   2.0000      -0.529007       -14.3950
 145   2.0000      -0.527597       -14.3566
 146   2.0000      -0.519583       -14.1386
 147   2.0000      -0.517510       -14.0822
 148   2.0000      -0.514337       -13.9958
 149   2.0000      -0.508466       -13.8361
 150   2.0000      -0.500792       -13.6272
 151   2.0000      -0.496278       -13.5044
 152   2.0000      -0.490294       -13.3416
 153   2.0000      -0.485993       -13.2246
 154   2.0000      -0.484324       -13.1791
 155   2.0000      -0.482578       -13.1316
 156   2.0000      -0.479576       -13.0499
 157   2.0000      -0.472089       -12.8462
 158   2.0000      -0.469121       -12.7654
 159   2.0000      -0.461838       -12.5672
 160   2.0000      -0.459056       -12.4915
 161   2.0000      -0.454776       -12.3751
 162   2.0000      -0.452545       -12.3144
 163   2.0000      -0.448675       -12.2091
 164   2.0000      -0.446877       -12.1601
 165   2.0000      -0.443339       -12.0639
 166   2.0000      -0.441504       -12.0139
 167   2.0000      -0.439386       -11.9563
 168   2.0000      -0.436982       -11.8909
 169   2.0000      -0.433532       -11.7970
 170   2.0000      -0.428562       -11.6618
 171   2.0000      -0.427194       -11.6245
 172   2.0000      -0.424196       -11.5430
 173   2.0000      -0.420111       -11.4318
 174   2.0000      -0.416994       -11.3470
 175   2.0000      -0.413598       -11.2546
 176   2.0000      -0.412879       -11.2350
 177   2.0000      -0.412296       -11.2192
 178   2.0000      -0.411352       -11.1935
 179   2.0000      -0.402155       -10.9432
 180   2.0000      -0.401335       -10.9209
 181   2.0000      -0.401132       -10.9153
 182   2.0000      -0.400897       -10.9090
 183   2.0000      -0.394633       -10.7385
 184   2.0000      -0.393316       -10.7027
 185   2.0000      -0.385517       -10.4905
 186   2.0000      -0.381176       -10.3723
 187   2.0000      -0.370615       -10.0850
 188   2.0000      -0.355314        -9.6686
 189   2.0000      -0.342428        -9.3179
 190   2.0000      -0.340830        -9.2745
 191   2.0000      -0.333646        -9.0790
 192   2.0000      -0.331368        -9.0170
 193   2.0000      -0.324669        -8.8347
 194   2.0000      -0.321188        -8.7400
 195   2.0000      -0.312687        -8.5087
 196   2.0000      -0.311518        -8.4768
 197   2.0000      -0.282735        -7.6936
 198   2.0000      -0.248509        -6.7623
 199   2.0000      -0.210782        -5.7357
 200   0.0000      -0.100169        -2.7257
 201   0.0000      -0.073240        -1.9930
 202   0.0000      -0.048787        -1.3276
 203   0.0000      -0.026750        -0.7279
 204   0.0000      -0.014673        -0.3993

MULLIKEN ATOMIC CHARGES
-----------------------
   0 C :   -0.132195
   1 S :    0.177171
   2 C :   -0.136177
   3 C :    0.149148
   4 C :    0.104191
   5 C :   -0.023457
   6 C :   -0.072620
   7 C :   -0.175983
   8 N :    0.170665
   9 C :   -0.069984
  10 C :   -0.177445
  11 N :    0.159295
  12 C :   -0.063732
  13 C :    0.026405
  14 C :    0.000708
  15 C :   -0.193977
  16 S :    0.136511
  17 C :   -0.166351
  18 C :    0.063844
  19 C :    0.137622
  20 N :   -0.058771
  21 C :    0.145564
  22 N :   -0.163380
  23 C :   -0.187384
  24 S :    0.170890
  25 C :   -0.191823
  26 C :    0.073015
  27 C :    0.086697
  28 N :   -0.029358
  29 C :    0.147098
  30 N :   -0.170897
  31 C :   -0.159773
  32 S :    0.141356
  33 C :   -0.206235
  34 C :    0.091815
  35 C :    0.076241
  36 N :   -0.031779
  37 C :    0.143493
  38 N :   -0.111390
  39 C :   -0.069208
  40 S :    0.150460
  41 C :   -0.114606
  42 C :    0.134481
  43 C :    0.082760
  44 C :   -0.031829
  45 C :   -0.092531
  46 C :   -0.170549
  47 N :    0.166695
  48 C :   -0.066718
  49 C :   -0.181061
  50 N :    0.165283
  51 C :   -0.063482
  52 C :    0.001813
  53 C :   -0.024816
  54 H :    0.028723
  55 H :   -0.006677
  56 H :   -0.026883
  57 H :   -0.015776
  58 H :   -0.038026
  59 H :    0.142130
  60 H :    0.027613
  61 H :    0.132116
  62 H :    0.023370
  63 H :    0.130937
  64 H :    0.024556
  65 H :   -0.027064
  66 H :   -0.011378
  67 H :   -0.002132
  68 H :    0.022632
  69 H :    0.030147
Sum of atomic charges:   -0.0000000

LOEWDIN ATOMIC CHARGES
----------------------
   0 C :   -0.197648
   1 S :    0.505031
   2 C :   -0.158135
   3 C :   -0.057720
   4 C :   -0.048137
   5 C :    0.036045
   6 C :   -0.058241
   7 C :   -0.032094
   8 N :   -0.038317
   9 C :   -0.063514
  10 C :   -0.033342
  11 N :   -0.049766
  12 C :    0.029810
  13 C :   -0.078670
  14 C :   -0.034245
  15 C :   -0.214102
  16 S :    0.431860
  17 C :   -0.174943
  18 C :   -0.069396
  19 C :   -0.017870
  20 N :    0.062697
  21 C :    0.069200
  22 N :   -0.120263
  23 C :   -0.230643
  24 S :    0.432298
  25 C :   -0.179798
  26 C :   -0.059937
  27 C :   -0.011980
  28 N :    0.073215
  29 C :    0.071111
  30 N :   -0.129962
  31 C :   -0.216673
  32 S :    0.419430
  33 C :   -0.189295
  34 C :   -0.047324
  35 C :   -0.016385
  36 N :    0.068813
  37 C :    0.075661
  38 N :   -0.120588
  39 C :   -0.175806
  40 S :    0.478792
  41 C :   -0.174230
  42 C :   -0.041519
  43 C :   -0.044826
  44 C :    0.042799
  45 C :   -0.066908
  46 C :   -0.029276
  47 N :   -0.050397
  48 C :   -0.052862
  49 C :   -0.030538
  50 N :   -0.043951
  51 C :    0.023304
  52 C :   -0.040568
  53 C :   -0.043931
  54 H :    0.028205
  55 H :    0.044706
  56 H :    0.033905
  57 H :    0.021899
  58 H :    0.025795
  59 H :    0.099201
  60 H :    0.026297
  61 H :    0.068283
  62 H :    0.024820
  63 H :    0.066986
  64 H :    0.026373
  65 H :    0.034467
  66 H :    0.039514
  67 H :    0.036365
  68 H :    0.017693
  69 H :    0.029223

  Mayer bond orders larger than 0.100000
B(  0-C ,  1-S ) :   1.1874 B(  0-C ,  4-C ) :   1.4163 B(  0-C , 54-H ) :   0.9716
B(  1-S ,  2-C ) :   1.1931 B(  2-C ,  3-C ) :   1.3058 B(  2-C , 13-C ) :   1.1818
B(  3-C ,  4-C ) :   1.1870 B(  3-C , 12-C ) :   1.1953 B(  4-C ,  5-C ) :   1.1567
B(  5-C ,  6-C ) :   1.5715 B(  5-C , 55-H ) :   1.0092 B(  6-C ,  7-C ) :   1.0750
B(  6-C ,  9-C ) :   1.2286 B(  7-C ,  8-N ) :   3.0461 B(  9-C , 10-C ) :   1.0822
B(  9-C , 12-C ) :   1.5741 B( 10-C , 11-N ) :   3.0394 B( 12-C , 56-H ) :   0.9959
B( 13-C , 14-C ) :   1.5859 B( 13-C , 57-H ) :   0.9483 B( 14-C , 15-C ) :   1.2562
B( 14-C , 58-H ) :   0.9685 B( 15-C , 16-S ) :   1.0326 B( 15-C , 17-C ) :   0.1306
B( 15-C , 19-C ) :   1.3889 B( 16-S , 17-C ) :   1.1440 B( 17-C , 18-C ) :   1.4021
B( 17-C , 23-C ) :   1.2496 B( 18-C , 19-C ) :   1.2844 B( 18-C , 22-N ) :   1.2683
B( 19-C , 20-N ) :   1.1706 B( 20-N , 21-C ) :   1.1896 B( 20-N , 59-H ) :   0.9285
B( 21-C , 22-N ) :   1.6669 B( 21-C , 60-H ) :   0.9794 B( 22-N , 61-H ) :   0.1532
B( 23-C , 24-S ) :   1.0619 B( 23-C , 25-C ) :   0.1429 B( 23-C , 27-C ) :   1.4394
B( 24-S , 25-C ) :   1.1235 B( 25-C , 26-C ) :   1.4121 B( 25-C , 31-C ) :   1.2355
B( 26-C , 27-C ) :   1.2944 B( 26-C , 30-N ) :   1.2815 B( 27-C , 28-N ) :   1.2400
B( 28-N , 29-C ) :   1.2204 B( 28-N , 61-H ) :   0.8521 B( 29-C , 30-N ) :   1.6347
B( 29-C , 62-H ) :   0.9807 B( 30-N , 63-H ) :   0.1576 B( 31-C , 32-S ) :   1.0832
B( 31-C , 33-C ) :   0.1474 B( 31-C , 35-C ) :   1.4367 B( 32-S , 33-C ) :   1.1015
B( 33-C , 34-C ) :   1.4021 B( 33-C , 39-C ) :   1.2360 B( 34-C , 35-C ) :   1.2683
B( 34-C , 38-N ) :   1.3050 B( 35-C , 36-N ) :   1.2469 B( 36-N , 37-C ) :   1.2046
B( 36-N , 63-H ) :   0.8503 B( 37-C , 38-N ) :   1.6517 B( 37-C , 64-H ) :   0.9813
B( 38-N , 65-H ) :   0.1554 B( 39-C , 40-S ) :   1.1613 B( 39-C , 41-C ) :   0.1061
B( 39-C , 43-C ) :   1.3342 B( 40-S , 41-C ) :   1.1222 B( 41-C , 42-C ) :   1.3435
B( 41-C , 52-C ) :   1.1507 B( 42-C , 43-C ) :   1.1891 B( 42-C , 51-C ) :   1.1784
B( 43-C , 44-C ) :   1.2244 B( 44-C , 45-C ) :   1.5426 B( 44-C , 65-H ) :   0.9553
B( 45-C , 46-C ) :   1.0903 B( 45-C , 48-C ) :   1.2312 B( 46-C , 47-N ) :   3.0390
B( 48-C , 49-C ) :   1.0772 B( 48-C , 51-C ) :   1.5798 B( 49-C , 50-N ) :   3.0451
B( 51-C , 66-H ) :   0.9968 B( 52-C , 53-C ) :   1.8965 B( 52-C , 67-H ) :   0.9578
B( 53-C , 68-H ) :   0.9576 B( 53-C , 69-H ) :   0.9490

-----------------------------------------------------------------------------
         ABSORPTION SPECTRUM VIA TRANSITION ELECTRIC DIPOLE MOMENTS
-----------------------------------------------------------------------------
State   Energy  Wavelength   fosc         T2         TX        TY        TZ
        (cm-1)    (nm)                  (au**2)     (au)      (au)      (au)
-----------------------------------------------------------------------------
   0   10976.9    911.0   1.584898373  47.53313  -0.54586   6.33157   2.67328
   1   17192.8    581.6   0.374521874   7.17143  -2.66436  -0.03266   0.26750
   2   19332.3    517.3   0.268742278   4.57645   2.12242  -0.06930  -0.25881
   3   21590.5    463.2   0.168228486   2.56514   1.06901  -1.08440  -0.49642
   4   25407.6    393.6   0.001343055   0.01740   0.12567  -0.03578   0.01813
   5   26334.6    379.7   0.022565195   0.28209   0.50584   0.12980  -0.09679
   6   27175.0    368.0   0.002970655   0.03599  -0.14559  -0.11499   0.03961
   7   28525.4    350.6   0.000086855   0.00100   0.03055  -0.00804   0.00206
   8   29037.9    344.4   0.051535969   0.58428   0.40853  -0.55521  -0.33034
   9   30200.4    331.1   0.057194167   0.62347   0.69573   0.35724   0.10864
  10   30459.0    328.3   0.004239216   0.04582  -0.07996   0.18475   0.07275
  11   31140.6    321.1   0.028112541   0.29720   0.41464  -0.33747  -0.10674
  12   31641.8    316.0   0.010119887   0.10529  -0.22228  -0.21648  -0.09496
  13   32922.9    303.7   0.028321555   0.28320  -0.37571  -0.35377  -0.12994
  14   33157.6    301.6   0.021729321   0.21574   0.37481  -0.23429  -0.14272
  15   33697.6    296.8   0.000359368   0.00351   0.05647  -0.00285   0.01773
  16   33978.5    294.3   0.001318271   0.01277  -0.10072   0.04781  -0.01849
  17   34489.2    289.9   0.194550789   1.85706  -0.82368   1.00872   0.40138
  18   35051.3    285.3   0.096738766   0.90860   0.83200  -0.42489  -0.18932
  19   35474.2    281.9   0.040350547   0.37447   0.54467   0.27721  -0.03086
  20   35715.8    280.0   0.468728502   4.32053  -1.88134   0.74497   0.47551
  21   36141.2    276.7   0.052333544   0.47671   0.09314   0.62616   0.27561
  22   36769.5    272.0   0.001463448   0.01310   0.04586  -0.02258  -0.10242
  23   37574.0    266.1   0.068589074   0.60096   0.19490   0.69574   0.28091
  24   37868.7    264.1   0.019655570   0.17088  -0.38196  -0.14664  -0.05901
  25   38161.8    262.0   0.037342698   0.32215   0.40066  -0.37380  -0.14794
  26   38653.2    258.7   0.001059981   0.00903  -0.08019   0.04617  -0.02158
  27   38877.2    257.2   0.005082240   0.04304  -0.16098   0.11451   0.06332
  28   39413.6    253.7   0.140359925   1.17239  -0.78798  -0.65642  -0.34727
  29   40070.8    249.6   0.003957673   0.03252  -0.01649   0.15493   0.09078
  30   40222.8    248.6   0.258318773   2.11426  -1.29268  -0.61357  -0.25840

FINAL SINGLE POINT ENERGY     -4031.004355523410

DIPOLE MOMENT
-------------
                                X             Y             Z
Electronic contribution:      1.43915       0.11764       0.67219
Nuclear contribution   :     -1.85422       3.15044       0.11230
                        -----------------------------------------
Total Dipole Moment    :     -0.41508       3.26808       0.78449
                        -----------------------------------------
Magnitude (a.u.)       :      3.38645
Magnitude (Debye)      :      8.60768

Rotational constants in cm-1:     0.003251     0.000412     0.000366
Rotational constants in MHz :    97.461969    12.343944    10.965431

                             ****ORCA TERMINATED NORMALLY****
TOTAL RUN TIME: 0 days 0 hours 5 minutes 9 seconds 10 msec
