                         Program Version 4.2.0 -  RELEASE  -
|  1> # ORCA input file
|  2> # SCF done       -179.153361579660          0.000226545972
|  3> ! CAM-B3LYP def2-SVP def2/J RIJCOSX Grid4 TightSCF
|  4> %maxcore 5000
|  5> %tddft
|  6>     Mode sTDDFT
|  7>     Ethresh 5.0
|  8>     maxcore 5000
|  9> end
| 10>
| 11> %pal
| 12>   nprocs 6
| 13>   end
| 14> * xyz 0 1
| 15>    C        1.10195        14.12582        -3.22354
| 16>    S        2.28213        12.89036        -3.21126
| 17>    C        1.81075        12.40867        -1.59799
| 18>    C        0.78463        13.20677        -1.12436
| 19>    C        0.37924        14.18209        -2.06429
| 20>    C       -0.69545        15.17544        -1.78839
| 21>    S        0.04644        16.86107        -1.58606
| 22>    C       -1.52903        14.78309        -0.57285
| 23>    C       -0.64236        14.32977         0.58181
| 24>    C        0.12014        13.05983         0.20805
| 25>    C        2.44708        11.32855        -0.93155
| 26>    C        3.45694        10.59615        -1.45914
| 27>    C        4.11572         9.53054        -0.79770
| 28>    C        3.83215         8.97010         0.52821
| 29>    N        4.63384         8.01126         0.89204
| 30>    C        5.50652         7.85066        -0.14759
| 31>    C        5.18701         8.77794        -1.23581
| 32>    C        6.13549         8.63380        -2.30759
| 33>    S        6.19630         9.52760        -3.69192
| 34>    C        7.03617         7.60317        -1.85161
| 35>    C        6.62643         7.14686        -0.51375
| 36>    N        7.51106         6.23162        -0.02342
| 37>    C        8.44571         6.13781        -0.92579
| 38>    C        8.23636         6.97334        -2.10836
| 39>    C        9.11565         7.06680        -3.23979
| 40>    C        8.61169         7.38352        -4.48550
| 41>    C        9.48461         7.52310        -5.57583
| 42>    C        9.23035         7.84602        -6.90625
| 43>    C        7.89187         8.07937        -7.51506
| 44>    C        7.76374         9.51064        -8.07565
| 45>    N        6.36668         9.87661        -8.17034
| 46>    C        7.58660         7.01152        -8.58178
| 47>    N        7.50607         5.71217        -7.94258
| 48>    C       10.51172         7.89338        -7.57145
| 49>    C       10.85985         8.19584        -8.83747
| 50>    C       12.27694         8.15196        -9.29488
| 51>    C       13.27228         7.85354        -8.22284
| 52>    C       12.91437         7.56226        -6.95776
| 53>    C       11.55103         7.56536        -6.58086
| 54>    C       10.91400         7.34032        -5.37569
| 55>    C       11.39655         6.98699        -4.09460
| 56>    C       10.52094         6.84710        -3.06649
| 57>    C       12.36361         7.08203       -10.35920
| 58>    C       12.47397         7.34723       -11.66388
| 59>    C       12.55990         6.36362       -12.69951
| 60>    C       12.69062         4.91399       -12.57315
| 61>    N       12.77231         4.27824       -13.71035
| 62>    C       12.69826         5.24152       -14.67220
| 63>    C       12.54604         6.56774       -14.06050
| 64>    C       12.48279         7.58514       -15.07774
| 65>    S       12.35136         9.20876       -14.84072
| 66>    C       12.61007         6.85597       -16.31427
| 67>    C       12.74790         5.41549       -16.03263
| 68>    N       12.90015         4.71212       -17.18748
| 69>    C       12.91535         5.59987       -18.13953
| 70>    C       12.75670         6.98598       -17.67626
| 71>    C       12.72985         8.14815       -18.49930
| 72>    S       11.79064         9.52623       -18.02678
| 73>    C       12.25795        10.40293       -19.44717
| 74>    C       13.12039         9.66016       -20.23444
| 75>    C       13.39003         8.38538       -19.69517
| 76>    C       14.34900         7.43682       -20.34213
| 77>    S       15.45498         6.61534       -19.10914
| 78>    C       15.19089         8.13115       -21.40634
| 79>    C       14.27995         8.94022       -22.32159
| 80>    C       13.68929        10.11248       -21.54314
| 81>    C       11.70848        11.72440       -19.59999
| 82>    C       12.11056        12.69019       -20.42381
| 83>    H        1.00158        14.75972        -4.08265
| 84>    H       -1.33443        15.30899        -2.66516
| 85>    H        0.95674        16.51333        -0.67944
| 86>    H       -2.19566        13.96550        -0.86027
| 87>    H       -2.14410        15.63142        -0.26878
| 88>    H       -1.25433        14.14151         1.46509
| 89>    H        0.06496        15.12377         0.83301
| 90>    H       -0.57901        12.21751         0.16081
| 91>    H        0.85920        12.82972         0.97847
| 92>    H        2.07818        11.10211         0.05930
| 93>    H        3.81738        10.83059        -2.45328
| 94>    H        3.03313         9.27679         1.18049
| 95>    H        9.26270         5.45076        -0.78706
| 96>    H        7.55051         7.51004        -4.62390
| 97>    H        7.13195         7.98109        -6.73637
| 98>    H        8.30437         9.58489        -9.03441
| 99>    H        8.23554        10.19868        -7.36887
|100>    H        5.89737         9.35606        -8.90191
|101>    H        6.25854        10.86504        -8.35974
|102>    H        8.34679         7.05924        -9.38077
|103>    H        6.60968         7.21406        -9.02840
|104>    H        8.39222         5.47659        -7.50789
|105>    H        7.27722         4.98996        -8.61549
|106>    H       10.13374         8.45535        -9.59425
|107>    H       12.51982         9.11279        -9.76906
|108>    H       14.30746         7.85423        -8.52839
|109>    H       13.66251         7.34001        -6.21061
|110>    H       12.45602         6.83929        -3.94446
|111>    H       10.88040         6.59692        -2.07969
|112>    H       12.31218         6.06778        -9.99073
|113>    H       12.49750         8.37365       -12.01005
|114>    H       12.72111         4.36591       -11.64781
|115>    H       12.95316         5.28440       -19.16609
|116>    H       13.81017         6.59788       -20.79438
|117>    H       15.85063         7.74098       -18.51475
|118>    H       15.74891         7.38214       -21.96946
|119>    H       15.91064         8.79948       -20.92720
|120>    H       13.47815         8.30039       -22.69644
|121>    H       14.84270         9.31332       -23.17816
|122>    H       12.90713        10.59935       -22.12997
|123>    H       14.47574        10.85088       -21.35542
|124>    H       10.88523        11.92750       -18.92551
|125>    H       12.94594        12.59114       -21.09113
|126>    H       11.60742        13.64160       -20.43190
|127> *
|128>
|129>                          ****END OF INPUT****

CARTESIAN COORDINATES (ANGSTROEM)
---------------------------------
  C      1.101950   14.125820   -3.223540
  S      2.282130   12.890360   -3.211260
  C      1.810750   12.408670   -1.597990
  C      0.784630   13.206770   -1.124360
  C      0.379240   14.182090   -2.064290
  C     -0.695450   15.175440   -1.788390
  S      0.046440   16.861070   -1.586060
  C     -1.529030   14.783090   -0.572850
  C     -0.642360   14.329770    0.581810
  C      0.120140   13.059830    0.208050
  C      2.447080   11.328550   -0.931550
  C      3.456940   10.596150   -1.459140
  C      4.115720    9.530540   -0.797700
  C      3.832150    8.970100    0.528210
  N      4.633840    8.011260    0.892040
  C      5.506520    7.850660   -0.147590
  C      5.187010    8.777940   -1.235810
  C      6.135490    8.633800   -2.307590
  S      6.196300    9.527600   -3.691920
  C      7.036170    7.603170   -1.851610
  C      6.626430    7.146860   -0.513750
  N      7.511060    6.231620   -0.023420
  C      8.445710    6.137810   -0.925790
  C      8.236360    6.973340   -2.108360
  C      9.115650    7.066800   -3.239790
  C      8.611690    7.383520   -4.485500
  C      9.484610    7.523100   -5.575830
  C      9.230350    7.846020   -6.906250
  C      7.891870    8.079370   -7.515060
  C      7.763740    9.510640   -8.075650
  N      6.366680    9.876610   -8.170340
  C      7.586600    7.011520   -8.581780
  N      7.506070    5.712170   -7.942580
  C     10.511720    7.893380   -7.571450
  C     10.859850    8.195840   -8.837470
  C     12.276940    8.151960   -9.294880
  C     13.272280    7.853540   -8.222840
  C     12.914370    7.562260   -6.957760
  C     11.551030    7.565360   -6.580860
  C     10.914000    7.340320   -5.375690
  C     11.396550    6.986990   -4.094600
  C     10.520940    6.847100   -3.066490
  C     12.363610    7.082030  -10.359200
  C     12.473970    7.347230  -11.663880
  C     12.559900    6.363620  -12.699510
  C     12.690620    4.913990  -12.573150
  N     12.772310    4.278240  -13.710350
  C     12.698260    5.241520  -14.672200
  C     12.546040    6.567740  -14.060500
  C     12.482790    7.585140  -15.077740
  S     12.351360    9.208760  -14.840720
  C     12.610070    6.855970  -16.314270
  C     12.747900    5.415490  -16.032630
  N     12.900150    4.712120  -17.187480
  C     12.915350    5.599870  -18.139530
  C     12.756700    6.985980  -17.676260
  C     12.729850    8.148150  -18.499300
  S     11.790640    9.526230  -18.026780
  C     12.257950   10.402930  -19.447170
  C     13.120390    9.660160  -20.234440
  C     13.390030    8.385380  -19.695170
  C     14.349000    7.436820  -20.342130
  S     15.454980    6.615340  -19.109140
  C     15.190890    8.131150  -21.406340
  C     14.279950    8.940220  -22.321590
  C     13.689290   10.112480  -21.543140
  C     11.708480   11.724400  -19.599990
  C     12.110560   12.690190  -20.423810
  H      1.001580   14.759720   -4.082650
  H     -1.334430   15.308990   -2.665160
  H      0.956740   16.513330   -0.679440
  H     -2.195660   13.965500   -0.860270
  H     -2.144100   15.631420   -0.268780
  H     -1.254330   14.141510    1.465090
  H      0.064960   15.123770    0.833010
  H     -0.579010   12.217510    0.160810
  H      0.859200   12.829720    0.978470
  H      2.078180   11.102110    0.059300
  H      3.817380   10.830590   -2.453280
  H      3.033130    9.276790    1.180490
  H      9.262700    5.450760   -0.787060
  H      7.550510    7.510040   -4.623900
  H      7.131950    7.981090   -6.736370
  H      8.304370    9.584890   -9.034410
  H      8.235540   10.198680   -7.368870
  H      5.897370    9.356060   -8.901910
  H      6.258540   10.865040   -8.359740
  H      8.346790    7.059240   -9.380770
  H      6.609680    7.214060   -9.028400
  H      8.392220    5.476590   -7.507890
  H      7.277220    4.989960   -8.615490
  H     10.133740    8.455350   -9.594250
  H     12.519820    9.112790   -9.769060
  H     14.307460    7.854230   -8.528390
  H     13.662510    7.340010   -6.210610
  H     12.456020    6.839290   -3.944460
  H     10.880400    6.596920   -2.079690
  H     12.312180    6.067780   -9.990730
  H     12.497500    8.373650  -12.010050
  H     12.721110    4.365910  -11.647810
  H     12.953160    5.284400  -19.166090
  H     13.810170    6.597880  -20.794380
  H     15.850630    7.740980  -18.514750
  H     15.748910    7.382140  -21.969460
  H     15.910640    8.799480  -20.927200
  H     13.478150    8.300390  -22.696440
  H     14.842700    9.313320  -23.178160
  H     12.907130   10.599350  -22.129970
  H     14.475740   10.850880  -21.355420
  H     10.885230   11.927500  -18.925510
  H     12.945940   12.591140  -21.091130
  H     11.607420   13.641600  -20.431900

 Total Charge           Charge          ....    0
 Multiplicity           Mult            ....    1
 Number of Electrons    NEL             ....  518
 Basis Dimension        Dim             .... 1196

ORBITAL ENERGIES
----------------

  NO   OCC          E(Eh)            E(eV)
   0   2.0000     -88.955252     -2420.5955
   1   2.0000     -88.949436     -2420.4372
   2   2.0000     -88.926978     -2419.8261
   3   2.0000     -88.907375     -2419.2927
   4   2.0000     -88.892569     -2418.8898
   5   2.0000     -88.880850     -2418.5709
   6   2.0000     -14.406933      -392.0326
   7   2.0000     -14.406795      -392.0288
   8   2.0000     -14.402677      -391.9168
   9   2.0000     -14.399611      -391.8333
  10   2.0000     -14.369395      -391.0111
  11   2.0000     -14.366847      -390.9418
  12   2.0000     -10.336391      -281.2675
  13   2.0000     -10.334575      -281.2181
  14   2.0000     -10.324998      -280.9575
  15   2.0000     -10.323626      -280.9202
  16   2.0000     -10.323043      -280.9043
  17   2.0000     -10.321148      -280.8527
  18   2.0000     -10.318150      -280.7711
  19   2.0000     -10.317238      -280.7463
  20   2.0000     -10.316645      -280.7302
  21   2.0000     -10.312318      -280.6124
  22   2.0000     -10.311740      -280.5967
  23   2.0000     -10.308339      -280.5042
  24   2.0000     -10.305682      -280.4319
  25   2.0000     -10.303350      -280.3684
  26   2.0000     -10.300627      -280.2943
  27   2.0000     -10.299887      -280.2742
  28   2.0000     -10.294820      -280.1363
  29   2.0000     -10.292775      -280.0806
  30   2.0000     -10.291930      -280.0577
  31   2.0000     -10.290927      -280.0303
  32   2.0000     -10.289387      -279.9885
  33   2.0000     -10.288747      -279.9710
  34   2.0000     -10.288108      -279.9537
  35   2.0000     -10.287490      -279.9368
  36   2.0000     -10.287421      -279.9350
  37   2.0000     -10.287000      -279.9235
  38   2.0000     -10.285501      -279.8827
  39   2.0000     -10.283514      -279.8287
  40   2.0000     -10.281299      -279.7684
  41   2.0000     -10.280248      -279.7398
  42   2.0000     -10.277351      -279.6609
  43   2.0000     -10.276828      -279.6467
  44   2.0000     -10.276732      -279.6441
  45   2.0000     -10.275825      -279.6194
  46   2.0000     -10.274862      -279.5932
  47   2.0000     -10.274115      -279.5729
  48   2.0000     -10.273878      -279.5664
  49   2.0000     -10.273397      -279.5534
  50   2.0000     -10.273352      -279.5521
  51   2.0000     -10.272951      -279.5412
  52   2.0000     -10.272881      -279.5393
  53   2.0000     -10.272678      -279.5338
  54   2.0000     -10.272334      -279.5244
  55   2.0000     -10.271188      -279.4932
  56   2.0000     -10.270143      -279.4648
  57   2.0000     -10.267186      -279.3843
  58   2.0000     -10.267073      -279.3813
  59   2.0000     -10.267057      -279.3808
  60   2.0000     -10.264644      -279.3152
  61   2.0000     -10.263860      -279.2938
  62   2.0000     -10.262349      -279.2527
  63   2.0000     -10.258783      -279.1557
  64   2.0000     -10.258398      -279.1452
  65   2.0000     -10.257884      -279.1312
  66   2.0000     -10.257733      -279.1271
  67   2.0000     -10.251715      -278.9633
  68   2.0000      -8.050551      -219.0666
  69   2.0000      -8.044934      -218.9138
  70   2.0000      -8.021943      -218.2882
  71   2.0000      -8.002870      -217.7692
  72   2.0000      -7.988373      -217.3747
  73   2.0000      -7.976321      -217.0467
  74   2.0000      -6.019543      -163.8001
  75   2.0000      -6.015553      -163.6915
  76   2.0000      -6.014050      -163.6506
  77   2.0000      -6.012970      -163.6212
  78   2.0000      -6.009939      -163.5388
  79   2.0000      -6.007432      -163.4705
  80   2.0000      -5.992342      -163.0599
  81   2.0000      -5.988328      -162.9507
  82   2.0000      -5.981769      -162.7722
  83   2.0000      -5.973325      -162.5424
  84   2.0000      -5.969439      -162.4367
  85   2.0000      -5.962457      -162.2467
  86   2.0000      -5.957219      -162.1042
  87   2.0000      -5.956702      -162.0901
  88   2.0000      -5.947801      -161.8479
  89   2.0000      -5.945219      -161.7776
  90   2.0000      -5.944668      -161.7626
  91   2.0000      -5.935734      -161.5195
  92   2.0000      -1.075928       -29.2775
  93   2.0000      -1.067093       -29.0371
  94   2.0000      -1.056357       -28.7449
  95   2.0000      -1.048412       -28.5288
  96   2.0000      -0.996083       -27.1048
  97   2.0000      -0.985941       -26.8288
  98   2.0000      -0.980078       -26.6693
  99   2.0000      -0.957873       -26.0651
 100   2.0000      -0.955437       -25.9988
 101   2.0000      -0.945906       -25.7394
 102   2.0000      -0.942991       -25.6601
 103   2.0000      -0.942008       -25.6334
 104   2.0000      -0.934187       -25.4205
 105   2.0000      -0.925462       -25.1831
 106   2.0000      -0.915635       -24.9157
 107   2.0000      -0.907519       -24.6948
 108   2.0000      -0.901805       -24.5394
 109   2.0000      -0.893414       -24.3110
 110   2.0000      -0.873798       -23.7773
 111   2.0000      -0.869907       -23.6714
 112   2.0000      -0.869595       -23.6629
 113   2.0000      -0.864154       -23.5148
 114   2.0000      -0.857625       -23.3372
 115   2.0000      -0.845448       -23.0058
 116   2.0000      -0.843892       -22.9635
 117   2.0000      -0.831889       -22.6368
 118   2.0000      -0.831275       -22.6202
 119   2.0000      -0.830303       -22.5937
 120   2.0000      -0.824687       -22.4409
 121   2.0000      -0.822566       -22.3832
 122   2.0000      -0.817420       -22.2431
 123   2.0000      -0.801252       -21.8032
 124   2.0000      -0.792142       -21.5553
 125   2.0000      -0.787643       -21.4328
 126   2.0000      -0.780706       -21.2441
 127   2.0000      -0.772336       -21.0163
 128   2.0000      -0.762985       -20.7619
 129   2.0000      -0.757769       -20.6199
 130   2.0000      -0.750719       -20.4281
 131   2.0000      -0.735617       -20.0172
 132   2.0000      -0.728303       -19.8181
 133   2.0000      -0.718562       -19.5531
 134   2.0000      -0.715155       -19.4604
 135   2.0000      -0.711229       -19.3535
 136   2.0000      -0.707141       -19.2423
 137   2.0000      -0.706878       -19.2351
 138   2.0000      -0.697045       -18.9676
 139   2.0000      -0.693383       -18.8679
 140   2.0000      -0.686709       -18.6863
 141   2.0000      -0.685813       -18.6619
 142   2.0000      -0.681355       -18.5406
 143   2.0000      -0.668642       -18.1947
 144   2.0000      -0.667009       -18.1502
 145   2.0000      -0.664527       -18.0827
 146   2.0000      -0.655585       -17.8394
 147   2.0000      -0.645991       -17.5783
 148   2.0000      -0.640857       -17.4386
 149   2.0000      -0.632903       -17.2222
 150   2.0000      -0.628243       -17.0954
 151   2.0000      -0.625877       -17.0310
 152   2.0000      -0.618010       -16.8169
 153   2.0000      -0.611229       -16.6324
 154   2.0000      -0.603128       -16.4119
 155   2.0000      -0.595791       -16.2123
 156   2.0000      -0.590549       -16.0697
 157   2.0000      -0.588942       -16.0259
 158   2.0000      -0.584705       -15.9106
 159   2.0000      -0.577374       -15.7111
 160   2.0000      -0.573932       -15.6175
 161   2.0000      -0.570038       -15.5115
 162   2.0000      -0.567890       -15.4531
 163   2.0000      -0.561889       -15.2898
 164   2.0000      -0.557637       -15.1741
 165   2.0000      -0.555270       -15.1097
 166   2.0000      -0.553176       -15.0527
 167   2.0000      -0.547507       -14.8984
 168   2.0000      -0.545452       -14.8425
 169   2.0000      -0.544324       -14.8118
 170   2.0000      -0.541879       -14.7453
 171   2.0000      -0.537077       -14.6146
 172   2.0000      -0.534255       -14.5378
 173   2.0000      -0.531502       -14.4629
 174   2.0000      -0.526399       -14.3240
 175   2.0000      -0.524940       -14.2843
 176   2.0000      -0.522282       -14.2120
 177   2.0000      -0.516995       -14.0682
 178   2.0000      -0.514937       -14.0121
 179   2.0000      -0.509952       -13.8765
 180   2.0000      -0.508912       -13.8482
 181   2.0000      -0.507377       -13.8064
 182   2.0000      -0.505364       -13.7517
 183   2.0000      -0.504720       -13.7341
 184   2.0000      -0.504065       -13.7163
 185   2.0000      -0.500473       -13.6186
 186   2.0000      -0.497917       -13.5490
 187   2.0000      -0.497135       -13.5277
 188   2.0000      -0.495286       -13.4774
 189   2.0000      -0.494285       -13.4502
 190   2.0000      -0.491962       -13.3870
 191   2.0000      -0.489667       -13.3245
 192   2.0000      -0.486905       -13.2493
 193   2.0000      -0.486721       -13.2444
 194   2.0000      -0.482552       -13.1309
 195   2.0000      -0.481690       -13.1074
 196   2.0000      -0.480296       -13.0695
 197   2.0000      -0.476705       -12.9718
 198   2.0000      -0.474784       -12.9195
 199   2.0000      -0.471651       -12.8343
 200   2.0000      -0.469593       -12.7783
 201   2.0000      -0.468808       -12.7569
 202   2.0000      -0.465020       -12.6538
 203   2.0000      -0.460979       -12.5439
 204   2.0000      -0.456202       -12.4139
 205   2.0000      -0.452123       -12.3029
 206   2.0000      -0.450102       -12.2479
 207   2.0000      -0.448648       -12.2083
 208   2.0000      -0.443019       -12.0552
 209   2.0000      -0.442481       -12.0405
 210   2.0000      -0.441738       -12.0203
 211   2.0000      -0.438464       -11.9312
 212   2.0000      -0.435859       -11.8603
 213   2.0000      -0.432360       -11.7651
 214   2.0000      -0.426773       -11.6131
 215   2.0000      -0.424500       -11.5512
 216   2.0000      -0.419443       -11.4136
 217   2.0000      -0.419361       -11.4114
 218   2.0000      -0.416205       -11.3255
 219   2.0000      -0.414765       -11.2863
 220   2.0000      -0.412230       -11.2173
 221   2.0000      -0.410257       -11.1637
 222   2.0000      -0.408267       -11.1095
 223   2.0000      -0.407952       -11.1009
 224   2.0000      -0.407458       -11.0875
 225   2.0000      -0.406489       -11.0611
 226   2.0000      -0.399538       -10.8720
 227   2.0000      -0.398539       -10.8448
 228   2.0000      -0.395027       -10.7492
 229   2.0000      -0.392208       -10.6725
 230   2.0000      -0.391221       -10.6457
 231   2.0000      -0.385774       -10.4975
 232   2.0000      -0.382089       -10.3972
 233   2.0000      -0.381710       -10.3869
 234   2.0000      -0.377939       -10.2842
 235   2.0000      -0.362703        -9.8697
 236   2.0000      -0.349448        -9.5090
 237   2.0000      -0.345015        -9.3883
 238   2.0000      -0.343527        -9.3478
 239   2.0000      -0.340379        -9.2622
 240   2.0000      -0.340263        -9.2590
 241   2.0000      -0.336110        -9.1460
 242   2.0000      -0.326410        -8.8821
 243   2.0000      -0.324708        -8.8357
 244   2.0000      -0.320411        -8.7188
 245   2.0000      -0.312672        -8.5082
 246   2.0000      -0.309396        -8.4191
 247   2.0000      -0.300650        -8.1811
 248   2.0000      -0.299269        -8.1435
 249   2.0000      -0.294395        -8.0109
 250   2.0000      -0.292800        -7.9675
 251   2.0000      -0.289282        -7.8718
 252   2.0000      -0.284850        -7.7512
 253   2.0000      -0.278674        -7.5831
 254   2.0000      -0.274346        -7.4653
 255   2.0000      -0.267145        -7.2694
 256   2.0000      -0.262964        -7.1556
 257   2.0000      -0.247277        -6.7288
 258   2.0000      -0.216612        -5.8943
 259   0.0000      -0.101366        -2.7583
 260   0.0000      -0.097226        -2.6457
 261   0.0000      -0.076117        -2.0712
 262   0.0000      -0.070083        -1.9071
 263   0.0000      -0.054100        -1.4721

MULLIKEN ATOMIC CHARGES
-----------------------
   0 C :   -0.092974
   1 S :    0.131269
   2 C :   -0.126001
   3 C :   -0.060094
   4 C :    0.030563
   5 C :   -0.161568
   6 S :   -0.046050
   7 C :    0.110581
   8 C :    0.011131
   9 C :    0.124609
  10 C :    0.004319
  11 C :   -0.028052
  12 C :    0.001217
  13 C :    0.048091
  14 N :   -0.032316
  15 C :    0.020715
  16 C :   -0.002374
  17 C :   -0.009554
  18 S :   -0.134327
  19 C :   -0.022827
  20 C :   -0.009790
  21 N :   -0.033363
  22 C :    0.041112
  23 C :    0.010445
  24 C :    0.059320
  25 C :   -0.036713
  26 C :    0.043423
  27 C :   -0.069161
  28 C :   -0.013571
  29 C :    0.133730
  30 N :   -0.208095
  31 C :    0.146135
  32 N :   -0.223851
  33 C :    0.108184
  34 C :   -0.126448
  35 C :    0.132051
  36 C :   -0.055114
  37 C :    0.023027
  38 C :    0.002963
  39 C :    0.044727
  40 C :   -0.008933
  41 C :   -0.016987
  42 C :   -0.044074
  43 C :    0.000531
  44 C :   -0.004697
  45 C :    0.047438
  46 N :   -0.026635
  47 C :    0.007220
  48 C :   -0.005683
  49 C :   -0.005993
  50 S :   -0.144265
  51 C :   -0.024387
  52 C :   -0.002438
  53 N :   -0.030684
  54 C :    0.077665
  55 C :   -0.000610
  56 C :   -0.163382
  57 S :    0.200318
  58 C :   -0.148447
  59 C :   -0.082031
  60 C :    0.042002
  61 C :   -0.195667
  62 S :   -0.011458
  63 C :    0.102238
  64 C :    0.031451
  65 C :    0.093637
  66 C :    0.032278
  67 C :   -0.027677
  68 H :    0.017133
  69 H :    0.044568
  70 H :    0.051687
  71 H :    0.006341
  72 H :    0.009296
  73 H :    0.005292
  74 H :   -0.003262
  75 H :    0.019075
  76 H :    0.014949
  77 H :   -0.017197
  78 H :    0.000625
  79 H :    0.002545
  80 H :    0.005351
  81 H :   -0.018955
  82 H :   -0.004141
  83 H :   -0.031906
  84 H :    0.006278
  85 H :    0.084925
  86 H :    0.091584
  87 H :   -0.031109
  88 H :   -0.018409
  89 H :    0.097592
  90 H :    0.089244
  91 H :    0.001244
  92 H :    0.029984
  93 H :   -0.009548
  94 H :   -0.034736
  95 H :   -0.038549
  96 H :   -0.032037
  97 H :    0.008057
  98 H :   -0.007883
  99 H :    0.003472
 100 H :    0.002206
 101 H :    0.056109
 102 H :    0.063544
 103 H :    0.011492
 104 H :    0.001948
 105 H :    0.006333
 106 H :    0.005696
 107 H :    0.024296
 108 H :    0.023045
 109 H :   -0.004727
 110 H :    0.016200
 111 H :    0.026254
Sum of atomic charges:   -0.0000000

LOEWDIN ATOMIC CHARGES
----------------------
   0 C :   -0.171990
   1 S :    0.454871
   2 C :   -0.184899
   3 C :   -0.048967
   4 C :   -0.092189
   5 C :   -0.114371
   6 S :    0.153261
   7 C :   -0.038840
   8 C :   -0.030115
   9 C :   -0.027307
  10 C :   -0.016613
  11 C :   -0.030957
  12 C :   -0.035112
  13 C :    0.080469
  14 N :   -0.081297
  15 C :    0.032481
  16 C :   -0.047860
  17 C :   -0.137751
  18 S :    0.052713
  19 C :   -0.046767
  20 C :    0.033198
  21 N :   -0.083498
  22 C :    0.077612
  23 C :   -0.022714
  24 C :   -0.042094
  25 C :    0.028270
  26 C :   -0.021794
  27 C :   -0.024164
  28 C :   -0.038177
  29 C :    0.026751
  30 N :   -0.112951
  31 C :    0.025590
  32 N :   -0.117134
  33 C :   -0.020551
  34 C :    0.068437
  35 C :   -0.028297
  36 C :   -0.038093
  37 C :   -0.014979
  38 C :   -0.039822
  39 C :   -0.029614
  40 C :   -0.014459
  41 C :   -0.027013
  42 C :    0.012758
  43 C :   -0.032741
  44 C :   -0.038632
  45 C :    0.076125
  46 N :   -0.081194
  47 C :    0.019346
  48 C :   -0.040402
  49 C :   -0.139907
  50 S :    0.029558
  51 C :   -0.054282
  52 C :    0.045880
  53 N :   -0.089595
  54 C :    0.081232
  55 C :   -0.051845
  56 C :   -0.190001
  57 S :    0.492403
  58 C :   -0.174749
  59 C :   -0.057591
  60 C :   -0.073541
  61 C :   -0.118781
  62 S :    0.221531
  63 C :   -0.038065
  64 C :   -0.028728
  65 C :   -0.027585
  66 C :   -0.041175
  67 C :   -0.043182
  68 H :    0.024031
  69 H :    0.032490
  70 H :   -0.037908
  71 H :    0.024547
  72 H :    0.025000
  73 H :    0.027252
  74 H :    0.016475
  75 H :    0.034574
  76 H :    0.030586
  77 H :    0.029062
  78 H :    0.022960
  79 H :    0.020574
  80 H :    0.022955
  81 H :    0.021528
  82 H :    0.034693
  83 H :   -0.006756
  84 H :    0.023657
  85 H :    0.047759
  86 H :    0.054757
  87 H :   -0.007126
  88 H :    0.012150
  89 H :    0.051751
  90 H :    0.053277
  91 H :    0.026839
  92 H :    0.055853
  93 H :    0.025232
  94 H :    0.030168
  95 H :    0.026295
  96 H :    0.023978
  97 H :    0.026831
  98 H :    0.027553
  99 H :    0.022014
 100 H :    0.019296
 101 H :    0.029811
 102 H :   -0.026789
 103 H :    0.027397
 104 H :    0.021439
 105 H :    0.023415
 106 H :    0.027100
 107 H :    0.034568
 108 H :    0.031630
 109 H :    0.029992
 110 H :    0.021036
 111 H :    0.027957

  Mayer bond orders larger than 0.100000
B(  0-C ,  1-S ) :   1.1789 B(  0-C ,  4-C ) :   1.5451 B(  0-C , 68-H ) :   0.9686
B(  1-S ,  2-C ) :   1.1243 B(  2-C ,  3-C ) :   1.4826 B(  2-C , 10-C ) :   1.1649
B(  3-C ,  4-C ) :   1.3169 B(  3-C ,  9-C ) :   1.0556 B(  4-C ,  5-C ) :   0.9447
B(  5-C ,  6-S ) :   1.0429 B(  5-C ,  7-C ) :   1.0186 B(  5-C , 69-H ) :   0.9217
B(  6-S , 70-H ) :   0.9526 B(  7-C ,  8-C ) :   1.0682 B(  7-C , 71-H ) :   0.9354
B(  7-C , 72-H ) :   0.9321 B(  8-C ,  9-C ) :   1.0832 B(  8-C , 73-H ) :   0.9339
B(  8-C , 74-H ) :   0.9458 B(  9-C , 75-H ) :   0.9122 B(  9-C , 76-H ) :   0.9127
B( 10-C , 11-C ) :   1.6218 B( 10-C , 77-H ) :   0.9687 B( 11-C , 12-C ) :   1.1383
B( 11-C , 78-H ) :   0.9660 B( 12-C , 13-C ) :   1.0078 B( 12-C , 16-C ) :   1.4920
B( 13-C , 14-N ) :   1.7439 B( 13-C , 79-H ) :   0.9887 B( 14-N , 15-C ) :   1.2512
B( 15-C , 16-C ) :   1.0771 B( 15-C , 20-C ) :   1.5165 B( 16-C , 17-C ) :   1.0411
B( 17-C , 18-S ) :   1.6707 B( 17-C , 19-C ) :   1.0425 B( 19-C , 20-C ) :   1.0700
B( 19-C , 23-C ) :   1.5393 B( 20-C , 21-N ) :   1.2645 B( 21-N , 22-C ) :   1.7226
B( 22-C , 23-C ) :   1.0368 B( 22-C , 80-H ) :   0.9892 B( 23-C , 24-C ) :   1.0148
B( 24-C , 25-C ) :   1.5138 B( 24-C , 41-C ) :   1.1162 B( 25-C , 26-C ) :   1.1642
B( 25-C , 81-H ) :   0.9826 B( 26-C , 27-C ) :   1.4695 B( 26-C , 39-C ) :   1.1123
B( 27-C , 28-C ) :   1.0422 B( 27-C , 33-C ) :   1.0765 B( 28-C , 29-C ) :   1.0336
B( 28-C , 31-C ) :   1.0323 B( 28-C , 82-H ) :   0.8712 B( 29-C , 30-N ) :   1.1072
B( 29-C , 83-H ) :   0.9286 B( 29-C , 84-H ) :   0.9431 B( 30-N , 85-H ) :   0.9716
B( 30-N , 86-H ) :   0.9685 B( 31-C , 32-N ) :   1.0900 B( 31-C , 87-H ) :   0.9328
B( 31-C , 88-H ) :   0.9333 B( 32-N , 89-H ) :   0.9706 B( 32-N , 90-H ) :   0.9666
B( 33-C , 34-C ) :   1.6337 B( 33-C , 38-C ) :   1.0489 B( 34-C , 35-C ) :   0.9849
B( 34-C , 91-H ) :   0.9667 B( 35-C , 36-C ) :   0.9803 B( 35-C , 42-C ) :   0.9501
B( 35-C , 92-H ) :   0.8772 B( 36-C , 37-C ) :   1.7084 B( 36-C , 93-H ) :   0.9782
B( 37-C , 38-C ) :   1.1341 B( 37-C , 94-H ) :   0.9896 B( 38-C , 39-C ) :   1.4364
B( 39-C , 40-C ) :   1.1412 B( 40-C , 41-C ) :   1.6104 B( 40-C , 95-H ) :   0.9918
B( 41-C , 96-H ) :   0.9844 B( 42-C , 43-C ) :   1.7678 B( 42-C , 97-H ) :   0.9646
B( 43-C , 44-C ) :   1.0792 B( 43-C , 98-H ) :   0.9673 B( 44-C , 45-C ) :   1.0321
B( 44-C , 48-C ) :   1.5234 B( 45-C , 46-N ) :   1.7145 B( 45-C , 99-H ) :   0.9901
B( 46-N , 47-C ) :   1.2761 B( 47-C , 48-C ) :   1.0707 B( 47-C , 52-C ) :   1.5103
B( 48-C , 49-C ) :   1.0323 B( 49-C , 50-S ) :   1.6860 B( 49-C , 51-C ) :   1.0305
B( 51-C , 52-C ) :   1.0694 B( 51-C , 55-C ) :   1.5713 B( 52-C , 53-N ) :   1.2723
B( 53-N , 54-C ) :   1.7203 B( 54-C , 55-C ) :   0.9981 B( 54-C ,100-H ) :   0.9898
B( 55-C , 56-C ) :   1.0710 B( 56-C , 57-S ) :   1.1627 B( 56-C , 58-C ) :   0.1065
B( 56-C , 60-C ) :   1.4858 B( 57-S , 58-C ) :   1.1473 B( 58-C , 59-C ) :   1.5070
B( 58-C , 66-C ) :   1.0933 B( 59-C , 60-C ) :   1.3468 B( 59-C , 65-C ) :   1.0504
B( 60-C , 61-C ) :   0.9505 B( 61-C , 62-S ) :   1.0579 B( 61-C , 63-C ) :   1.0349
B( 61-C ,101-H ) :   0.8928 B( 62-S ,102-H ) :   0.9532 B( 63-C , 64-C ) :   1.0619
B( 63-C ,103-H ) :   0.9320 B( 63-C ,104-H ) :   0.9390 B( 64-C , 65-C ) :   1.0876
B( 64-C ,105-H ) :   0.9425 B( 64-C ,106-H ) :   0.9326 B( 65-C ,107-H ) :   0.9166
B( 65-C ,108-H ) :   0.9074 B( 66-C , 67-C ) :   1.9373 B( 66-C ,109-H ) :   0.9463
B( 67-C ,110-H ) :   0.9576 B( 67-C ,111-H ) :   0.9440

-----------------------------------------------------------------------------
         ABSORPTION SPECTRUM VIA TRANSITION ELECTRIC DIPOLE MOMENTS
-----------------------------------------------------------------------------
State   Energy  Wavelength   fosc         T2         TX        TY        TZ
        (cm-1)    (nm)                  (au**2)     (au)      (au)      (au)
-----------------------------------------------------------------------------
   0   10614.9    942.1   0.092950461   2.88278  -0.79805   0.34026   1.45949
   1   13352.5    748.9   0.037129598   0.91545   0.29220  -0.05644   0.90933
   2   14608.3    684.5   0.052415207   1.18123  -0.94920   0.18449   0.49620
   3   15572.8    642.1   0.140580061   2.97189  -1.27923   1.12799   0.25117
   4   15842.9    631.2   0.008944943   0.18587  -0.29483   0.30559   0.07462
   5   16240.5    615.7   0.030431892   0.61689  -0.00520  -0.44470   0.64738
   6   17192.1    581.7   0.146936073   2.81368   1.31182  -0.11490  -1.03905
   7   17489.0    571.8   0.076765995   1.44504  -0.21669   0.59028  -1.02453
   8   17760.8    563.0   0.012587146   0.23331   0.11507  -0.31270   0.34970
   9   18909.2    528.8   0.021569945   0.37554   0.05360   0.24686  -0.55832
  10   19093.3    523.7   0.196448949   3.38722   1.38751  -0.44169  -1.12559
  11   20453.2    488.9   0.036897380   0.59390   0.29808  -0.22807  -0.67307
  12   20736.3    482.2   0.025444400   0.40396   0.31639  -0.00775  -0.55118
  13   22573.9    443.0   0.386238522   5.63281   1.72239  -1.60928  -0.27642
  14   22667.7    441.2   0.154906412   2.24977  -0.45705   1.05148  -0.96710
  15   24702.4    404.8   0.446168516   5.94615  -1.69437   0.81491   1.55280
  16   25332.2    394.8   0.311050010   4.04233  -0.26694  -0.73357   1.85282
  17   25405.1    393.6   0.001410915   0.01828  -0.00693   0.11081  -0.07718
  18   25924.8    385.7   0.063365740   0.80466  -0.01875   0.06719   0.89431
  19   26039.4    384.0   0.218829693   2.76662   0.49321   0.54870  -1.49074
  20   26180.6    382.0   0.048676330   0.61209   0.51645  -0.57109   0.13865
  21   26578.5    376.2   0.005492726   0.06804  -0.21454   0.09292   0.11564
  22   26655.4    375.2   0.052481100   0.64818   0.63169  -0.36698  -0.33834
  23   26859.5    372.3   0.301955667   3.70102   0.66150   0.08797  -1.80435
  24   27328.4    365.9   0.002248632   0.02709  -0.14799   0.00029   0.07202
  25   27614.8    362.1   0.141641715   1.68859  -0.17279   0.53562  -1.17126
  26   27888.8    358.6   0.214313433   2.52985   0.22947   0.01743  -1.57381
  27   28168.2    355.0   0.074436340   0.86997   0.23807  -0.32752   0.84025
  28   28687.6    348.6   0.002228989   0.02558   0.12801  -0.03118   0.09067
  29   28942.9    345.5   0.014514586   0.16510  -0.35404   0.17459  -0.09629
  30   29061.0    344.1   0.010214299   0.11571   0.11209  -0.06508  -0.31450
  31   29387.9    340.3   0.015542592   0.17411  -0.27934  -0.00110   0.30997
  32   29722.1    336.4   0.000974579   0.01079  -0.02671  -0.00625  -0.10021
  33   29925.1    334.2   0.101382556   1.11533   0.65988  -0.17963  -0.80475
  34   30313.2    329.9   0.083711424   0.90914  -0.78037   0.23501   0.49490
  35   30343.9    329.6   0.003477403   0.03773  -0.02908   0.19150  -0.01444
  36   30526.5    327.6   0.082471509   0.88941  -0.47421   0.52651  -0.62235
  37   30770.2    325.0   0.046754021   0.50022  -0.32093  -0.19612   0.59897
  38   30902.2    323.6   0.014590637   0.15544   0.33904  -0.16241  -0.11881
  39   31002.8    322.6   0.029455735   0.31278  -0.39990   0.00499   0.39095
  40   31058.0    322.0   0.016344645   0.17325  -0.29861   0.28072  -0.07266
  41   31249.2    320.0   0.002741113   0.02888   0.10820  -0.12323  -0.04455
  42   31828.7    314.2   0.021545693   0.22285   0.36542  -0.19166  -0.22932
  43   32073.0    311.8   0.073613620   0.75560  -0.66240   0.14936   0.54270
  44   32818.7    304.7   0.129623656   1.30029  -0.90340   0.39214   0.57478
  45   33304.7    300.3   0.017957406   0.17751   0.23022  -0.35233   0.01915
  46   33568.2    297.9   0.021194539   0.20786   0.26193  -0.07497  -0.36556
  47   33659.0    297.1   0.198843173   1.94485   0.92547  -0.11662  -1.03670
  48   33848.6    295.4   0.027382095   0.26632   0.18747   0.14515  -0.45837
  49   34059.9    293.6   0.038081477   0.36808   0.02266   0.41114  -0.44557
  50   34109.0    293.2   0.018941315   0.18282  -0.24701   0.16021   0.31006
  51   34176.6    292.6   0.020769865   0.20007   0.10275  -0.39734   0.17787
  52   34376.1    290.9   0.042240323   0.40453  -0.46658   0.40061  -0.16228
  53   34414.7    290.6   0.149313001   1.42833   0.17373  -0.41507   1.10719
  54   34609.2    288.9   0.077951636   0.74150  -0.57225   0.55993  -0.31703
  55   34790.5    287.4   0.027605926   0.26123   0.33085  -0.11137  -0.37331
  56   35072.1    285.1   0.049070858   0.46061   0.34528  -0.55535   0.18161
  57   35266.9    283.6   0.046613767   0.43513   0.00656   0.29185  -0.59154
  58   35421.3    282.3   0.116466158   1.08246   0.70080  -0.55808  -0.52904
  59   35626.7    280.7   0.009403754   0.08690   0.12626   0.19926  -0.17678
  60   35661.5    280.4   0.003077145   0.02841   0.06528   0.04735   0.14800
  61   35854.8    278.9   0.007430284   0.06822  -0.14176   0.18831   0.11255
  62   35947.4    278.2   0.139230952   1.27510  -0.50262   0.03207  -1.01067
  63   36200.9    276.2   0.242160803   2.20222   0.38044  -1.22737   0.74232
  64   36363.4    275.0   0.013530914   0.12250   0.11965  -0.29570   0.14403
  65   36587.5    273.3   0.028518772   0.25661  -0.35213   0.01435   0.36388
  66   36733.4    272.2   0.041654350   0.37331   0.45701  -0.39558   0.08926
  67   36888.8    271.1   0.019319831   0.17242   0.34614  -0.03982  -0.22588
  68   36962.7    270.5   0.045965558   0.40940   0.00511   0.39520  -0.50318
  69   37045.9    269.9   0.016372045   0.14549   0.10402   0.19968  -0.30790
  70   37154.2    269.1   0.099171770   0.87873  -0.36235  -0.18650   0.84418
  71   37327.2    267.9   0.105890419   0.93391   0.34900  -0.08388  -0.89726
  72   37433.1    267.1   0.031617815   0.27807   0.03024  -0.18002   0.49472
  73   37569.4    266.2   0.012292736   0.10772  -0.22282   0.20952  -0.11903
  74   38101.3    262.5   0.058184467   0.50274   0.07783   0.25121  -0.65846
  75   38266.0    261.3   0.240096025   2.06560  -0.01306   0.71276  -1.24796
  76   38562.2    259.3   0.169495671   1.44701   0.16511   0.08869  -1.18823
  77   38752.3    258.0   0.155637467   1.32219   0.30260  -0.73062   0.83475
  78   39000.6    256.4   0.007094813   0.05989  -0.16698   0.07483   0.16250
  79   39287.1    254.5   0.059323943   0.49711  -0.27171  -0.19417   0.62095
  80   39485.9    253.3   0.092041929   0.76740  -0.25520  -0.45506   0.70369
  81   39580.1    252.7   0.168867651   1.40458  -0.22118   1.09478  -0.39636
  82   39827.9    251.1   0.025895621   0.21405  -0.08948   0.45261   0.03446
  83   39971.9    250.2   0.008731387   0.07191   0.10958   0.22096  -0.10527
  84   40100.2    249.4   0.033561299   0.27553   0.00236   0.49136  -0.18462

FINAL SINGLE POINT ENERGY     -4873.936221254105

DIPOLE MOMENT
-------------
                                X             Y             Z
Electronic contribution:     16.21701     -24.10944      14.45701
Nuclear contribution   :    -15.93649      26.03338     -17.46843
                        -----------------------------------------
Total Dipole Moment    :      0.28053       1.92394      -3.01143
                        -----------------------------------------
Magnitude (a.u.)       :      3.58454
Magnitude (Debye)      :      9.11117

Rotational constants in cm-1:     0.001402     0.000226     0.000200
Rotational constants in MHz :    42.018334     6.789168     5.995892

                             ****ORCA TERMINATED NORMALLY****
TOTAL RUN TIME: 0 days 0 hours 10 minutes 46 seconds 348 msec
