                         Program Version 4.2.0 -  RELEASE  -
|  1> # ORCA input file
|  2> # SCF done       -180.488222224234          0.000657624963
|  3> ! CAM-B3LYP def2-SVP def2/J RIJCOSX Grid4 TightSCF
|  4> %maxcore 5000
|  5> %tddft
|  6>     Mode sTDDFT
|  7>     Ethresh 5.0
|  8>     maxcore 5000
|  9> end
| 10>
| 11> %pal
| 12>   nprocs 6
| 13>   end
| 14> * xyz 0 1
| 15>    C        2.80327         2.81778        -1.78728
| 16>    C        2.31950         1.91066        -2.72668
| 17>    C        1.88843         0.58831        -2.34333
| 18>    N        1.54050        -0.30075        -3.29304
| 19>    C        1.49829         0.08266        -4.53829
| 20>    C        1.81105         1.44161        -4.90593
| 21>    N        2.23805         2.29558        -4.01932
| 22>    C        1.65929         1.84663        -6.25743
| 23>    N        1.51174         2.13275        -7.35622
| 24>    C        1.11156        -0.85273        -5.53143
| 25>    N        0.76771        -1.57798        -6.34811
| 26>    C        1.87765         0.18192        -0.99308
| 27>    C        2.37046         1.10078        -0.05480
| 28>    C        2.83907         2.41444        -0.46014
| 29>    N        3.25817         3.13021         0.59459
| 30>    S        3.07022         2.25533         1.91680
| 31>    N        2.45018         0.93790         1.26817
| 32>    C        1.41776        -1.12785        -0.61215
| 33>    N        1.99042        -1.82285         0.34756
| 34>    C        1.37378        -3.02834         0.34971
| 35>    C        0.37100        -3.10642        -0.72927
| 36>    C       -0.31599        -4.41049        -0.71201
| 37>    O       -1.08641        -4.86282        -1.52770
| 38>    C        0.20903        -5.01876         0.51981
| 39>    C        1.28132        -4.16907         1.10176
| 40>    N        1.72588        -4.70743         2.26604
| 41>    C        0.98423        -5.76811         2.45921
| 42>    C       -0.01087        -6.00332         1.42383
| 43>    C        0.32872        -1.86226        -1.29570
| 44>    C       -0.62837        -1.32041        -2.21536
| 45>    C       -1.39163        -2.12509        -2.97535
| 46>    C       -2.47360        -1.71957        -3.84932
| 47>    C       -2.41664        -0.55177        -4.61066
| 48>    F       -1.35068         0.27479        -4.48312
| 49>    C       -3.38442        -0.19628        -5.52678
| 50>    C       -4.48677        -1.02283        -5.68730
| 51>    C       -4.61289        -2.15961        -4.91817
| 52>    C       -3.63479        -2.52858        -3.98543
| 53>    C       -3.81470        -3.65486        -3.10668
| 54>    C       -4.91792        -4.43570        -2.99106
| 55>    C       -4.96029        -5.47867        -2.02774
| 56>    N       -3.98506        -5.67405        -1.15049
| 57>    C       -4.34152        -6.74365        -0.42338
| 58>    C       -5.66102        -7.26021        -0.83571
| 59>    C       -6.02816        -8.43921        -0.03022
| 60>    O       -7.03648        -9.10755        -0.08768
| 61>    C       -4.86084        -8.59799         0.85470
| 62>    C       -3.86078        -7.54702         0.58525
| 63>    N       -2.78172        -7.70152         1.39186
| 64>    C       -3.04919        -8.75889         2.12550
| 65>    C       -4.32747        -9.36664         1.84102
| 66>    C       -6.07183        -6.45877        -1.87118
| 67>    C       -7.25219        -6.47926        -2.66013
| 68>    C       -8.29210        -7.31994        -2.43231
| 69>    C       -9.48920        -7.34945        -3.20831
| 70>    C      -10.53616        -8.22933        -2.83077
| 71>    C      -11.76582        -8.32258        -3.57900
| 72>    N      -12.73756        -9.17670        -3.18340
| 73>    C      -12.53998        -9.90087        -2.11812
| 74>    C      -11.31465        -9.80019        -1.36362
| 75>    N      -10.36504        -8.98442        -1.73348
| 76>    C      -11.14815       -10.59343        -0.20017
| 77>    N      -11.07393       -11.25381         0.73235
| 78>    C      -13.55238       -10.79942        -1.69032
| 79>    N      -14.34705       -11.53275        -1.31396
| 80>    C      -11.98692        -7.54763        -4.71152
| 81>    C      -10.97954        -6.67249        -5.09524
| 82>    C       -9.73626        -6.56207        -4.35528
| 83>    N       -8.92431        -5.65555        -4.91102
| 84>    S       -9.63906        -5.02763        -6.20309
| 85>    N      -11.00674        -5.84407        -6.14888
| 86>    H        3.12499         3.79924        -2.09278
| 87>    H        1.14388        -6.38869         3.32424
| 88>    H       -0.75764        -6.77634         1.41534
| 89>    H       -0.77391        -0.24897        -2.19837
| 90>    H       -1.20058        -3.18788        -2.93269
| 91>    H       -3.26214         0.70585        -6.10471
| 92>    H       -5.24628        -0.76563        -6.40885
| 93>    H       -5.48409        -2.78205        -5.04367
| 94>    H       -3.01078        -3.90732        -2.42959
| 95>    H       -5.79195        -4.30010        -3.61062
| 96>    H       -2.34184        -9.10137         2.86143
| 97>    H       -4.72927       -10.23446         2.32500
| 98>    H       -7.31857        -5.77770        -3.47893
| 99>    H       -8.25374        -8.02711        -1.61347
|100>    H      -12.90825        -7.62965        -5.26216
|101> *
|102>
|103>                          ****END OF INPUT****

CARTESIAN COORDINATES (ANGSTROEM)
---------------------------------
  C      2.803270    2.817780   -1.787280
  C      2.319500    1.910660   -2.726680
  C      1.888430    0.588310   -2.343330
  N      1.540500   -0.300750   -3.293040
  C      1.498290    0.082660   -4.538290
  C      1.811050    1.441610   -4.905930
  N      2.238050    2.295580   -4.019320
  C      1.659290    1.846630   -6.257430
  N      1.511740    2.132750   -7.356220
  C      1.111560   -0.852730   -5.531430
  N      0.767710   -1.577980   -6.348110
  C      1.877650    0.181920   -0.993080
  C      2.370460    1.100780   -0.054800
  C      2.839070    2.414440   -0.460140
  N      3.258170    3.130210    0.594590
  S      3.070220    2.255330    1.916800
  N      2.450180    0.937900    1.268170
  C      1.417760   -1.127850   -0.612150
  N      1.990420   -1.822850    0.347560
  C      1.373780   -3.028340    0.349710
  C      0.371000   -3.106420   -0.729270
  C     -0.315990   -4.410490   -0.712010
  O     -1.086410   -4.862820   -1.527700
  C      0.209030   -5.018760    0.519810
  C      1.281320   -4.169070    1.101760
  N      1.725880   -4.707430    2.266040
  C      0.984230   -5.768110    2.459210
  C     -0.010870   -6.003320    1.423830
  C      0.328720   -1.862260   -1.295700
  C     -0.628370   -1.320410   -2.215360
  C     -1.391630   -2.125090   -2.975350
  C     -2.473600   -1.719570   -3.849320
  C     -2.416640   -0.551770   -4.610660
  F     -1.350680    0.274790   -4.483120
  C     -3.384420   -0.196280   -5.526780
  C     -4.486770   -1.022830   -5.687300
  C     -4.612890   -2.159610   -4.918170
  C     -3.634790   -2.528580   -3.985430
  C     -3.814700   -3.654860   -3.106680
  C     -4.917920   -4.435700   -2.991060
  C     -4.960290   -5.478670   -2.027740
  N     -3.985060   -5.674050   -1.150490
  C     -4.341520   -6.743650   -0.423380
  C     -5.661020   -7.260210   -0.835710
  C     -6.028160   -8.439210   -0.030220
  O     -7.036480   -9.107550   -0.087680
  C     -4.860840   -8.597990    0.854700
  C     -3.860780   -7.547020    0.585250
  N     -2.781720   -7.701520    1.391860
  C     -3.049190   -8.758890    2.125500
  C     -4.327470   -9.366640    1.841020
  C     -6.071830   -6.458770   -1.871180
  C     -7.252190   -6.479260   -2.660130
  C     -8.292100   -7.319940   -2.432310
  C     -9.489200   -7.349450   -3.208310
  C    -10.536160   -8.229330   -2.830770
  C    -11.765820   -8.322580   -3.579000
  N    -12.737560   -9.176700   -3.183400
  C    -12.539980   -9.900870   -2.118120
  C    -11.314650   -9.800190   -1.363620
  N    -10.365040   -8.984420   -1.733480
  C    -11.148150  -10.593430   -0.200170
  N    -11.073930  -11.253810    0.732350
  C    -13.552380  -10.799420   -1.690320
  N    -14.347050  -11.532750   -1.313960
  C    -11.986920   -7.547630   -4.711520
  C    -10.979540   -6.672490   -5.095240
  C     -9.736260   -6.562070   -4.355280
  N     -8.924310   -5.655550   -4.911020
  S     -9.639060   -5.027630   -6.203090
  N    -11.006740   -5.844070   -6.148880
  H      3.124990    3.799240   -2.092780
  H      1.143880   -6.388690    3.324240
  H     -0.757640   -6.776340    1.415340
  H     -0.773910   -0.248970   -2.198370
  H     -1.200580   -3.187880   -2.932690
  H     -3.262140    0.705850   -6.104710
  H     -5.246280   -0.765630   -6.408850
  H     -5.484090   -2.782050   -5.043670
  H     -3.010780   -3.907320   -2.429590
  H     -5.791950   -4.300100   -3.610620
  H     -2.341840   -9.101370    2.861430
  H     -4.729270  -10.234460    2.325000
  H     -7.318570   -5.777700   -3.478930
  H     -8.253740   -8.027110   -1.613470
  H    -12.908250   -7.629650   -5.262160

 Total Charge           Charge          ....    0
 Multiplicity           Mult            ....    1
 Number of Electrons    NEL             ....  484
 Basis Dimension        Dim             .... 1077

ORBITAL ENERGIES
----------------

  NO   OCC          E(Eh)            E(eV)
   0   2.0000     -89.057218     -2423.3701
   1   2.0000     -89.055517     -2423.3238
   2   2.0000     -24.801214      -674.8753
   3   2.0000     -19.211830      -522.7805
   4   2.0000     -19.211166      -522.7624
   5   2.0000     -14.471714      -393.7954
   6   2.0000     -14.470837      -393.7715
   7   2.0000     -14.462783      -393.5523
   8   2.0000     -14.461614      -393.5205
   9   2.0000     -14.461361      -393.5136
  10   2.0000     -14.460843      -393.4995
  11   2.0000     -14.460534      -393.4911
  12   2.0000     -14.458369      -393.4322
  13   2.0000     -14.437030      -392.8515
  14   2.0000     -14.435961      -392.8225
  15   2.0000     -14.429171      -392.6377
  16   2.0000     -14.425264      -392.5314
  17   2.0000     -14.416227      -392.2855
  18   2.0000     -14.410618      -392.1328
  19   2.0000     -14.406553      -392.0222
  20   2.0000     -14.403494      -391.9390
  21   2.0000     -10.391909      -282.7782
  22   2.0000     -10.391278      -282.7611
  23   2.0000     -10.383104      -282.5386
  24   2.0000     -10.380836      -282.4769
  25   2.0000     -10.371393      -282.2200
  26   2.0000     -10.371055      -282.2107
  27   2.0000     -10.369822      -282.1772
  28   2.0000     -10.362793      -281.9859
  29   2.0000     -10.358954      -281.8815
  30   2.0000     -10.354524      -281.7609
  31   2.0000     -10.352808      -281.7142
  32   2.0000     -10.349849      -281.6337
  33   2.0000     -10.349603      -281.6270
  34   2.0000     -10.349272      -281.6180
  35   2.0000     -10.348119      -281.5866
  36   2.0000     -10.347823      -281.5786
  37   2.0000     -10.342690      -281.4389
  38   2.0000     -10.334066      -281.2042
  39   2.0000     -10.331166      -281.1253
  40   2.0000     -10.329957      -281.0924
  41   2.0000     -10.329886      -281.0905
  42   2.0000     -10.329068      -281.0682
  43   2.0000     -10.328308      -281.0476
  44   2.0000     -10.326915      -281.0096
  45   2.0000     -10.324753      -280.9508
  46   2.0000     -10.324265      -280.9375
  47   2.0000     -10.323634      -280.9204
  48   2.0000     -10.322070      -280.8778
  49   2.0000     -10.320917      -280.8464
  50   2.0000     -10.318328      -280.7760
  51   2.0000     -10.309237      -280.5286
  52   2.0000     -10.306378      -280.4508
  53   2.0000     -10.305559      -280.4285
  54   2.0000     -10.304307      -280.3945
  55   2.0000     -10.304141      -280.3899
  56   2.0000     -10.303122      -280.3622
  57   2.0000     -10.296267      -280.1757
  58   2.0000     -10.294799      -280.1357
  59   2.0000     -10.293144      -280.0907
  60   2.0000     -10.292908      -280.0843
  61   2.0000     -10.292552      -280.0746
  62   2.0000     -10.291817      -280.0546
  63   2.0000     -10.290860      -280.0285
  64   2.0000     -10.288843      -279.9736
  65   2.0000     -10.287733      -279.9435
  66   2.0000     -10.287727      -279.9433
  67   2.0000     -10.286729      -279.9161
  68   2.0000     -10.285062      -279.8708
  69   2.0000     -10.282479      -279.8005
  70   2.0000     -10.280563      -279.7483
  71   2.0000      -8.148494      -221.7318
  72   2.0000      -8.146884      -221.6880
  73   2.0000      -6.119256      -166.5134
  74   2.0000      -6.117813      -166.4741
  75   2.0000      -6.112037      -166.3170
  76   2.0000      -6.111342      -166.2981
  77   2.0000      -6.110035      -166.2625
  78   2.0000      -6.109958      -166.2604
  79   2.0000      -1.312518       -35.7154
  80   2.0000      -1.152522       -31.3617
  81   2.0000      -1.150133       -31.2967
  82   2.0000      -1.130782       -30.7701
  83   2.0000      -1.127305       -30.6755
  84   2.0000      -1.126083       -30.6423
  85   2.0000      -1.120259       -30.4838
  86   2.0000      -1.081236       -29.4219
  87   2.0000      -1.077112       -29.3097
  88   2.0000      -1.061683       -28.8899
  89   2.0000      -1.059118       -28.8201
  90   2.0000      -1.055993       -28.7350
  91   2.0000      -1.047044       -28.4915
  92   2.0000      -1.020855       -27.7789
  93   2.0000      -1.012019       -27.5384
  94   2.0000      -1.010575       -27.4991
  95   2.0000      -1.003409       -27.3041
  96   2.0000      -1.002544       -27.2806
  97   2.0000      -1.000110       -27.2144
  98   2.0000      -0.986697       -26.8494
  99   2.0000      -0.982700       -26.7406
 100   2.0000      -0.978988       -26.6396
 101   2.0000      -0.938613       -25.5410
 102   2.0000      -0.936681       -25.4884
 103   2.0000      -0.922749       -25.1093
 104   2.0000      -0.921454       -25.0740
 105   2.0000      -0.914903       -24.8958
 106   2.0000      -0.908758       -24.7286
 107   2.0000      -0.907191       -24.6859
 108   2.0000      -0.897075       -24.4106
 109   2.0000      -0.886512       -24.1232
 110   2.0000      -0.875400       -23.8208
 111   2.0000      -0.861600       -23.4453
 112   2.0000      -0.855867       -23.2893
 113   2.0000      -0.845222       -22.9997
 114   2.0000      -0.843003       -22.9393
 115   2.0000      -0.839047       -22.8316
 116   2.0000      -0.829158       -22.5625
 117   2.0000      -0.821529       -22.3549
 118   2.0000      -0.811983       -22.0952
 119   2.0000      -0.794606       -21.6223
 120   2.0000      -0.786282       -21.3958
 121   2.0000      -0.780736       -21.2449
 122   2.0000      -0.764509       -20.8034
 123   2.0000      -0.759360       -20.6632
 124   2.0000      -0.747986       -20.3537
 125   2.0000      -0.744817       -20.2675
 126   2.0000      -0.737669       -20.0730
 127   2.0000      -0.732134       -19.9224
 128   2.0000      -0.727447       -19.7949
 129   2.0000      -0.725762       -19.7490
 130   2.0000      -0.711077       -19.3494
 131   2.0000      -0.705987       -19.2109
 132   2.0000      -0.701202       -19.0807
 133   2.0000      -0.695642       -18.9294
 134   2.0000      -0.687766       -18.7151
 135   2.0000      -0.683830       -18.6079
 136   2.0000      -0.673931       -18.3386
 137   2.0000      -0.668308       -18.1856
 138   2.0000      -0.660176       -17.9643
 139   2.0000      -0.657207       -17.8835
 140   2.0000      -0.653753       -17.7895
 141   2.0000      -0.646734       -17.5985
 142   2.0000      -0.643971       -17.5233
 143   2.0000      -0.635102       -17.2820
 144   2.0000      -0.632067       -17.1994
 145   2.0000      -0.629173       -17.1207
 146   2.0000      -0.621563       -16.9136
 147   2.0000      -0.620142       -16.8749
 148   2.0000      -0.617502       -16.8031
 149   2.0000      -0.611834       -16.6488
 150   2.0000      -0.608766       -16.5654
 151   2.0000      -0.595979       -16.2174
 152   2.0000      -0.589839       -16.0503
 153   2.0000      -0.588362       -16.0102
 154   2.0000      -0.583557       -15.8794
 155   2.0000      -0.580413       -15.7938
 156   2.0000      -0.576377       -15.6840
 157   2.0000      -0.574746       -15.6396
 158   2.0000      -0.571382       -15.5481
 159   2.0000      -0.563600       -15.3363
 160   2.0000      -0.562376       -15.3030
 161   2.0000      -0.561041       -15.2667
 162   2.0000      -0.560347       -15.2478
 163   2.0000      -0.552204       -15.0262
 164   2.0000      -0.549096       -14.9417
 165   2.0000      -0.547251       -14.8915
 166   2.0000      -0.545932       -14.8556
 167   2.0000      -0.544656       -14.8208
 168   2.0000      -0.542230       -14.7548
 169   2.0000      -0.537222       -14.6186
 170   2.0000      -0.533980       -14.5303
 171   2.0000      -0.529287       -14.4026
 172   2.0000      -0.526760       -14.3339
 173   2.0000      -0.523136       -14.2352
 174   2.0000      -0.521615       -14.1939
 175   2.0000      -0.515765       -14.0347
 176   2.0000      -0.505317       -13.7504
 177   2.0000      -0.503234       -13.6937
 178   2.0000      -0.499374       -13.5887
 179   2.0000      -0.495942       -13.4953
 180   2.0000      -0.494812       -13.4645
 181   2.0000      -0.493512       -13.4291
 182   2.0000      -0.491537       -13.3754
 183   2.0000      -0.488951       -13.3050
 184   2.0000      -0.487746       -13.2722
 185   2.0000      -0.485224       -13.2036
 186   2.0000      -0.480192       -13.0667
 187   2.0000      -0.479094       -13.0368
 188   2.0000      -0.478784       -13.0284
 189   2.0000      -0.476000       -12.9526
 190   2.0000      -0.474211       -12.9039
 191   2.0000      -0.471998       -12.8437
 192   2.0000      -0.470038       -12.7904
 193   2.0000      -0.465538       -12.6679
 194   2.0000      -0.465006       -12.6534
 195   2.0000      -0.462711       -12.5910
 196   2.0000      -0.461500       -12.5580
 197   2.0000      -0.460174       -12.5220
 198   2.0000      -0.456629       -12.4255
 199   2.0000      -0.454128       -12.3574
 200   2.0000      -0.453133       -12.3304
 201   2.0000      -0.450721       -12.2648
 202   2.0000      -0.449917       -12.2429
 203   2.0000      -0.449153       -12.2221
 204   2.0000      -0.448990       -12.2176
 205   2.0000      -0.444061       -12.0835
 206   2.0000      -0.442287       -12.0353
 207   2.0000      -0.435362       -11.8468
 208   2.0000      -0.427449       -11.6315
 209   2.0000      -0.426526       -11.6064
 210   2.0000      -0.424300       -11.5458
 211   2.0000      -0.422964       -11.5094
 212   2.0000      -0.421052       -11.4574
 213   2.0000      -0.420414       -11.4401
 214   2.0000      -0.419374       -11.4117
 215   2.0000      -0.415958       -11.3188
 216   2.0000      -0.407138       -11.0788
 217   2.0000      -0.404861       -11.0168
 218   2.0000      -0.399695       -10.8762
 219   2.0000      -0.397467       -10.8156
 220   2.0000      -0.391068       -10.6415
 221   2.0000      -0.388489       -10.5713
 222   2.0000      -0.368084       -10.0161
 223   2.0000      -0.361427        -9.8349
 224   2.0000      -0.360204        -9.8017
 225   2.0000      -0.359251        -9.7757
 226   2.0000      -0.356389        -9.6978
 227   2.0000      -0.354823        -9.6552
 228   2.0000      -0.350975        -9.5505
 229   2.0000      -0.350357        -9.5337
 230   2.0000      -0.348160        -9.4739
 231   2.0000      -0.345620        -9.4048
 232   2.0000      -0.340114        -9.2550
 233   2.0000      -0.338442        -9.2095
 234   2.0000      -0.332475        -9.0471
 235   2.0000      -0.331207        -9.0126
 236   2.0000      -0.329239        -8.9590
 237   2.0000      -0.326826        -8.8934
 238   2.0000      -0.303571        -8.2606
 239   2.0000      -0.297042        -8.0829
 240   2.0000      -0.281383        -7.6568
 241   2.0000      -0.272917        -7.4264
 242   0.0000      -0.133785        -3.6405
 243   0.0000      -0.128067        -3.4849
 244   0.0000      -0.110702        -3.0124
 245   0.0000      -0.097198        -2.6449
 246   0.0000      -0.055901        -1.5211

MULLIKEN ATOMIC CHARGES
-----------------------
   0 C :   -0.061668
   1 C :    0.005073
   2 C :   -0.052476
   3 N :    0.052011
   4 C :   -0.124988
   5 C :   -0.147677
   6 N :    0.060268
   7 C :   -0.195496
   8 N :    0.234701
   9 C :   -0.196532
  10 N :    0.242195
  11 C :    0.114223
  12 C :   -0.016638
  13 C :    0.098200
  14 N :   -0.270235
  15 S :    0.565816
  16 N :   -0.225952
  17 C :   -0.089192
  18 N :   -0.013178
  19 C :    0.084635
  20 C :   -0.177107
  21 C :    0.235894
  22 O :   -0.130511
  23 C :   -0.031520
  24 C :   -0.020452
  25 N :   -0.058630
  26 C :    0.090614
  27 C :   -0.048877
  28 C :    0.050443
  29 C :    0.028067
  30 C :   -0.064356
  31 C :    0.044357
  32 C :    0.216264
  33 F :   -0.203977
  34 C :   -0.019352
  35 C :    0.039688
  36 C :   -0.021809
  37 C :    0.098673
  38 C :    0.031072
  39 C :   -0.039305
  40 C :    0.039749
  41 N :   -0.020700
  42 C :    0.078640
  43 C :   -0.159639
  44 C :    0.215356
  45 O :   -0.126655
  46 C :   -0.017672
  47 C :   -0.032308
  48 N :   -0.071216
  49 C :    0.101082
  50 C :   -0.094907
  51 C :    0.060682
  52 C :   -0.013393
  53 C :   -0.074823
  54 C :    0.127326
  55 C :   -0.060880
  56 C :    0.025753
  57 N :    0.051505
  58 C :   -0.152434
  59 C :   -0.140457
  60 N :    0.077652
  61 C :   -0.186993
  62 N :    0.231222
  63 C :   -0.193759
  64 N :    0.233446
  65 C :   -0.073007
  66 C :    0.096569
  67 C :   -0.001772
  68 N :   -0.300168
  69 S :    0.551515
  70 N :   -0.264125
  71 H :   -0.009022
  72 H :    0.010441
  73 H :   -0.027799
  74 H :   -0.005919
  75 H :    0.047336
  76 H :    0.003647
  77 H :   -0.003809
  78 H :   -0.022734
  79 H :    0.036838
  80 H :   -0.018798
  81 H :    0.003844
  82 H :   -0.004099
  83 H :   -0.004822
  84 H :    0.021730
  85 H :   -0.014690
Sum of atomic charges:   -0.0000000

LOEWDIN ATOMIC CHARGES
----------------------
   0 C :    0.021892
   1 C :   -0.014521
   2 C :    0.000439
   3 N :    0.015000
   4 C :   -0.017029
   5 C :   -0.024305
   6 N :    0.003650
   7 C :   -0.034124
   8 N :   -0.001411
   9 C :   -0.036128
  10 N :   -0.002430
  11 C :   -0.028089
  12 C :   -0.031539
  13 C :   -0.051036
  14 N :   -0.287340
  15 S :    0.712317
  16 N :   -0.262871
  17 C :    0.061475
  18 N :   -0.071389
  19 C :    0.036829
  20 C :   -0.043961
  21 C :    0.074582
  22 O :   -0.122502
  23 C :   -0.041305
  24 C :    0.040941
  25 N :   -0.097488
  26 C :    0.084449
  27 C :   -0.015341
  28 C :   -0.022339
  29 C :   -0.013580
  30 C :   -0.008532
  31 C :   -0.025935
  32 C :    0.092706
  33 F :   -0.068207
  34 C :   -0.026362
  35 C :   -0.012766
  36 C :   -0.005331
  37 C :   -0.023403
  38 C :    0.079759
  39 C :   -0.056340
  40 C :    0.081750
  41 N :   -0.097700
  42 C :    0.054272
  43 C :   -0.034729
  44 C :    0.065953
  45 O :   -0.131277
  46 C :   -0.037771
  47 C :    0.012467
  48 N :   -0.094679
  49 C :    0.067445
  50 C :   -0.040371
  51 C :   -0.028771
  52 C :   -0.006683
  53 C :    0.007713
  54 C :   -0.006430
  55 C :   -0.008249
  56 C :   -0.010633
  57 N :   -0.000840
  58 C :   -0.023821
  59 C :   -0.027239
  60 N :    0.016369
  61 C :   -0.033950
  62 N :   -0.001384
  63 C :   -0.034757
  64 N :   -0.001286
  65 C :   -0.002930
  66 C :   -0.047449
  67 C :   -0.038164
  68 N :   -0.288789
  69 S :    0.686582
  70 N :   -0.280490
  71 H :    0.052151
  72 H :    0.023695
  73 H :    0.026693
  74 H :    0.023243
  75 H :    0.038495
  76 H :    0.042753
  77 H :    0.034469
  78 H :    0.028837
  79 H :    0.044626
  80 H :    0.026623
  81 H :    0.020848
  82 H :    0.035222
  83 H :    0.024170
  84 H :    0.036323
  85 H :    0.049257

  Mayer bond orders larger than 0.100000
B(  0-C ,  1-C ) :   1.2923 B(  0-C , 11-C ) :   0.1485 B(  0-C , 13-C ) :   1.1813
B(  0-C , 71-H ) :   1.0618 B(  1-C ,  2-C ) :   1.1327 B(  1-C ,  6-N ) :   1.3358
B(  2-C ,  3-N ) :   1.4076 B(  2-C , 11-C ) :   1.3457 B(  3-N ,  4-C ) :   1.7507
B(  4-C ,  5-C ) :   1.1719 B(  4-C ,  9-C ) :   1.1515 B(  5-C ,  6-N ) :   1.7914
B(  5-C ,  7-C ) :   1.1529 B(  7-C ,  8-N ) :   3.0509 B(  9-C , 10-N ) :   3.0409
B( 11-C , 12-C ) :   1.2753 B( 11-C , 17-C ) :   0.9665 B( 12-C , 13-C ) :   1.1102
B( 12-C , 16-N ) :   1.5272 B( 13-C , 14-N ) :   1.4454 B( 14-N , 15-S ) :   1.3223
B( 14-N , 16-N ) :   0.1611 B( 15-S , 16-N ) :   1.3098 B( 17-C , 18-N ) :   1.6985
B( 17-C , 19-C ) :   0.1241 B( 17-C , 28-C ) :   1.0502 B( 18-N , 19-C ) :   1.3062
B( 19-C , 20-C ) :   1.0420 B( 19-C , 24-C ) :   1.4482 B( 20-C , 21-C ) :   0.8909
B( 20-C , 28-C ) :   1.6025 B( 21-C , 22-O ) :   2.1485 B( 21-C , 23-C ) :   0.9286
B( 23-C , 24-C ) :   1.0382 B( 23-C , 27-C ) :   1.6409 B( 24-C , 25-N ) :   1.3064
B( 25-N , 26-C ) :   1.6724 B( 26-C , 27-C ) :   1.0429 B( 26-C , 72-H ) :   0.9896
B( 27-C , 73-H ) :   0.9780 B( 28-C , 29-C ) :   1.0757 B( 29-C , 30-C ) :   1.7700
B( 29-C , 74-H ) :   0.9533 B( 30-C , 31-C ) :   1.0346 B( 30-C , 75-H ) :   0.9347
B( 31-C , 32-C ) :   1.3299 B( 31-C , 37-C ) :   1.3030 B( 32-C , 33-F ) :   1.0434
B( 32-C , 34-C ) :   1.4006 B( 34-C , 35-C ) :   1.3224 B( 34-C , 76-H ) :   0.9925
B( 35-C , 36-C ) :   1.4071 B( 35-C , 77-H ) :   0.9886 B( 36-C , 37-C ) :   1.3344
B( 36-C , 78-H ) :   0.9912 B( 37-C , 38-C ) :   1.0688 B( 38-C , 39-C ) :   1.6489
B( 38-C , 79-H ) :   0.9685 B( 39-C , 40-C ) :   1.1583 B( 39-C , 80-H ) :   0.9564
B( 40-C , 41-N ) :   1.5802 B( 40-C , 42-C ) :   0.1146 B( 40-C , 51-C ) :   0.9748
B( 41-N , 42-C ) :   1.3819 B( 42-C , 43-C ) :   1.0447 B( 42-C , 47-C ) :   1.3858
B( 43-C , 44-C ) :   0.8885 B( 43-C , 51-C ) :   1.5638 B( 44-C , 45-O ) :   2.2056
B( 44-C , 46-C ) :   0.9274 B( 46-C , 47-C ) :   1.0830 B( 46-C , 50-C ) :   1.5796
B( 47-C , 48-N ) :   1.3117 B( 48-N , 49-C ) :   1.6024 B( 48-N , 73-H ) :   0.1263
B( 49-C , 50-C ) :   1.1018 B( 49-C , 81-H ) :   0.9863 B( 50-C , 82-H ) :   1.0129
B( 51-C , 52-C ) :   1.1133 B( 52-C , 53-C ) :   1.5918 B( 52-C , 83-H ) :   0.9490
B( 53-C , 54-C ) :   1.1644 B( 53-C , 84-H ) :   0.9544 B( 54-C , 55-C ) :   1.2530
B( 54-C , 65-C ) :   0.1408 B( 54-C , 67-C ) :   1.1921 B( 55-C , 56-C ) :   1.1298
B( 55-C , 60-N ) :   1.4397 B( 56-C , 57-N ) :   1.3306 B( 56-C , 65-C ) :   1.3101
B( 57-N , 58-C ) :   1.7956 B( 58-C , 59-C ) :   1.1723 B( 58-C , 63-C ) :   1.1469
B( 59-C , 60-N ) :   1.7771 B( 59-C , 61-C ) :   1.1445 B( 61-C , 62-N ) :   3.0411
B( 63-C , 64-N ) :   3.0537 B( 65-C , 66-C ) :   1.1842 B( 65-C , 85-H ) :   1.0540
B( 66-C , 67-C ) :   1.1284 B( 66-C , 70-N ) :   1.4548 B( 67-C , 68-N ) :   1.4787
B( 68-N , 69-S ) :   1.2808 B( 68-N , 70-N ) :   0.1596 B( 69-S , 70-N ) :   1.3195

-----------------------------------------------------------------------------
         ABSORPTION SPECTRUM VIA TRANSITION ELECTRIC DIPOLE MOMENTS
-----------------------------------------------------------------------------
State   Energy  Wavelength   fosc         T2         TX        TY        TZ
        (cm-1)    (nm)                  (au**2)     (au)      (au)      (au)
-----------------------------------------------------------------------------
   0   15024.5    665.6   0.010136516   0.22211   0.40212  -0.09096   0.22832
   1   15747.9    635.0   0.420504515   8.79071   2.66113   0.58986   1.16668
   2   17888.9    559.0   0.015292715   0.28143  -0.29177   0.23147  -0.37779
   3   18936.7    528.1   0.263872071   4.58737  -0.59112  -1.75253   1.08009
   4   20143.2    496.4   0.268681607   4.39121  -0.66709  -1.84723   0.73072
   5   20666.2    483.9   0.006821890   0.10867   0.18477   0.26011  -0.08290
   6   21162.2    472.5   0.001509936   0.02349   0.08540  -0.03041   0.12358
   7   21242.9    470.7   0.001369328   0.02122   0.01736  -0.13629  -0.04842
   8   21979.0    455.0   0.030114950   0.45108   0.42702  -0.30786   0.41708
   9   22216.5    450.1   0.087183558   1.29192  -0.50380  -0.96965   0.31287
  10   22739.2    439.8   0.063718533   0.92250   0.21628   0.84618  -0.39962
  11   23535.1    424.9   0.385773317   5.39625  -0.21990   1.73854  -1.52492
  12   24201.5    413.2   0.008362095   0.11375   0.06119  -0.26898   0.19405
  13   24645.0    405.8   0.009432021   0.12599   0.26697  -0.06318   0.22523
  14   24745.5    404.1   0.005390924   0.07172   0.11399  -0.03552   0.23972
  15   25306.8    395.2   0.058297135   0.75838   0.25478   0.68150  -0.47857
  16   25357.2    394.4   0.008824036   0.11456   0.23020  -0.19543   0.15290
  17   26078.5    383.5   0.009449522   0.11929   0.02080   0.34089  -0.05151
  18   26139.8    382.6   0.022747149   0.28648  -0.21884  -0.32893   0.36111
  19   26794.7    373.2   0.061696696   0.75803  -0.08226  -0.79167   0.35289
  20   26909.3    371.6   0.003567646   0.04365  -0.00527   0.20321   0.04821
  21   26983.4    370.6   0.123097262   1.50185  -0.10778   0.96198  -0.75156
  22   27515.7    363.4   0.029416427   0.35195  -0.47347  -0.11679  -0.33785
  23   27690.1    361.1   0.038260867   0.45489   0.20524   0.61729  -0.17809
  24   27861.7    358.9   0.001956929   0.02312   0.09531  -0.02065   0.11668
  25   27952.8    357.7   0.051747589   0.60945  -0.68068  -0.26656  -0.27400
  26   28669.0    348.8   0.001145761   0.01316  -0.00557  -0.07115  -0.08980
  27   28841.6    346.7   0.011513483   0.13142  -0.04933   0.00821  -0.35905
  28   28999.5    344.8   0.151467543   1.71951  -0.12176  -0.94814   0.89762
  29   29321.6    341.0   0.025641855   0.28790   0.09288   0.26284  -0.45846
  30   29513.1    338.8   0.218800405   2.44067  -0.24858  -0.11048  -1.53840
  31   29622.2    337.6   0.049628448   0.55156  -0.26435   0.18612   0.66861
  32   29757.1    336.1   0.329634424   3.64684   1.70527   0.52673   0.67931
  33   30128.4    331.9   0.001288200   0.01408  -0.06953  -0.08813  -0.03841
  34   30158.5    331.6   0.006844296   0.07471  -0.14967  -0.22307   0.05052
  35   31098.3    321.6   0.017977775   0.19032  -0.23074   0.18812  -0.31888
  36   31278.6    319.7   0.228987369   2.41013  -0.93342   0.59783  -1.08695
  37   31618.7    316.3   0.068949472   0.71790  -0.80596  -0.09936  -0.24177
  38   31817.8    314.3   0.021624035   0.22374   0.02008  -0.36303   0.30256
  39   31841.9    314.1   0.001683726   0.01741   0.04813   0.06853  -0.10195
  40   31873.1    313.7   0.024540737   0.25348  -0.15024   0.33260  -0.34681
  41   31917.4    313.3   0.019666879   0.20285   0.17816  -0.18672   0.36912
  42   32165.3    310.9   0.006483027   0.06635  -0.01099  -0.20499   0.15560
  43   32283.1    309.8   0.035384880   0.36084  -0.38835   0.22658  -0.39836
  44   32346.1    309.2   0.003672288   0.03738   0.17496   0.06278   0.05314
  45   32533.5    307.4   0.004141898   0.04191   0.18973   0.07002   0.03184
  46   32995.5    303.1   0.001609589   0.01606   0.07735  -0.10006   0.00802
  47   33239.0    300.9   0.007683676   0.07610  -0.17838   0.10028  -0.18500
  48   33419.6    299.2   0.052859786   0.52071  -0.08622   0.54000  -0.47083
  49   33496.7    298.5   0.027312993   0.26844   0.18721  -0.25930   0.40762
  50   33737.4    296.4   0.000653022   0.00637   0.06293  -0.00012   0.04911
  51   33968.3    294.4   0.029002079   0.28108  -0.07214  -0.38382   0.35855
  52   34119.2    293.1   0.021705947   0.20944   0.11769   0.38554  -0.21667
  53   34213.6    292.3   0.019462625   0.18727   0.05046   0.42280   0.07728
  54   34331.6    291.3   0.319351394   3.06232  -1.23376  -1.15400   0.45653
  55   35005.6    285.7   0.349081739   3.28296  -0.13829  -1.43106   1.10268
  56   35130.8    284.7   0.464653853   4.35429   0.62554   1.52571  -1.27875
  57   35182.0    284.2   0.074565929   0.69774   0.29346   0.57557  -0.52947
  58   35364.9    282.8   0.063060146   0.58703  -0.02138  -0.49789   0.58196
  59   35548.6    281.3   0.295418094   2.73584  -0.14788   1.03633  -1.28062
  60   35666.1    280.4   0.000140776   0.00130  -0.03220  -0.01569   0.00400
  61   36047.0    277.4   0.104552436   0.95486   0.43419  -0.32508   0.81281
  62   36213.3    276.1   0.168419675   1.53109   0.11705   0.99579  -0.72511
  63   36344.3    275.1   0.111247355   1.00770  -0.26141   0.62287  -0.74256
  64   36434.3    274.5   0.008256636   0.07461   0.12331  -0.18204   0.16206
  65   36475.8    274.2   0.005142780   0.04642   0.05845  -0.18892   0.08548
  66   36677.6    272.6   0.036433857   0.32702  -0.10014  -0.17186  -0.53615
  67   36773.6    271.9   0.007898913   0.07071  -0.15264   0.04032  -0.21398
  68   37001.3    270.3   0.068297805   0.60767  -0.26568  -0.42302  -0.59844
  69   37024.1    270.1   0.003740781   0.03326   0.05468   0.16522   0.05454
  70   37200.6    268.8   0.002715905   0.02403  -0.00732  -0.14975  -0.03945
  71   37614.9    265.9   0.071256689   0.62365   0.26568  -0.62516  -0.40279
  72   37746.0    264.9   0.228617502   1.99395  -0.66045  -0.51753  -1.13575
  73   37910.0    263.8   0.105426398   0.91553  -0.04779   0.28971  -0.91066
  74   38259.2    261.4   0.132541436   1.14049  -0.34034  -0.26013  -0.97826
  75   38307.5    261.0   0.192639595   1.65553  -0.32787  -0.86451   0.89480
  76   38347.7    260.8   0.046919451   0.40280  -0.10935  -0.18987   0.59564
  77   38436.2    260.2   0.008384602   0.07182   0.11241  -0.21205   0.11922
  78   38760.9    258.0   0.000805419   0.00684  -0.04028   0.02514   0.06772
  79   38817.2    257.6   0.003713961   0.03150  -0.10378   0.08623  -0.11529
  80   38899.9    257.1   0.139518675   1.18075   0.08373   0.66737  -0.85344
  81   39061.9    256.0   0.079706755   0.67176  -0.26224  -0.77463   0.05421
  82   39165.0    255.3   0.008246846   0.06932  -0.03167  -0.09260   0.24442
  83   39380.2    253.9   0.096531965   0.80699  -0.16475  -0.85685   0.21368
  84   39659.6    252.1   0.083121766   0.68999  -0.26736  -0.62801  -0.47340
  85   39754.9    251.5   0.455050027   3.76829   0.19772   0.10139   1.92845
  86   39823.2    251.1   0.130835751   1.08160  -0.01962   0.21179  -1.01802
  87   40217.3    248.6   0.024692635   0.20213   0.24910   0.33850   0.15968
  88   40290.9    248.2   0.009438060   0.07712  -0.02645  -0.06536   0.26860
  89   40318.6    248.0   0.026502201   0.21640   0.13484   0.12941  -0.42599

FINAL SINGLE POINT ENERGY     -3832.720314774569

DIPOLE MOMENT
-------------
                                X             Y             Z
Electronic contribution:      6.23697      11.63168      -1.86872
Nuclear contribution   :     -5.35962      -8.45432       1.76594
                        -----------------------------------------
Total Dipole Moment    :      0.87735       3.17736      -0.10277
                        -----------------------------------------
Magnitude (a.u.)       :      3.29787
Magnitude (Debye)      :      8.38252

Rotational constants in cm-1:     0.001712     0.000423     0.000354
Rotational constants in MHz :    51.333632    12.668159    10.617112

                             ****ORCA TERMINATED NORMALLY****
TOTAL RUN TIME: 0 days 0 hours 15 minutes 58 seconds 890 msec
