                         Program Version 4.2.0 -  RELEASE  -
|  1> # ORCA input file
|  2> # SCF done       -197.835798833413          0.000630490894
|  3> ! CAM-B3LYP def2-SVP def2/J RIJCOSX Grid4 TightSCF
|  4> %maxcore 5000
|  5> %tddft
|  6>     Mode sTDDFT
|  7>     Ethresh 5.0
|  8>     maxcore 5000
|  9> end
| 10>
| 11> %pal
| 12>   nprocs 6
| 13>   end
| 14> * xyz 0 1
| 15>    C       -2.85674         0.36442         1.90551
| 16>    C       -1.77849        -0.15563         2.61603
| 17>    C       -1.30676        -1.49873         2.38432
| 18>    N       -0.23999        -1.97149         3.06035
| 19>    C        0.31131        -1.21383         3.96725
| 20>    C       -0.18745         0.11464         4.23235
| 21>    N       -1.18101         0.61129         3.55235
| 22>    C        0.42939         0.89616         5.24446
| 23>    N        0.95192         1.49231         6.07019
| 24>    C        1.41908        -1.71594         4.69746
| 25>    N        2.30693        -2.10640         5.30574
| 26>    C       -1.93696        -2.34076         1.45818
| 27>    C       -3.03189        -1.82460         0.76645
| 28>    C       -3.48112        -0.46281         0.98388
| 29>    N       -4.54195        -0.17370         0.21419
| 30>    S       -4.91616        -1.45312        -0.65449
| 31>    N       -3.79529        -2.46383        -0.13055
| 32>    C       -1.45436        -3.70394         1.25804
| 33>    C       -1.31469        -4.59086         2.33095
| 34>    C       -1.76206        -4.29382         3.71001
| 35>    O       -2.45015        -3.38931         4.08329
| 36>    S       -1.17445        -5.58431         4.79387
| 37>    C       -0.47946        -6.55335         3.44003
| 38>    O        0.15390        -7.54533         3.62416
| 39>    C       -0.76764        -5.85945         2.16762
| 40>    C       -0.44113        -6.37097         0.89743
| 41>    C       -0.65867        -5.50262        -0.19140
| 42>    C       -1.09018        -4.19203         0.00047
| 43>    C       -1.13661        -3.37694        -1.23375
| 44>    O       -1.22532        -2.19038        -1.33120
| 45>    S       -0.99358        -4.47227        -2.63584
| 46>    C       -0.59181        -5.89777        -1.61430
| 47>    O       -0.38707        -6.97460        -2.08652
| 48>    C        0.06032        -7.71274         0.73438
| 49>    O       -0.57312        -8.73829         1.37732
| 50>    C        0.09095        -9.83122         1.00020
| 51>    C        0.32964       -11.31324         1.04786
| 52>    C        1.52478       -11.02461         0.07696
| 53>    C        1.12156        -9.56578         0.14934
| 54>    C        1.13984        -8.16871        -0.04632
| 55>    C        2.05359        -7.34953        -0.79034
| 56>    C        2.74793        -7.86210        -1.81854
| 57>    C        3.70262        -7.22754        -2.69271
| 58>    C        3.63004        -5.91416        -3.21640
| 59>    C        2.64110        -4.87634        -2.85623
| 60>    O        1.83354        -4.86004        -1.97113
| 61>    S        2.79889        -3.46866        -3.95316
| 62>    C        4.16665        -4.18812        -4.84086
| 63>    O        4.65447        -3.68544        -5.80947
| 64>    C        4.50340        -5.48777        -4.22151
| 65>    C        5.56796        -6.26518        -4.68226
| 66>    C        5.70062        -7.52829        -4.10206
| 67>    C        4.77964        -8.00896        -3.17894
| 68>    C        5.07051        -9.38577        -2.72478
| 69>    O        4.47949       -10.06231        -1.93799
| 70>    S        6.55873        -9.98010        -3.54703
| 71>    C        6.83315        -8.43373        -4.39324
| 72>    O        7.81144        -8.20639        -5.04051
| 73>    C        6.49663        -5.79223        -5.70614
| 74>    C        7.25297        -4.62977        -5.51358
| 75>    C        8.17058        -4.16165        -6.52363
| 76>    N        8.86148        -3.01985        -6.32224
| 77>    C        8.67657        -2.36015        -5.21452
| 78>    C        7.78286        -2.84901        -4.19174
| 79>    N        7.11211        -3.95600        -4.35383
| 80>    C        7.62729        -2.12424        -2.98225
| 81>    N        7.50974        -1.51949        -2.01711
| 82>    C        9.37997        -1.14599        -4.99782
| 83>    N        9.92903        -0.16433        -4.78527
| 84>    C        8.35573        -4.85932        -7.71390
| 85>    C        7.61304        -6.01453        -7.90652
| 86>    C        6.67316        -6.48064        -6.90572
| 87>    N        6.04169        -7.59673        -7.29512
| 88>    S        6.59260        -8.01312        -8.73667
| 89>    N        7.62770        -6.82835        -8.97343
| 90>    H       -3.19653         1.36977         2.08949
| 91>    H       -0.46773       -11.92490         0.63129
| 92>    H        0.61237       -11.69530         2.02623
| 93>    H        1.42912       -11.47264        -0.90856
| 94>    H        2.50815       -11.24089         0.48475
| 95>    H        2.16487        -6.32856        -0.46299
| 96>    H        2.60733        -8.91713        -2.01352
| 97>    H        9.04727        -4.49700        -8.45585
| 98> *
| 99>
|100>                          ****END OF INPUT****

CARTESIAN COORDINATES (ANGSTROEM)
---------------------------------
  C     -2.856740    0.364420    1.905510
  C     -1.778490   -0.155630    2.616030
  C     -1.306760   -1.498730    2.384320
  N     -0.239990   -1.971490    3.060350
  C      0.311310   -1.213830    3.967250
  C     -0.187450    0.114640    4.232350
  N     -1.181010    0.611290    3.552350
  C      0.429390    0.896160    5.244460
  N      0.951920    1.492310    6.070190
  C      1.419080   -1.715940    4.697460
  N      2.306930   -2.106400    5.305740
  C     -1.936960   -2.340760    1.458180
  C     -3.031890   -1.824600    0.766450
  C     -3.481120   -0.462810    0.983880
  N     -4.541950   -0.173700    0.214190
  S     -4.916160   -1.453120   -0.654490
  N     -3.795290   -2.463830   -0.130550
  C     -1.454360   -3.703940    1.258040
  C     -1.314690   -4.590860    2.330950
  C     -1.762060   -4.293820    3.710010
  O     -2.450150   -3.389310    4.083290
  S     -1.174450   -5.584310    4.793870
  C     -0.479460   -6.553350    3.440030
  O      0.153900   -7.545330    3.624160
  C     -0.767640   -5.859450    2.167620
  C     -0.441130   -6.370970    0.897430
  C     -0.658670   -5.502620   -0.191400
  C     -1.090180   -4.192030    0.000470
  C     -1.136610   -3.376940   -1.233750
  O     -1.225320   -2.190380   -1.331200
  S     -0.993580   -4.472270   -2.635840
  C     -0.591810   -5.897770   -1.614300
  O     -0.387070   -6.974600   -2.086520
  C      0.060320   -7.712740    0.734380
  O     -0.573120   -8.738290    1.377320
  C      0.090950   -9.831220    1.000200
  C      0.329640  -11.313240    1.047860
  C      1.524780  -11.024610    0.076960
  C      1.121560   -9.565780    0.149340
  C      1.139840   -8.168710   -0.046320
  C      2.053590   -7.349530   -0.790340
  C      2.747930   -7.862100   -1.818540
  C      3.702620   -7.227540   -2.692710
  C      3.630040   -5.914160   -3.216400
  C      2.641100   -4.876340   -2.856230
  O      1.833540   -4.860040   -1.971130
  S      2.798890   -3.468660   -3.953160
  C      4.166650   -4.188120   -4.840860
  O      4.654470   -3.685440   -5.809470
  C      4.503400   -5.487770   -4.221510
  C      5.567960   -6.265180   -4.682260
  C      5.700620   -7.528290   -4.102060
  C      4.779640   -8.008960   -3.178940
  C      5.070510   -9.385770   -2.724780
  O      4.479490  -10.062310   -1.937990
  S      6.558730   -9.980100   -3.547030
  C      6.833150   -8.433730   -4.393240
  O      7.811440   -8.206390   -5.040510
  C      6.496630   -5.792230   -5.706140
  C      7.252970   -4.629770   -5.513580
  C      8.170580   -4.161650   -6.523630
  N      8.861480   -3.019850   -6.322240
  C      8.676570   -2.360150   -5.214520
  C      7.782860   -2.849010   -4.191740
  N      7.112110   -3.956000   -4.353830
  C      7.627290   -2.124240   -2.982250
  N      7.509740   -1.519490   -2.017110
  C      9.379970   -1.145990   -4.997820
  N      9.929030   -0.164330   -4.785270
  C      8.355730   -4.859320   -7.713900
  C      7.613040   -6.014530   -7.906520
  C      6.673160   -6.480640   -6.905720
  N      6.041690   -7.596730   -7.295120
  S      6.592600   -8.013120   -8.736670
  N      7.627700   -6.828350   -8.973430
  H     -3.196530    1.369770    2.089490
  H     -0.467730  -11.924900    0.631290
  H      0.612370  -11.695300    2.026230
  H      1.429120  -11.472640   -0.908560
  H      2.508150  -11.240890    0.484750
  H      2.164870   -6.328560   -0.462990
  H      2.607330   -8.917130   -2.013520
  H      9.047270   -4.497000   -8.455850

 Total Charge           Charge          ....    0
 Multiplicity           Mult            ....    1
 Number of Electrons    NEL             ....  548
 Basis Dimension        Dim             .... 1114

ORBITAL ENERGIES
----------------

  NO   OCC          E(Eh)            E(eV)
   0   2.0000     -89.060048     -2423.4471
   1   2.0000     -89.055684     -2423.3284
   2   2.0000     -88.967624     -2420.9321
   3   2.0000     -88.964943     -2420.8592
   4   2.0000     -88.955505     -2420.6024
   5   2.0000     -88.953839     -2420.5570
   6   2.0000     -19.304983      -525.3153
   7   2.0000     -19.262147      -524.1497
   8   2.0000     -19.258918      -524.0618
   9   2.0000     -19.258067      -524.0387
  10   2.0000     -19.257482      -524.0227
  11   2.0000     -19.248294      -523.7727
  12   2.0000     -19.247013      -523.7378
  13   2.0000     -19.246663      -523.7283
  14   2.0000     -19.245479      -523.6961
  15   2.0000     -14.472868      -393.8268
  16   2.0000     -14.469735      -393.7415
  17   2.0000     -14.468794      -393.7159
  18   2.0000     -14.466010      -393.6402
  19   2.0000     -14.462927      -393.5563
  20   2.0000     -14.462706      -393.5502
  21   2.0000     -14.458719      -393.4417
  22   2.0000     -14.458296      -393.4302
  23   2.0000     -14.437791      -392.8723
  24   2.0000     -14.434291      -392.7770
  25   2.0000     -14.433757      -392.7625
  26   2.0000     -14.430670      -392.6785
  27   2.0000     -10.425387      -283.6892
  28   2.0000     -10.421259      -283.5769
  29   2.0000     -10.420833      -283.5653
  30   2.0000     -10.420065      -283.5444
  31   2.0000     -10.412468      -283.3377
  32   2.0000     -10.410389      -283.2811
  33   2.0000     -10.410271      -283.2779
  34   2.0000     -10.409663      -283.2613
  35   2.0000     -10.392592      -282.7968
  36   2.0000     -10.389730      -282.7189
  37   2.0000     -10.388683      -282.6904
  38   2.0000     -10.385941      -282.6158
  39   2.0000     -10.358206      -281.8611
  40   2.0000     -10.355736      -281.7939
  41   2.0000     -10.354478      -281.7597
  42   2.0000     -10.353325      -281.7283
  43   2.0000     -10.352424      -281.7038
  44   2.0000     -10.351881      -281.6890
  45   2.0000     -10.351601      -281.6814
  46   2.0000     -10.349346      -281.6200
  47   2.0000     -10.348309      -281.5918
  48   2.0000     -10.347749      -281.5766
  49   2.0000     -10.344902      -281.4991
  50   2.0000     -10.344726      -281.4943
  51   2.0000     -10.344366      -281.4845
  52   2.0000     -10.344290      -281.4824
  53   2.0000     -10.343479      -281.4604
  54   2.0000     -10.342475      -281.4331
  55   2.0000     -10.339878      -281.3624
  56   2.0000     -10.336357      -281.2666
  57   2.0000     -10.335549      -281.2446
  58   2.0000     -10.334456      -281.2148
  59   2.0000     -10.333489      -281.1885
  60   2.0000     -10.333007      -281.1754
  61   2.0000     -10.330440      -281.1056
  62   2.0000     -10.328543      -281.0539
  63   2.0000     -10.327168      -281.0165
  64   2.0000     -10.326439      -280.9967
  65   2.0000     -10.324427      -280.9419
  66   2.0000     -10.323600      -280.9194
  67   2.0000     -10.319409      -280.8054
  68   2.0000     -10.315877      -280.7093
  69   2.0000     -10.300662      -280.2953
  70   2.0000     -10.298848      -280.2459
  71   2.0000     -10.298102      -280.2256
  72   2.0000     -10.292519      -280.0737
  73   2.0000     -10.291488      -280.0456
  74   2.0000     -10.266043      -279.3532
  75   2.0000      -8.151111      -221.8030
  76   2.0000      -8.146934      -221.6893
  77   2.0000      -8.067022      -219.5148
  78   2.0000      -8.064307      -219.4409
  79   2.0000      -8.054760      -219.1812
  80   2.0000      -8.052750      -219.1265
  81   2.0000      -6.121839      -166.5837
  82   2.0000      -6.117683      -166.4706
  83   2.0000      -6.114636      -166.3877
  84   2.0000      -6.114083      -166.3727
  85   2.0000      -6.110401      -166.2725
  86   2.0000      -6.109866      -166.2579
  87   2.0000      -6.035854      -164.2439
  88   2.0000      -6.033172      -164.1709
  89   2.0000      -6.032571      -164.1546
  90   2.0000      -6.029893      -164.0817
  91   2.0000      -6.028052      -164.0316
  92   2.0000      -6.025322      -163.9573
  93   2.0000      -6.023606      -163.9106
  94   2.0000      -6.021687      -163.8584
  95   2.0000      -6.020347      -163.8220
  96   2.0000      -6.018452      -163.7704
  97   2.0000      -6.015816      -163.6987
  98   2.0000      -6.013687      -163.6407
  99   2.0000      -1.218872       -33.1672
 100   2.0000      -1.187123       -32.3032
 101   2.0000      -1.184028       -32.2190
 102   2.0000      -1.181562       -32.1519
 103   2.0000      -1.179799       -32.1040
 104   2.0000      -1.173849       -31.9420
 105   2.0000      -1.172700       -31.9108
 106   2.0000      -1.169062       -31.8118
 107   2.0000      -1.168486       -31.7961
 108   2.0000      -1.153593       -31.3909
 109   2.0000      -1.149397       -31.2767
 110   2.0000      -1.128886       -30.7186
 111   2.0000      -1.125253       -30.6197
 112   2.0000      -1.057079       -28.7646
 113   2.0000      -1.053268       -28.6609
 114   2.0000      -1.036019       -28.1915
 115   2.0000      -1.029006       -28.0007
 116   2.0000      -1.020365       -27.7655
 117   2.0000      -1.016342       -27.6561
 118   2.0000      -1.009958       -27.4824
 119   2.0000      -1.006164       -27.3791
 120   2.0000      -1.004957       -27.3463
 121   2.0000      -1.000625       -27.2284
 122   2.0000      -0.987708       -26.8769
 123   2.0000      -0.983553       -26.7638
 124   2.0000      -0.981964       -26.7206
 125   2.0000      -0.972108       -26.4524
 126   2.0000      -0.969223       -26.3739
 127   2.0000      -0.946382       -25.7524
 128   2.0000      -0.934323       -25.4242
 129   2.0000      -0.932554       -25.3761
 130   2.0000      -0.923728       -25.1359
 131   2.0000      -0.914668       -24.8894
 132   2.0000      -0.910784       -24.7837
 133   2.0000      -0.904551       -24.6141
 134   2.0000      -0.880598       -23.9623
 135   2.0000      -0.872400       -23.7392
 136   2.0000      -0.867843       -23.6152
 137   2.0000      -0.857128       -23.3236
 138   2.0000      -0.846066       -23.0226
 139   2.0000      -0.840711       -22.8769
 140   2.0000      -0.837867       -22.7995
 141   2.0000      -0.812952       -22.1215
 142   2.0000      -0.812021       -22.0962
 143   2.0000      -0.806061       -21.9340
 144   2.0000      -0.800739       -21.7892
 145   2.0000      -0.797013       -21.6878
 146   2.0000      -0.780318       -21.2335
 147   2.0000      -0.761524       -20.7221
 148   2.0000      -0.755857       -20.5679
 149   2.0000      -0.748874       -20.3779
 150   2.0000      -0.747331       -20.3359
 151   2.0000      -0.738562       -20.0973
 152   2.0000      -0.735270       -20.0077
 153   2.0000      -0.731962       -19.9177
 154   2.0000      -0.715742       -19.4763
 155   2.0000      -0.712156       -19.3787
 156   2.0000      -0.708573       -19.2813
 157   2.0000      -0.707900       -19.2629
 158   2.0000      -0.691946       -18.8288
 159   2.0000      -0.691116       -18.8062
 160   2.0000      -0.680642       -18.5212
 161   2.0000      -0.671579       -18.2746
 162   2.0000      -0.669411       -18.2156
 163   2.0000      -0.661402       -17.9977
 164   2.0000      -0.659622       -17.9492
 165   2.0000      -0.655987       -17.8503
 166   2.0000      -0.647779       -17.6270
 167   2.0000      -0.645834       -17.5740
 168   2.0000      -0.639289       -17.3959
 169   2.0000      -0.636261       -17.3135
 170   2.0000      -0.635138       -17.2830
 171   2.0000      -0.631110       -17.1734
 172   2.0000      -0.629128       -17.1194
 173   2.0000      -0.623847       -16.9757
 174   2.0000      -0.619771       -16.8648
 175   2.0000      -0.613754       -16.7011
 176   2.0000      -0.609495       -16.5852
 177   2.0000      -0.603818       -16.4307
 178   2.0000      -0.601121       -16.3573
 179   2.0000      -0.591999       -16.1091
 180   2.0000      -0.588336       -16.0094
 181   2.0000      -0.585206       -15.9243
 182   2.0000      -0.581959       -15.8359
 183   2.0000      -0.579879       -15.7793
 184   2.0000      -0.573539       -15.6068
 185   2.0000      -0.572826       -15.5874
 186   2.0000      -0.569889       -15.5075
 187   2.0000      -0.567303       -15.4371
 188   2.0000      -0.566156       -15.4059
 189   2.0000      -0.564638       -15.3646
 190   2.0000      -0.559736       -15.2312
 191   2.0000      -0.557957       -15.1828
 192   2.0000      -0.555876       -15.1262
 193   2.0000      -0.554224       -15.0812
 194   2.0000      -0.550825       -14.9887
 195   2.0000      -0.545965       -14.8565
 196   2.0000      -0.545816       -14.8524
 197   2.0000      -0.544710       -14.8223
 198   2.0000      -0.543223       -14.7819
 199   2.0000      -0.540952       -14.7200
 200   2.0000      -0.539622       -14.6839
 201   2.0000      -0.538218       -14.6457
 202   2.0000      -0.536058       -14.5869
 203   2.0000      -0.532020       -14.4770
 204   2.0000      -0.529503       -14.4085
 205   2.0000      -0.528754       -14.3881
 206   2.0000      -0.525310       -14.2944
 207   2.0000      -0.522651       -14.2221
 208   2.0000      -0.518778       -14.1167
 209   2.0000      -0.514189       -13.9918
 210   2.0000      -0.508206       -13.8290
 211   2.0000      -0.499611       -13.5951
 212   2.0000      -0.496754       -13.5174
 213   2.0000      -0.494485       -13.4556
 214   2.0000      -0.491299       -13.3689
 215   2.0000      -0.489886       -13.3305
 216   2.0000      -0.487212       -13.2577
 217   2.0000      -0.486730       -13.2446
 218   2.0000      -0.484718       -13.1898
 219   2.0000      -0.482362       -13.1257
 220   2.0000      -0.479626       -13.0513
 221   2.0000      -0.477844       -13.0028
 222   2.0000      -0.475617       -12.9422
 223   2.0000      -0.471491       -12.8299
 224   2.0000      -0.463960       -12.6250
 225   2.0000      -0.462167       -12.5762
 226   2.0000      -0.460619       -12.5341
 227   2.0000      -0.458442       -12.4748
 228   2.0000      -0.458289       -12.4707
 229   2.0000      -0.457877       -12.4595
 230   2.0000      -0.454916       -12.3789
 231   2.0000      -0.450687       -12.2638
 232   2.0000      -0.448041       -12.1918
 233   2.0000      -0.446925       -12.1614
 234   2.0000      -0.446782       -12.1576
 235   2.0000      -0.445797       -12.1307
 236   2.0000      -0.442717       -12.0469
 237   2.0000      -0.440034       -11.9739
 238   2.0000      -0.430242       -11.7075
 239   2.0000      -0.427717       -11.6388
 240   2.0000      -0.425628       -11.5819
 241   2.0000      -0.422799       -11.5049
 242   2.0000      -0.420911       -11.4536
 243   2.0000      -0.420781       -11.4500
 244   2.0000      -0.419317       -11.4102
 245   2.0000      -0.417658       -11.3650
 246   2.0000      -0.415315       -11.3013
 247   2.0000      -0.402540       -10.9537
 248   2.0000      -0.396582       -10.7916
 249   2.0000      -0.392469       -10.6796
 250   2.0000      -0.391712       -10.6590
 251   2.0000      -0.390319       -10.6211
 252   2.0000      -0.384553       -10.4642
 253   2.0000      -0.380443       -10.3524
 254   2.0000      -0.380109       -10.3433
 255   2.0000      -0.378260       -10.2930
 256   2.0000      -0.372651       -10.1404
 257   2.0000      -0.371813       -10.1175
 258   2.0000      -0.369598       -10.0573
 259   2.0000      -0.367400        -9.9975
 260   2.0000      -0.366275        -9.9668
 261   2.0000      -0.365803        -9.9540
 262   2.0000      -0.357812        -9.7366
 263   2.0000      -0.357287        -9.7223
 264   2.0000      -0.356706        -9.7065
 265   2.0000      -0.352801        -9.6002
 266   2.0000      -0.350797        -9.5457
 267   2.0000      -0.349249        -9.5036
 268   2.0000      -0.347236        -9.4488
 269   2.0000      -0.340699        -9.2709
 270   2.0000      -0.320081        -8.7099
 271   2.0000      -0.306401        -8.3376
 272   2.0000      -0.304485        -8.2854
 273   2.0000      -0.278942        -7.5904
 274   0.0000      -0.125957        -3.4275
 275   0.0000      -0.121995        -3.3197
 276   0.0000      -0.112662        -3.0657
 277   0.0000      -0.098982        -2.6934
 278   0.0000      -0.084503        -2.2994

MULLIKEN ATOMIC CHARGES
-----------------------
   0 C :   -0.084647
   1 C :    0.022830
   2 C :   -0.035260
   3 N :    0.041461
   4 C :   -0.118085
   5 C :   -0.144390
   6 N :    0.062625
   7 C :   -0.198164
   8 N :    0.236898
   9 C :   -0.208238
  10 N :    0.247872
  11 C :    0.045246
  12 C :   -0.002098
  13 C :    0.119360
  14 N :   -0.264186
  15 S :    0.567787
  16 N :   -0.275701
  17 C :    0.005709
  18 C :    0.047964
  19 C :    0.050592
  20 O :   -0.138457
  21 S :    0.030220
  22 C :    0.035489
  23 O :   -0.106892
  24 C :    0.028874
  25 C :    0.020629
  26 C :    0.054114
  27 C :    0.038680
  28 C :    0.057312
  29 O :   -0.134049
  30 S :    0.018520
  31 C :    0.031363
  32 O :   -0.118050
  33 C :    0.030247
  34 O :   -0.168951
  35 C :   -0.021168
  36 C :    0.152553
  37 C :    0.147101
  38 C :   -0.169176
  39 C :    0.016101
  40 C :    0.046775
  41 C :   -0.071301
  42 C :    0.080996
  43 C :    0.041113
  44 C :    0.053252
  45 O :   -0.154509
  46 S :    0.051349
  47 C :    0.050095
  48 O :   -0.129122
  49 C :    0.047001
  50 C :   -0.005264
  51 C :    0.042692
  52 C :    0.027596
  53 C :    0.035976
  54 O :   -0.127107
  55 S :    0.032005
  56 C :    0.054614
  57 O :   -0.126810
  58 C :    0.033214
  59 C :   -0.030509
  60 C :    0.025876
  61 N :    0.065558
  62 C :   -0.145441
  63 C :   -0.121579
  64 N :    0.048184
  65 C :   -0.210171
  66 N :    0.246721
  67 C :   -0.198996
  68 N :    0.238966
  69 C :   -0.093081
  70 C :    0.121675
  71 C :   -0.004202
  72 N :   -0.278231
  73 S :    0.566355
  74 N :   -0.260547
  75 H :   -0.012307
  76 H :    0.025276
  77 H :    0.030676
  78 H :    0.018099
  79 H :    0.027311
  80 H :    0.017100
  81 H :    0.029295
  82 H :   -0.010629
Sum of atomic charges:   -0.0000000

LOEWDIN ATOMIC CHARGES
----------------------
   0 C :    0.018973
   1 C :   -0.007730
   2 C :    0.005978
   3 N :   -0.003664
   4 C :   -0.018480
   5 C :   -0.025372
   6 N :    0.007942
   7 C :   -0.035699
   8 N :    0.000498
   9 C :   -0.037890
  10 N :    0.002667
  11 C :   -0.013045
  12 C :   -0.033057
  13 C :   -0.043214
  14 N :   -0.281895
  15 S :    0.712082
  16 N :   -0.296018
  17 C :    0.032825
  18 C :   -0.034152
  19 C :   -0.047097
  20 O :   -0.123576
  21 S :    0.314535
  22 C :   -0.042139
  23 O :   -0.098071
  24 C :   -0.048636
  25 C :    0.017705
  26 C :   -0.049258
  27 C :   -0.032148
  28 C :   -0.041093
  29 O :   -0.117823
  30 S :    0.310709
  31 C :   -0.042599
  32 O :   -0.106333
  33 C :    0.021119
  34 O :    0.032487
  35 C :    0.019980
  36 C :    0.000182
  37 C :    0.010902
  38 C :   -0.072492
  39 C :   -0.037103
  40 C :    0.029537
  41 C :   -0.037438
  42 C :    0.045811
  43 C :   -0.054147
  44 C :   -0.029223
  45 O :   -0.120415
  46 S :    0.334596
  47 C :   -0.045742
  48 O :   -0.114861
  49 C :   -0.032891
  50 C :    0.032845
  51 C :   -0.034473
  52 C :   -0.055381
  53 C :   -0.037859
  54 O :   -0.106955
  55 S :    0.315480
  56 C :   -0.043969
  57 O :   -0.112330
  58 C :   -0.014233
  59 C :    0.004770
  60 C :   -0.007558
  61 N :    0.008126
  62 C :   -0.025799
  63 C :   -0.019699
  64 N :   -0.006147
  65 C :   -0.037966
  66 N :    0.002569
  67 C :   -0.036126
  68 N :    0.001392
  69 C :    0.018520
  70 C :   -0.043133
  71 C :   -0.033766
  72 N :   -0.299188
  73 S :    0.711336
  74 N :   -0.280419
  75 H :    0.051582
  76 H :    0.033382
  77 H :    0.035826
  78 H :    0.029370
  79 H :    0.033834
  80 H :    0.028885
  81 H :    0.039859
  82 H :    0.052002

  Mayer bond orders larger than 0.100000
B(  0-C ,  1-C ) :   1.2817 B(  0-C , 11-C ) :   0.1524 B(  0-C , 13-C ) :   1.1718
B(  0-C , 75-H ) :   1.0648 B(  1-C ,  2-C ) :   1.1317 B(  1-C ,  6-N ) :   1.3387
B(  2-C ,  3-N ) :   1.4176 B(  2-C , 11-C ) :   1.3788 B(  3-N ,  4-C ) :   1.7444
B(  4-C ,  5-C ) :   1.1733 B(  4-C ,  9-C ) :   1.1506 B(  5-C ,  6-N ) :   1.7939
B(  5-C ,  7-C ) :   1.1493 B(  7-C ,  8-N ) :   3.0504 B(  9-C , 10-N ) :   3.0526
B( 11-C , 12-C ) :   1.3286 B( 11-C , 17-C ) :   0.9263 B( 12-C , 13-C ) :   1.1156
B( 12-C , 16-N ) :   1.4919 B( 13-C , 14-N ) :   1.4382 B( 14-N , 15-S ) :   1.3378
B( 14-N , 16-N ) :   0.1638 B( 15-S , 16-N ) :   1.3020 B( 17-C , 18-C ) :   1.4198
B( 17-C , 27-C ) :   1.4433 B( 18-C , 19-C ) :   0.8259 B( 18-C , 24-C ) :   1.3300
B( 19-C , 20-O ) :   2.1661 B( 19-C , 21-S ) :   1.0454 B( 20-O , 21-S ) :   0.1106
B( 21-S , 22-C ) :   1.0156 B( 21-S , 23-O ) :   0.1048 B( 22-C , 23-O ) :   2.2079
B( 22-C , 24-C ) :   0.8384 B( 24-C , 25-C ) :   1.3593 B( 25-C , 26-C ) :   1.3961
B( 25-C , 33-C ) :   1.0410 B( 26-C , 27-C ) :   1.3091 B( 26-C , 31-C ) :   0.8367
B( 27-C , 28-C ) :   0.8317 B( 28-C , 29-O ) :   2.1755 B( 28-C , 30-S ) :   1.0321
B( 29-O , 30-S ) :   0.1096 B( 30-S , 31-C ) :   1.0136 B( 30-S , 32-O ) :   0.1001
B( 31-C , 32-O ) :   2.1861 B( 33-C , 34-O ) :   1.1229 B( 33-C , 39-C ) :   1.4517
B( 34-O , 35-C ) :   1.1745 B( 35-C , 36-C ) :   1.1330 B( 35-C , 38-C ) :   1.5812
B( 36-C , 37-C ) :   1.1980 B( 36-C , 76-H ) :   0.8809 B( 36-C , 77-H ) :   0.8834
B( 37-C , 38-C ) :   1.1043 B( 37-C , 78-H ) :   0.8914 B( 37-C , 79-H ) :   0.8933
B( 38-C , 39-C ) :   1.2264 B( 39-C , 40-C ) :   1.0948 B( 40-C , 41-C ) :   1.7412
B( 40-C , 80-H ) :   0.9425 B( 41-C , 42-C ) :   1.1034 B( 41-C , 81-H ) :   0.9452
B( 42-C , 43-C ) :   1.3242 B( 42-C , 52-C ) :   1.3403 B( 43-C , 44-C ) :   0.8463
B( 43-C , 49-C ) :   1.3222 B( 44-C , 45-O ) :   2.0854 B( 44-C , 46-S ) :   1.0494
B( 46-S , 47-C ) :   1.0347 B( 46-S , 48-O ) :   0.1069 B( 47-C , 48-O ) :   2.1710
B( 47-C , 49-C ) :   0.8286 B( 49-C , 50-C ) :   1.4426 B( 50-C , 51-C ) :   1.4362
B( 50-C , 58-C ) :   0.9248 B( 51-C , 52-C ) :   1.3186 B( 51-C , 56-C ) :   0.8291
B( 52-C , 53-C ) :   0.8473 B( 53-C , 54-O ) :   2.1550 B( 53-C , 55-S ) :   1.0321
B( 54-O , 55-S ) :   0.1027 B( 55-S , 56-C ) :   1.0355 B( 55-S , 57-O ) :   0.1088
B( 56-C , 57-O ) :   2.1760 B( 58-C , 59-C ) :   1.3774 B( 58-C , 69-C ) :   0.1541
B( 58-C , 71-C ) :   1.3301 B( 59-C , 60-C ) :   1.1349 B( 59-C , 64-N ) :   1.4260
B( 60-C , 61-N ) :   1.3407 B( 60-C , 69-C ) :   1.2763 B( 61-N , 62-C ) :   1.7949
B( 62-C , 63-C ) :   1.1766 B( 62-C , 67-C ) :   1.1473 B( 63-C , 64-N ) :   1.7502
B( 63-C , 65-C ) :   1.1487 B( 65-C , 66-N ) :   3.0527 B( 67-C , 68-N ) :   3.0513
B( 69-C , 70-C ) :   1.1684 B( 69-C , 82-H ) :   1.0660 B( 70-C , 71-C ) :   1.1200
B( 70-C , 74-N ) :   1.4408 B( 71-C , 72-N ) :   1.4936 B( 72-N , 73-S ) :   1.3005
B( 72-N , 74-N ) :   0.1636 B( 73-S , 74-N ) :   1.3385

-----------------------------------------------------------------------------
         ABSORPTION SPECTRUM VIA TRANSITION ELECTRIC DIPOLE MOMENTS
-----------------------------------------------------------------------------
State   Energy  Wavelength   fosc         T2         TX        TY        TZ
        (cm-1)    (nm)                  (au**2)     (au)      (au)      (au)
-----------------------------------------------------------------------------
   0   18634.2    536.6   0.007582189   0.13395  -0.00908  -0.11617  -0.34696
   1   19446.8    514.2   0.061936391   1.04851   0.51926  -0.13747  -0.87177
   2   19872.9    503.2   0.220302656   3.64952  -1.08288   1.45457   0.60093
   3   20841.4    479.8   0.197277141   3.11621   1.18740   0.69690  -1.10481
   4   22311.8    448.2   0.016836759   0.24843   0.28977  -0.38546  -0.12603
   5   22395.6    446.5   0.071105762   1.04524   0.24370  -0.95300  -0.27864
   6   23208.6    430.9   0.032064908   0.45484   0.12339  -0.66301   0.00522
   7   24197.4    413.3   0.015490125   0.21075   0.25085  -0.38433   0.01065
   8   24405.7    409.7   0.242148021   3.26636  -1.27419   0.76754   1.02650
   9   26099.9    383.1   0.018972496   0.23931  -0.13628   0.44724  -0.14391
  10   27142.5    368.4   0.007714810   0.09357   0.09378   0.09033  -0.27680
  11   27206.0    367.6   0.009445904   0.11430  -0.24695   0.23078   0.00744
  12   27876.4    358.7   0.022530016   0.26607   0.36622   0.18146  -0.31468
  13   28138.7    355.4   0.008732929   0.10217   0.17747  -0.17717  -0.19820
  14   28206.9    354.5   0.016062904   0.18748   0.19219  -0.38707   0.02666
  15   28620.5    349.4   0.165635943   1.90526   0.51865   0.73378  -1.04777
  16   28888.0    346.2   0.024074780   0.27436  -0.14513   0.22148  -0.45193
  17   28928.3    345.7   0.004285386   0.04877   0.06205  -0.19664   0.07906
  18   29097.3    343.7   0.130661033   1.47832  -1.12997  -0.25124  -0.37197
  19   29380.3    340.4   0.348980211   3.91039   0.91615   1.25930   1.21869
  20   29425.5    339.8   0.117079144   1.30988   0.29557  -1.09035   0.18343
  21   30073.6    332.5   0.009954970   0.10898   0.09310   0.23125  -0.21640
  22   30298.0    330.1   0.049900005   0.54220  -0.29438  -0.54376  -0.39983
  23   30516.0    327.7   0.008257326   0.08908   0.25667  -0.13406  -0.07232
  24   30792.8    324.8   0.024474470   0.26166   0.39951  -0.16231  -0.27515
  25   30891.0    323.7   0.006249788   0.06661  -0.04354   0.21698   0.13278
  26   31019.6    322.4   0.024128314   0.25607  -0.15797   0.40485   0.25925
  27   31215.0    320.4   0.011344153   0.11964  -0.17607  -0.26277  -0.13997
  28   31267.1    319.8   0.002738930   0.02884  -0.11493   0.01044   0.12458
  29   31539.3    317.1   0.032301117   0.33716   0.36013  -0.19131  -0.41337
  30   31645.7    316.0   0.014850198   0.15449  -0.14663  -0.24022   0.27438
  31   32019.9    312.3   0.090908211   0.93467  -0.77237  -0.56284   0.14605
  32   32028.0    312.2   0.030228099   0.31071   0.17796  -0.06355  -0.52441
  33   32143.3    311.1   0.003150776   0.03227  -0.07897  -0.11087  -0.11723
  34   32234.3    310.2   0.049459193   0.50513   0.34020   0.30951  -0.54185
  35   32346.8    309.1   0.030535590   0.31078  -0.03835  -0.08955  -0.54890
  36   33099.1    302.1   0.007300386   0.07261  -0.15308  -0.03747   0.21857
  37   33149.0    301.7   0.006740338   0.06694   0.01651  -0.00634  -0.25812
  38   33331.5    300.0   0.009681664   0.09562  -0.18213   0.09144  -0.23257
  39   33409.6    299.3   0.020179874   0.19885  -0.38675   0.17600   0.13526
  40   33514.5    298.4   0.012858504   0.12631   0.04119   0.35300  -0.00090
  41   33779.3    296.0   0.000761571   0.00742   0.07320  -0.00502  -0.04516
  42   34087.2    293.4   0.007464630   0.07209   0.08022  -0.04877   0.25156
  43   34291.5    291.6   0.006066198   0.05824  -0.06669  -0.22269  -0.06481
  44   34464.0    290.2   0.002042460   0.01951  -0.13492   0.03526   0.00799
  45   34802.9    287.3   0.009771948   0.09244   0.13516   0.25214   0.10292
  46   34833.9    287.1   0.008123120   0.07677  -0.11014  -0.01581   0.25375
  47   35051.6    285.3   0.004396456   0.04129  -0.04068  -0.15023  -0.13065
  48   35235.2    283.8   0.003951360   0.03692  -0.12193   0.08924  -0.11869
  49   35574.4    281.1   0.017979445   0.16638  -0.31968  -0.24380  -0.06895
  50   35838.2    279.0   0.004726045   0.04341   0.01176   0.18336   0.09826
  51   35905.6    278.5   0.010034219   0.09200   0.27920   0.08660  -0.08091
  52   36032.6    277.5   0.018887206   0.17256  -0.13989  -0.36894  -0.12992
  53   36162.9    276.5   0.011666513   0.10621  -0.29138   0.11084   0.09497
  54   36192.0    276.3   0.027895341   0.25374  -0.46054   0.19780  -0.05024
  55   36373.6    274.9   0.024762478   0.22412   0.04868  -0.18296   0.43391
  56   36517.3    273.8   0.042221253   0.38063  -0.09115  -0.09276  -0.60309
  57   36666.8    272.7   0.037531724   0.33698   0.54475  -0.20047   0.00637
  58   36792.1    271.8   0.049306776   0.44119   0.49964   0.01478   0.43742
  59   36887.5    271.1   0.008786586   0.07842  -0.19559  -0.18434  -0.07862
  60   36979.2    270.4   0.015222156   0.13552   0.27282   0.00243   0.24715
  61   37315.2    268.0   0.019789569   0.17459  -0.36262  -0.10776  -0.17745
  62   37365.4    267.6   0.029740192   0.26203   0.06603  -0.01507  -0.50739
  63   37515.5    266.6   0.015367776   0.13486   0.10472  -0.33310  -0.11373
  64   37566.1    266.2   0.096460881   0.84534   0.51063   0.70102   0.30523
  65   37745.6    264.9   0.018936286   0.16516  -0.36491  -0.16342  -0.07273
  66   37790.7    264.6   0.005439728   0.04739   0.03580   0.07995  -0.19929
  67   37926.3    263.7   0.158292842   1.37403   0.01255   1.02823   0.56268
  68   38024.0    263.0   0.059158701   0.51220  -0.24543  -0.42013  -0.52484
  69   38251.1    261.4   0.223867361   1.92674  -0.51021  -1.04288  -0.76081
  70   38555.2    259.4   0.007738010   0.06607  -0.23458  -0.05074   0.09204
  71   38647.7    258.7   0.007029483   0.05988  -0.22143   0.00881  -0.10378
  72   39036.8    256.2   0.054187560   0.45698  -0.61222   0.28059  -0.05872
  73   39154.9    255.4   0.013118833   0.11030   0.28869  -0.01414   0.16358
  74   39352.7    254.1   0.018176088   0.15206  -0.29669   0.09107  -0.23609
  75   39427.4    253.6   0.152398457   1.27250  -0.92911  -0.04697  -0.63800
  76   39664.6    252.1   0.039640165   0.32901   0.52954  -0.21092  -0.06412
  77   39724.6    251.7   0.010328592   0.08560  -0.07572   0.11186  -0.25952
  78   39798.3    251.3   0.227581721   1.88256  -0.55737  -1.03785  -0.70340
  79   39909.7    250.6   0.049646235   0.40953   0.52512  -0.13222   0.34101
  80   39968.4    250.2   0.145838109   1.20124   0.12839   1.02587   0.36379
  81   40055.9    249.7   0.194169663   1.59584  -1.09657  -0.17828  -0.60133
  82   40090.3    249.4   0.891631428   7.32187  -1.47346  -1.13692  -1.96423
  83   40227.8    248.6   0.022669450   0.18552  -0.22192  -0.16479  -0.33033
  84   40308.8    248.1   0.121681631   0.99380  -0.52684  -0.56921  -0.62630

FINAL SINGLE POINT ENERGY     -5552.366355579627

DIPOLE MOMENT
-------------
                                X             Y             Z
Electronic contribution:      0.63863      20.85631      -7.75112
Nuclear contribution   :     -2.87429     -24.29690       4.42593
                        -----------------------------------------
Total Dipole Moment    :     -2.23566      -3.44058      -3.32518
                        -----------------------------------------
Magnitude (a.u.)       :      5.28135
Magnitude (Debye)      :     13.42412

Rotational constants in cm-1:     0.001261     0.000483     0.000423
Rotational constants in MHz :    37.793242    14.489996    12.688974

                             ****ORCA TERMINATED NORMALLY****
TOTAL RUN TIME: 0 days 0 hours 9 minutes 36 seconds 514 msec
