                         Program Version 4.2.0 -  RELEASE  -
|  1> # ORCA input file
|  2> # SCF done       -194.186668045975          0.000298177942
|  3> ! CAM-B3LYP def2-SVP def2/J RIJCOSX Grid4 TightSCF
|  4> %maxcore 5000
|  5> %tddft
|  6>     Mode sTDDFT
|  7>     Ethresh 5.0
|  8>     maxcore 5000
|  9> end
| 10>
| 11> %pal
| 12>   nprocs 6
| 13>   end
| 14> * xyz 0 1
| 15>    C       -0.97952         5.62190         9.08535
| 16>    C       -1.05417         4.71018         8.06217
| 17>    C       -1.71874         3.47371         8.16080
| 18>    N       -2.26449         2.46331         8.18550
| 19>    C       -0.37734         4.87468         6.83688
| 20>    N        0.21545         4.94814         5.85582
| 21>    C       -1.35876         5.36546        10.47055
| 22>    C       -0.65493         6.28289        11.30450
| 23>    C       -0.76864         6.24528        12.66365
| 24>    C       -1.61452         5.28121        13.25886
| 25>    C       -2.33543         4.37555        12.42879
| 26>    C       -2.19161         4.43165        11.02287
| 27>    C       -3.18007         3.42416        13.03529
| 28>    C       -3.30442         3.36411        14.39660
| 29>    C       -2.59212         4.25431        15.21352
| 30>    C       -1.76572         5.19227        14.65657
| 31>    C        0.13757         7.19932        10.46002
| 32>    O        0.89487         8.07487        10.81856
| 33>    C       -0.23678         6.86100         9.06364
| 34>    C        0.06320         7.71776         8.04506
| 35>    C       -0.53582         7.81647         6.77172
| 36>    S       -2.17584         7.23048         6.46199
| 37>    C       -2.06936         7.75063         4.82535
| 38>    C       -0.82213         8.35433         4.55798
| 39>    C        0.02440         8.42322         5.65833
| 40>    N       -0.81370         8.69428         3.24130
| 41>    C       -2.00652         8.32876         2.66991
| 42>    C       -2.81202         7.74642         3.64990
| 43>    C       -2.28782         8.48250         1.26281
| 44>    C       -3.57705         8.36454         0.79904
| 45>    C       -3.85023         8.41164        -0.58344
| 46>    C       -5.02828         8.25662        -1.29779
| 47>    C       -6.41931         8.06741        -0.78739
| 48>    C       -6.56718         6.73830        -0.02308
| 49>    N       -7.95459         6.31384        -0.05814
| 50>    C       -6.85501         9.27331         0.06381
| 51>    N       -8.27445         9.20104         0.37938
| 52>    C       -4.66963         8.27431        -2.69543
| 53>    C       -5.40086         8.04558        -3.80263
| 54>    C       -4.76908         7.96284        -5.14593
| 55>    C       -3.32839         8.38204        -5.18745
| 56>    C       -2.61480         8.61705        -4.07189
| 57>    C       -3.22392         8.51988        -2.79756
| 58>    C       -2.73716         8.59393        -1.51011
| 59>    C       -1.42796         8.76051        -1.00209
| 60>    C       -1.21434         8.70636         0.33539
| 61>    C       -5.54914         8.63787        -6.23651
| 62>    C       -6.44153         9.61410        -6.05456
| 63>    C       -7.19581        10.20990        -7.11806
| 64>    S       -7.00491         9.64560        -8.77374
| 65>    C       -8.22631        10.74571        -9.30395
| 66>    C       -8.72880        11.50946        -8.22570
| 67>    C       -8.14161        11.20194        -6.99253
| 68>    N       -9.68189        12.32726        -8.71931
| 69>    C       -9.81567        12.10454       -10.08382
| 70>    C       -8.89437        11.11305       -10.45935
| 71>    C      -10.78870        12.84046       -10.78191
| 72>    C      -11.20698        12.80905       -12.08682
| 73>    C      -12.27612        13.64524       -12.60571
| 74>    C      -12.92491        14.67045       -11.96074
| 75>    C      -13.95162        15.44512       -12.53976
| 76>    N      -14.79321        16.11745       -12.93818
| 77>    C      -12.67621        15.12542       -10.65079
| 78>    N      -12.53675        15.56132        -9.59556
| 79>    C      -12.54683        13.22820       -13.97748
| 80>    C      -11.62557        12.20190       -14.32483
| 81>    C      -10.74233        11.92259       -13.17844
| 82>    O       -9.83052        11.12067       -13.17032
| 83>    C      -11.63193        11.60699       -15.55260
| 84>    C      -12.58778        12.01469       -16.50999
| 85>    C      -13.51912        13.03713       -16.16950
| 86>    C      -13.48239        13.63875       -14.89019
| 87>    C      -14.47369        13.43190       -17.12881
| 88>    C      -14.50789        12.84621       -18.36505
| 89>    C      -13.58929        11.84024       -18.69938
| 90>    C      -12.64926        11.43370       -17.79150
| 91>    H       -0.21875         6.94058        13.28054
| 92>    H       -2.75201         3.73896        10.41423
| 93>    H       -3.72338         2.73845        12.40161
| 94>    H       -3.95168         2.62912        14.85157
| 95>    H       -2.70130         4.19328        16.28616
| 96>    H       -1.21485         5.88061        15.28103
| 97>    H        0.81390         8.46835         8.27457
| 98>    H        1.01608         8.83783         5.66358
| 99>    H       -0.05702         9.14888         2.75995
|100>    H       -3.79150         7.33789         3.51206
|101>    H       -4.38374         8.21470         1.49722
|102>    H       -7.10058         8.00329        -1.64190
|103>    H       -6.17061         6.85956         0.99733
|104>    H       -5.96645         5.97149        -0.52418
|105>    H       -8.52349         7.03772         0.37355
|106>    H       -8.07352         5.45652         0.47101
|107>    H       -6.58144        10.19486        -0.47972
|108>    H       -6.30859         9.27681         1.00945
|109>    H       -8.82435         9.27636        -0.47091
|110>    H       -8.53862         9.96805         0.98852
|111>    H       -6.46040         7.83279        -3.75735
|112>    H       -4.77871         6.88467        -5.39538
|113>    H       -2.88266         8.45176        -6.16751
|114>    H       -1.56914         8.88180        -4.13495
|115>    H       -0.60663         8.90848        -1.68799
|116>    H       -0.20605         8.79566         0.71208
|117>    H       -5.33463         8.29734        -7.24099
|118>    H       -6.65071         9.99157        -5.06216
|119>    H       -8.38976        11.66476        -6.05474
|120>    H      -10.22214        12.99923        -8.19893
|121>    H       -8.76222        10.73286       -11.45061
|122>    H      -11.31257        13.54149       -10.14261
|123>    H      -10.91865        10.83124       -15.78879
|124>    H      -14.20390        14.40787       -14.66587
|125>    H      -15.17852        14.20753       -16.86714
|126>    H      -15.24354        13.15516       -19.09257
|127>    H      -13.63042        11.38865       -19.67939
|128>    H      -11.93941        10.65905       -18.04273
|129> *
|130>
|131>                          ****END OF INPUT****

CARTESIAN COORDINATES (ANGSTROEM)
---------------------------------
  C     -0.979520    5.621900    9.085350
  C     -1.054170    4.710180    8.062170
  C     -1.718740    3.473710    8.160800
  N     -2.264490    2.463310    8.185500
  C     -0.377340    4.874680    6.836880
  N      0.215450    4.948140    5.855820
  C     -1.358760    5.365460   10.470550
  C     -0.654930    6.282890   11.304500
  C     -0.768640    6.245280   12.663650
  C     -1.614520    5.281210   13.258860
  C     -2.335430    4.375550   12.428790
  C     -2.191610    4.431650   11.022870
  C     -3.180070    3.424160   13.035290
  C     -3.304420    3.364110   14.396600
  C     -2.592120    4.254310   15.213520
  C     -1.765720    5.192270   14.656570
  C      0.137570    7.199320   10.460020
  O      0.894870    8.074870   10.818560
  C     -0.236780    6.861000    9.063640
  C      0.063200    7.717760    8.045060
  C     -0.535820    7.816470    6.771720
  S     -2.175840    7.230480    6.461990
  C     -2.069360    7.750630    4.825350
  C     -0.822130    8.354330    4.557980
  C      0.024400    8.423220    5.658330
  N     -0.813700    8.694280    3.241300
  C     -2.006520    8.328760    2.669910
  C     -2.812020    7.746420    3.649900
  C     -2.287820    8.482500    1.262810
  C     -3.577050    8.364540    0.799040
  C     -3.850230    8.411640   -0.583440
  C     -5.028280    8.256620   -1.297790
  C     -6.419310    8.067410   -0.787390
  C     -6.567180    6.738300   -0.023080
  N     -7.954590    6.313840   -0.058140
  C     -6.855010    9.273310    0.063810
  N     -8.274450    9.201040    0.379380
  C     -4.669630    8.274310   -2.695430
  C     -5.400860    8.045580   -3.802630
  C     -4.769080    7.962840   -5.145930
  C     -3.328390    8.382040   -5.187450
  C     -2.614800    8.617050   -4.071890
  C     -3.223920    8.519880   -2.797560
  C     -2.737160    8.593930   -1.510110
  C     -1.427960    8.760510   -1.002090
  C     -1.214340    8.706360    0.335390
  C     -5.549140    8.637870   -6.236510
  C     -6.441530    9.614100   -6.054560
  C     -7.195810   10.209900   -7.118060
  S     -7.004910    9.645600   -8.773740
  C     -8.226310   10.745710   -9.303950
  C     -8.728800   11.509460   -8.225700
  C     -8.141610   11.201940   -6.992530
  N     -9.681890   12.327260   -8.719310
  C     -9.815670   12.104540  -10.083820
  C     -8.894370   11.113050  -10.459350
  C    -10.788700   12.840460  -10.781910
  C    -11.206980   12.809050  -12.086820
  C    -12.276120   13.645240  -12.605710
  C    -12.924910   14.670450  -11.960740
  C    -13.951620   15.445120  -12.539760
  N    -14.793210   16.117450  -12.938180
  C    -12.676210   15.125420  -10.650790
  N    -12.536750   15.561320   -9.595560
  C    -12.546830   13.228200  -13.977480
  C    -11.625570   12.201900  -14.324830
  C    -10.742330   11.922590  -13.178440
  O     -9.830520   11.120670  -13.170320
  C    -11.631930   11.606990  -15.552600
  C    -12.587780   12.014690  -16.509990
  C    -13.519120   13.037130  -16.169500
  C    -13.482390   13.638750  -14.890190
  C    -14.473690   13.431900  -17.128810
  C    -14.507890   12.846210  -18.365050
  C    -13.589290   11.840240  -18.699380
  C    -12.649260   11.433700  -17.791500
  H     -0.218750    6.940580   13.280540
  H     -2.752010    3.738960   10.414230
  H     -3.723380    2.738450   12.401610
  H     -3.951680    2.629120   14.851570
  H     -2.701300    4.193280   16.286160
  H     -1.214850    5.880610   15.281030
  H      0.813900    8.468350    8.274570
  H      1.016080    8.837830    5.663580
  H     -0.057020    9.148880    2.759950
  H     -3.791500    7.337890    3.512060
  H     -4.383740    8.214700    1.497220
  H     -7.100580    8.003290   -1.641900
  H     -6.170610    6.859560    0.997330
  H     -5.966450    5.971490   -0.524180
  H     -8.523490    7.037720    0.373550
  H     -8.073520    5.456520    0.471010
  H     -6.581440   10.194860   -0.479720
  H     -6.308590    9.276810    1.009450
  H     -8.824350    9.276360   -0.470910
  H     -8.538620    9.968050    0.988520
  H     -6.460400    7.832790   -3.757350
  H     -4.778710    6.884670   -5.395380
  H     -2.882660    8.451760   -6.167510
  H     -1.569140    8.881800   -4.134950
  H     -0.606630    8.908480   -1.687990
  H     -0.206050    8.795660    0.712080
  H     -5.334630    8.297340   -7.240990
  H     -6.650710    9.991570   -5.062160
  H     -8.389760   11.664760   -6.054740
  H    -10.222140   12.999230   -8.198930
  H     -8.762220   10.732860  -11.450610
  H    -11.312570   13.541490  -10.142610
  H    -10.918650   10.831240  -15.788790
  H    -14.203900   14.407870  -14.665870
  H    -15.178520   14.207530  -16.867140
  H    -15.243540   13.155160  -19.092570
  H    -13.630420   11.388650  -19.679390
  H    -11.939410   10.659050  -18.042730

 Total Charge           Charge          ....    0
 Multiplicity           Mult            ....    1
 Number of Electrons    NEL             ....  526
 Basis Dimension        Dim             .... 1262

ORBITAL ENERGIES
----------------

  NO   OCC          E(Eh)            E(eV)
   0   2.0000     -88.960605     -2420.7411
   1   2.0000     -88.952912     -2420.5318
   2   2.0000     -19.210529      -522.7451
   3   2.0000     -19.198949      -522.4300
   4   2.0000     -14.478210      -393.9721
   5   2.0000     -14.470665      -393.7668
   6   2.0000     -14.414196      -392.2302
   7   2.0000     -14.407116      -392.0376
   8   2.0000     -14.401718      -391.8907
   9   2.0000     -14.397215      -391.7681
  10   2.0000     -14.392896      -391.6506
  11   2.0000     -14.357675      -390.6922
  12   2.0000     -10.361532      -281.9516
  13   2.0000     -10.351158      -281.6693
  14   2.0000     -10.335302      -281.2379
  15   2.0000     -10.332850      -281.1711
  16   2.0000     -10.326048      -280.9861
  17   2.0000     -10.326035      -280.9857
  18   2.0000     -10.325369      -280.9676
  19   2.0000     -10.321815      -280.8709
  20   2.0000     -10.321441      -280.8607
  21   2.0000     -10.319826      -280.8168
  22   2.0000     -10.318522      -280.7813
  23   2.0000     -10.317634      -280.7571
  24   2.0000     -10.311164      -280.5810
  25   2.0000     -10.307977      -280.4943
  26   2.0000     -10.307784      -280.4891
  27   2.0000     -10.306301      -280.4487
  28   2.0000     -10.304815      -280.4083
  29   2.0000     -10.304768      -280.4070
  30   2.0000     -10.304324      -280.3949
  31   2.0000     -10.300382      -280.2876
  32   2.0000     -10.296931      -280.1937
  33   2.0000     -10.296782      -280.1897
  34   2.0000     -10.296428      -280.1801
  35   2.0000     -10.294767      -280.1349
  36   2.0000     -10.294408      -280.1251
  37   2.0000     -10.294015      -280.1144
  38   2.0000     -10.293068      -280.0886
  39   2.0000     -10.292598      -280.0758
  40   2.0000     -10.292213      -280.0654
  41   2.0000     -10.291778      -280.0535
  42   2.0000     -10.291112      -280.0354
  43   2.0000     -10.290684      -280.0237
  44   2.0000     -10.290467      -280.0178
  45   2.0000     -10.289471      -279.9907
  46   2.0000     -10.289200      -279.9834
  47   2.0000     -10.286949      -279.9221
  48   2.0000     -10.286631      -279.9135
  49   2.0000     -10.285305      -279.8774
  50   2.0000     -10.284407      -279.8529
  51   2.0000     -10.282505      -279.8012
  52   2.0000     -10.281938      -279.7858
  53   2.0000     -10.281868      -279.7839
  54   2.0000     -10.281545      -279.7751
  55   2.0000     -10.281259      -279.7673
  56   2.0000     -10.281054      -279.7617
  57   2.0000     -10.279902      -279.7304
  58   2.0000     -10.278770      -279.6996
  59   2.0000     -10.278731      -279.6985
  60   2.0000     -10.278700      -279.6976
  61   2.0000     -10.278113      -279.6817
  62   2.0000     -10.277460      -279.6639
  63   2.0000     -10.277094      -279.6539
  64   2.0000     -10.277075      -279.6534
  65   2.0000     -10.276651      -279.6419
  66   2.0000     -10.276412      -279.6354
  67   2.0000     -10.275773      -279.6180
  68   2.0000     -10.274649      -279.5874
  69   2.0000     -10.274449      -279.5820
  70   2.0000     -10.269228      -279.4399
  71   2.0000     -10.269144      -279.4376
  72   2.0000     -10.268457      -279.4189
  73   2.0000     -10.267269      -279.3866
  74   2.0000     -10.266595      -279.3683
  75   2.0000     -10.263413      -279.2817
  76   2.0000      -8.055895      -219.2120
  77   2.0000      -8.047492      -218.9834
  78   2.0000      -6.025553      -163.9636
  79   2.0000      -6.021594      -163.8559
  80   2.0000      -6.017214      -163.7367
  81   2.0000      -6.017095      -163.7335
  82   2.0000      -6.013156      -163.6263
  83   2.0000      -6.008757      -163.5066
  84   2.0000      -1.125175       -30.6176
  85   2.0000      -1.113493       -30.2997
  86   2.0000      -1.097740       -29.8710
  87   2.0000      -1.090147       -29.6644
  88   2.0000      -1.013596       -27.5813
  89   2.0000      -1.004211       -27.3260
  90   2.0000      -0.994273       -27.0555
  91   2.0000      -0.989144       -26.9160
  92   2.0000      -0.988284       -26.8926
  93   2.0000      -0.984857       -26.7993
  94   2.0000      -0.983021       -26.7493
  95   2.0000      -0.980043       -26.6683
  96   2.0000      -0.974473       -26.5168
  97   2.0000      -0.971337       -26.4314
  98   2.0000      -0.966002       -26.2863
  99   2.0000      -0.958314       -26.0771
 100   2.0000      -0.950553       -25.8659
 101   2.0000      -0.939186       -25.5565
 102   2.0000      -0.921629       -25.0788
 103   2.0000      -0.919909       -25.0320
 104   2.0000      -0.912013       -24.8171
 105   2.0000      -0.901831       -24.5401
 106   2.0000      -0.896007       -24.3816
 107   2.0000      -0.892675       -24.2909
 108   2.0000      -0.883162       -24.0321
 109   2.0000      -0.881771       -23.9942
 110   2.0000      -0.875890       -23.8342
 111   2.0000      -0.873700       -23.7746
 112   2.0000      -0.869910       -23.6715
 113   2.0000      -0.864718       -23.5302
 114   2.0000      -0.854803       -23.2604
 115   2.0000      -0.843564       -22.9545
 116   2.0000      -0.835008       -22.7217
 117   2.0000      -0.833518       -22.6812
 118   2.0000      -0.828055       -22.5325
 119   2.0000      -0.823203       -22.4005
 120   2.0000      -0.822373       -22.3779
 121   2.0000      -0.817109       -22.2347
 122   2.0000      -0.812374       -22.1058
 123   2.0000      -0.800942       -21.7947
 124   2.0000      -0.779082       -21.1999
 125   2.0000      -0.764223       -20.7956
 126   2.0000      -0.760194       -20.6859
 127   2.0000      -0.756540       -20.5865
 128   2.0000      -0.747912       -20.3517
 129   2.0000      -0.739323       -20.1180
 130   2.0000      -0.723556       -19.6890
 131   2.0000      -0.719458       -19.5775
 132   2.0000      -0.706514       -19.2252
 133   2.0000      -0.700310       -19.0564
 134   2.0000      -0.697989       -18.9932
 135   2.0000      -0.695698       -18.9309
 136   2.0000      -0.694797       -18.9064
 137   2.0000      -0.693207       -18.8631
 138   2.0000      -0.690157       -18.7801
 139   2.0000      -0.686784       -18.6883
 140   2.0000      -0.681312       -18.5394
 141   2.0000      -0.672718       -18.3056
 142   2.0000      -0.670146       -18.2356
 143   2.0000      -0.665565       -18.1110
 144   2.0000      -0.663400       -18.0520
 145   2.0000      -0.661186       -17.9918
 146   2.0000      -0.652154       -17.7460
 147   2.0000      -0.645737       -17.5714
 148   2.0000      -0.633452       -17.2371
 149   2.0000      -0.629669       -17.1342
 150   2.0000      -0.629243       -17.1226
 151   2.0000      -0.619313       -16.8524
 152   2.0000      -0.617113       -16.7925
 153   2.0000      -0.611379       -16.6365
 154   2.0000      -0.607673       -16.5356
 155   2.0000      -0.601773       -16.3751
 156   2.0000      -0.601250       -16.3608
 157   2.0000      -0.595869       -16.2144
 158   2.0000      -0.594517       -16.1776
 159   2.0000      -0.586678       -15.9643
 160   2.0000      -0.585226       -15.9248
 161   2.0000      -0.579829       -15.7779
 162   2.0000      -0.570931       -15.5358
 163   2.0000      -0.564335       -15.3563
 164   2.0000      -0.563400       -15.3309
 165   2.0000      -0.560885       -15.2625
 166   2.0000      -0.548288       -14.9197
 167   2.0000      -0.547295       -14.8927
 168   2.0000      -0.546712       -14.8768
 169   2.0000      -0.543648       -14.7934
 170   2.0000      -0.542887       -14.7727
 171   2.0000      -0.542062       -14.7503
 172   2.0000      -0.536948       -14.6111
 173   2.0000      -0.535591       -14.5742
 174   2.0000      -0.533856       -14.5270
 175   2.0000      -0.532287       -14.4843
 176   2.0000      -0.530121       -14.4253
 177   2.0000      -0.529192       -14.4000
 178   2.0000      -0.529015       -14.3952
 179   2.0000      -0.526157       -14.3175
 180   2.0000      -0.522548       -14.2193
 181   2.0000      -0.521483       -14.1903
 182   2.0000      -0.519015       -14.1231
 183   2.0000      -0.516970       -14.0675
 184   2.0000      -0.515749       -14.0343
 185   2.0000      -0.513645       -13.9770
 186   2.0000      -0.512525       -13.9465
 187   2.0000      -0.507498       -13.8097
 188   2.0000      -0.506405       -13.7800
 189   2.0000      -0.504100       -13.7173
 190   2.0000      -0.500679       -13.6242
 191   2.0000      -0.500185       -13.6107
 192   2.0000      -0.498584       -13.5672
 193   2.0000      -0.492785       -13.4094
 194   2.0000      -0.491588       -13.3768
 195   2.0000      -0.491363       -13.3707
 196   2.0000      -0.490045       -13.3348
 197   2.0000      -0.486903       -13.2493
 198   2.0000      -0.485538       -13.2122
 199   2.0000      -0.483209       -13.1488
 200   2.0000      -0.481261       -13.0958
 201   2.0000      -0.476647       -12.9702
 202   2.0000      -0.475622       -12.9423
 203   2.0000      -0.472131       -12.8473
 204   2.0000      -0.469987       -12.7890
 205   2.0000      -0.467302       -12.7159
 206   2.0000      -0.463238       -12.6053
 207   2.0000      -0.462531       -12.5861
 208   2.0000      -0.459965       -12.5163
 209   2.0000      -0.456996       -12.4355
 210   2.0000      -0.453928       -12.3520
 211   2.0000      -0.452541       -12.3143
 212   2.0000      -0.449898       -12.2424
 213   2.0000      -0.447295       -12.1715
 214   2.0000      -0.444033       -12.0827
 215   2.0000      -0.441626       -12.0173
 216   2.0000      -0.439218       -11.9517
 217   2.0000      -0.435484       -11.8501
 218   2.0000      -0.435084       -11.8392
 219   2.0000      -0.431154       -11.7323
 220   2.0000      -0.428940       -11.6720
 221   2.0000      -0.428584       -11.6624
 222   2.0000      -0.428150       -11.6505
 223   2.0000      -0.422074       -11.4852
 224   2.0000      -0.421896       -11.4804
 225   2.0000      -0.420059       -11.4304
 226   2.0000      -0.419030       -11.4024
 227   2.0000      -0.417258       -11.3542
 228   2.0000      -0.415832       -11.3154
 229   2.0000      -0.414545       -11.2803
 230   2.0000      -0.414427       -11.2771
 231   2.0000      -0.411658       -11.2018
 232   2.0000      -0.410855       -11.1799
 233   2.0000      -0.405561       -11.0359
 234   2.0000      -0.403325       -10.9750
 235   2.0000      -0.400320       -10.8932
 236   2.0000      -0.399622       -10.8743
 237   2.0000      -0.393338       -10.7033
 238   2.0000      -0.391254       -10.6466
 239   2.0000      -0.384807       -10.4711
 240   2.0000      -0.383467       -10.4347
 241   2.0000      -0.375852       -10.2275
 242   2.0000      -0.371939       -10.1210
 243   2.0000      -0.368741       -10.0339
 244   2.0000      -0.363452        -9.8900
 245   2.0000      -0.361891        -9.8476
 246   2.0000      -0.345078        -9.3901
 247   2.0000      -0.334739        -9.1087
 248   2.0000      -0.332144        -9.0381
 249   2.0000      -0.326449        -8.8831
 250   2.0000      -0.321828        -8.7574
 251   2.0000      -0.314665        -8.5625
 252   2.0000      -0.311839        -8.4856
 253   2.0000      -0.310664        -8.4536
 254   2.0000      -0.302921        -8.2429
 255   2.0000      -0.302267        -8.2251
 256   2.0000      -0.293036        -7.9739
 257   2.0000      -0.289909        -7.8888
 258   2.0000      -0.287292        -7.8176
 259   2.0000      -0.282531        -7.6881
 260   2.0000      -0.257250        -7.0001
 261   2.0000      -0.253099        -6.8872
 262   2.0000      -0.223305        -6.0764
 263   0.0000      -0.088912        -2.4194
 264   0.0000      -0.085492        -2.3263
 265   0.0000      -0.068732        -1.8703
 266   0.0000      -0.052486        -1.4282
 267   0.0000      -0.042010        -1.1432

MULLIKEN ATOMIC CHARGES
-----------------------
   0 C :    0.256066
   1 C :   -0.328993
   2 C :   -0.172054
   3 N :    0.141491
   4 C :   -0.201019
   5 N :    0.160620
   6 C :    0.035756
   7 C :    0.011726
   8 C :   -0.085219
   9 C :    0.094533
  10 C :    0.094404
  11 C :   -0.081719
  12 C :   -0.018714
  13 C :    0.034189
  14 C :    0.031419
  15 C :   -0.016591
  16 C :    0.140211
  17 O :   -0.153198
  18 C :   -0.147501
  19 C :    0.049957
  20 C :   -0.116504
  21 S :    0.142370
  22 C :    0.001148
  23 C :    0.120832
  24 C :   -0.013425
  25 N :   -0.023186
  26 C :    0.073119
  27 C :   -0.127890
  28 C :    0.143457
  29 C :   -0.105712
  30 C :    0.055497
  31 C :   -0.030007
  32 C :   -0.052121
  33 C :    0.158355
  34 N :   -0.226987
  35 C :    0.139982
  36 N :   -0.216655
  37 C :    0.093000
  38 C :   -0.158508
  39 C :    0.173040
  40 C :   -0.039780
  41 C :    0.023818
  42 C :    0.018534
  43 C :    0.021890
  44 C :   -0.003241
  45 C :   -0.032617
  46 C :   -0.101691
  47 C :    0.046067
  48 C :   -0.040698
  49 S :    0.118917
  50 C :   -0.026609
  51 C :    0.137212
  52 C :   -0.079903
  53 N :   -0.030374
  54 C :    0.085858
  55 C :   -0.090410
  56 C :   -0.007410
  57 C :   -0.098524
  58 C :    0.327558
  59 C :   -0.371294
  60 C :   -0.182774
  61 N :    0.138661
  62 C :   -0.179756
  63 N :    0.129840
  64 C :    0.042557
  65 C :    0.003102
  66 C :    0.156351
  67 O :   -0.159371
  68 C :   -0.089984
  69 C :    0.101464
  70 C :    0.097943
  71 C :   -0.086364
  72 C :   -0.021072
  73 C :    0.035776
  74 C :    0.038060
  75 C :   -0.019971
  76 H :   -0.015024
  77 H :   -0.007996
  78 H :   -0.012864
  79 H :   -0.008417
  80 H :   -0.007771
  81 H :   -0.020207
  82 H :    0.022187
  83 H :   -0.015036
  84 H :    0.128656
  85 H :   -0.021271
  86 H :   -0.039497
  87 H :   -0.037377
  88 H :   -0.028117
  89 H :   -0.001321
  90 H :    0.080109
  91 H :    0.083135
  92 H :   -0.006404
  93 H :   -0.009602
  94 H :    0.099921
  95 H :    0.097921
  96 H :    0.005664
  97 H :    0.059290
  98 H :   -0.011058
  99 H :   -0.033169
 100 H :   -0.033754
 101 H :   -0.050447
 102 H :    0.014555
 103 H :   -0.002839
 104 H :   -0.021436
 105 H :    0.139551
 106 H :    0.011561
 107 H :   -0.024832
 108 H :   -0.016557
 109 H :   -0.010129
 110 H :   -0.010082
 111 H :   -0.006648
 112 H :   -0.007879
 113 H :   -0.019754
Sum of atomic charges:   -0.0000000

LOEWDIN ATOMIC CHARGES
----------------------
   0 C :    0.060950
   1 C :   -0.147813
   2 C :   -0.018308
   3 N :   -0.062119
   4 C :   -0.032181
   5 N :   -0.058725
   6 C :   -0.020484
   7 C :   -0.054952
   8 C :    0.028130
   9 C :   -0.010588
  10 C :   -0.006360
  11 C :    0.011991
  12 C :   -0.008023
  13 C :   -0.016498
  14 C :   -0.017312
  15 C :   -0.010724
  16 C :    0.081346
  17 O :   -0.154843
  18 C :   -0.110788
  19 C :    0.052459
  20 C :   -0.177995
  21 S :    0.434405
  22 C :   -0.170509
  23 C :   -0.034545
  24 C :   -0.019816
  25 N :    0.083670
  26 C :    0.029286
  27 C :   -0.085417
  28 C :   -0.034716
  29 C :   -0.007553
  30 C :   -0.018537
  31 C :   -0.033878
  32 C :   -0.040872
  33 C :    0.032289
  34 N :   -0.132346
  35 C :    0.027229
  36 N :   -0.103400
  37 C :   -0.015439
  38 C :    0.060849
  39 C :   -0.032901
  40 C :   -0.026440
  41 C :   -0.017887
  42 C :   -0.032618
  43 C :   -0.031534
  44 C :   -0.000606
  45 C :   -0.039217
  46 C :   -0.003790
  47 C :   -0.046286
  48 C :   -0.131862
  49 S :    0.407187
  50 C :   -0.201948
  51 C :   -0.002690
  52 C :   -0.080226
  53 N :    0.086038
  54 C :   -0.017577
  55 C :   -0.022094
  56 C :    0.053036
  57 C :   -0.106988
  58 C :    0.080570
  59 C :   -0.155349
  60 C :   -0.017731
  61 N :   -0.062678
  62 C :   -0.019270
  63 N :   -0.071874
  64 C :   -0.026615
  65 C :   -0.053240
  66 C :    0.085636
  67 O :   -0.149273
  68 C :    0.027844
  69 C :   -0.008607
  70 C :   -0.007699
  71 C :    0.018413
  72 C :   -0.005710
  73 C :   -0.015962
  74 C :   -0.013805
  75 C :   -0.011130
  76 H :    0.037706
  77 H :    0.037716
  78 H :    0.033248
  79 H :    0.031523
  80 H :    0.031279
  81 H :    0.030571
  82 H :    0.049024
  83 H :    0.036358
  84 H :    0.090125
  85 H :    0.028396
  86 H :    0.021253
  87 H :    0.020098
  88 H :   -0.003773
  89 H :    0.017481
  90 H :    0.034783
  91 H :    0.050419
  92 H :    0.002683
  93 H :    0.015986
  94 H :    0.055480
  95 H :    0.058018
  96 H :    0.032733
  97 H :    0.074966
  98 H :    0.025349
  99 H :    0.030439
 100 H :    0.028763
 101 H :    0.017670
 102 H :    0.021867
 103 H :    0.034843
 104 H :    0.032167
 105 H :    0.098022
 106 H :    0.034177
 107 H :    0.042207
 108 H :    0.037396
 109 H :    0.038484
 110 H :    0.034323
 111 H :    0.032416
 112 H :    0.031839
 113 H :    0.030984

  Mayer bond orders larger than 0.100000
B(  0-C ,  1-C ) :   1.6402 B(  0-C ,  6-C ) :   0.9985 B(  0-C , 18-C ) :   1.0535
B(  1-C ,  2-C ) :   1.1423 B(  1-C ,  4-C ) :   1.1534 B(  2-C ,  3-N ) :   2.9835
B(  4-C ,  5-N ) :   3.0198 B(  6-C ,  7-C ) :   1.2173 B(  6-C , 11-C ) :   1.4664
B(  7-C ,  8-C ) :   1.4832 B(  7-C , 16-C ) :   0.9185 B(  8-C ,  9-C ) :   1.1823
B(  8-C , 76-H ) :   1.0145 B(  9-C , 10-C ) :   1.2604 B(  9-C , 15-C ) :   1.2467
B( 10-C , 11-C ) :   1.2008 B( 10-C , 12-C ) :   1.2425 B( 11-C , 77-H ) :   0.9936
B( 12-C , 13-C ) :   1.4906 B( 12-C , 78-H ) :   0.9969 B( 13-C , 14-C ) :   1.2612
B( 13-C , 79-H ) :   0.9880 B( 14-C , 15-C ) :   1.4905 B( 14-C , 80-H ) :   0.9881
B( 15-C , 81-H ) :   0.9966 B( 16-C , 17-O ) :   2.2663 B( 16-C , 18-C ) :   0.9508
B( 18-C , 19-C ) :   1.5923 B( 19-C , 20-C ) :   1.1771 B( 19-C , 82-H ) :   0.9489
B( 20-C , 21-S ) :   1.0820 B( 20-C , 24-C ) :   1.3930 B( 21-S , 22-C ) :   1.0599
B( 22-C , 23-C ) :   1.3283 B( 22-C , 27-C ) :   1.3191 B( 23-C , 24-C ) :   1.2471
B( 23-C , 25-N ) :   1.1667 B( 24-C , 83-H ) :   1.0180 B( 25-N , 26-C ) :   1.2327
B( 25-N , 84-H ) :   0.9291 B( 26-C , 27-C ) :   1.4379 B( 26-C , 28-C ) :   1.0045
B( 27-C , 85-H ) :   1.0137 B( 28-C , 29-C ) :   1.5529 B( 28-C , 45-C ) :   1.0929
B( 29-C , 30-C ) :   1.1271 B( 29-C , 86-H ) :   0.9873 B( 30-C , 31-C ) :   1.4679
B( 30-C , 43-C ) :   1.1159 B( 31-C , 32-C ) :   1.0254 B( 31-C , 37-C ) :   1.1207
B( 32-C , 33-C ) :   1.0278 B( 32-C , 35-C ) :   1.0459 B( 32-C , 87-H ) :   0.8770
B( 33-C , 34-N ) :   1.1063 B( 33-C , 88-H ) :   0.9255 B( 33-C , 89-H ) :   0.9463
B( 34-N , 90-H ) :   0.9427 B( 34-N , 91-H ) :   0.9666 B( 35-C , 36-N ) :   1.0793
B( 35-C , 92-H ) :   0.9466 B( 35-C , 93-H ) :   0.9329 B( 36-N , 90-H ) :   0.1008
B( 36-N , 94-H ) :   0.9633 B( 36-N , 95-H ) :   0.9673 B( 37-C , 38-C ) :   1.6383
B( 37-C , 42-C ) :   1.0512 B( 38-C , 39-C ) :   0.9722 B( 38-C , 96-H ) :   0.9744
B( 39-C , 40-C ) :   0.9886 B( 39-C , 46-C ) :   0.9674 B( 39-C , 97-H ) :   0.8309
B( 40-C , 41-C ) :   1.7312 B( 40-C , 98-H ) :   0.9706 B( 41-C , 42-C ) :   1.1295
B( 41-C , 99-H ) :   0.9864 B( 42-C , 43-C ) :   1.4443 B( 43-C , 44-C ) :   1.1458
B( 44-C , 45-C ) :   1.6284 B( 44-C ,100-H ) :   0.9891 B( 45-C ,101-H ) :   0.9815
B( 46-C , 47-C ) :   1.8245 B( 46-C ,102-H ) :   0.9649 B( 47-C , 48-C ) :   1.1258
B( 47-C ,103-H ) :   0.9634 B( 48-C , 49-S ) :   1.1014 B( 48-C , 52-C ) :   1.4958
B( 49-S , 50-C ) :   1.0224 B( 50-C , 51-C ) :   1.3173 B( 50-C , 55-C ) :   1.3331
B( 51-C , 52-C ) :   1.1749 B( 51-C , 53-N ) :   1.2434 B( 52-C ,104-H ) :   1.0242
B( 53-N , 54-C ) :   1.1330 B( 53-N ,105-H ) :   0.9277 B( 54-C , 55-C ) :   1.3724
B( 54-C , 56-C ) :   1.1997 B( 55-C ,106-H ) :   1.0090 B( 56-C , 57-C ) :   1.5370
B( 56-C ,107-H ) :   0.9151 B( 57-C , 58-C ) :   1.0989 B( 57-C , 66-C ) :   0.9406
B( 58-C , 59-C ) :   1.5954 B( 58-C , 64-C ) :   0.9769 B( 59-C , 60-C ) :   1.1520
B( 59-C , 62-C ) :   1.1456 B( 60-C , 61-N ) :   2.9590 B( 62-C , 63-N ) :   2.9553
B( 64-C , 65-C ) :   1.2155 B( 64-C , 71-C ) :   1.4508 B( 65-C , 66-C ) :   0.9504
B( 65-C , 68-C ) :   1.4719 B( 66-C , 67-O ) :   2.1762 B( 68-C , 69-C ) :   1.1715
B( 68-C ,108-H ) :   1.0178 B( 69-C , 70-C ) :   1.2591 B( 69-C , 75-C ) :   1.2443
B( 70-C , 71-C ) :   1.2014 B( 70-C , 72-C ) :   1.2402 B( 71-C ,109-H ) :   0.9908
B( 72-C , 73-C ) :   1.4872 B( 72-C ,110-H ) :   0.9981 B( 73-C , 74-C ) :   1.2597
B( 73-C ,111-H ) :   0.9886 B( 74-C , 75-C ) :   1.4875 B( 74-C ,112-H ) :   0.9886
B( 75-C ,113-H ) :   0.9985

-----------------------------------------------------------------------------
         ABSORPTION SPECTRUM VIA TRANSITION ELECTRIC DIPOLE MOMENTS
-----------------------------------------------------------------------------
State   Energy  Wavelength   fosc         T2         TX        TY        TZ
        (cm-1)    (nm)                  (au**2)     (au)      (au)      (au)
-----------------------------------------------------------------------------
   0   14378.0    695.5   0.096773051   2.21580   1.21141  -0.31620   0.80517
   1   17400.8    574.7   1.181824399  22.35931   0.93069  -1.71603   4.30678
   2   19780.2    505.6   0.377324801   6.28000   1.55691  -0.90842   1.74093
   3   21113.4    473.6   1.183718009  18.45715  -2.62274   1.68852  -2.95420
   4   21622.7    462.5   0.036292525   0.55256   0.64241  -0.17110  -0.33256
   5   25199.2    396.8   0.321191344   4.19617   0.48002   0.53818   1.91732
   6   25890.4    386.2   0.047684349   0.60634  -0.65044  -0.26417  -0.33686
   7   26351.6    379.5   0.014862116   0.18567  -0.05453  -0.09619  -0.41647
   8   26850.2    372.4   0.010145187   0.12439   0.00951  -0.02829  -0.35143
   9   26993.1    370.5   0.098672680   1.20343   0.20830   0.47393  -0.96718
  10   27481.0    363.9   0.004238542   0.05078   0.16923   0.14001  -0.05035
  11   27775.6    360.0   0.585309649   6.93742  -0.61036  -0.03335  -2.56198
  12   27836.3    359.2   0.028780359   0.34038  -0.48765  -0.14106   0.28754
  13   28657.3    349.0   0.000887423   0.01019   0.06771   0.02438   0.07082
  14   28717.8    348.2   0.042310416   0.48503  -0.24216  -0.26737  -0.59574
  15   28994.3    344.9   0.023692975   0.26902  -0.02007  -0.06176  -0.51459
  16   29182.0    342.7   0.003362018   0.03793   0.10030  -0.00510   0.16686
  17   29658.2    337.2   0.015874237   0.17621   0.05813  -0.00294   0.41572
  18   30182.7    331.3   0.157627338   1.71929   0.14410   0.38691   1.24452
  19   30232.0    330.8   0.002399741   0.02613   0.09243   0.08687  -0.10022
  20   31795.5    314.5   0.158849505   1.64473   0.16291  -0.25106   1.24706
  21   32665.6    306.1   0.077479647   0.78086   0.13811   0.11097   0.86572
  22   33047.0    302.6   0.006576209   0.06551   0.04794   0.06016   0.24412
  23   33077.8    302.3   0.613428540   6.10525   0.38236   0.44796   2.39966
  24   33207.3    301.1   0.027940545   0.27700   0.06442   0.20000  -0.48254
  25   33334.1    300.0   0.012185045   0.12034   0.06310   0.18030   0.28957
  26   33383.9    299.5   0.026776748   0.26406  -0.32322  -0.06295   0.39449
  27   33590.7    297.7   0.092397159   0.90556   0.24049   0.17618  -0.90370
  28   33804.6    295.8   0.854762850   8.32425   0.64679   0.76248   2.70639
  29   34040.9    293.8   0.057607071   0.55712   0.64008  -0.23648   0.30249
  30   34475.9    290.1   0.001275101   0.01218   0.04073   0.00010   0.10255
  31   34828.6    287.1   0.278899304   2.63625   1.16702   0.03576  -1.12829
  32   35161.2    284.4   0.001048334   0.00982   0.07606   0.02095  -0.05993
  33   35568.9    281.1   0.166426276   1.54038  -0.72968   0.87686  -0.48894
  34   35757.1    279.7   0.008624291   0.07940  -0.09437   0.26235   0.04088
  35   36170.4    276.5   0.002836379   0.02582  -0.08684  -0.10658   0.08316
  36   36666.5    272.7   0.051130043   0.45907   0.45190   0.49931  -0.07450
  37   36966.4    270.5   0.147980411   1.31787  -0.52954   0.98478   0.26011
  38   37262.3    268.4   0.029719571   0.26257   0.17431   0.46632   0.12137
  39   37499.3    266.7   0.014228840   0.12492   0.30131  -0.16205  -0.08871
  40   37719.3    265.1   0.050291532   0.43894  -0.46056  -0.43322  -0.19786
  41   37845.8    264.2   0.003042624   0.02647  -0.14581   0.06563   0.02998
  42   38384.9    260.5   0.010272260   0.08810   0.07492  -0.17766   0.22567
  43   38598.6    259.1   0.028662180   0.24446   0.29952  -0.34708  -0.18517
  44   38983.4    256.5   0.007680452   0.06486   0.08238   0.10023   0.21915
  45   39069.9    256.0   0.011834145   0.09972  -0.15707   0.23063   0.14784
  46   39299.4    254.5   0.409495054   3.43035  -0.54181  -0.30804  -1.74410
  47   39533.6    252.9   0.193561343   1.61186   0.77402  -0.94396  -0.34886
  48   39801.4    251.2   0.080728007   0.66773  -0.00166   0.57445  -0.58115
  49   40021.8    249.9   0.000588343   0.00484  -0.03926  -0.05015   0.02799
  50   40110.4    249.3   0.017745485   0.14565  -0.06992  -0.34591  -0.14528
  51   40145.6    249.1   0.007070424   0.05798  -0.00829   0.04458   0.23648

FINAL SINGLE POINT ENERGY     -3842.285238755250

DIPOLE MOMENT
-------------
                                X             Y             Z
Electronic contribution:     11.55627      11.37219      -2.09029
Nuclear contribution   :    -11.71300     -10.92608       0.82931
                        -----------------------------------------
Total Dipole Moment    :     -0.15673       0.44612      -1.26098
                        -----------------------------------------
Magnitude (a.u.)       :      1.34672
Magnitude (Debye)      :      3.42308

Rotational constants in cm-1:     0.002822     0.000135     0.000133
Rotational constants in MHz :    84.611253     4.061840     4.000700

                             ****ORCA TERMINATED NORMALLY****
TOTAL RUN TIME: 0 days 0 hours 10 minutes 53 seconds 861 msec
