                         Program Version 4.2.0 -  RELEASE  -
|  1> # ORCA input file
|  2> # SCF done       -120.732249040493          0.000415456397
|  3> ! CAM-B3LYP def2-SVP def2/J RIJCOSX Grid4 TightSCF
|  4> %maxcore 5000
|  5> %tddft
|  6>     Mode sTDDFT
|  7>     Ethresh 5.0
|  8>     maxcore 5000
|  9> end
| 10>
| 11> %pal
| 12>   nprocs 6
| 13>   end
| 14> * xyz 0 1
| 15>    C        0.58515        -1.73475         0.42776
| 16>    C       -0.59163        -1.45756         0.53032
| 17>    C       -1.90960        -1.02231         0.55268
| 18>    C       -3.06804        -1.73976         0.38731
| 19>    C       -4.21210        -0.92777         0.32694
| 20>    C       -3.93754         0.40915         0.42003
| 21>    C       -4.84704         1.53828         0.23431
| 22>    C       -5.97548         1.65824         1.00571
| 23>    C       -6.81768         2.77765         0.87027
| 24>    N       -7.92576         2.88175         1.63286
| 25>    C       -8.65127         3.95773         1.48493
| 26>    C       -8.30626         4.97633         0.57256
| 27>    N       -7.24407         4.90250        -0.18361
| 28>    C       -6.47301         3.80226        -0.05626
| 29>    C       -5.32351         3.65428        -0.85422
| 30>    C       -4.53503         2.53693        -0.74555
| 31>    C       -3.36733         2.32764        -1.60247
| 32>    C       -3.17355         1.16977        -2.25399
| 33>    C       -1.95351         0.73941        -2.77749
| 34>    C       -0.90215         0.17540        -2.99911
| 35>    C        0.30661        -0.48152        -3.17414
| 36>    C        0.51597        -1.72300        -3.72991
| 37>    C        1.85124        -2.12958        -3.67497
| 38>    C        2.68489        -1.21596        -3.07282
| 39>    C        4.10832        -1.31220        -2.84870
| 40>    C        4.75302        -0.37779        -1.99868
| 41>    C        6.09073        -0.43991        -1.75101
| 42>    C        6.87175        -1.45136        -2.34700
| 43>    N        8.19167        -1.52876        -2.08866
| 44>    C        8.85936        -2.48136        -2.68122
| 45>    C        8.24317        -3.38574        -3.57149
| 46>    N        6.96597        -3.34613        -3.83389
| 47>    C        6.24167        -2.38349        -3.21835
| 48>    C        4.86145        -2.30029        -3.45164
| 49>    S        1.79118         0.18621        -2.56051
| 50>    S       -2.24316         0.68472         0.69097
| 51>    C        1.93479        -2.06604         0.31590
| 52>    C        2.37109        -3.17469        -0.31054
| 53>    C        3.74915        -3.58332        -0.46542
| 54>    C        4.81460        -2.93175         0.20899
| 55>    C        6.10562        -3.34445         0.07301
| 56>    C        6.41516        -4.43989        -0.75984
| 57>    N        7.69092        -4.85312        -0.88890
| 58>    C        7.90857        -5.87157        -1.67943
| 59>    C        6.86750        -6.51656        -2.37687
| 60>    N        5.62148        -6.14554        -2.26705
| 61>    C        5.36094        -5.09861        -1.45402
| 62>    C        4.04030        -4.65705        -1.28453
| 63>    H       -3.08235        -2.81055         0.29003
| 64>    H       -5.20529        -1.30855         0.16407
| 65>    H       -6.22526         0.91460         1.74693
| 66>    H       -9.53831         4.03303         2.09975
| 67>    H       -8.91766         5.86247         0.46514
| 68>    H       -5.09681         4.42696        -1.57303
| 69>    H       -2.62270         3.11112        -1.63547
| 70>    H       -3.96583         0.42915        -2.28401
| 71>    H       -0.27917        -2.30699        -4.15785
| 72>    H        2.19152        -3.07582        -4.05441
| 73>    H        4.15344         0.39624        -1.54033
| 74>    H        6.58222         0.26696        -1.10105
| 75>    H        9.91611        -2.54526        -2.46148
| 76>    H        8.81651        -4.15404        -4.07417
| 77>    H        4.42447        -3.02308        -4.12104
| 78>    H        2.62111        -1.34963         0.74876
| 79>    H        1.63659        -3.83319        -0.75696
| 80>    H        4.59571        -2.09808         0.85809
| 81>    H        6.91653        -2.85385         0.58880
| 82>    H        8.93571        -6.19918        -1.77367
| 83>    H        7.06929        -7.35342        -3.03246
| 84>    H        3.25953        -5.18142        -1.81470
| 85> *
| 86>
| 87>                          ****END OF INPUT****

CARTESIAN COORDINATES (ANGSTROEM)
---------------------------------
  C      0.585150   -1.734750    0.427760
  C     -0.591630   -1.457560    0.530320
  C     -1.909600   -1.022310    0.552680
  C     -3.068040   -1.739760    0.387310
  C     -4.212100   -0.927770    0.326940
  C     -3.937540    0.409150    0.420030
  C     -4.847040    1.538280    0.234310
  C     -5.975480    1.658240    1.005710
  C     -6.817680    2.777650    0.870270
  N     -7.925760    2.881750    1.632860
  C     -8.651270    3.957730    1.484930
  C     -8.306260    4.976330    0.572560
  N     -7.244070    4.902500   -0.183610
  C     -6.473010    3.802260   -0.056260
  C     -5.323510    3.654280   -0.854220
  C     -4.535030    2.536930   -0.745550
  C     -3.367330    2.327640   -1.602470
  C     -3.173550    1.169770   -2.253990
  C     -1.953510    0.739410   -2.777490
  C     -0.902150    0.175400   -2.999110
  C      0.306610   -0.481520   -3.174140
  C      0.515970   -1.723000   -3.729910
  C      1.851240   -2.129580   -3.674970
  C      2.684890   -1.215960   -3.072820
  C      4.108320   -1.312200   -2.848700
  C      4.753020   -0.377790   -1.998680
  C      6.090730   -0.439910   -1.751010
  C      6.871750   -1.451360   -2.347000
  N      8.191670   -1.528760   -2.088660
  C      8.859360   -2.481360   -2.681220
  C      8.243170   -3.385740   -3.571490
  N      6.965970   -3.346130   -3.833890
  C      6.241670   -2.383490   -3.218350
  C      4.861450   -2.300290   -3.451640
  S      1.791180    0.186210   -2.560510
  S     -2.243160    0.684720    0.690970
  C      1.934790   -2.066040    0.315900
  C      2.371090   -3.174690   -0.310540
  C      3.749150   -3.583320   -0.465420
  C      4.814600   -2.931750    0.208990
  C      6.105620   -3.344450    0.073010
  C      6.415160   -4.439890   -0.759840
  N      7.690920   -4.853120   -0.888900
  C      7.908570   -5.871570   -1.679430
  C      6.867500   -6.516560   -2.376870
  N      5.621480   -6.145540   -2.267050
  C      5.360940   -5.098610   -1.454020
  C      4.040300   -4.657050   -1.284530
  H     -3.082350   -2.810550    0.290030
  H     -5.205290   -1.308550    0.164070
  H     -6.225260    0.914600    1.746930
  H     -9.538310    4.033030    2.099750
  H     -8.917660    5.862470    0.465140
  H     -5.096810    4.426960   -1.573030
  H     -2.622700    3.111120   -1.635470
  H     -3.965830    0.429150   -2.284010
  H     -0.279170   -2.306990   -4.157850
  H      2.191520   -3.075820   -4.054410
  H      4.153440    0.396240   -1.540330
  H      6.582220    0.266960   -1.101050
  H      9.916110   -2.545260   -2.461480
  H      8.816510   -4.154040   -4.074170
  H      4.424470   -3.023080   -4.121040
  H      2.621110   -1.349630    0.748760
  H      1.636590   -3.833190   -0.756960
  H      4.595710   -2.098080    0.858090
  H      6.916530   -2.853850    0.588800
  H      8.935710   -6.199180   -1.773670
  H      7.069290   -7.353420   -3.032460
  H      3.259530   -5.181420   -1.814700

 Total Charge           Charge          ....    0
 Multiplicity           Mult            ....    1
 Number of Electrons    NEL             ....  336
 Basis Dimension        Dim             ....  790

ORBITAL ENERGIES
----------------

  NO   OCC          E(Eh)            E(eV)
   0   2.0000     -88.956521     -2420.6300
   1   2.0000     -88.950662     -2420.4706
   2   2.0000     -14.418454      -392.3461
   3   2.0000     -14.418184      -392.3387
   4   2.0000     -14.415896      -392.2765
   5   2.0000     -14.414693      -392.2437
   6   2.0000     -14.414132      -392.2285
   7   2.0000     -14.413236      -392.2041
   8   2.0000     -10.312860      -280.6272
   9   2.0000     -10.312565      -280.6192
  10   2.0000     -10.311085      -280.5789
  11   2.0000     -10.310746      -280.5697
  12   2.0000     -10.310300      -280.5575
  13   2.0000     -10.309933      -280.5475
  14   2.0000     -10.309066      -280.5239
  15   2.0000     -10.308113      -280.4980
  16   2.0000     -10.307990      -280.4947
  17   2.0000     -10.307706      -280.4869
  18   2.0000     -10.307090      -280.4702
  19   2.0000     -10.306425      -280.4521
  20   2.0000     -10.305673      -280.4316
  21   2.0000     -10.305432      -280.4251
  22   2.0000     -10.302237      -280.3381
  23   2.0000     -10.299198      -280.2554
  24   2.0000     -10.295919      -280.1662
  25   2.0000     -10.292667      -280.0777
  26   2.0000     -10.291571      -280.0479
  27   2.0000     -10.289218      -279.9839
  28   2.0000     -10.287304      -279.9318
  29   2.0000     -10.286905      -279.9209
  30   2.0000     -10.281160      -279.7646
  31   2.0000     -10.279937      -279.7313
  32   2.0000     -10.278799      -279.7003
  33   2.0000     -10.278321      -279.6873
  34   2.0000     -10.278034      -279.6795
  35   2.0000     -10.277155      -279.6556
  36   2.0000     -10.276544      -279.6390
  37   2.0000     -10.274192      -279.5750
  38   2.0000     -10.273936      -279.5680
  39   2.0000     -10.273383      -279.5530
  40   2.0000     -10.273238      -279.5490
  41   2.0000     -10.273031      -279.5434
  42   2.0000     -10.272648      -279.5330
  43   2.0000     -10.272156      -279.5196
  44   2.0000     -10.271619      -279.5050
  45   2.0000     -10.270659      -279.4788
  46   2.0000     -10.269145      -279.4376
  47   2.0000     -10.268257      -279.4135
  48   2.0000      -8.051578      -219.0946
  49   2.0000      -8.045867      -218.9392
  50   2.0000      -6.020837      -163.8353
  51   2.0000      -6.016707      -163.7229
  52   2.0000      -6.015268      -163.6838
  53   2.0000      -6.013823      -163.6444
  54   2.0000      -6.011039      -163.5687
  55   2.0000      -6.007841      -163.4817
  56   2.0000      -1.073466       -29.2105
  57   2.0000      -1.072308       -29.1790
  58   2.0000      -1.066998       -29.0345
  59   2.0000      -0.996386       -27.1130
  60   2.0000      -0.992886       -27.0178
  61   2.0000      -0.992394       -27.0044
  62   2.0000      -0.986865       -26.8540
  63   2.0000      -0.986089       -26.8328
  64   2.0000      -0.954444       -25.9718
  65   2.0000      -0.952710       -25.9246
  66   2.0000      -0.944973       -25.7140
  67   2.0000      -0.902366       -24.5546
  68   2.0000      -0.900096       -24.4929
  69   2.0000      -0.878587       -23.9076
  70   2.0000      -0.872371       -23.7384
  71   2.0000      -0.856797       -23.3146
  72   2.0000      -0.851758       -23.1775
  73   2.0000      -0.846091       -23.0233
  74   2.0000      -0.840684       -22.8762
  75   2.0000      -0.832387       -22.6504
  76   2.0000      -0.831723       -22.6323
  77   2.0000      -0.824663       -22.4402
  78   2.0000      -0.821621       -22.3575
  79   2.0000      -0.793351       -21.5882
  80   2.0000      -0.791677       -21.5426
  81   2.0000      -0.759110       -20.6564
  82   2.0000      -0.754249       -20.5242
  83   2.0000      -0.746741       -20.3199
  84   2.0000      -0.740806       -20.1584
  85   2.0000      -0.737034       -20.0557
  86   2.0000      -0.731871       -19.9152
  87   2.0000      -0.700136       -19.0517
  88   2.0000      -0.696020       -18.9397
  89   2.0000      -0.694224       -18.8908
  90   2.0000      -0.690078       -18.7780
  91   2.0000      -0.687685       -18.7129
  92   2.0000      -0.666998       -18.1499
  93   2.0000      -0.664500       -18.0820
  94   2.0000      -0.646370       -17.5886
  95   2.0000      -0.644756       -17.5447
  96   2.0000      -0.624851       -17.0031
  97   2.0000      -0.623128       -16.9562
  98   2.0000      -0.614076       -16.7099
  99   2.0000      -0.609313       -16.5802
 100   2.0000      -0.608949       -16.5703
 101   2.0000      -0.604345       -16.4451
 102   2.0000      -0.603827       -16.4310
 103   2.0000      -0.599780       -16.3208
 104   2.0000      -0.594819       -16.1859
 105   2.0000      -0.583168       -15.8688
 106   2.0000      -0.580897       -15.8070
 107   2.0000      -0.575667       -15.6647
 108   2.0000      -0.570392       -15.5212
 109   2.0000      -0.548419       -14.9232
 110   2.0000      -0.540330       -14.7031
 111   2.0000      -0.538823       -14.6621
 112   2.0000      -0.535250       -14.5649
 113   2.0000      -0.525129       -14.2895
 114   2.0000      -0.520903       -14.1745
 115   2.0000      -0.520656       -14.1678
 116   2.0000      -0.519187       -14.1278
 117   2.0000      -0.518724       -14.1152
 118   2.0000      -0.517229       -14.0745
 119   2.0000      -0.511275       -13.9125
 120   2.0000      -0.508832       -13.8460
 121   2.0000      -0.506146       -13.7729
 122   2.0000      -0.502539       -13.6748
 123   2.0000      -0.500472       -13.6185
 124   2.0000      -0.496158       -13.5012
 125   2.0000      -0.491381       -13.3712
 126   2.0000      -0.489419       -13.3178
 127   2.0000      -0.483853       -13.1663
 128   2.0000      -0.479035       -13.0352
 129   2.0000      -0.477499       -12.9934
 130   2.0000      -0.472356       -12.8535
 131   2.0000      -0.468309       -12.7433
 132   2.0000      -0.457113       -12.4387
 133   2.0000      -0.452815       -12.3217
 134   2.0000      -0.451476       -12.2853
 135   2.0000      -0.444033       -12.0828
 136   2.0000      -0.442615       -12.0442
 137   2.0000      -0.438772       -11.9396
 138   2.0000      -0.432806       -11.7772
 139   2.0000      -0.430132       -11.7045
 140   2.0000      -0.425857       -11.5882
 141   2.0000      -0.423126       -11.5139
 142   2.0000      -0.417401       -11.3581
 143   2.0000      -0.415804       -11.3146
 144   2.0000      -0.413296       -11.2464
 145   2.0000      -0.411327       -11.1928
 146   2.0000      -0.408933       -11.1276
 147   2.0000      -0.395572       -10.7641
 148   2.0000      -0.381190       -10.3727
 149   2.0000      -0.380126       -10.3437
 150   2.0000      -0.377517       -10.2728
 151   2.0000      -0.375457       -10.2167
 152   2.0000      -0.349932        -9.5221
 153   2.0000      -0.342931        -9.3316
 154   2.0000      -0.338095        -9.2000
 155   2.0000      -0.328876        -8.9492
 156   2.0000      -0.326809        -8.8929
 157   2.0000      -0.324991        -8.8435
 158   2.0000      -0.317945        -8.6517
 159   2.0000      -0.316830        -8.6214
 160   2.0000      -0.314786        -8.5658
 161   2.0000      -0.312777        -8.5111
 162   2.0000      -0.312201        -8.4954
 163   2.0000      -0.305589        -8.3155
 164   2.0000      -0.302484        -8.2310
 165   2.0000      -0.285152        -7.7594
 166   2.0000      -0.262584        -7.1453
 167   2.0000      -0.240706        -6.5499
 168   0.0000      -0.055494        -1.5101
 169   0.0000      -0.049117        -1.3365
 170   0.0000      -0.037586        -1.0228
 171   0.0000      -0.028277        -0.7694
 172   0.0000      -0.016846        -0.4584

MULLIKEN ATOMIC CHARGES
-----------------------
   0 C :   -0.008231
   1 C :    0.072457
   2 C :   -0.165555
   3 C :    0.039994
   4 C :    0.049083
   5 C :   -0.182307
   6 C :    0.118009
   7 C :   -0.048072
   8 C :   -0.003458
   9 N :   -0.017018
  10 C :    0.019972
  11 C :    0.020968
  12 N :   -0.016709
  13 C :   -0.002999
  14 C :   -0.048509
  15 C :    0.075106
  16 C :   -0.037845
  17 C :   -0.022755
  18 C :   -0.115221
  19 C :    0.149457
  20 C :   -0.141124
  21 C :    0.062677
  22 C :   -0.007114
  23 C :   -0.076469
  24 C :    0.204027
  25 C :   -0.025999
  26 C :    0.000970
  27 C :   -0.010534
  28 N :   -0.016020
  29 C :    0.030397
  30 C :    0.029869
  31 N :   -0.025261
  32 C :   -0.010554
  33 C :   -0.070782
  34 S :    0.140501
  35 S :    0.178981
  36 C :   -0.088235
  37 C :    0.032206
  38 C :    0.130266
  39 C :    0.003752
  40 C :    0.051419
  41 C :   -0.060397
  42 N :   -0.024500
  43 C :    0.021638
  44 C :    0.021887
  45 N :   -0.009720
  46 C :    0.035147
  47 C :   -0.090747
  48 H :   -0.013525
  49 H :   -0.017033
  50 H :   -0.028028
  51 H :    0.010859
  52 H :    0.010450
  53 H :   -0.028730
  54 H :    0.023656
  55 H :    0.032604
  56 H :   -0.013828
  57 H :   -0.013918
  58 H :   -0.010048
  59 H :   -0.029262
  60 H :    0.006322
  61 H :    0.002928
  62 H :   -0.037014
  63 H :    0.022621
  64 H :   -0.006978
  65 H :   -0.021678
  66 H :   -0.022909
  67 H :    0.004021
  68 H :    0.004989
  69 H :   -0.038148
Sum of atomic charges:   -0.0000000

LOEWDIN ATOMIC CHARGES
----------------------
   0 C :   -0.027096
   1 C :   -0.056624
   2 C :   -0.181943
   3 C :   -0.042689
   4 C :   -0.060083
   5 C :   -0.163393
   6 C :   -0.031134
   7 C :   -0.001474
   8 C :   -0.014830
   9 N :   -0.040855
  10 C :   -0.000203
  11 C :    0.000505
  12 N :   -0.041161
  13 C :   -0.013775
  14 C :   -0.003872
  15 C :   -0.018707
  16 C :   -0.018282
  17 C :   -0.029073
  18 C :   -0.033276
  19 C :   -0.048619
  20 C :   -0.184732
  21 C :   -0.030868
  22 C :   -0.055882
  23 C :   -0.156429
  24 C :   -0.030544
  25 C :   -0.022736
  26 C :   -0.009037
  27 C :   -0.016153
  28 N :   -0.038398
  29 C :    0.004259
  30 C :    0.002555
  31 N :   -0.045156
  32 C :   -0.013419
  33 C :   -0.001525
  34 S :    0.459297
  35 S :    0.468811
  36 C :   -0.042114
  37 C :    0.008681
  38 C :   -0.019038
  39 C :   -0.003092
  40 C :   -0.004896
  41 C :   -0.019019
  42 N :   -0.040973
  43 C :   -0.004849
  44 C :    0.000839
  45 N :   -0.037878
  46 C :   -0.012804
  47 C :   -0.010909
  48 H :    0.033442
  49 H :    0.030030
  50 H :    0.037623
  51 H :    0.025433
  52 H :    0.025407
  53 H :    0.036752
  54 H :    0.034564
  55 H :    0.046088
  56 H :    0.034658
  57 H :    0.029701
  58 H :    0.020738
  59 H :    0.034331
  60 H :    0.024743
  61 H :    0.022038
  62 H :    0.032991
  63 H :    0.038347
  64 H :    0.034676
  65 H :    0.027839
  66 H :    0.036338
  67 H :    0.021647
  68 H :    0.024132
  69 H :    0.031073

  Mayer bond orders larger than 0.100000
B(  0-C ,  1-C ) :   2.2689 B(  0-C , 36-C ) :   0.9861 B(  1-C ,  2-C ) :   0.9479
B(  2-C ,  3-C ) :   1.5296 B(  2-C ,  5-C ) :   0.1093 B(  2-C , 35-S ) :   1.1147
B(  3-C ,  4-C ) :   1.2284 B(  3-C , 48-H ) :   1.0031 B(  4-C ,  5-C ) :   1.5801
B(  4-C , 49-H ) :   0.9973 B(  5-C ,  6-C ) :   0.9355 B(  5-C , 35-S ) :   1.1589
B(  6-C ,  7-C ) :   1.4544 B(  6-C , 15-C ) :   1.2483 B(  7-C ,  8-C ) :   1.2019
B(  7-C , 14-C ) :   0.1078 B(  7-C , 50-H ) :   1.0235 B(  8-C ,  9-N ) :   1.4254
B(  8-C , 13-C ) :   1.2473 B(  9-N , 10-C ) :   1.6693 B( 10-C , 11-C ) :   1.2290
B( 10-C , 51-H ) :   0.9741 B( 11-C , 12-N ) :   1.6697 B( 11-C , 52-H ) :   0.9739
B( 12-N , 13-C ) :   1.4260 B( 13-C , 14-C ) :   1.2122 B( 14-C , 15-C ) :   1.4317
B( 14-C , 53-H ) :   1.0222 B( 15-C , 16-C ) :   1.0077 B( 16-C , 17-C ) :   1.7876
B( 16-C , 54-H ) :   0.9685 B( 17-C , 18-C ) :   1.0522 B( 17-C , 55-H ) :   0.9493
B( 18-C , 19-C ) :   2.3066 B( 19-C , 20-C ) :   0.9575 B( 20-C , 21-C ) :   1.5143
B( 20-C , 23-C ) :   0.1065 B( 20-C , 34-S ) :   1.1054 B( 21-C , 22-C ) :   1.2529
B( 21-C , 56-H ) :   1.0018 B( 22-C , 23-C ) :   1.5207 B( 22-C , 57-H ) :   0.9912
B( 23-C , 24-C ) :   1.0570 B( 23-C , 34-S ) :   1.1346 B( 24-C , 25-C ) :   1.2109
B( 24-C , 33-C ) :   1.3922 B( 25-C , 26-C ) :   1.4736 B( 25-C , 58-H ) :   0.9869
B( 26-C , 27-C ) :   1.2319 B( 26-C , 59-H ) :   1.0060 B( 27-C , 28-N ) :   1.4305
B( 27-C , 32-C ) :   1.2386 B( 28-N , 29-C ) :   1.6692 B( 29-C , 30-C ) :   1.2217
B( 29-C , 60-H ) :   0.9743 B( 30-C , 31-N ) :   1.6797 B( 30-C , 61-H ) :   0.9638
B( 31-N , 32-C ) :   1.4046 B( 32-C , 33-C ) :   1.2425 B( 33-C , 62-H ) :   1.0105
B( 36-C , 37-C ) :   1.7322 B( 36-C , 63-H ) :   0.9460 B( 37-C , 38-C ) :   1.0814
B( 37-C , 64-H ) :   0.9841 B( 38-C , 39-C ) :   1.2091 B( 38-C , 47-C ) :   1.3708
B( 39-C , 40-C ) :   1.4929 B( 39-C , 65-H ) :   0.9862 B( 40-C , 41-C ) :   1.2354
B( 40-C , 66-H ) :   1.0002 B( 41-C , 42-N ) :   1.4207 B( 41-C , 46-C ) :   1.2370
B( 42-N , 43-C ) :   1.6501 B( 43-C , 44-C ) :   1.2298 B( 43-C , 67-H ) :   0.9729
B( 44-C , 45-N ) :   1.6648 B( 44-C , 68-H ) :   0.9759 B( 45-N , 46-C ) :   1.4303
B( 46-C , 47-C ) :   1.2084 B( 47-C , 69-H ) :   1.0287

-----------------------------------------------------------------------------
         ABSORPTION SPECTRUM VIA TRANSITION ELECTRIC DIPOLE MOMENTS
-----------------------------------------------------------------------------
State   Energy  Wavelength   fosc         T2         TX        TY        TZ
        (cm-1)    (nm)                  (au**2)     (au)      (au)      (au)
-----------------------------------------------------------------------------
   0   23361.5    428.1   0.011084527   0.15620  -0.39141   0.00375  -0.05465
   1   25642.4    390.0   0.476181864   6.11351  -2.08292   1.24194   0.48223
   2   28386.7    352.3   0.520488269   6.03631  -2.09339   1.15734   0.56090
   3   29247.4    341.9   0.248003482   2.79155  -1.43698   0.85198  -0.02815
   4   29588.2    338.0   1.363093120  15.16640   3.34392  -1.82427  -0.81036
   5   30219.7    330.9   0.046679057   0.50852   0.51128  -0.49624  -0.02938
   6   30752.5    325.2   0.017820097   0.19077  -0.16782  -0.17299   0.36425
   7   30847.2    324.2   0.008192346   0.08743  -0.14800  -0.21773  -0.13461
   8   31047.6    322.1   0.005042221   0.05346  -0.21517  -0.00729   0.08435
   9   32238.1    310.2   0.480282874   4.90459  -2.03739   0.69654   0.51814
  10   32833.4    304.6   0.192495588   1.93010  -1.32464   0.41804   0.02617
  11   33908.3    294.9   0.187285969   1.81834  -1.10099   0.76060  -0.16624
  12   34302.7    291.5   0.033228323   0.31890  -0.21500  -0.26052  -0.45255
  13   34635.7    288.7   0.006808676   0.06472  -0.00201  -0.25256   0.03044
  14   35200.7    284.1   0.040794496   0.38153  -0.07654   0.28826   0.54090
  15   36052.9    277.4   0.023344433   0.21317  -0.45441   0.02228  -0.07860
  16   36665.5    272.7   0.042113704   0.37813   0.60274   0.02462  -0.11928
  17   37590.8    266.0   0.030576357   0.26778  -0.34807   0.37026  -0.09765
  18   37700.3    265.3   0.010026786   0.08756   0.08837   0.09424   0.26621
  19   37909.3    263.8   0.004799279   0.04168  -0.14509  -0.00405  -0.14356
  20   38097.1    262.5   0.069315621   0.59898  -0.65719   0.40108   0.07885
  21   38176.8    261.9   0.048046624   0.41432   0.53740  -0.35301  -0.03015
  22   38704.2    258.4   0.280141809   2.38284  -1.36634   0.71078   0.10366
  23   39482.1    253.3   0.016928487   0.14115  -0.31111  -0.00610   0.21054
  24   39696.8    251.9   0.029785493   0.24702   0.44881  -0.03488   0.21064
  25   40018.1    249.9   0.009960818   0.08194   0.21172   0.17541  -0.07969
  26   40169.1    248.9   0.033605527   0.27542   0.51141  -0.10153   0.05979

FINAL SINGLE POINT ENERGY     -2659.616236672011

DIPOLE MOMENT
-------------
                                X             Y             Z
Electronic contribution:     -6.52060       8.39386       1.33188
Nuclear contribution   :      6.39064      -8.67319      -1.39263
                        -----------------------------------------
Total Dipole Moment    :     -0.12996      -0.27934      -0.06076
                        -----------------------------------------
Magnitude (a.u.)       :      0.31402
Magnitude (Debye)      :      0.79817

Rotational constants in cm-1:     0.007299     0.000734     0.000709
Rotational constants in MHz :   218.818582    22.011725    21.243418

                             ****ORCA TERMINATED NORMALLY****
TOTAL RUN TIME: 0 days 0 hours 4 minutes 33 seconds 896 msec
