                         Program Version 4.2.0 -  RELEASE  -
|  1> # ORCA input file
|  2> # SCF done       -147.953349948533          0.000511782125
|  3> ! CAM-B3LYP def2-SVP def2/J RIJCOSX Grid4 TightSCF
|  4> %maxcore 5000
|  5> %tddft
|  6>     Mode sTDDFT
|  7>     Ethresh 5.0
|  8>     maxcore 5000
|  9> end
| 10>
| 11> %pal
| 12>   nprocs 6
| 13>   end
| 14> * xyz 0 1
| 15>    C       -0.77726        -0.01590         1.14385
| 16>    N       -0.83683         0.70916         2.21980
| 17>    C        0.26833         0.41985         2.93904
| 18>    C        1.03176        -0.52363         2.27837
| 19>    N        0.35397        -0.78283         1.09424
| 20>    C        0.56242        -1.91432         0.25544
| 21>    O        0.93320        -2.95798         0.71122
| 22>    N        0.20925        -1.71450        -1.05448
| 23>    C        0.05618        -0.53676        -1.76937
| 24>    C       -0.21338        -0.90786        -3.04417
| 25>    N       -0.24047        -2.27523        -3.14767
| 26>    C        0.02908        -2.73159        -1.97776
| 27>    C        2.31582        -1.06458         2.57202
| 28>    C        3.28173        -1.51735         1.69567
| 29>    C        4.41892        -1.94783         2.45105
| 30>    C        4.12174        -1.72814         3.86874
| 31>    O        4.74771        -1.91603         4.87392
| 32>    N        2.82477        -1.17281         3.83709
| 33>    C        5.36397        -2.35071         1.54944
| 34>    O        4.89331        -2.19000         0.27285
| 35>    C        3.59399        -1.66048         0.30410
| 36>    O        2.98758        -1.40619        -0.70124
| 37>    C        6.66402        -2.90854         1.74561
| 38>    C        7.75360        -3.12269         0.91130
| 39>    C        8.09422        -2.62469        -0.45369
| 40>    O        9.22062        -2.29858        -0.70928
| 41>    O        7.11868        -2.53368        -1.34819
| 42>    C        8.69908        -3.74538         1.78675
| 43>    N        8.19759        -3.86660         2.99391
| 44>    O        6.96383        -3.34912         2.98204
| 45>    C       10.02040        -4.23249         1.42742
| 46>    O       10.06571        -4.70392         0.14408
| 47>    C       11.28591        -4.87185        -0.43173
| 48>    C       11.42880        -5.04998        -1.77471
| 49>    F       10.45188        -5.10677        -2.67279
| 50>    S       13.07214        -5.25453        -2.26863
| 51>    C       11.03375        -4.19519         2.30008
| 52>    S       12.67881        -4.68644         1.97344
| 53>    C       12.54143        -4.90366         0.23298
| 54>    C       13.60374        -5.09045        -0.61226
| 55>    C       14.97862        -5.23612        -0.23579
| 56>    C       15.53439        -5.76759         0.90380
| 57>    N       16.88964        -5.76566         0.81462
| 58>    C       17.18208        -5.27585        -0.34353
| 59>    N       16.05558        -4.93564        -1.06287
| 60>    C       16.02501        -4.14166        -2.21889
| 61>    O       15.25778        -3.23471        -2.37105
| 62>    N       16.99264        -4.47868        -3.15294
| 63>    C       17.70536        -5.65566        -3.31292
| 64>    C       18.48037        -5.47482        -4.41117
| 65>    N       18.28027        -4.22501        -4.93456
| 66>    C       17.39373        -3.66062        -4.19137
| 67>    H       -1.53878        -0.04477         0.39000
| 68>    H        0.47158         0.91851         3.86554
| 69>    H        0.19811         0.42689        -1.32818
| 70>    H       -0.39191        -0.29294        -3.90276
| 71>    H        0.09385        -3.76324        -1.69758
| 72>    H        2.32041        -0.93615         4.67812
| 73>    H        6.22703        -2.70660        -1.00374
| 74>    H       10.87476        -3.83329         3.29938
| 75>    H       15.03883        -6.15900         1.76787
| 76>    H       18.17568        -5.10416        -0.70590
| 77>    H       17.57019        -6.50139        -2.67198
| 78>    H       19.17190        -6.15373        -4.86727
| 79>    H       16.99861        -2.67288        -4.31441
| 80> *
| 81>
| 82>                          ****END OF INPUT****

CARTESIAN COORDINATES (ANGSTROEM)
---------------------------------
  C     -0.777260   -0.015900    1.143850
  N     -0.836830    0.709160    2.219800
  C      0.268330    0.419850    2.939040
  C      1.031760   -0.523630    2.278370
  N      0.353970   -0.782830    1.094240
  C      0.562420   -1.914320    0.255440
  O      0.933200   -2.957980    0.711220
  N      0.209250   -1.714500   -1.054480
  C      0.056180   -0.536760   -1.769370
  C     -0.213380   -0.907860   -3.044170
  N     -0.240470   -2.275230   -3.147670
  C      0.029080   -2.731590   -1.977760
  C      2.315820   -1.064580    2.572020
  C      3.281730   -1.517350    1.695670
  C      4.418920   -1.947830    2.451050
  C      4.121740   -1.728140    3.868740
  O      4.747710   -1.916030    4.873920
  N      2.824770   -1.172810    3.837090
  C      5.363970   -2.350710    1.549440
  O      4.893310   -2.190000    0.272850
  C      3.593990   -1.660480    0.304100
  O      2.987580   -1.406190   -0.701240
  C      6.664020   -2.908540    1.745610
  C      7.753600   -3.122690    0.911300
  C      8.094220   -2.624690   -0.453690
  O      9.220620   -2.298580   -0.709280
  O      7.118680   -2.533680   -1.348190
  C      8.699080   -3.745380    1.786750
  N      8.197590   -3.866600    2.993910
  O      6.963830   -3.349120    2.982040
  C     10.020400   -4.232490    1.427420
  O     10.065710   -4.703920    0.144080
  C     11.285910   -4.871850   -0.431730
  C     11.428800   -5.049980   -1.774710
  F     10.451880   -5.106770   -2.672790
  S     13.072140   -5.254530   -2.268630
  C     11.033750   -4.195190    2.300080
  S     12.678810   -4.686440    1.973440
  C     12.541430   -4.903660    0.232980
  C     13.603740   -5.090450   -0.612260
  C     14.978620   -5.236120   -0.235790
  C     15.534390   -5.767590    0.903800
  N     16.889640   -5.765660    0.814620
  C     17.182080   -5.275850   -0.343530
  N     16.055580   -4.935640   -1.062870
  C     16.025010   -4.141660   -2.218890
  O     15.257780   -3.234710   -2.371050
  N     16.992640   -4.478680   -3.152940
  C     17.705360   -5.655660   -3.312920
  C     18.480370   -5.474820   -4.411170
  N     18.280270   -4.225010   -4.934560
  C     17.393730   -3.660620   -4.191370
  H     -1.538780   -0.044770    0.390000
  H      0.471580    0.918510    3.865540
  H      0.198110    0.426890   -1.328180
  H     -0.391910   -0.292940   -3.902760
  H      0.093850   -3.763240   -1.697580
  H      2.320410   -0.936150    4.678120
  H      6.227030   -2.706600   -1.003740
  H     10.874760   -3.833290    3.299380
  H     15.038830   -6.159000    1.767870
  H     18.175680   -5.104160   -0.705900
  H     17.570190   -6.501390   -2.671980
  H     19.171900   -6.153730   -4.867270
  H     16.998610   -2.672880   -4.314410

 Total Charge           Charge          ....    0
 Multiplicity           Mult            ....    1
 Number of Electrons    NEL             ....  376
 Basis Dimension        Dim             ....  801

ORBITAL ENERGIES
----------------

  NO   OCC          E(Eh)            E(eV)
   0   2.0000     -88.968048     -2420.9437
   1   2.0000     -88.953776     -2420.5553
   2   2.0000     -24.796085      -674.7358
   3   2.0000     -19.338071      -526.2157
   4   2.0000     -19.321504      -525.7648
   5   2.0000     -19.276682      -524.5452
   6   2.0000     -19.253948      -523.9266
   7   2.0000     -19.253251      -523.9076
   8   2.0000     -19.240055      -523.5485
   9   2.0000     -19.237045      -523.4666
  10   2.0000     -19.228659      -523.2384
  11   2.0000     -19.197606      -522.3934
  12   2.0000     -14.526826      -395.2950
  13   2.0000     -14.505838      -394.7239
  14   2.0000     -14.498842      -394.5335
  15   2.0000     -14.498712      -394.5300
  16   2.0000     -14.493973      -394.4011
  17   2.0000     -14.479185      -393.9987
  18   2.0000     -14.436218      -392.8295
  19   2.0000     -14.408395      -392.0724
  20   2.0000     -14.405439      -391.9919
  21   2.0000     -14.402553      -391.9134
  22   2.0000     -10.471761      -284.9511
  23   2.0000     -10.455499      -284.5086
  24   2.0000     -10.437504      -284.0189
  25   2.0000     -10.419063      -283.5171
  26   2.0000     -10.410795      -283.2921
  27   2.0000     -10.398552      -282.9590
  28   2.0000     -10.393843      -282.8308
  29   2.0000     -10.383100      -282.5385
  30   2.0000     -10.377960      -282.3986
  31   2.0000     -10.376608      -282.3618
  32   2.0000     -10.360806      -281.9319
  33   2.0000     -10.355022      -281.7745
  34   2.0000     -10.345218      -281.5077
  35   2.0000     -10.345160      -281.5061
  36   2.0000     -10.343865      -281.4709
  37   2.0000     -10.342507      -281.4339
  38   2.0000     -10.338312      -281.3198
  39   2.0000     -10.337037      -281.2851
  40   2.0000     -10.330075      -281.0956
  41   2.0000     -10.321895      -280.8730
  42   2.0000     -10.318400      -280.7779
  43   2.0000     -10.317649      -280.7575
  44   2.0000     -10.317497      -280.7534
  45   2.0000     -10.315968      -280.7118
  46   2.0000     -10.315904      -280.7100
  47   2.0000     -10.305448      -280.4255
  48   2.0000     -10.304434      -280.3979
  49   2.0000     -10.302417      -280.3430
  50   2.0000     -10.297488      -280.2089
  51   2.0000     -10.296686      -280.1871
  52   2.0000      -8.064110      -219.4356
  53   2.0000      -8.048883      -219.0212
  54   2.0000      -6.033584      -164.1822
  55   2.0000      -6.029844      -164.0804
  56   2.0000      -6.025217      -163.9545
  57   2.0000      -6.019291      -163.7932
  58   2.0000      -6.014994      -163.6763
  59   2.0000      -6.008770      -163.5069
  60   2.0000      -1.312151       -35.7054
  61   2.0000      -1.280032       -34.8314
  62   2.0000      -1.244239       -33.8575
  63   2.0000      -1.216836       -33.1118
  64   2.0000      -1.201162       -32.6853
  65   2.0000      -1.189324       -32.3632
  66   2.0000      -1.181637       -32.1540
  67   2.0000      -1.169131       -31.8137
  68   2.0000      -1.157969       -31.5099
  69   2.0000      -1.147932       -31.2368
  70   2.0000      -1.134217       -30.8636
  71   2.0000      -1.129971       -30.7481
  72   2.0000      -1.125908       -30.6375
  73   2.0000      -1.097162       -29.8553
  74   2.0000      -1.096155       -29.8279
  75   2.0000      -1.032080       -28.0843
  76   2.0000      -1.012196       -27.5433
  77   2.0000      -1.002221       -27.2718
  78   2.0000      -0.999282       -27.1919
  79   2.0000      -0.992668       -27.0119
  80   2.0000      -0.980320       -26.6759
  81   2.0000      -0.949467       -25.8363
  82   2.0000      -0.939080       -25.5537
  83   2.0000      -0.926872       -25.2215
  84   2.0000      -0.918650       -24.9977
  85   2.0000      -0.886181       -24.1142
  86   2.0000      -0.871163       -23.7055
  87   2.0000      -0.861378       -23.4393
  88   2.0000      -0.859241       -23.3811
  89   2.0000      -0.854204       -23.2441
  90   2.0000      -0.824497       -22.4357
  91   2.0000      -0.815241       -22.1838
  92   2.0000      -0.814467       -22.1628
  93   2.0000      -0.798349       -21.7242
  94   2.0000      -0.794378       -21.6161
  95   2.0000      -0.792686       -21.5701
  96   2.0000      -0.761096       -20.7105
  97   2.0000      -0.755652       -20.5623
  98   2.0000      -0.746663       -20.3177
  99   2.0000      -0.735521       -20.0145
 100   2.0000      -0.734136       -19.9769
 101   2.0000      -0.733299       -19.9541
 102   2.0000      -0.713771       -19.4227
 103   2.0000      -0.708780       -19.2869
 104   2.0000      -0.706114       -19.2143
 105   2.0000      -0.702857       -19.1257
 106   2.0000      -0.691454       -18.8154
 107   2.0000      -0.684887       -18.6367
 108   2.0000      -0.683624       -18.6024
 109   2.0000      -0.680307       -18.5121
 110   2.0000      -0.671777       -18.2800
 111   2.0000      -0.665271       -18.1029
 112   2.0000      -0.648256       -17.6400
 113   2.0000      -0.636422       -17.3179
 114   2.0000      -0.632706       -17.2168
 115   2.0000      -0.621619       -16.9151
 116   2.0000      -0.618424       -16.8282
 117   2.0000      -0.615398       -16.7458
 118   2.0000      -0.611028       -16.6269
 119   2.0000      -0.608807       -16.5665
 120   2.0000      -0.602739       -16.4014
 121   2.0000      -0.593616       -16.1531
 122   2.0000      -0.591887       -16.1061
 123   2.0000      -0.586667       -15.9640
 124   2.0000      -0.584851       -15.9146
 125   2.0000      -0.579372       -15.7655
 126   2.0000      -0.575591       -15.6626
 127   2.0000      -0.573809       -15.6141
 128   2.0000      -0.570382       -15.5209
 129   2.0000      -0.565028       -15.3752
 130   2.0000      -0.556577       -15.1452
 131   2.0000      -0.555969       -15.1287
 132   2.0000      -0.554892       -15.0994
 133   2.0000      -0.552082       -15.0229
 134   2.0000      -0.547735       -14.9046
 135   2.0000      -0.543199       -14.7812
 136   2.0000      -0.541517       -14.7354
 137   2.0000      -0.540649       -14.7118
 138   2.0000      -0.538757       -14.6603
 139   2.0000      -0.535746       -14.5784
 140   2.0000      -0.533822       -14.5260
 141   2.0000      -0.528224       -14.3737
 142   2.0000      -0.525796       -14.3076
 143   2.0000      -0.524219       -14.2647
 144   2.0000      -0.520676       -14.1683
 145   2.0000      -0.513964       -13.9857
 146   2.0000      -0.510046       -13.8790
 147   2.0000      -0.509203       -13.8561
 148   2.0000      -0.506796       -13.7906
 149   2.0000      -0.505939       -13.7673
 150   2.0000      -0.504102       -13.7173
 151   2.0000      -0.498858       -13.5746
 152   2.0000      -0.492395       -13.3987
 153   2.0000      -0.477757       -13.0004
 154   2.0000      -0.472210       -12.8495
 155   2.0000      -0.464721       -12.6457
 156   2.0000      -0.461542       -12.5592
 157   2.0000      -0.456724       -12.4281
 158   2.0000      -0.455278       -12.3887
 159   2.0000      -0.436252       -11.8710
 160   2.0000      -0.427972       -11.6457
 161   2.0000      -0.421935       -11.4814
 162   2.0000      -0.415510       -11.3066
 163   2.0000      -0.410367       -11.1666
 164   2.0000      -0.404809       -11.0154
 165   2.0000      -0.401496       -10.9253
 166   2.0000      -0.399568       -10.8728
 167   2.0000      -0.395343       -10.7578
 168   2.0000      -0.393738       -10.7142
 169   2.0000      -0.387444       -10.5429
 170   2.0000      -0.384530       -10.4636
 171   2.0000      -0.381842       -10.3905
 172   2.0000      -0.379909       -10.3379
 173   2.0000      -0.376325       -10.2403
 174   2.0000      -0.371560       -10.1107
 175   2.0000      -0.369467       -10.0537
 176   2.0000      -0.364317        -9.9136
 177   2.0000      -0.360095        -9.7987
 178   2.0000      -0.358705        -9.7609
 179   2.0000      -0.356035        -9.6882
 180   2.0000      -0.351912        -9.5760
 181   2.0000      -0.344381        -9.3711
 182   2.0000      -0.340636        -9.2692
 183   2.0000      -0.327913        -8.9230
 184   2.0000      -0.322239        -8.7686
 185   2.0000      -0.289239        -7.8706
 186   2.0000      -0.271562        -7.3896
 187   2.0000      -0.258376        -7.0308
 188   0.0000      -0.106389        -2.8950
 189   0.0000      -0.047203        -1.2845
 190   0.0000      -0.032644        -0.8883
 191   0.0000      -0.020622        -0.5612
 192   0.0000      -0.008205        -0.2233

MULLIKEN ATOMIC CHARGES
-----------------------
   0 C :    0.112025
   1 N :   -0.085207
   2 C :   -0.029159
   3 C :    0.078134
   4 N :   -0.195083
   5 C :    0.227959
   6 O :   -0.145747
   7 N :   -0.162718
   8 C :    0.067548
   9 C :    0.020638
  10 N :   -0.104567
  11 C :    0.119606
  12 C :    0.127159
  13 C :   -0.104994
  14 C :   -0.010932
  15 C :    0.160946
  16 O :   -0.106390
  17 N :   -0.118834
  18 C :    0.101651
  19 O :   -0.304109
  20 C :    0.248677
  21 O :   -0.156987
  22 C :    0.139230
  23 C :   -0.146341
  24 C :    0.186992
  25 O :   -0.173905
  26 O :   -0.142744
  27 C :    0.010874
  28 N :    0.033691
  29 O :   -0.150493
  30 C :    0.181797
  31 O :   -0.257041
  32 C :    0.219781
  33 C :    0.065953
  34 F :   -0.147024
  35 S :    0.128574
  36 C :   -0.102711
  37 S :    0.101012
  38 C :   -0.013261
  39 C :   -0.155170
  40 C :    0.084223
  41 C :   -0.041986
  42 N :   -0.087275
  43 C :    0.089578
  44 N :   -0.208814
  45 C :    0.213388
  46 O :   -0.129768
  47 N :   -0.182984
  48 C :    0.053084
  49 C :    0.017500
  50 N :   -0.109282
  51 C :    0.115441
  52 H :    0.058694
  53 H :    0.008151
  54 H :    0.030905
  55 H :    0.013982
  56 H :    0.038545
  57 H :    0.138504
  58 H :    0.187527
  59 H :    0.050532
  60 H :    0.008854
  61 H :    0.043371
  62 H :    0.037334
  63 H :    0.011965
  64 H :    0.039701
Sum of atomic charges:   -0.0000000

LOEWDIN ATOMIC CHARGES
----------------------
   0 C :    0.061903
   1 N :   -0.085801
   2 C :    0.010778
   3 C :   -0.037628
   4 N :    0.034937
   5 C :    0.116879
   6 O :   -0.130242
   7 N :    0.036562
   8 C :   -0.019223
   9 C :   -0.014939
  10 N :   -0.085457
  11 C :    0.057929
  12 C :    0.095322
  13 C :   -0.146066
  14 C :   -0.081181
  15 C :    0.088517
  16 O :   -0.129671
  17 N :    0.035917
  18 C :    0.073140
  19 O :   -0.053395
  20 C :    0.111487
  21 O :   -0.150551
  22 C :    0.026145
  23 C :   -0.108624
  24 C :    0.073692
  25 O :   -0.148198
  26 O :   -0.014292
  27 C :   -0.018594
  28 N :   -0.013113
  29 O :    0.052926
  30 C :    0.018334
  31 O :   -0.042867
  32 C :   -0.032464
  33 C :   -0.090326
  34 F :   -0.039881
  35 S :    0.434445
  36 C :   -0.184162
  37 S :    0.377134
  38 C :   -0.189090
  39 C :   -0.205959
  40 C :   -0.029610
  41 C :   -0.026697
  42 N :   -0.085438
  43 C :    0.031668
  44 N :    0.016875
  45 C :    0.102958
  46 O :   -0.123530
  47 N :    0.025299
  48 C :   -0.025970
  49 C :   -0.021736
  50 N :   -0.090614
  51 C :    0.051924
  52 H :    0.032935
  53 H :    0.029112
  54 H :    0.028828
  55 H :    0.027294
  56 H :    0.028463
  57 H :    0.097276
  58 H :    0.073823
  59 H :    0.042982
  60 H :    0.019881
  61 H :    0.024875
  62 H :    0.030451
  63 H :    0.025886
  64 H :    0.028743

  Mayer bond orders larger than 0.100000
B(  0-C ,  1-N ) :   1.6830 B(  0-C ,  4-N ) :   1.1455 B(  0-C , 52-H ) :   0.9728
B(  1-N ,  2-C ) :   1.4140 B(  2-C ,  3-C ) :   1.4719 B(  2-C , 53-H ) :   1.0103
B(  3-C ,  4-N ) :   1.1283 B(  3-C , 12-C ) :   1.0246 B(  4-N ,  5-C ) :   0.9106
B(  5-C ,  6-O ) :   2.1937 B(  5-C ,  7-N ) :   1.0540 B(  7-N ,  8-C ) :   1.0700
B(  7-N , 11-C ) :   1.0890 B(  8-C ,  9-C ) :   1.6130 B(  8-C , 54-H ) :   0.9822
B(  9-C , 10-N ) :   1.3142 B(  9-C , 55-H ) :   1.0011 B( 10-N , 11-C ) :   1.7725
B( 11-C , 56-H ) :   0.9814 B( 12-C , 13-C ) :   1.3814 B( 12-C , 17-N ) :   1.2767
B( 13-C , 14-C ) :   1.1462 B( 13-C , 20-C ) :   1.0228 B( 14-C , 15-C ) :   0.8928
B( 14-C , 18-C ) :   1.5208 B( 15-C , 16-O ) :   2.2942 B( 15-C , 17-N ) :   1.0217
B( 17-N , 57-H ) :   0.9178 B( 18-C , 19-O ) :   1.1018 B( 18-C , 22-C ) :   1.0464
B( 19-O , 20-C ) :   0.9682 B( 20-C , 21-O ) :   2.1503 B( 22-C , 23-C ) :   1.4558
B( 22-C , 28-N ) :   0.1007 B( 22-C , 29-O ) :   1.2073 B( 23-C , 24-C ) :   0.8848
B( 23-C , 27-C ) :   1.2043 B( 24-C , 25-O ) :   2.1592 B( 24-C , 26-O ) :   1.2890
B( 26-O , 58-H ) :   0.9237 B( 27-C , 28-N ) :   1.7130 B( 27-C , 30-C ) :   0.9893
B( 28-N , 29-O ) :   1.0161 B( 30-C , 31-O ) :   1.0827 B( 30-C , 36-C ) :   1.7855
B( 31-O , 32-C ) :   1.0480 B( 32-C , 33-C ) :   1.5011 B( 32-C , 38-C ) :   1.2050
B( 33-C , 34-F ) :   1.1616 B( 33-C , 35-S ) :   1.1250 B( 35-S , 39-C ) :   1.0973
B( 36-C , 37-S ) :   1.0132 B( 36-C , 59-H ) :   0.9295 B( 37-S , 38-C ) :   0.9955
B( 38-C , 39-C ) :   1.6327 B( 39-C , 40-C ) :   1.0453 B( 40-C , 41-C ) :   1.5477
B( 40-C , 44-N ) :   1.1043 B( 41-C , 42-N ) :   1.3603 B( 41-C , 60-H ) :   0.9965
B( 42-N , 43-C ) :   1.7445 B( 43-C , 44-N ) :   1.0853 B( 43-C , 61-H ) :   0.9736
B( 44-N , 45-C ) :   0.9702 B( 45-C , 46-O ) :   2.2075 B( 45-C , 47-N ) :   1.0160
B( 47-N , 48-C ) :   1.0798 B( 47-N , 51-C ) :   1.1049 B( 48-C , 49-C ) :   1.6007
B( 48-C , 62-H ) :   0.9841 B( 49-C , 50-N ) :   1.3239 B( 49-C , 63-H ) :   1.0009
B( 50-N , 51-C ) :   1.7577 B( 51-C , 64-H ) :   0.9820

-----------------------------------------------------------------------------
         ABSORPTION SPECTRUM VIA TRANSITION ELECTRIC DIPOLE MOMENTS
-----------------------------------------------------------------------------
State   Energy  Wavelength   fosc         T2         TX        TY        TZ
        (cm-1)    (nm)                  (au**2)     (au)      (au)      (au)
-----------------------------------------------------------------------------
   0   19174.4    521.5   0.030166853   0.51795  -0.65017   0.30667   0.03435
   1   22755.1    439.5   0.719921798  10.41557   2.73631  -1.11681  -1.29650
   2   24565.9    407.1   0.002244009   0.03007   0.11323  -0.04841  -0.12210
   3   30083.9    332.4   0.136137537   1.48977   1.05773  -0.25689  -0.55226
   4   31143.0    321.1   0.000535180   0.00566   0.00289   0.07390  -0.01372
   5   31215.0    320.4   0.006013603   0.06342   0.25046  -0.02204   0.01446
   6   31915.9    313.3   0.055400297   0.57145   0.61403  -0.05895   0.43697
   7   32344.9    309.2   0.010815698   0.11008  -0.28220   0.03631  -0.17066
   8   33547.1    298.1   0.119418261   1.17190  -1.03868   0.23316  -0.19665
   9   33918.6    294.8   0.071865221   0.69752  -0.82708   0.07644   0.08724
  10   34358.4    291.0   0.095318806   0.91332  -0.88787   0.29589  -0.19354
  11   35640.0    280.6   0.247344341   2.28476   1.35680  -0.59411   0.30147
  12   37207.6    268.8   0.004631491   0.04098   0.11965  -0.15929   0.03593
  13   37434.7    267.1   0.112973465   0.99352  -0.95931   0.17670  -0.20501
  14   37615.9    265.8   0.006943151   0.06077  -0.04769   0.07702  -0.22926
  15   37873.6    264.0   0.036093892   0.31374   0.29499  -0.20510   0.42972
  16   38261.5    261.4   0.151115234   1.30023  -0.84898   0.22818   0.72623
  17   38796.7    257.8   0.160821440   1.36466  -1.07091   0.22634   0.40814
  18   39263.1    254.7   0.023467398   0.19677   0.26866  -0.10057   0.33834
  19   39808.2    251.2   0.001803743   0.01492   0.11712  -0.03007   0.01721
  20   40085.3    249.5   0.033945328   0.27879   0.38003  -0.25246   0.26577

FINAL SINGLE POINT ENERGY     -3268.525212521967

DIPOLE MOMENT
-------------
                                X             Y             Z
Electronic contribution:      2.44280      -5.58369       4.98307
Nuclear contribution   :     -4.88573       6.21500      -3.62953
                        -----------------------------------------
Total Dipole Moment    :     -2.44293       0.63132       1.35354
                        -----------------------------------------
Magnitude (a.u.)       :      2.86331
Magnitude (Debye)      :      7.27795

Rotational constants in cm-1:     0.004586     0.000546     0.000503
Rotational constants in MHz :   137.480795    16.356746    15.074596

                             ****ORCA TERMINATED NORMALLY****
TOTAL RUN TIME: 0 days 0 hours 4 minutes 8 seconds 171 msec
