                         Program Version 4.2.0 -  RELEASE  -
|  1> # ORCA input file
|  2> # SCF done       -147.559474826428          0.000593431870
|  3> ! CAM-B3LYP def2-SVP def2/J RIJCOSX Grid4 TightSCF
|  4> %maxcore 5000
|  5> %tddft
|  6>     Mode sTDDFT
|  7>     Ethresh 5.0
|  8>     maxcore 5000
|  9> end
| 10>
| 11> %pal
| 12>   nprocs 6
| 13>   end
| 14> * xyz 0 1
| 15>    C       -1.34540        -0.76252        -1.62847
| 16>    S       -1.05884         0.94063        -1.41849
| 17>    C       -1.14697         1.22818        -3.20094
| 18>    O       -0.93330         2.28495        -3.71005
| 19>    N       -1.52066         0.07049        -3.80976
| 20>    C       -1.74235        -1.04742        -3.02770
| 21>    O       -2.28435        -2.04322        -3.43170
| 22>    C       -1.70120         0.00303        -5.24478
| 23>    C       -1.26757        -1.66988        -0.62646
| 24>    C       -1.17652        -3.07382        -0.84346
| 25>    N       -1.54865        -4.01441         0.08203
| 26>    C       -2.22091        -3.75579         1.32555
| 27>    C       -1.23412        -5.31914        -0.34112
| 28>    O       -1.48745        -6.31341         0.30865
| 29>    C       -0.60479        -5.13190        -1.63097
| 30>    C       -0.58186        -3.74300        -1.90573
| 31>    C        0.15447        -3.53802        -3.13163
| 32>    O        0.43555        -2.53973        -3.76154
| 33>    N        0.54540        -4.83491        -3.51833
| 34>    C        1.20878        -5.05287        -4.77619
| 35>    C        0.08862        -5.79203        -2.64495
| 36>    C        0.34695        -7.18842        -2.73983
| 37>    C        1.58381        -7.79427        -3.26255
| 38>    C        1.56933        -9.11764        -3.07544
| 39>    C        0.28275        -9.49890        -2.44684
| 40>    O       -0.15607       -10.60184        -2.24814
| 41>    C       -0.43717        -8.19268        -2.22014
| 42>    C       -1.75686        -8.16405        -1.70699
| 43>    S       -2.99560        -7.13045        -2.34546
| 44>    C       -4.19580        -7.78133        -1.26552
| 45>    C       -3.64123        -8.76469        -0.44867
| 46>    C       -2.26783        -8.98757        -0.70805
| 47>    C       -1.48396        -9.86125         0.07148
| 48>    N       -0.86616       -10.53712         0.75964
| 49>    C       -4.33278        -9.52932         0.50921
| 50>    N       -4.85622       -10.20205         1.27549
| 51>    C       -5.51710        -7.27480        -1.33304
| 52>    C       -6.51556        -7.52593        -0.44566
| 53>    C       -7.80917        -6.97919        -0.63338
| 54>    C       -8.83831        -7.09620         0.25252
| 55>    C      -10.20194        -6.62521         0.08046
| 56>    C      -10.68487        -5.85614        -0.94512
| 57>    C       -9.92861        -5.36731        -2.03153
| 58>    N       -9.38327        -4.92405        -2.93983
| 59>    C      -12.02320        -5.41850        -1.04743
| 60>    N      -13.09207        -5.02661        -1.19468
| 61>    C      -10.97772        -7.09965         1.22395
| 62>    C      -10.12044        -7.77703         2.11017
| 63>    C       -8.74796        -7.77581         1.57883
| 64>    O       -7.75486        -8.20730         2.11923
| 65>    C      -10.59326        -8.32461         3.28762
| 66>    C      -11.94150        -8.19518         3.57863
| 67>    C      -12.80929        -7.53147         2.71241
| 68>    C      -12.32362        -6.98051         1.52716
| 69>    C      -14.26539        -7.42623         3.03484
| 70>    H       -1.71018         1.01523        -5.64244
| 71>    H       -2.64239        -0.50343        -5.45621
| 72>    H       -0.88156        -0.56673        -5.68355
| 73>    H       -1.18896        -1.31724         0.39367
| 74>    H       -3.14732        -3.20438         1.15756
| 75>    H       -1.58126        -3.19031         2.00641
| 76>    H       -2.44809        -4.72284         1.77470
| 77>    H        1.00785        -4.18211        -5.40165
| 78>    H        0.82629        -5.95027        -5.26116
| 79>    H        2.29062        -5.13390        -4.64630
| 80>    H        2.39052        -7.21859        -3.67567
| 81>    H        2.32978        -9.83256        -3.32334
| 82>    H       -5.71199        -6.60463        -2.16303
| 83>    H       -6.34205        -8.13819         0.42659
| 84>    H       -7.97545        -6.45229        -1.56483
| 85>    H       -9.91692        -8.83799         3.95344
| 86>    H      -12.33300        -8.61543         4.49342
| 87>    H      -13.00593        -6.47187         0.86526
| 88>    H      -14.43098        -7.45157         4.10898
| 89>    H      -14.80050        -8.26659         2.59120
| 90>    H      -14.68768        -6.51058         2.62822
| 91> *
| 92>
| 93>                          ****END OF INPUT****

CARTESIAN COORDINATES (ANGSTROEM)
---------------------------------
  C     -1.345400   -0.762520   -1.628470
  S     -1.058840    0.940630   -1.418490
  C     -1.146970    1.228180   -3.200940
  O     -0.933300    2.284950   -3.710050
  N     -1.520660    0.070490   -3.809760
  C     -1.742350   -1.047420   -3.027700
  O     -2.284350   -2.043220   -3.431700
  C     -1.701200    0.003030   -5.244780
  C     -1.267570   -1.669880   -0.626460
  C     -1.176520   -3.073820   -0.843460
  N     -1.548650   -4.014410    0.082030
  C     -2.220910   -3.755790    1.325550
  C     -1.234120   -5.319140   -0.341120
  O     -1.487450   -6.313410    0.308650
  C     -0.604790   -5.131900   -1.630970
  C     -0.581860   -3.743000   -1.905730
  C      0.154470   -3.538020   -3.131630
  O      0.435550   -2.539730   -3.761540
  N      0.545400   -4.834910   -3.518330
  C      1.208780   -5.052870   -4.776190
  C      0.088620   -5.792030   -2.644950
  C      0.346950   -7.188420   -2.739830
  C      1.583810   -7.794270   -3.262550
  C      1.569330   -9.117640   -3.075440
  C      0.282750   -9.498900   -2.446840
  O     -0.156070  -10.601840   -2.248140
  C     -0.437170   -8.192680   -2.220140
  C     -1.756860   -8.164050   -1.706990
  S     -2.995600   -7.130450   -2.345460
  C     -4.195800   -7.781330   -1.265520
  C     -3.641230   -8.764690   -0.448670
  C     -2.267830   -8.987570   -0.708050
  C     -1.483960   -9.861250    0.071480
  N     -0.866160  -10.537120    0.759640
  C     -4.332780   -9.529320    0.509210
  N     -4.856220  -10.202050    1.275490
  C     -5.517100   -7.274800   -1.333040
  C     -6.515560   -7.525930   -0.445660
  C     -7.809170   -6.979190   -0.633380
  C     -8.838310   -7.096200    0.252520
  C    -10.201940   -6.625210    0.080460
  C    -10.684870   -5.856140   -0.945120
  C     -9.928610   -5.367310   -2.031530
  N     -9.383270   -4.924050   -2.939830
  C    -12.023200   -5.418500   -1.047430
  N    -13.092070   -5.026610   -1.194680
  C    -10.977720   -7.099650    1.223950
  C    -10.120440   -7.777030    2.110170
  C     -8.747960   -7.775810    1.578830
  O     -7.754860   -8.207300    2.119230
  C    -10.593260   -8.324610    3.287620
  C    -11.941500   -8.195180    3.578630
  C    -12.809290   -7.531470    2.712410
  C    -12.323620   -6.980510    1.527160
  C    -14.265390   -7.426230    3.034840
  H     -1.710180    1.015230   -5.642440
  H     -2.642390   -0.503430   -5.456210
  H     -0.881560   -0.566730   -5.683550
  H     -1.188960   -1.317240    0.393670
  H     -3.147320   -3.204380    1.157560
  H     -1.581260   -3.190310    2.006410
  H     -2.448090   -4.722840    1.774700
  H      1.007850   -4.182110   -5.401650
  H      0.826290   -5.950270   -5.261160
  H      2.290620   -5.133900   -4.646300
  H      2.390520   -7.218590   -3.675670
  H      2.329780   -9.832560   -3.323340
  H     -5.711990   -6.604630   -2.163030
  H     -6.342050   -8.138190    0.426590
  H     -7.975450   -6.452290   -1.564830
  H     -9.916920   -8.837990    3.953440
  H    -12.333000   -8.615430    4.493420
  H    -13.005930   -6.471870    0.865260
  H    -14.430980   -7.451570    4.108980
  H    -14.800500   -8.266590    2.591200
  H    -14.687680   -6.510580    2.628220

 Total Charge           Charge          ....    0
 Multiplicity           Mult            ....    1
 Number of Electrons    NEL             ....  390
 Basis Dimension        Dim             ....  883

ORBITAL ENERGIES
----------------

  NO   OCC          E(Eh)            E(eV)
   0   2.0000     -88.989320     -2421.5225
   1   2.0000     -88.969744     -2420.9898
   2   2.0000     -19.240763      -523.5678
   3   2.0000     -19.230021      -523.2755
   4   2.0000     -19.222814      -523.0794
   5   2.0000     -19.216537      -522.9086
   6   2.0000     -19.212345      -522.7945
   7   2.0000     -19.209161      -522.7078
   8   2.0000     -14.480310      -394.0293
   9   2.0000     -14.475760      -393.9054
  10   2.0000     -14.474888      -393.8817
  11   2.0000     -14.420803      -392.4100
  12   2.0000     -14.417385      -392.3170
  13   2.0000     -14.410463      -392.1286
  14   2.0000     -14.400615      -391.8607
  15   2.0000     -10.424971      -283.6779
  16   2.0000     -10.411762      -283.3184
  17   2.0000     -10.394213      -282.8409
  18   2.0000     -10.390430      -282.7380
  19   2.0000     -10.379948      -282.4527
  20   2.0000     -10.366824      -282.0956
  21   2.0000     -10.361352      -281.9467
  22   2.0000     -10.360826      -281.9324
  23   2.0000     -10.347015      -281.5566
  24   2.0000     -10.346685      -281.5476
  25   2.0000     -10.343746      -281.4677
  26   2.0000     -10.341894      -281.4172
  27   2.0000     -10.341195      -281.3982
  28   2.0000     -10.332820      -281.1703
  29   2.0000     -10.331414      -281.1321
  30   2.0000     -10.329480      -281.0794
  31   2.0000     -10.324501      -280.9440
  32   2.0000     -10.324380      -280.9407
  33   2.0000     -10.323420      -280.9145
  34   2.0000     -10.321481      -280.8618
  35   2.0000     -10.320233      -280.8278
  36   2.0000     -10.316861      -280.7361
  37   2.0000     -10.316815      -280.7348
  38   2.0000     -10.316132      -280.7162
  39   2.0000     -10.314671      -280.6765
  40   2.0000     -10.313412      -280.6422
  41   2.0000     -10.308881      -280.5189
  42   2.0000     -10.305979      -280.4399
  43   2.0000     -10.302168      -280.3362
  44   2.0000     -10.300769      -280.2982
  45   2.0000     -10.300674      -280.2956
  46   2.0000     -10.295264      -280.1484
  47   2.0000     -10.294671      -280.1322
  48   2.0000     -10.293670      -280.1050
  49   2.0000     -10.290774      -280.0262
  50   2.0000     -10.290744      -280.0254
  51   2.0000     -10.288681      -279.9692
  52   2.0000     -10.286469      -279.9090
  53   2.0000     -10.280354      -279.7427
  54   2.0000     -10.275048      -279.5983
  55   2.0000      -8.084152      -219.9809
  56   2.0000      -8.067528      -219.5286
  57   2.0000      -6.053420      -164.7219
  58   2.0000      -6.049276      -164.6092
  59   2.0000      -6.046322      -164.5288
  60   2.0000      -6.037105      -164.2780
  61   2.0000      -6.033480      -164.1793
  62   2.0000      -6.027867      -164.0266
  63   2.0000      -1.181003       -32.1367
  64   2.0000      -1.157617       -31.5004
  65   2.0000      -1.152537       -31.3621
  66   2.0000      -1.151916       -31.3452
  67   2.0000      -1.145381       -31.1674
  68   2.0000      -1.131918       -30.8010
  69   2.0000      -1.084324       -29.5060
  70   2.0000      -1.075737       -29.2723
  71   2.0000      -1.067727       -29.0543
  72   2.0000      -1.029062       -28.0022
  73   2.0000      -1.021039       -27.7839
  74   2.0000      -0.998925       -27.1821
  75   2.0000      -0.996190       -27.1077
  76   2.0000      -0.994700       -27.0672
  77   2.0000      -0.986362       -26.8403
  78   2.0000      -0.981085       -26.6967
  79   2.0000      -0.964366       -26.2417
  80   2.0000      -0.954765       -25.9805
  81   2.0000      -0.940789       -25.6002
  82   2.0000      -0.932457       -25.3734
  83   2.0000      -0.905696       -24.6452
  84   2.0000      -0.897401       -24.4195
  85   2.0000      -0.894184       -24.3320
  86   2.0000      -0.889177       -24.1957
  87   2.0000      -0.871630       -23.7182
  88   2.0000      -0.865224       -23.5440
  89   2.0000      -0.856419       -23.3043
  90   2.0000      -0.851385       -23.1674
  91   2.0000      -0.822041       -22.3689
  92   2.0000      -0.817318       -22.2404
  93   2.0000      -0.807279       -21.9672
  94   2.0000      -0.802314       -21.8321
  95   2.0000      -0.784053       -21.3352
  96   2.0000      -0.782203       -21.2848
  97   2.0000      -0.767988       -20.8980
  98   2.0000      -0.753110       -20.4932
  99   2.0000      -0.751828       -20.4583
 100   2.0000      -0.735455       -20.0127
 101   2.0000      -0.721791       -19.6409
 102   2.0000      -0.716323       -19.4922
 103   2.0000      -0.706677       -19.2297
 104   2.0000      -0.692818       -18.8525
 105   2.0000      -0.691054       -18.8045
 106   2.0000      -0.689503       -18.7623
 107   2.0000      -0.687093       -18.6967
 108   2.0000      -0.674780       -18.3617
 109   2.0000      -0.663889       -18.0653
 110   2.0000      -0.654543       -17.8110
 111   2.0000      -0.651320       -17.7233
 112   2.0000      -0.633895       -17.2492
 113   2.0000      -0.619496       -16.8573
 114   2.0000      -0.611129       -16.6297
 115   2.0000      -0.608043       -16.5457
 116   2.0000      -0.603214       -16.4143
 117   2.0000      -0.599627       -16.3167
 118   2.0000      -0.592821       -16.1315
 119   2.0000      -0.591470       -16.0947
 120   2.0000      -0.584133       -15.8951
 121   2.0000      -0.583497       -15.8778
 122   2.0000      -0.579049       -15.7567
 123   2.0000      -0.576245       -15.6804
 124   2.0000      -0.571585       -15.5536
 125   2.0000      -0.564928       -15.3725
 126   2.0000      -0.557957       -15.1828
 127   2.0000      -0.557346       -15.1662
 128   2.0000      -0.548176       -14.9166
 129   2.0000      -0.544942       -14.8286
 130   2.0000      -0.538964       -14.6660
 131   2.0000      -0.536432       -14.5971
 132   2.0000      -0.535816       -14.5803
 133   2.0000      -0.534747       -14.5512
 134   2.0000      -0.529621       -14.4117
 135   2.0000      -0.528191       -14.3728
 136   2.0000      -0.527220       -14.3464
 137   2.0000      -0.525411       -14.2972
 138   2.0000      -0.522642       -14.2218
 139   2.0000      -0.517374       -14.0785
 140   2.0000      -0.516755       -14.0616
 141   2.0000      -0.512367       -13.9422
 142   2.0000      -0.511674       -13.9233
 143   2.0000      -0.509558       -13.8658
 144   2.0000      -0.504342       -13.7238
 145   2.0000      -0.503650       -13.7050
 146   2.0000      -0.502477       -13.6731
 147   2.0000      -0.499416       -13.5898
 148   2.0000      -0.496715       -13.5163
 149   2.0000      -0.492026       -13.3887
 150   2.0000      -0.490862       -13.3570
 151   2.0000      -0.488986       -13.3060
 152   2.0000      -0.487149       -13.2560
 153   2.0000      -0.484448       -13.1825
 154   2.0000      -0.479745       -13.0545
 155   2.0000      -0.472968       -12.8701
 156   2.0000      -0.470832       -12.8120
 157   2.0000      -0.469151       -12.7662
 158   2.0000      -0.464397       -12.6369
 159   2.0000      -0.455124       -12.3846
 160   2.0000      -0.452957       -12.3256
 161   2.0000      -0.451972       -12.2988
 162   2.0000      -0.450084       -12.2474
 163   2.0000      -0.446484       -12.1494
 164   2.0000      -0.445000       -12.1091
 165   2.0000      -0.443943       -12.0803
 166   2.0000      -0.442324       -12.0363
 167   2.0000      -0.435126       -11.8404
 168   2.0000      -0.433230       -11.7888
 169   2.0000      -0.430370       -11.7110
 170   2.0000      -0.428344       -11.6558
 171   2.0000      -0.425100       -11.5676
 172   2.0000      -0.424838       -11.5604
 173   2.0000      -0.416850       -11.3431
 174   2.0000      -0.411250       -11.1907
 175   2.0000      -0.408338       -11.1114
 176   2.0000      -0.406834       -11.0705
 177   2.0000      -0.402056       -10.9405
 178   2.0000      -0.397728       -10.8227
 179   2.0000      -0.386003       -10.5037
 180   2.0000      -0.373805       -10.1717
 181   2.0000      -0.363299        -9.8859
 182   2.0000      -0.363007        -9.8779
 183   2.0000      -0.358265        -9.7489
 184   2.0000      -0.351433        -9.5630
 185   2.0000      -0.349569        -9.5123
 186   2.0000      -0.340223        -9.2579
 187   2.0000      -0.337833        -9.1929
 188   2.0000      -0.334434        -9.1004
 189   2.0000      -0.330933        -9.0051
 190   2.0000      -0.327640        -8.9155
 191   2.0000      -0.325616        -8.8605
 192   2.0000      -0.313779        -8.5384
 193   2.0000      -0.283582        -7.7167
 194   2.0000      -0.257622        -7.0103
 195   0.0000      -0.124188        -3.3793
 196   0.0000      -0.097216        -2.6454
 197   0.0000      -0.076737        -2.0881
 198   0.0000      -0.062386        -1.6976
 199   0.0000      -0.027819        -0.7570

MULLIKEN ATOMIC CHARGES
-----------------------
   0 C :   -0.142072
   1 S :    0.069506
   2 C :    0.149266
   3 O :   -0.162175
   4 N :   -0.262986
   5 C :    0.244651
   6 O :   -0.166984
   7 C :    0.130428
   8 C :   -0.022379
   9 C :    0.134223
  10 N :   -0.270524
  11 C :    0.111553
  12 C :    0.155302
  13 O :   -0.174869
  14 C :   -0.075981
  15 C :   -0.026250
  16 C :    0.157976
  17 O :   -0.201485
  18 N :   -0.266129
  19 C :    0.116044
  20 C :    0.094776
  21 C :    0.006147
  22 C :    0.043162
  23 C :   -0.014853
  24 C :    0.134505
  25 O :   -0.092520
  26 C :   -0.049295
  27 C :   -0.142950
  28 S :    0.191892
  29 C :   -0.079802
  30 C :   -0.013365
  31 C :    0.084650
  32 C :   -0.292531
  33 N :    0.232216
  34 C :   -0.267557
  35 N :    0.212324
  36 C :    0.052029
  37 C :   -0.018968
  38 C :   -0.046346
  39 C :   -0.060985
  40 C :    0.327316
  41 C :   -0.346320
  42 C :   -0.191041
  43 N :    0.147571
  44 C :   -0.184139
  45 N :    0.153227
  46 C :    0.040922
  47 C :   -0.018811
  48 C :    0.145200
  49 O :   -0.130030
  50 C :   -0.017430
  51 C :    0.010445
  52 C :   -0.040294
  53 C :   -0.067248
  54 C :    0.087197
  55 H :    0.054019
  56 H :    0.048655
  57 H :    0.054369
  58 H :    0.011822
  59 H :    0.041255
  60 H :    0.039049
  61 H :    0.069905
  62 H :    0.059155
  63 H :    0.042283
  64 H :    0.044405
  65 H :   -0.007688
  66 H :    0.007151
  67 H :    0.006229
  68 H :    0.057686
  69 H :    0.011216
  70 H :    0.000516
  71 H :   -0.014048
  72 H :   -0.011512
  73 H :    0.022369
  74 H :    0.044653
  75 H :    0.032307
Sum of atomic charges:   -0.0000000

LOEWDIN ATOMIC CHARGES
----------------------
   0 C :   -0.161909
   1 S :    0.347960
   2 C :   -0.038623
   3 O :   -0.151685
   4 N :   -0.033917
   5 C :    0.073753
   6 O :   -0.145565
   7 C :    0.044925
   8 C :   -0.040984
   9 C :    0.082516
  10 N :   -0.002478
  11 C :    0.030639
  12 C :    0.076639
  13 O :   -0.175370
  14 C :   -0.110607
  15 C :   -0.108098
  16 C :    0.084558
  17 O :   -0.194113
  18 N :   -0.003957
  19 C :    0.031194
  20 C :    0.055552
  21 C :   -0.023335
  22 C :    0.020601
  23 C :   -0.035963
  24 C :    0.090676
  25 O :   -0.068070
  26 C :   -0.061461
  27 C :   -0.128637
  28 S :    0.503425
  29 C :   -0.138310
  30 C :   -0.065379
  31 C :   -0.047947
  32 C :   -0.031056
  33 N :   -0.029365
  34 C :   -0.032157
  35 N :   -0.020556
  36 C :   -0.008409
  37 C :   -0.005578
  38 C :    0.058341
  39 C :   -0.079343
  40 C :    0.076091
  41 C :   -0.134749
  42 C :   -0.019079
  43 N :   -0.051733
  44 C :   -0.017835
  45 N :   -0.050514
  46 C :   -0.011446
  47 C :   -0.050358
  48 C :    0.082468
  49 O :   -0.126067
  50 C :    0.019664
  51 C :   -0.006073
  52 C :    0.001860
  53 C :   -0.006227
  54 C :   -0.042977
  55 H :    0.037660
  56 H :    0.036900
  57 H :    0.038009
  58 H :    0.042243
  59 H :    0.030928
  60 H :    0.028071
  61 H :    0.045835
  62 H :    0.042041
  63 H :    0.031674
  64 H :    0.026957
  65 H :    0.032266
  66 H :    0.038235
  67 H :    0.037123
  68 H :    0.042222
  69 H :    0.041470
  70 H :    0.041858
  71 H :    0.032005
  72 H :    0.036465
  73 H :    0.033816
  74 H :    0.045079
  75 H :    0.038208

  Mayer bond orders larger than 0.100000
B(  0-C ,  1-S ) :   1.0724 B(  0-C ,  5-C ) :   0.9056 B(  0-C ,  8-C ) :   1.7132
B(  1-S ,  2-C ) :   0.9493 B(  2-C ,  3-O ) :   2.1444 B(  2-C ,  4-N ) :   1.0863
B(  4-N ,  5-C ) :   1.0587 B(  4-N ,  7-C ) :   0.9282 B(  5-C ,  6-O ) :   2.1732
B(  7-C , 55-H ) :   0.9646 B(  7-C , 56-H ) :   0.9678 B(  7-C , 57-H ) :   0.9786
B(  8-C ,  9-C ) :   1.1299 B(  8-C , 58-H ) :   0.9454 B(  9-C , 10-N ) :   1.1770
B(  9-C , 15-C ) :   1.3701 B( 10-N , 11-C ) :   0.9630 B( 10-N , 12-C ) :   1.0467
B( 11-C , 59-H ) :   0.9739 B( 11-C , 60-H ) :   0.9714 B( 11-C , 61-H ) :   0.9535
B( 12-C , 13-O ) :   2.1112 B( 12-C , 14-C ) :   0.9702 B( 14-C , 15-C ) :   1.2511
B( 14-C , 20-C ) :   1.4028 B( 15-C , 16-C ) :   0.9859 B( 16-C , 17-O ) :   2.0900
B( 16-C , 18-N ) :   1.0386 B( 18-N , 19-C ) :   0.9605 B( 18-N , 20-C ) :   1.2025
B( 19-C , 62-H ) :   0.9528 B( 19-C , 63-H ) :   0.9704 B( 19-C , 64-H ) :   0.9712
B( 20-C , 21-C ) :   1.0602 B( 21-C , 22-C ) :   1.0036 B( 21-C , 26-C ) :   1.6281
B( 22-C , 23-C ) :   1.7192 B( 22-C , 65-H ) :   1.0094 B( 23-C , 24-C ) :   0.9889
B( 23-C , 66-H ) :   1.0148 B( 24-C , 25-O ) :   2.2098 B( 24-C , 26-C ) :   0.8965
B( 26-C , 27-C ) :   1.1254 B( 27-C , 28-S ) :   1.1541 B( 27-C , 31-C ) :   1.4561
B( 28-S , 29-C ) :   1.1254 B( 29-C , 30-C ) :   1.4556 B( 29-C , 36-C ) :   1.1231
B( 30-C , 31-C ) :   1.3409 B( 30-C , 34-C ) :   1.1601 B( 31-C , 32-C ) :   1.1569
B( 32-C , 33-N ) :   3.0175 B( 34-C , 35-N ) :   2.9674 B( 36-C , 37-C ) :   1.6050
B( 36-C , 67-H ) :   0.9567 B( 37-C , 38-C ) :   1.1450 B( 37-C , 68-H ) :   0.9654
B( 38-C , 39-C ) :   1.5735 B( 38-C , 69-H ) :   0.9631 B( 39-C , 40-C ) :   1.0534
B( 39-C , 48-C ) :   0.9264 B( 40-C , 41-C ) :   1.6366 B( 40-C , 46-C ) :   0.9854
B( 41-C , 42-C ) :   1.1453 B( 41-C , 44-C ) :   1.1422 B( 42-C , 43-N ) :   2.9650
B( 44-C , 45-N ) :   2.9689 B( 46-C , 47-C ) :   1.3279 B( 46-C , 53-C ) :   1.3637
B( 47-C , 48-C ) :   0.9513 B( 47-C , 50-C ) :   1.3760 B( 48-C , 49-O ) :   2.2139
B( 50-C , 51-C ) :   1.3500 B( 50-C , 70-H ) :   1.0073 B( 51-C , 52-C ) :   1.3795
B( 51-C , 71-H ) :   0.9920 B( 52-C , 53-C ) :   1.3597 B( 52-C , 54-C ) :   1.0536
B( 53-C , 72-H ) :   0.9847 B( 54-C , 73-H ) :   0.9588 B( 54-C , 74-H ) :   0.9507
B( 54-C , 75-H ) :   0.9578

-----------------------------------------------------------------------------
         ABSORPTION SPECTRUM VIA TRANSITION ELECTRIC DIPOLE MOMENTS
-----------------------------------------------------------------------------
State   Energy  Wavelength   fosc         T2         TX        TY        TZ
        (cm-1)    (nm)                  (au**2)     (au)      (au)      (au)
-----------------------------------------------------------------------------
   0   11717.2    853.4   0.222992397   6.26529   1.29887   2.13314   0.16719
   1   17557.7    569.5   0.277700184   5.20695   2.03372  -0.45331  -0.93030
   2   19822.8    504.5   0.521072617   8.65382   2.48795  -1.37750  -0.75259
   3   21422.1    466.8   0.085798762   1.31855  -1.14747   0.02650   0.03395
   4   22967.8    435.4   0.018668919   0.26759   0.48151   0.06639  -0.17701
   5   23737.2    421.3   0.006117573   0.08484   0.17274   0.19729  -0.12681
   6   25123.2    398.0   0.426746317   5.59204   2.24751  -0.72483  -0.12395
   7   25849.1    386.9   0.007113562   0.09060   0.09931  -0.27294   0.07898
   8   26346.4    379.6   0.028389427   0.35474   0.31935  -0.42597   0.26703
   9   26513.1    377.2   0.022674652   0.28155  -0.23971   0.40496  -0.24515
  10   27379.7    365.2   0.009824865   0.11813   0.14021   0.31333   0.01730
  11   27996.7    357.2   0.038931149   0.45779  -0.05281   0.67454  -0.00028
  12   28286.4    353.5   0.180039637   2.09539  -0.36748   1.38283  -0.21942
  13   29043.5    344.3   0.012929991   0.14656   0.30063   0.22977  -0.05821
  14   29425.1    339.8   0.207740996   2.32424   0.98713   0.15860  -1.15094
  15   29856.2    334.9   0.014059541   0.15503   0.35604   0.01867  -0.16707
  16   30969.2    322.9   0.036443030   0.38740   0.07876  -0.58080   0.20945
  17   31409.6    318.4   0.001386154   0.01453  -0.08353  -0.00639   0.08666
  18   31804.9    314.4   0.085021279   0.88005   0.06784   0.53579  -0.76706
  19   32033.9    312.2   0.009410978   0.09672  -0.26577   0.02083   0.16015
  20   33034.2    302.7   0.007954052   0.07927   0.05067   0.04792   0.27277
  21   33350.5    299.8   0.022088953   0.21805  -0.03117   0.24017  -0.39924
  22   33620.6    297.4   0.050427174   0.49378   0.37997   0.38131  -0.45168
  23   34894.4    286.6   0.209743671   1.97883  -0.97556  -0.29562   0.96939
  24   35220.8    283.9   0.019148465   0.17898   0.07617  -0.31989  -0.26617
  25   35335.1    283.0   0.002702723   0.02518  -0.09540  -0.11176   0.05992
  26   35452.9    282.1   0.007366515   0.06840  -0.00312  -0.15808  -0.20834
  27   35685.5    280.2   0.197636411   1.82327  -0.63023  -0.75155   0.92803
  28   36422.7    274.6   0.001583924   0.01432   0.04017  -0.11228   0.00979
  29   36824.8    271.6   0.168119674   1.50298   0.37856   0.90762  -0.73206
  30   36976.5    270.4   0.197498927   1.75839  -0.40122   1.04006  -0.71812
  31   37103.4    269.5   0.271296172   2.40716   0.09446  -0.65003   1.40559
  32   37747.3    264.9   0.041559857   0.36246   0.46650  -0.07489  -0.37313
  33   38035.5    262.9   0.015071399   0.13045  -0.03603  -0.34144   0.11212
  34   38521.7    259.6   0.065062271   0.55603  -0.71252  -0.02525  -0.21842
  35   38837.0    257.5   0.210632271   1.78548   0.12418  -1.00793   0.86841
  36   39081.9    255.9   0.059928264   0.50481   0.30327   0.16802  -0.62017
  37   39143.2    255.5   0.021192059   0.17823  -0.01663   0.20902  -0.36643
  38   39547.1    252.9   0.072818836   0.60618   0.35134   0.59964  -0.35097
  39   39905.7    250.6   0.010915073   0.09005   0.21059  -0.12192  -0.17560
  40   39982.4    250.1   0.013645898   0.11236  -0.20817   0.00182   0.26272

FINAL SINGLE POINT ENERGY     -3164.630194476240

DIPOLE MOMENT
-------------
                                X             Y             Z
Electronic contribution:     17.05382      -3.50160      -4.44046
Nuclear contribution   :    -16.24985       5.06488       4.12110
                        -----------------------------------------
Total Dipole Moment    :      0.80397       1.56327      -0.31936
                        -----------------------------------------
Magnitude (a.u.)       :      1.78667
Magnitude (Debye)      :      4.54134

Rotational constants in cm-1:     0.001922     0.000832     0.000645
Rotational constants in MHz :    57.627595    24.936583    19.330795

                             ****ORCA TERMINATED NORMALLY****
TOTAL RUN TIME: 0 days 0 hours 6 minutes 6 seconds 786 msec
