                         Program Version 4.2.0 -  RELEASE  -
|  1> # ORCA input file
|  2> # SCF done       -122.990144520888          0.000540774010
|  3> ! CAM-B3LYP def2-SVP def2/J RIJCOSX Grid4 TightSCF
|  4> %maxcore 5000
|  5> %tddft
|  6>     Mode sTDDFT
|  7>     Ethresh 5.0
|  8>     maxcore 5000
|  9> end
| 10>
| 11> %pal
| 12>   nprocs 6
| 13>   end
| 14> * xyz 0 1
| 15>    C        1.89440         1.02339        -1.59634
| 16>    C        1.78515         2.29985        -1.23338
| 17>    C        2.21929         2.82505         0.02622
| 18>    S        2.95646         1.83994         1.26243
| 19>    C        3.14089         3.19865         2.34695
| 20>    C        3.71690         3.04787         3.62589
| 21>    S        3.91620         4.39099         4.71662
| 22>    C        4.62723         3.39190         5.97057
| 23>    C        4.99526         4.01543         7.17570
| 24>    C        5.49574         3.38678         8.27580
| 25>    C        5.85784         4.03404         9.47227
| 26>    S        5.74062         5.74759         9.73433
| 27>    C        6.34886         5.61031        11.37189
| 28>    C        6.45684         6.70857        12.24447
| 29>    C        6.62771         8.06167        11.99774
| 30>    C        6.83006         8.65171        10.73421
| 31>    C        6.97858         9.96260        10.40014
| 32>    S        6.93894        11.38329        11.40828
| 33>    C        7.21262        12.46755         9.99996
| 34>    O        7.28829        13.65652        10.07827
| 35>    N        7.31398        11.70796         8.87230
| 36>    C        7.53560        12.33619         7.58734
| 37>    C        7.19669        10.33435         8.99590
| 38>    O        7.26432         9.56923         8.06239
| 39>    C        6.63957         8.75979        13.29226
| 40>    C        6.45970         7.89525        14.29654
| 41>    C        6.27869         6.54059        13.73482
| 42>    O        5.94429         5.53195        14.30242
| 43>    C        6.64238         4.27797        11.67499
| 44>    C        7.29971         3.82683        12.83710
| 45>    N        7.92036         3.39500        13.69843
| 46>    C        6.36983         3.39676        10.60747
| 47>    C        6.58709         2.00976        10.64159
| 48>    N        6.75102         0.87456        10.62014
| 49>    C        4.70942         2.06423         5.53787
| 50>    C        5.18424         0.83189         6.06348
| 51>    C        5.03606        -0.20755         5.20609
| 52>    C        5.41945        -1.62367         5.41951
| 53>    S        4.29764         0.25826         3.68224
| 54>    C        4.19590         1.89671         4.22641
| 55>    C        2.64765         4.34628         1.75360
| 56>    S        2.56968         5.97119         2.36370
| 57>    C        1.80518         6.66249         0.93665
| 58>    S        1.42573         8.23886         0.83373
| 59>    S        1.48763         5.52515        -0.36185
| 60>    C        2.13390         4.12976         0.45748
| 61>    H        1.55130         0.67950        -2.55494
| 62>    H        2.33087         0.28978        -0.93840
| 63>    H        1.34542         3.03351        -1.89699
| 64>    H        4.85407         5.08900         7.21289
| 65>    H        5.63207         2.31627         8.27673
| 66>    H        6.88941         7.98343         9.88153
| 67>    H        6.73091        13.03931         7.37347
| 68>    H        7.55514        11.54432         6.84049
| 69>    H        8.48396        12.87344         7.59355
| 70>    H        6.78530         9.82059        13.37855
| 71>    H        6.41638         8.09780        15.34914
| 72>    H        5.62526         0.70671         7.03454
| 73>    H        5.84423        -1.75228         6.41172
| 74>    H        6.15326        -1.93550         4.67667
| 75>    H        4.55074        -2.27339         5.31819
| 76> *
| 77>
| 78>                          ****END OF INPUT****

CARTESIAN COORDINATES (ANGSTROEM)
---------------------------------
  C      1.894400    1.023390   -1.596340
  C      1.785150    2.299850   -1.233380
  C      2.219290    2.825050    0.026220
  S      2.956460    1.839940    1.262430
  C      3.140890    3.198650    2.346950
  C      3.716900    3.047870    3.625890
  S      3.916200    4.390990    4.716620
  C      4.627230    3.391900    5.970570
  C      4.995260    4.015430    7.175700
  C      5.495740    3.386780    8.275800
  C      5.857840    4.034040    9.472270
  S      5.740620    5.747590    9.734330
  C      6.348860    5.610310   11.371890
  C      6.456840    6.708570   12.244470
  C      6.627710    8.061670   11.997740
  C      6.830060    8.651710   10.734210
  C      6.978580    9.962600   10.400140
  S      6.938940   11.383290   11.408280
  C      7.212620   12.467550    9.999960
  O      7.288290   13.656520   10.078270
  N      7.313980   11.707960    8.872300
  C      7.535600   12.336190    7.587340
  C      7.196690   10.334350    8.995900
  O      7.264320    9.569230    8.062390
  C      6.639570    8.759790   13.292260
  C      6.459700    7.895250   14.296540
  C      6.278690    6.540590   13.734820
  O      5.944290    5.531950   14.302420
  C      6.642380    4.277970   11.674990
  C      7.299710    3.826830   12.837100
  N      7.920360    3.395000   13.698430
  C      6.369830    3.396760   10.607470
  C      6.587090    2.009760   10.641590
  N      6.751020    0.874560   10.620140
  C      4.709420    2.064230    5.537870
  C      5.184240    0.831890    6.063480
  C      5.036060   -0.207550    5.206090
  C      5.419450   -1.623670    5.419510
  S      4.297640    0.258260    3.682240
  C      4.195900    1.896710    4.226410
  C      2.647650    4.346280    1.753600
  S      2.569680    5.971190    2.363700
  C      1.805180    6.662490    0.936650
  S      1.425730    8.238860    0.833730
  S      1.487630    5.525150   -0.361850
  C      2.133900    4.129760    0.457480
  H      1.551300    0.679500   -2.554940
  H      2.330870    0.289780   -0.938400
  H      1.345420    3.033510   -1.896990
  H      4.854070    5.089000    7.212890
  H      5.632070    2.316270    8.276730
  H      6.889410    7.983430    9.881530
  H      6.730910   13.039310    7.373470
  H      7.555140   11.544320    6.840490
  H      8.483960   12.873440    7.593550
  H      6.785300    9.820590   13.378550
  H      6.416380    8.097800   15.349140
  H      5.625260    0.706710    7.034540
  H      5.844230   -1.752280    6.411720
  H      6.153260   -1.935500    4.676670
  H      4.550740   -2.273390    5.318190

 Total Charge           Charge          ....    0
 Multiplicity           Mult            ....    1
 Number of Electrons    NEL             ....  380
 Basis Dimension        Dim             ....  751

ORBITAL ENERGIES
----------------

  NO   OCC          E(Eh)            E(eV)
   0   2.0000     -88.990131     -2421.5446
   1   2.0000     -88.980034     -2421.2698
   2   2.0000     -88.979302     -2421.2499
   3   2.0000     -88.979105     -2421.2445
   4   2.0000     -88.978174     -2421.2192
   5   2.0000     -88.970720     -2421.0164
   6   2.0000     -88.964907     -2420.8582
   7   2.0000     -88.901224     -2419.1253
   8   2.0000     -19.238605      -523.5091
   9   2.0000     -19.230688      -523.2936
  10   2.0000     -19.224012      -523.1120
  11   2.0000     -14.484093      -394.1322
  12   2.0000     -14.412484      -392.1836
  13   2.0000     -14.401361      -391.8809
  14   2.0000     -10.424894      -283.6758
  15   2.0000     -10.410863      -283.2940
  16   2.0000     -10.382431      -282.5203
  17   2.0000     -10.377568      -282.3880
  18   2.0000     -10.342904      -281.4447
  19   2.0000     -10.341478      -281.4059
  20   2.0000     -10.338033      -281.3122
  21   2.0000     -10.335576      -281.2453
  22   2.0000     -10.335093      -281.2322
  23   2.0000     -10.334418      -281.2138
  24   2.0000     -10.328671      -281.0574
  25   2.0000     -10.328188      -281.0443
  26   2.0000     -10.327325      -281.0208
  27   2.0000     -10.325245      -280.9642
  28   2.0000     -10.321995      -280.8758
  29   2.0000     -10.321815      -280.8709
  30   2.0000     -10.320876      -280.8453
  31   2.0000     -10.318585      -280.7830
  32   2.0000     -10.317174      -280.7446
  33   2.0000     -10.316476      -280.7256
  34   2.0000     -10.312742      -280.6240
  35   2.0000     -10.312627      -280.6209
  36   2.0000     -10.312614      -280.6205
  37   2.0000     -10.310037      -280.5504
  38   2.0000     -10.303131      -280.3625
  39   2.0000     -10.302758      -280.3523
  40   2.0000     -10.299473      -280.2629
  41   2.0000     -10.299205      -280.2556
  42   2.0000     -10.289187      -279.9830
  43   2.0000     -10.286713      -279.9157
  44   2.0000     -10.286181      -279.9012
  45   2.0000     -10.283857      -279.8380
  46   2.0000      -8.085000      -220.0040
  47   2.0000      -8.075653      -219.7497
  48   2.0000      -8.074150      -219.7088
  49   2.0000      -8.074096      -219.7073
  50   2.0000      -8.074009      -219.7049
  51   2.0000      -8.068007      -219.5416
  52   2.0000      -8.060808      -219.3457
  53   2.0000      -7.998491      -217.6500
  54   2.0000      -6.054282      -164.7454
  55   2.0000      -6.050231      -164.6352
  56   2.0000      -6.047037      -164.5482
  57   2.0000      -6.045631      -164.5100
  58   2.0000      -6.044023      -164.4662
  59   2.0000      -6.043625      -164.4554
  60   2.0000      -6.043523      -164.4526
  61   2.0000      -6.041175      -164.3887
  62   2.0000      -6.039681      -164.3481
  63   2.0000      -6.039461      -164.3421
  64   2.0000      -6.039419      -164.3410
  65   2.0000      -6.037521      -164.2893
  66   2.0000      -6.036353      -164.2575
  67   2.0000      -6.036033      -164.2488
  68   2.0000      -6.035617      -164.2375
  69   2.0000      -6.034779      -164.2147
  70   2.0000      -6.033888      -164.1904
  71   2.0000      -6.030616      -164.1014
  72   2.0000      -6.028551      -164.0452
  73   2.0000      -6.026213      -163.9816
  74   2.0000      -6.022005      -163.8671
  75   2.0000      -5.967992      -162.3973
  76   2.0000      -5.965412      -162.3271
  77   2.0000      -5.958374      -162.1356
  78   2.0000      -1.181322       -32.1454
  79   2.0000      -1.155129       -31.4326
  80   2.0000      -1.150515       -31.3071
  81   2.0000      -1.068882       -29.0858
  82   2.0000      -1.035959       -28.1899
  83   2.0000      -1.029505       -28.0143
  84   2.0000      -1.018946       -27.7269
  85   2.0000      -0.996309       -27.1110
  86   2.0000      -0.988390       -26.8955
  87   2.0000      -0.982090       -26.7240
  88   2.0000      -0.974839       -26.5267
  89   2.0000      -0.963938       -26.2301
  90   2.0000      -0.955465       -25.9995
  91   2.0000      -0.932776       -25.3821
  92   2.0000      -0.915097       -24.9011
  93   2.0000      -0.894854       -24.3502
  94   2.0000      -0.887526       -24.1508
  95   2.0000      -0.879997       -23.9459
  96   2.0000      -0.879202       -23.9243
  97   2.0000      -0.871111       -23.7041
  98   2.0000      -0.861057       -23.4305
  99   2.0000      -0.852754       -23.2046
 100   2.0000      -0.829987       -22.5851
 101   2.0000      -0.821061       -22.3422
 102   2.0000      -0.819194       -22.2914
 103   2.0000      -0.798359       -21.7245
 104   2.0000      -0.795282       -21.6407
 105   2.0000      -0.789382       -21.4802
 106   2.0000      -0.781157       -21.2564
 107   2.0000      -0.758081       -20.6284
 108   2.0000      -0.750198       -20.4139
 109   2.0000      -0.728040       -19.8110
 110   2.0000      -0.714957       -19.4550
 111   2.0000      -0.705302       -19.1922
 112   2.0000      -0.701491       -19.0885
 113   2.0000      -0.672319       -18.2947
 114   2.0000      -0.668999       -18.2044
 115   2.0000      -0.661034       -17.9876
 116   2.0000      -0.649640       -17.6776
 117   2.0000      -0.645100       -17.5541
 118   2.0000      -0.637279       -17.3412
 119   2.0000      -0.633274       -17.2323
 120   2.0000      -0.629972       -17.1424
 121   2.0000      -0.616163       -16.7667
 122   2.0000      -0.609257       -16.5787
 123   2.0000      -0.599367       -16.3096
 124   2.0000      -0.597367       -16.2552
 125   2.0000      -0.589682       -16.0461
 126   2.0000      -0.579067       -15.7572
 127   2.0000      -0.574037       -15.6203
 128   2.0000      -0.568416       -15.4674
 129   2.0000      -0.558010       -15.1842
 130   2.0000      -0.554812       -15.0972
 131   2.0000      -0.545994       -14.8573
 132   2.0000      -0.541164       -14.7258
 133   2.0000      -0.539463       -14.6795
 134   2.0000      -0.536210       -14.5910
 135   2.0000      -0.536127       -14.5888
 136   2.0000      -0.530920       -14.4471
 137   2.0000      -0.525797       -14.3077
 138   2.0000      -0.524625       -14.2758
 139   2.0000      -0.522588       -14.2203
 140   2.0000      -0.521268       -14.1844
 141   2.0000      -0.520279       -14.1575
 142   2.0000      -0.512286       -13.9400
 143   2.0000      -0.508690       -13.8422
 144   2.0000      -0.505787       -13.7632
 145   2.0000      -0.503616       -13.7041
 146   2.0000      -0.501465       -13.6455
 147   2.0000      -0.497566       -13.5395
 148   2.0000      -0.493233       -13.4216
 149   2.0000      -0.490404       -13.3446
 150   2.0000      -0.482378       -13.1262
 151   2.0000      -0.478537       -13.0217
 152   2.0000      -0.473233       -12.8773
 153   2.0000      -0.470322       -12.7981
 154   2.0000      -0.465849       -12.6764
 155   2.0000      -0.464099       -12.6288
 156   2.0000      -0.458868       -12.4864
 157   2.0000      -0.458140       -12.4666
 158   2.0000      -0.455641       -12.3986
 159   2.0000      -0.448633       -12.2079
 160   2.0000      -0.444661       -12.0998
 161   2.0000      -0.441104       -12.0030
 162   2.0000      -0.440531       -11.9875
 163   2.0000      -0.437385       -11.9019
 164   2.0000      -0.434795       -11.8314
 165   2.0000      -0.433378       -11.7928
 166   2.0000      -0.429206       -11.6793
 167   2.0000      -0.426109       -11.5950
 168   2.0000      -0.418260       -11.3814
 169   2.0000      -0.416400       -11.3308
 170   2.0000      -0.412934       -11.2365
 171   2.0000      -0.412256       -11.2181
 172   2.0000      -0.401363       -10.9216
 173   2.0000      -0.394887       -10.7454
 174   2.0000      -0.388770       -10.5790
 175   2.0000      -0.378127       -10.2894
 176   2.0000      -0.372036       -10.1236
 177   2.0000      -0.367925       -10.0118
 178   2.0000      -0.361535        -9.8379
 179   2.0000      -0.359685        -9.7875
 180   2.0000      -0.348886        -9.4937
 181   2.0000      -0.345280        -9.3955
 182   2.0000      -0.339280        -9.2323
 183   2.0000      -0.329325        -8.9614
 184   2.0000      -0.320055        -8.7091
 185   2.0000      -0.303549        -8.2600
 186   2.0000      -0.298163        -8.1134
 187   2.0000      -0.285032        -7.7561
 188   2.0000      -0.278662        -7.5828
 189   2.0000      -0.239200        -6.5090
 190   0.0000      -0.116675        -3.1749
 191   0.0000      -0.080606        -2.1934
 192   0.0000      -0.042595        -1.1591
 193   0.0000      -0.034218        -0.9311
 194   0.0000      -0.024374        -0.6632

MULLIKEN ATOMIC CHARGES
-----------------------
   0 C :   -0.016856
   1 C :   -0.003521
   2 C :   -0.130391
   3 S :    0.139339
   4 C :   -0.122722
   5 C :   -0.121766
   6 S :    0.142417
   7 C :   -0.126308
   8 C :    0.065035
   9 C :   -0.032815
  10 C :   -0.040488
  11 S :    0.161039
  12 C :   -0.124209
  13 C :   -0.045329
  14 C :    0.060200
  15 C :   -0.043342
  16 C :   -0.159961
  17 S :    0.043236
  18 C :    0.155173
  19 O :   -0.166641
  20 N :   -0.263578
  21 C :    0.122656
  22 C :    0.218729
  23 O :   -0.175048
  24 C :    0.045651
  25 C :   -0.018236
  26 C :    0.131906
  27 O :   -0.098273
  28 C :    0.076724
  29 C :   -0.295583
  30 N :    0.213243
  31 C :   -0.058975
  32 C :   -0.251412
  33 N :    0.183727
  34 C :    0.144557
  35 C :   -0.018180
  36 C :   -0.193853
  37 C :    0.112813
  38 S :    0.115303
  39 C :   -0.084825
  40 C :   -0.036783
  41 S :    0.190502
  42 C :   -0.157411
  43 S :   -0.100766
  44 S :    0.190622
  45 C :   -0.005314
  46 H :    0.034644
  47 H :    0.027812
  48 H :    0.002478
  49 H :   -0.007950
  50 H :   -0.004076
  51 H :    0.024235
  52 H :    0.051403
  53 H :    0.061563
  54 H :    0.049944
  55 H :    0.014463
  56 H :    0.005265
  57 H :   -0.001030
  58 H :    0.036463
  59 H :    0.042847
  60 H :    0.041656
Sum of atomic charges:   -0.0000000

LOEWDIN ATOMIC CHARGES
----------------------
   0 C :   -0.034538
   1 C :   -0.041936
   2 C :   -0.187223
   3 S :    0.449433
   4 C :   -0.201602
   5 C :   -0.199064
   6 S :    0.450268
   7 C :   -0.179898
   8 C :   -0.014287
   9 C :   -0.059875
  10 C :   -0.120750
  11 S :    0.479193
  12 C :   -0.141510
  13 C :   -0.063961
  14 C :   -0.020186
  15 C :   -0.014591
  16 C :   -0.196004
  17 S :    0.344351
  18 C :   -0.044142
  19 O :   -0.154600
  20 N :   -0.043545
  21 C :    0.043095
  22 C :    0.069984
  23 O :   -0.165902
  24 C :    0.021492
  25 C :   -0.039801
  26 C :    0.092119
  27 O :   -0.067456
  28 C :   -0.058617
  29 C :   -0.038039
  30 N :   -0.034094
  31 C :   -0.093626
  32 C :   -0.029558
  33 N :   -0.046125
  34 C :   -0.051263
  35 C :   -0.072994
  36 C :   -0.128661
  37 C :   -0.057574
  38 S :    0.389110
  39 C :   -0.195262
  40 C :   -0.221306
  41 S :    0.403626
  42 C :   -0.439996
  43 S :   -0.002558
  44 S :    0.406165
  45 C :   -0.211969
  46 H :    0.031491
  47 H :    0.021126
  48 H :    0.034914
  49 H :    0.027516
  50 H :    0.039777
  51 H :    0.032710
  52 H :    0.036661
  53 H :    0.040304
  54 H :    0.036255
  55 H :    0.021333
  56 H :    0.037803
  57 H :    0.033688
  58 H :    0.045016
  59 H :    0.042758
  60 H :    0.042327

  Mayer bond orders larger than 0.100000
B(  0-C ,  1-C ) :   1.9191 B(  0-C , 46-H ) :   0.9493 B(  0-C , 47-H ) :   0.9574
B(  1-C ,  2-C ) :   1.1292 B(  1-C , 48-H ) :   0.9610 B(  2-C ,  3-S ) :   1.1019
B(  2-C ,  4-C ) :   0.1008 B(  2-C , 45-C ) :   1.5707 B(  3-S ,  4-C ) :   1.1206
B(  4-C ,  5-C ) :   1.2035 B(  4-C , 40-C ) :   1.5413 B(  5-C ,  6-S ) :   1.1359
B(  5-C ,  7-C ) :   0.1005 B(  5-C , 39-C ) :   1.4749 B(  6-S ,  7-C ) :   1.0919
B(  7-C ,  8-C ) :   1.1970 B(  7-C , 34-C ) :   1.3597 B(  8-C ,  9-C ) :   1.5741
B(  8-C , 49-H ) :   0.9554 B(  9-C , 10-C ) :   1.2447 B(  9-C , 50-H ) :   0.9623
B( 10-C , 11-S ) :   1.1117 B( 10-C , 31-C ) :   1.4278 B( 11-S , 12-C ) :   1.1172
B( 12-C , 13-C ) :   1.1722 B( 12-C , 28-C ) :   1.4514 B( 13-C , 14-C ) :   1.5596
B( 13-C , 26-C ) :   0.9003 B( 14-C , 15-C ) :   1.1186 B( 14-C , 24-C ) :   0.9992
B( 15-C , 16-C ) :   1.7348 B( 15-C , 51-H ) :   0.9387 B( 16-C , 17-S ) :   1.0323
B( 16-C , 22-C ) :   0.9453 B( 17-S , 18-C ) :   0.9684 B( 18-C , 19-O ) :   2.1486
B( 18-C , 20-N ) :   1.0710 B( 20-N , 21-C ) :   0.9262 B( 20-N , 22-C ) :   1.0681
B( 21-C , 52-H ) :   0.9762 B( 21-C , 53-H ) :   0.9589 B( 21-C , 54-H ) :   0.9774
B( 22-C , 23-O ) :   2.1502 B( 24-C , 25-C ) :   1.7389 B( 24-C , 55-H ) :   0.9873
B( 25-C , 26-C ) :   0.9973 B( 25-C , 56-H ) :   1.0154 B( 26-C , 27-O ) :   2.1963
B( 28-C , 29-C ) :   1.1393 B( 28-C , 31-C ) :   1.3191 B( 29-C , 30-N ) :   3.0113
B( 31-C , 32-C ) :   1.1491 B( 32-C , 33-N ) :   3.0038 B( 34-C , 35-C ) :   1.1365
B( 34-C , 39-C ) :   1.2700 B( 35-C , 36-C ) :   1.6790 B( 35-C , 57-H ) :   0.9916
B( 36-C , 37-C ) :   1.0692 B( 36-C , 38-S ) :   1.0750 B( 37-C , 58-H ) :   0.9556
B( 37-C , 59-H ) :   0.9471 B( 37-C , 60-H ) :   0.9472 B( 38-S , 39-C ) :   1.0486
B( 40-C , 41-S ) :   1.0044 B( 40-C , 45-C ) :   1.2635 B( 41-S , 42-C ) :   1.0558
B( 41-S , 43-S ) :   0.1272 B( 42-C , 43-S ) :   1.7127 B( 42-C , 44-S ) :   1.0699
B( 43-S , 44-S ) :   0.1347 B( 44-S , 45-C ) :   0.9944

-----------------------------------------------------------------------------
         ABSORPTION SPECTRUM VIA TRANSITION ELECTRIC DIPOLE MOMENTS
-----------------------------------------------------------------------------
State   Energy  Wavelength   fosc         T2         TX        TY        TZ
        (cm-1)    (nm)                  (au**2)     (au)      (au)      (au)
-----------------------------------------------------------------------------
   0   12332.2    810.9   0.666085450  17.78135  -1.24978  -2.65904  -3.02471
   1   19696.0    507.7   0.938239991  15.68237  -1.35323   0.82493  -3.62914
   2   20527.6    487.1   0.153166751   2.45641   0.61583   0.98418   1.05288
   3   22964.0    435.5   0.010050024   0.14408   0.02753  -0.28273   0.25176
   4   26039.0    384.0   0.076503307   0.96723  -0.04352   0.93056   0.31528
   5   26949.9    371.1   0.000066300   0.00081  -0.01732  -0.00805   0.02109
   6   27007.8    370.3   0.004744267   0.05783   0.14533  -0.03877  -0.18764
   7   27476.5    363.9   0.149782050   1.79463   0.27735  -1.26227   0.35267
   8   28404.2    352.1   0.038397821   0.44504  -0.00144   0.54612  -0.38313
   9   28838.1    346.8   0.002712570   0.03097   0.07822  -0.09416   0.12642
  10   28948.1    345.4   0.029462163   0.33506   0.22330   0.53106  -0.05631
  11   30084.3    332.4   0.000001629   0.00002   0.00324  -0.00246  -0.00113
  12   30540.3    327.4   0.316178062   3.40827  -0.27863   1.23533  -1.34335
  13   31071.6    321.8   0.095086112   1.00746   0.17224  -0.81089  -0.56591
  14   31507.0    317.4   0.020895625   0.21834   0.15914   0.23099  -0.37370
  15   31623.8    316.2   0.108247682   1.12689  -0.16252  -0.93376   0.47808
  16   31951.6    313.0   0.001486127   0.01531   0.02901  -0.10667   0.05561
  17   32278.1    309.8   0.019392812   0.19779   0.35399   0.24386   0.11406
  18   33614.0    297.5   0.000289233   0.00283  -0.00068  -0.03824   0.03701
  19   33828.5    295.6   0.060050807   0.58440  -0.12568   0.73119  -0.18431
  20   35193.6    284.1   0.059551049   0.55706  -0.00960  -0.11876  -0.73679
  21   35391.2    282.6   0.000041700   0.00039  -0.00678  -0.00280  -0.01828
  22   36634.6    273.0   0.113449997   1.01950   0.16950  -0.89671   0.43207
  23   37036.5    270.0   0.029057809   0.25829   0.07661   0.33151   0.37752
  24   37249.6    268.5   0.056217622   0.49685  -0.32027   0.40062  -0.48351
  25   37498.0    266.7   0.120073665   1.05418   0.07095   0.97592  -0.31102
  26   37980.9    263.3   0.002831241   0.02454  -0.02310   0.11811  -0.10029
  27   38062.5    262.7   0.044587911   0.38565  -0.22598  -0.22338   0.53356
  28   38214.1    261.7   0.308112817   2.65437   0.01981  -1.59365  -0.33801
  29   38989.4    256.5   0.140671346   1.18778   0.14748  -1.00929   0.38388
  30   40003.2    250.0   0.000990571   0.00815  -0.07624   0.04205  -0.02390
  31   40145.3    249.1   0.003675723   0.03014  -0.12310   0.11864  -0.03020

FINAL SINGLE POINT ENERGY     -4800.838619515149

DIPOLE MOMENT
-------------
                                X             Y             Z
Electronic contribution:     -7.86734      10.45706       2.14564
Nuclear contribution   :      7.20790     -10.43641      -4.75988
                        -----------------------------------------
Total Dipole Moment    :     -0.65944       0.02065      -2.61424
                        -----------------------------------------
Magnitude (a.u.)       :      2.69621
Magnitude (Debye)      :      6.85322

Rotational constants in cm-1:     0.002080     0.000767     0.000577
Rotational constants in MHz :    62.353087    23.003961    17.286017

                             ****ORCA TERMINATED NORMALLY****
TOTAL RUN TIME: 0 days 0 hours 9 minutes 21 seconds 98 msec
