                         Program Version 4.2.0 -  RELEASE  -
|  1> # ORCA input file
|  2> # SCF done       -106.712859514913          0.000403278508
|  3> ! CAM-B3LYP def2-SVP def2/J RIJCOSX Grid4 TightSCF
|  4> %maxcore 5000
|  5> %tddft
|  6>     Mode sTDDFT
|  7>     Ethresh 5.0
|  8>     maxcore 5000
|  9> end
| 10>
| 11> %pal
| 12>   nprocs 6
| 13>   end
| 14> * xyz 0 1
| 15>    C        1.45700        -1.61582        -1.21637
| 16>    C        2.35207        -0.50489        -0.97940
| 17>    C        2.36792        -0.19482         0.32979
| 18>    C        1.45908        -1.11083         1.04152
| 19>    O        1.21989        -1.12670         2.22360
| 20>    C        0.89353        -2.02232        -0.04322
| 21>    C       -0.03156        -3.07553         0.11657
| 22>    S       -0.52838        -3.95538        -1.32209
| 23>    C       -1.59341        -5.01036        -0.42528
| 24>    C       -1.54282        -4.67162         0.91594
| 25>    C       -0.67357        -3.59778         1.24017
| 26>    C       -0.67404        -3.33509         2.63780
| 27>    C       -1.49167        -4.15677         3.33415
| 28>    C       -1.73871        -4.18084         4.79631
| 29>    S       -2.33172        -5.31937         2.31061
| 30>    C       -2.35385        -6.03016        -1.03242
| 31>    S       -3.45689        -6.99166        -0.08832
| 32>    C       -3.93490        -7.94112        -1.47447
| 33>    C       -3.25919        -7.51277        -2.61378
| 34>    C       -2.37013        -6.43435        -2.36523
| 35>    C       -1.59239        -5.85682        -3.38158
| 36>    N       -0.97085        -5.40553        -4.23395
| 37>    C       -3.41448        -8.04476        -3.90415
| 38>    N       -3.51562        -8.45078        -4.97261
| 39>    C       -4.89483        -8.96271        -1.28577
| 40>    C       -5.28761        -9.86520        -2.22369
| 41>    C       -6.25326       -10.87737        -2.03201
| 42>    S       -6.39031       -12.11724        -3.25373
| 43>    C       -7.64434       -12.97343        -2.39330
| 44>    C       -7.93530       -12.28754        -1.22524
| 45>    C       -7.17136       -11.11115        -1.00544
| 46>    C       -7.56534       -10.44800         0.19020
| 47>    C       -8.55900       -11.08521         0.85277
| 48>    C       -9.21975       -10.68570         2.11985
| 49>    S       -9.08013       -12.55422         0.04750
| 50>    C       -8.19258       -14.17102        -2.91322
| 51>    C       -9.24042       -14.97295        -2.22777
| 52>    C       -9.53635       -16.03710        -2.96905
| 53>    C       -8.69115       -16.00464        -4.20936
| 54>    O       -8.69259       -16.81268        -5.10923
| 55>    C       -7.87527       -14.78761        -4.08114
| 56>    H        1.27598        -2.04517        -2.18556
| 57>    H        2.90840        -0.02066        -1.76221
| 58>    H        2.92476         0.57471         0.82811
| 59>    H       -0.08271        -2.56272         3.09131
| 60>    H       -1.15384        -3.40534         5.28389
| 61>    H       -1.46296        -5.14905         5.21426
| 62>    H       -2.79486        -4.01662         5.00945
| 63>    H       -5.30373        -9.01911        -0.28822
| 64>    H       -4.81776        -9.85280        -3.19713
| 65>    H       -7.14706        -9.52258         0.53956
| 66>    H       -8.79199        -9.75784         2.49145
| 67>    H       -9.09612       -11.46053         2.87623
| 68>    H      -10.28903       -10.54451         1.96336
| 69>    H       -9.66165       -14.69693        -1.27832
| 70>    H      -10.24542       -16.81639        -2.76544
| 71>    H       -7.15604       -14.46887        -4.81122
| 72> *
| 73>
| 74>                          ****END OF INPUT****

CARTESIAN COORDINATES (ANGSTROEM)
---------------------------------
  C      1.457000   -1.615820   -1.216370
  C      2.352070   -0.504890   -0.979400
  C      2.367920   -0.194820    0.329790
  C      1.459080   -1.110830    1.041520
  O      1.219890   -1.126700    2.223600
  C      0.893530   -2.022320   -0.043220
  C     -0.031560   -3.075530    0.116570
  S     -0.528380   -3.955380   -1.322090
  C     -1.593410   -5.010360   -0.425280
  C     -1.542820   -4.671620    0.915940
  C     -0.673570   -3.597780    1.240170
  C     -0.674040   -3.335090    2.637800
  C     -1.491670   -4.156770    3.334150
  C     -1.738710   -4.180840    4.796310
  S     -2.331720   -5.319370    2.310610
  C     -2.353850   -6.030160   -1.032420
  S     -3.456890   -6.991660   -0.088320
  C     -3.934900   -7.941120   -1.474470
  C     -3.259190   -7.512770   -2.613780
  C     -2.370130   -6.434350   -2.365230
  C     -1.592390   -5.856820   -3.381580
  N     -0.970850   -5.405530   -4.233950
  C     -3.414480   -8.044760   -3.904150
  N     -3.515620   -8.450780   -4.972610
  C     -4.894830   -8.962710   -1.285770
  C     -5.287610   -9.865200   -2.223690
  C     -6.253260  -10.877370   -2.032010
  S     -6.390310  -12.117240   -3.253730
  C     -7.644340  -12.973430   -2.393300
  C     -7.935300  -12.287540   -1.225240
  C     -7.171360  -11.111150   -1.005440
  C     -7.565340  -10.448000    0.190200
  C     -8.559000  -11.085210    0.852770
  C     -9.219750  -10.685700    2.119850
  S     -9.080130  -12.554220    0.047500
  C     -8.192580  -14.171020   -2.913220
  C     -9.240420  -14.972950   -2.227770
  C     -9.536350  -16.037100   -2.969050
  C     -8.691150  -16.004640   -4.209360
  O     -8.692590  -16.812680   -5.109230
  C     -7.875270  -14.787610   -4.081140
  H      1.275980   -2.045170   -2.185560
  H      2.908400   -0.020660   -1.762210
  H      2.924760    0.574710    0.828110
  H     -0.082710   -2.562720    3.091310
  H     -1.153840   -3.405340    5.283890
  H     -1.462960   -5.149050    5.214260
  H     -2.794860   -4.016620    5.009450
  H     -5.303730   -9.019110   -0.288220
  H     -4.817760   -9.852800   -3.197130
  H     -7.147060   -9.522580    0.539560
  H     -8.791990   -9.757840    2.491450
  H     -9.096120  -11.460530    2.876230
  H    -10.289030  -10.544510    1.963360
  H     -9.661650  -14.696930   -1.278320
  H    -10.245420  -16.816390   -2.765440
  H     -7.156040  -14.468870   -4.811220

 Total Charge           Charge          ....    0
 Multiplicity           Mult            ....    1
 Number of Electrons    NEL             ....  318
 Basis Dimension        Dim             ....  674

ORBITAL ENERGIES
----------------

  NO   OCC          E(Eh)            E(eV)
   0   2.0000     -88.988194     -2421.4919
   1   2.0000     -88.969317     -2420.9782
   2   2.0000     -88.968752     -2420.9628
   3   2.0000     -88.963024     -2420.8070
   4   2.0000     -88.958991     -2420.6972
   5   2.0000     -19.238024      -523.4932
   6   2.0000     -19.208684      -522.6949
   7   2.0000     -14.413854      -392.2209
   8   2.0000     -14.412781      -392.1917
   9   2.0000     -10.376966      -282.3716
  10   2.0000     -10.349881      -281.6346
  11   2.0000     -10.345727      -281.5215
  12   2.0000     -10.339072      -281.3404
  13   2.0000     -10.329062      -281.0681
  14   2.0000     -10.328716      -281.0586
  15   2.0000     -10.326777      -281.0059
  16   2.0000     -10.320966      -280.8478
  17   2.0000     -10.320382      -280.8319
  18   2.0000     -10.319741      -280.8144
  19   2.0000     -10.319672      -280.8126
  20   2.0000     -10.316492      -280.7260
  21   2.0000     -10.313830      -280.6536
  22   2.0000     -10.313799      -280.6527
  23   2.0000     -10.311989      -280.6035
  24   2.0000     -10.310886      -280.5735
  25   2.0000     -10.305049      -280.4146
  26   2.0000     -10.303808      -280.3809
  27   2.0000     -10.301890      -280.3287
  28   2.0000     -10.301803      -280.3263
  29   2.0000     -10.298290      -280.2307
  30   2.0000     -10.297383      -280.2060
  31   2.0000     -10.294240      -280.1205
  32   2.0000     -10.292820      -280.0819
  33   2.0000     -10.290453      -280.0175
  34   2.0000     -10.289978      -280.0045
  35   2.0000     -10.286432      -279.9081
  36   2.0000     -10.282028      -279.7882
  37   2.0000     -10.276387      -279.6347
  38   2.0000     -10.271313      -279.4966
  39   2.0000     -10.270317      -279.4695
  40   2.0000     -10.263298      -279.2785
  41   2.0000      -8.083456      -219.9620
  42   2.0000      -8.064327      -219.4415
  43   2.0000      -8.063138      -219.4091
  44   2.0000      -8.058840      -219.2922
  45   2.0000      -8.054856      -219.1838
  46   2.0000      -6.052809      -164.7053
  47   2.0000      -6.048655      -164.5923
  48   2.0000      -6.045398      -164.5036
  49   2.0000      -6.033612      -164.1829
  50   2.0000      -6.032739      -164.1592
  51   2.0000      -6.029491      -164.0708
  52   2.0000      -6.028626      -164.0472
  53   2.0000      -6.028376      -164.0405
  54   2.0000      -6.026470      -163.9886
  55   2.0000      -6.024874      -163.9452
  56   2.0000      -6.024674      -163.9397
  57   2.0000      -6.024328      -163.9303
  58   2.0000      -6.020269      -163.8198
  59   2.0000      -6.020032      -163.8134
  60   2.0000      -6.016082      -163.7059
  61   2.0000      -1.148396       -31.2494
  62   2.0000      -1.117716       -30.4146
  63   2.0000      -1.032954       -28.1081
  64   2.0000      -1.018549       -27.7161
  65   2.0000      -1.012229       -27.5442
  66   2.0000      -0.994345       -27.0575
  67   2.0000      -0.990880       -26.9632
  68   2.0000      -0.974281       -26.5115
  69   2.0000      -0.968350       -26.3501
  70   2.0000      -0.955283       -25.9946
  71   2.0000      -0.950655       -25.8686
  72   2.0000      -0.922850       -25.1120
  73   2.0000      -0.898874       -24.4596
  74   2.0000      -0.887203       -24.1420
  75   2.0000      -0.866695       -23.5840
  76   2.0000      -0.861125       -23.4324
  77   2.0000      -0.855780       -23.2870
  78   2.0000      -0.838454       -22.8155
  79   2.0000      -0.832412       -22.6511
  80   2.0000      -0.823445       -22.4071
  81   2.0000      -0.800197       -21.7745
  82   2.0000      -0.788051       -21.4440
  83   2.0000      -0.782107       -21.2822
  84   2.0000      -0.778784       -21.1918
  85   2.0000      -0.769509       -20.9394
  86   2.0000      -0.764686       -20.8082
  87   2.0000      -0.730770       -19.8853
  88   2.0000      -0.715883       -19.4802
  89   2.0000      -0.708899       -19.2901
  90   2.0000      -0.669813       -18.2265
  91   2.0000      -0.669245       -18.2111
  92   2.0000      -0.662641       -18.0314
  93   2.0000      -0.651824       -17.7370
  94   2.0000      -0.648651       -17.6507
  95   2.0000      -0.643031       -17.4978
  96   2.0000      -0.638054       -17.3623
  97   2.0000      -0.625292       -17.0151
  98   2.0000      -0.614723       -16.7275
  99   2.0000      -0.605946       -16.4886
 100   2.0000      -0.596043       -16.2191
 101   2.0000      -0.592947       -16.1349
 102   2.0000      -0.583234       -15.8706
 103   2.0000      -0.569251       -15.4901
 104   2.0000      -0.562753       -15.3133
 105   2.0000      -0.557881       -15.1807
 106   2.0000      -0.539031       -14.6678
 107   2.0000      -0.535845       -14.5811
 108   2.0000      -0.531741       -14.4694
 109   2.0000      -0.528951       -14.3935
 110   2.0000      -0.527548       -14.3553
 111   2.0000      -0.525048       -14.2873
 112   2.0000      -0.517710       -14.0876
 113   2.0000      -0.515965       -14.0401
 114   2.0000      -0.513271       -13.9668
 115   2.0000      -0.510173       -13.8825
 116   2.0000      -0.508434       -13.8352
 117   2.0000      -0.505542       -13.7565
 118   2.0000      -0.498928       -13.5765
 119   2.0000      -0.496485       -13.5100
 120   2.0000      -0.495295       -13.4777
 121   2.0000      -0.492928       -13.4132
 122   2.0000      -0.491605       -13.3772
 123   2.0000      -0.488314       -13.2877
 124   2.0000      -0.487103       -13.2547
 125   2.0000      -0.480027       -13.0622
 126   2.0000      -0.477415       -12.9911
 127   2.0000      -0.470086       -12.7917
 128   2.0000      -0.465377       -12.6636
 129   2.0000      -0.459716       -12.5095
 130   2.0000      -0.456992       -12.4354
 131   2.0000      -0.454750       -12.3744
 132   2.0000      -0.449688       -12.2366
 133   2.0000      -0.443847       -12.0777
 134   2.0000      -0.441333       -12.0093
 135   2.0000      -0.440113       -11.9761
 136   2.0000      -0.432326       -11.7642
 137   2.0000      -0.430351       -11.7104
 138   2.0000      -0.427192       -11.6245
 139   2.0000      -0.426328       -11.6010
 140   2.0000      -0.425233       -11.5712
 141   2.0000      -0.418344       -11.3837
 142   2.0000      -0.416867       -11.3435
 143   2.0000      -0.409192       -11.1347
 144   2.0000      -0.407888       -11.0992
 145   2.0000      -0.397931       -10.8283
 146   2.0000      -0.395441       -10.7605
 147   2.0000      -0.374549       -10.1920
 148   2.0000      -0.354301        -9.6410
 149   2.0000      -0.345147        -9.3919
 150   2.0000      -0.341236        -9.2855
 151   2.0000      -0.325182        -8.8486
 152   2.0000      -0.323910        -8.8140
 153   2.0000      -0.321227        -8.7410
 154   2.0000      -0.311915        -8.4876
 155   2.0000      -0.309369        -8.4184
 156   2.0000      -0.303555        -8.2602
 157   2.0000      -0.261319        -7.1109
 158   2.0000      -0.235265        -6.4019
 159   0.0000      -0.098499        -2.6803
 160   0.0000      -0.083003        -2.2586
 161   0.0000      -0.049860        -1.3568
 162   0.0000      -0.033812        -0.9201
 163   0.0000       0.004661         0.1268

MULLIKEN ATOMIC CHARGES
-----------------------
   0 C :   -0.059097
   1 C :    0.081802
   2 C :   -0.041586
   3 C :    0.159630
   4 O :   -0.121747
   5 C :   -0.024205
   6 C :   -0.082707
   7 S :    0.145258
   8 C :   -0.133332
   9 C :   -0.067700
  10 C :    0.109507
  11 C :   -0.013072
  12 C :   -0.189493
  13 C :    0.118545
  14 S :    0.095175
  15 C :   -0.080721
  16 S :    0.152253
  17 C :   -0.071878
  18 C :   -0.037671
  19 C :    0.002081
  20 C :   -0.309904
  21 N :    0.226259
  22 C :   -0.259126
  23 N :    0.195896
  24 C :    0.032010
  25 C :    0.053547
  26 C :   -0.129793
  27 S :    0.173882
  28 C :   -0.111397
  29 C :   -0.054995
  30 C :    0.125673
  31 C :   -0.015289
  32 C :   -0.191561
  33 C :    0.118944
  34 S :    0.098986
  35 C :    0.059655
  36 C :    0.049736
  37 C :   -0.035980
  38 C :    0.146759
  39 O :   -0.137994
  40 C :   -0.140571
  41 H :    0.017893
  42 H :    0.008086
  43 H :   -0.005919
  44 H :   -0.001665
  45 H :    0.031200
  46 H :    0.036328
  47 H :    0.035296
  48 H :   -0.031078
  49 H :    0.002694
  50 H :   -0.021224
  51 H :    0.024292
  52 H :    0.041442
  53 H :    0.042076
  54 H :   -0.006081
  55 H :   -0.005163
  56 H :   -0.003955
Sum of atomic charges:    0.0000000

LOEWDIN ATOMIC CHARGES
----------------------
   0 C :   -0.016216
   1 C :    0.031352
   2 C :   -0.069943
   3 C :    0.108590
   4 O :   -0.092833
   5 C :   -0.075972
   6 C :   -0.152523
   7 S :    0.474227
   8 C :   -0.214467
   9 C :   -0.185997
  10 C :   -0.059614
  11 C :   -0.063535
  12 C :   -0.140820
  13 C :   -0.058414
  14 S :    0.371777
  15 C :   -0.147288
  16 S :    0.467912
  17 C :   -0.133086
  18 C :   -0.089955
  19 C :   -0.095929
  20 C :   -0.049389
  21 N :   -0.036014
  22 C :   -0.029652
  23 N :   -0.040889
  24 C :   -0.058738
  25 C :   -0.012819
  26 C :   -0.167041
  27 S :    0.475931
  28 C :   -0.191228
  29 C :   -0.174976
  30 C :   -0.064388
  31 C :   -0.076219
  32 C :   -0.136961
  33 C :   -0.058095
  34 S :    0.395122
  35 C :   -0.015624
  36 C :    0.004092
  37 C :   -0.038186
  38 C :    0.073423
  39 O :   -0.111651
  40 C :   -0.079970
  41 H :    0.027815
  42 H :    0.034305
  43 H :    0.031468
  44 H :    0.031077
  45 H :    0.042919
  46 H :    0.039365
  47 H :    0.038883
  48 H :    0.026922
  49 H :    0.039190
  50 H :    0.027028
  51 H :    0.039984
  52 H :    0.041722
  53 H :    0.042016
  54 H :    0.016323
  55 H :    0.031139
  56 H :    0.025850

  Mayer bond orders larger than 0.100000
B(  0-C ,  1-C ) :   1.0333 B(  0-C ,  5-C ) :   1.6571 B(  0-C , 41-H ) :   0.9974
B(  1-C ,  2-C ) :   1.6990 B(  1-C , 42-H ) :   1.0019 B(  2-C ,  3-C ) :   1.0121
B(  2-C , 43-H ) :   1.0151 B(  3-C ,  4-O ) :   2.1646 B(  3-C ,  5-C ) :   0.8839
B(  5-C ,  6-C ) :   1.1774 B(  6-C ,  7-S ) :   1.1107 B(  6-C ,  8-C ) :   0.1068
B(  6-C , 10-C ) :   1.3943 B(  7-S ,  8-C ) :   1.1219 B(  8-C ,  9-C ) :   1.4710
B(  8-C , 15-C ) :   1.2231 B(  9-C , 10-C ) :   1.2393 B(  9-C , 14-S ) :   1.0579
B( 10-C , 11-C ) :   1.1577 B( 11-C , 12-C ) :   1.6638 B( 11-C , 44-H ) :   0.9871
B( 12-C , 13-C ) :   1.0707 B( 12-C , 14-S ) :   1.0438 B( 13-C , 45-H ) :   0.9556
B( 13-C , 46-H ) :   0.9485 B( 13-C , 47-H ) :   0.9480 B( 15-C , 16-S ) :   1.1268
B( 15-C , 19-C ) :   1.4463 B( 16-S , 17-C ) :   1.1061 B( 17-C , 18-C ) :   1.4636
B( 17-C , 24-C ) :   1.1792 B( 18-C , 19-C ) :   1.3324 B( 18-C , 22-C ) :   1.1726
B( 19-C , 20-C ) :   1.1435 B( 20-C , 21-N ) :   2.9899 B( 22-C , 23-N ) :   2.9465
B( 24-C , 25-C ) :   1.6464 B( 24-C , 48-H ) :   0.9376 B( 25-C , 26-C ) :   1.1754
B( 25-C , 49-H ) :   0.9398 B( 26-C , 27-S ) :   1.1275 B( 26-C , 28-C ) :   0.1048
B( 26-C , 30-C ) :   1.3735 B( 27-S , 28-C ) :   1.1328 B( 28-C , 29-C ) :   1.4820
B( 28-C , 35-C ) :   1.1395 B( 29-C , 30-C ) :   1.2578 B( 29-C , 34-S ) :   1.0534
B( 30-C , 31-C ) :   1.1284 B( 31-C , 32-C ) :   1.6861 B( 31-C , 50-H ) :   0.9913
B( 32-C , 33-C ) :   1.0690 B( 32-C , 34-S ) :   1.0719 B( 33-C , 51-H ) :   0.9558
B( 33-C , 52-H ) :   0.9473 B( 33-C , 53-H ) :   0.9472 B( 35-C , 36-C ) :   1.0063
B( 35-C , 40-C ) :   1.6266 B( 36-C , 37-C ) :   1.7788 B( 36-C , 54-H ) :   0.9888
B( 37-C , 38-C ) :   0.9699 B( 37-C , 55-H ) :   1.0067 B( 38-C , 39-O ) :   2.1704
B( 38-C , 40-C ) :   0.9764 B( 40-C , 56-H ) :   1.0149

-----------------------------------------------------------------------------
         ABSORPTION SPECTRUM VIA TRANSITION ELECTRIC DIPOLE MOMENTS
-----------------------------------------------------------------------------
State   Energy  Wavelength   fosc         T2         TX        TY        TZ
        (cm-1)    (nm)                  (au**2)     (au)      (au)      (au)
-----------------------------------------------------------------------------
   0   14782.3    676.5   0.987074974  21.98290   2.85503   3.65312   0.69747
   1   18487.2    540.9   0.531054192   9.45680   1.61370   2.47137   0.86319
   2   22468.1    445.1   0.002268120   0.03323  -0.00772   0.11143   0.14407
   3   23713.1    421.7   0.073941611   1.02654   0.88987   0.48418   0.01520
   4   24326.3    411.1   0.000015291   0.00021   0.00853   0.00878  -0.00755
   5   25615.7    390.4   0.000057368   0.00074   0.02313  -0.00571  -0.01302
   6   26465.8    377.8   0.071008105   0.88328   0.56672   0.42168  -0.61992
   7   27101.4    369.0   0.007830533   0.09512  -0.26190  -0.07425   0.14497
   8   27653.8    361.6   0.164555162   1.95899  -0.06550   0.38703   1.34347
   9   29495.0    339.0   0.001803638   0.02013   0.09960   0.05822  -0.08260
  10   29859.5    334.9   0.098136789   1.08199   0.75165   0.40323  -0.59534
  11   30957.6    323.0   0.137334321   1.46045  -0.02946  -0.82747  -0.88027
  12   32598.7    306.8   0.091367314   0.92271  -0.67196  -0.68635   0.01012
  13   33190.9    301.3   0.009280751   0.09205  -0.05116   0.08248   0.28746
  14   34426.9    290.5   0.006975575   0.06670   0.16475   0.19826  -0.01593
  15   34539.2    289.5   0.001292829   0.01232  -0.02501   0.10795   0.00667
  16   35016.2    285.6   0.061629512   0.57942  -0.51031  -0.49863   0.26528
  17   35408.0    282.4   0.023030781   0.21413   0.20961   0.40589   0.07385
  18   36109.6    276.9   0.017090351   0.15581  -0.18588  -0.31379  -0.15097
  19   36719.9    272.3   0.021094361   0.18912  -0.17913  -0.14729   0.36789
  20   37183.3    268.9   0.014627809   0.12951  -0.04445  -0.28768  -0.21160
  21   38018.8    263.0   0.224797946   1.94657  -0.61043  -0.47312   1.16194
  22   39153.9    255.4   0.035589605   0.29924  -0.25814  -0.43440   0.20954
  23   39355.6    254.1   0.099547420   0.83272   0.26894  -0.21205  -0.84583

FINAL SINGLE POINT ENERGY     -3477.330071416246

DIPOLE MOMENT
-------------
                                X             Y             Z
Electronic contribution:      6.95167      -2.01980     -19.82828
Nuclear contribution   :     -7.32410       3.68595      23.63798
                        -----------------------------------------
Total Dipole Moment    :     -0.37244       1.66614       3.80970
                        -----------------------------------------
Magnitude (a.u.)       :      4.17475
Magnitude (Debye)      :     10.61137

Rotational constants in cm-1:     0.005782     0.000767     0.000684
Rotational constants in MHz :   173.343722    23.006036    20.516565

                             ****ORCA TERMINATED NORMALLY****
TOTAL RUN TIME: 0 days 0 hours 3 minutes 25 seconds 322 msec
