                         Program Version 4.2.0 -  RELEASE  -
|  1> # ORCA input file
|  2> # SCF done       -145.670557739716          0.000544426671
|  3> ! CAM-B3LYP def2-SVP def2/J RIJCOSX Grid4 TightSCF
|  4> %maxcore 5000
|  5> %tddft
|  6>     Mode sTDDFT
|  7>     Ethresh 5.0
|  8>     maxcore 5000
|  9> end
| 10>
| 11> %pal
| 12>   nprocs 6
| 13>   end
| 14> * xyz 0 1
| 15>    C        0.83474         0.57379         0.25650
| 16>    S        0.04215        -0.58945         1.21188
| 17>    C       -0.38164        -1.54258        -0.17320
| 18>    C        0.09393        -0.94998        -1.35216
| 19>    C        0.79319         0.27235        -1.09127
| 20>    C        1.33651         1.00938        -2.16540
| 21>    C        1.18478         0.54259        -3.43980
| 22>    S        1.84004         1.42249        -4.83924
| 23>    C        0.49002        -0.67640        -3.70497
| 24>    O        0.34095        -1.13960        -4.96376
| 25>    C       -0.04462        -1.40625        -2.67049
| 26>    C       -1.12236        -2.74122        -0.01847
| 27>    N       -1.42555        -3.47172        -1.09103
| 28>    N       -2.10827        -4.56792        -1.03805
| 29>    C       -2.58850        -5.08327         0.09221
| 30>    C       -2.32488        -4.40127         1.31664
| 31>    C       -1.56392        -3.19509         1.26094
| 32>    N       -1.38111        -2.66017         2.46116
| 33>    S       -2.10349        -3.59448         3.56072
| 34>    N       -2.67953        -4.71912         2.55448
| 35>    C       -3.34696        -6.28269         0.05930
| 36>    S       -4.00826        -6.92573         1.50997
| 37>    C       -4.76343        -8.26863         0.68040
| 38>    C       -4.46577        -8.22658        -0.69809
| 39>    C       -3.66516        -7.09395        -1.04182
| 40>    C       -3.25269        -6.89129        -2.36669
| 41>    C       -3.59907        -7.80953        -3.32225
| 42>    S       -3.09383        -7.60877        -5.00954
| 43>    C       -4.37145        -8.95757        -2.99000
| 44>    O       -4.69425        -9.87938        -3.91426
| 45>    C       -4.79625        -9.15323        -1.69363
| 46>    C       -5.51401        -9.16701         1.46368
| 47>    N       -5.36338        -9.14325         2.84114
| 48>    C       -6.16407       -10.06300         3.51546
| 49>    O       -6.17088       -10.21842         4.71484
| 50>    C       -6.90139       -10.69304         2.43581
| 51>    C       -6.48661       -10.13339         1.19183
| 52>    C       -7.31417       -10.73052         0.15074
| 53>    O       -7.37364       -10.56477        -1.04767
| 54>    N       -8.13998       -11.62277         0.84250
| 55>    C       -7.91172       -11.60454         2.19514
| 56>    C       -8.64977       -12.41613         3.08969
| 57>    O       -8.41377       -12.39167         4.42204
| 58>    C       -9.66338       -13.31994         2.84247
| 59>    C      -10.47566       -13.91919         1.78959
| 60>    O      -10.46424       -13.73378         0.59646
| 61>    N      -11.30852       -14.79303         2.47652
| 62>    C      -11.12628       -14.82700         3.86379
| 63>    O      -11.75248       -15.51984         4.62023
| 64>    C      -10.04790       -13.85928         4.09611
| 65>    C       -9.24865       -13.25651         5.04620
| 66>    C       -9.18923       -13.40905         6.47281
| 67>    C       -8.33977       -12.72022         7.23389
| 68>    H        1.29448         1.42499         0.71895
| 69>    H        1.86167         1.93081        -1.96200
| 70>    H        2.34696         2.43083        -4.13980
| 71>    H        0.75122        -0.54312        -5.60392
| 72>    H       -0.56917        -2.32464        -2.87028
| 73>    H       -2.66286        -6.01729        -2.59214
| 74>    H       -2.47435        -6.44971        -4.82087
| 75>    H       -4.38119        -9.61929        -4.79111
| 76>    H       -5.41083       -10.01037        -1.48654
| 77>    H       -4.70457        -8.54680         3.31803
| 78>    H       -8.83918       -12.20042         0.38969
| 79>    H      -11.99878       -15.36575         2.01172
| 80>    H       -9.88729       -14.12574         6.88079
| 81>    H       -7.65472       -12.01039         6.79959
| 82>    H       -8.31075       -12.85004         8.30125
| 83> *
| 84>
| 85>                          ****END OF INPUT****

CARTESIAN COORDINATES (ANGSTROEM)
---------------------------------
  C      0.834740    0.573790    0.256500
  S      0.042150   -0.589450    1.211880
  C     -0.381640   -1.542580   -0.173200
  C      0.093930   -0.949980   -1.352160
  C      0.793190    0.272350   -1.091270
  C      1.336510    1.009380   -2.165400
  C      1.184780    0.542590   -3.439800
  S      1.840040    1.422490   -4.839240
  C      0.490020   -0.676400   -3.704970
  O      0.340950   -1.139600   -4.963760
  C     -0.044620   -1.406250   -2.670490
  C     -1.122360   -2.741220   -0.018470
  N     -1.425550   -3.471720   -1.091030
  N     -2.108270   -4.567920   -1.038050
  C     -2.588500   -5.083270    0.092210
  C     -2.324880   -4.401270    1.316640
  C     -1.563920   -3.195090    1.260940
  N     -1.381110   -2.660170    2.461160
  S     -2.103490   -3.594480    3.560720
  N     -2.679530   -4.719120    2.554480
  C     -3.346960   -6.282690    0.059300
  S     -4.008260   -6.925730    1.509970
  C     -4.763430   -8.268630    0.680400
  C     -4.465770   -8.226580   -0.698090
  C     -3.665160   -7.093950   -1.041820
  C     -3.252690   -6.891290   -2.366690
  C     -3.599070   -7.809530   -3.322250
  S     -3.093830   -7.608770   -5.009540
  C     -4.371450   -8.957570   -2.990000
  O     -4.694250   -9.879380   -3.914260
  C     -4.796250   -9.153230   -1.693630
  C     -5.514010   -9.167010    1.463680
  N     -5.363380   -9.143250    2.841140
  C     -6.164070  -10.063000    3.515460
  O     -6.170880  -10.218420    4.714840
  C     -6.901390  -10.693040    2.435810
  C     -6.486610  -10.133390    1.191830
  C     -7.314170  -10.730520    0.150740
  O     -7.373640  -10.564770   -1.047670
  N     -8.139980  -11.622770    0.842500
  C     -7.911720  -11.604540    2.195140
  C     -8.649770  -12.416130    3.089690
  O     -8.413770  -12.391670    4.422040
  C     -9.663380  -13.319940    2.842470
  C    -10.475660  -13.919190    1.789590
  O    -10.464240  -13.733780    0.596460
  N    -11.308520  -14.793030    2.476520
  C    -11.126280  -14.827000    3.863790
  O    -11.752480  -15.519840    4.620230
  C    -10.047900  -13.859280    4.096110
  C     -9.248650  -13.256510    5.046200
  C     -9.189230  -13.409050    6.472810
  C     -8.339770  -12.720220    7.233890
  H      1.294480    1.424990    0.718950
  H      1.861670    1.930810   -1.962000
  H      2.346960    2.430830   -4.139800
  H      0.751220   -0.543120   -5.603920
  H     -0.569170   -2.324640   -2.870280
  H     -2.662860   -6.017290   -2.592140
  H     -2.474350   -6.449710   -4.820870
  H     -4.381190   -9.619290   -4.791110
  H     -5.410830  -10.010370   -1.486540
  H     -4.704570   -8.546800    3.318030
  H     -8.839180  -12.200420    0.389690
  H    -11.998780  -15.365750    2.011720
  H     -9.887290  -14.125740    6.880790
  H     -7.654720  -12.010390    6.799590
  H     -8.310750  -12.850040    8.301250

 Total Charge           Charge          ....    0
 Multiplicity           Mult            ....    1
 Number of Electrons    NEL             ....  404
 Basis Dimension        Dim             ....  837

ORBITAL ENERGIES
----------------

  NO   OCC          E(Eh)            E(eV)
   0   2.0000     -89.045676     -2423.0560
   1   2.0000     -88.971737     -2421.0440
   2   2.0000     -88.971596     -2421.0402
   3   2.0000     -88.948158     -2420.4024
   4   2.0000     -88.936660     -2420.0896
   5   2.0000     -19.309063      -525.4263
   6   2.0000     -19.254372      -523.9381
   7   2.0000     -19.242939      -523.6270
   8   2.0000     -19.216397      -522.9047
   9   2.0000     -19.209815      -522.7256
  10   2.0000     -19.183530      -522.0104
  11   2.0000     -19.172580      -521.7124
  12   2.0000     -14.463349      -393.5677
  13   2.0000     -14.462479      -393.5441
  14   2.0000     -14.455814      -393.3627
  15   2.0000     -14.446431      -393.1074
  16   2.0000     -14.444725      -393.0609
  17   2.0000     -14.439623      -392.9221
  18   2.0000     -14.438465      -392.8906
  19   2.0000     -10.403139      -283.0838
  20   2.0000     -10.399820      -282.9935
  21   2.0000     -10.372748      -282.2568
  22   2.0000     -10.365869      -282.0696
  23   2.0000     -10.363412      -282.0028
  24   2.0000     -10.360590      -281.9260
  25   2.0000     -10.346225      -281.5351
  26   2.0000     -10.345744      -281.5220
  27   2.0000     -10.343351      -281.4569
  28   2.0000     -10.342864      -281.4436
  29   2.0000     -10.337812      -281.3062
  30   2.0000     -10.336362      -281.2667
  31   2.0000     -10.336139      -281.2606
  32   2.0000     -10.334733      -281.2224
  33   2.0000     -10.317309      -280.7482
  34   2.0000     -10.315832      -280.7081
  35   2.0000     -10.308656      -280.5128
  36   2.0000     -10.307011      -280.4680
  37   2.0000     -10.305962      -280.4395
  38   2.0000     -10.302541      -280.3464
  39   2.0000     -10.291517      -280.0464
  40   2.0000     -10.290507      -280.0189
  41   2.0000     -10.288756      -279.9713
  42   2.0000     -10.288485      -279.9639
  43   2.0000     -10.288325      -279.9595
  44   2.0000     -10.286565      -279.9117
  45   2.0000     -10.286431      -279.9080
  46   2.0000     -10.283692      -279.8335
  47   2.0000     -10.277201      -279.6569
  48   2.0000     -10.268838      -279.4293
  49   2.0000     -10.265046      -279.3261
  50   2.0000     -10.262108      -279.2462
  51   2.0000     -10.262032      -279.2441
  52   2.0000     -10.253443      -279.0104
  53   2.0000      -8.137206      -221.4246
  54   2.0000      -8.066068      -219.4889
  55   2.0000      -8.065890      -219.4840
  56   2.0000      -8.043900      -218.8856
  57   2.0000      -8.032381      -218.5722
  58   2.0000      -6.108460      -166.2196
  59   2.0000      -6.100732      -166.0094
  60   2.0000      -6.099462      -165.9748
  61   2.0000      -6.035108      -164.2236
  62   2.0000      -6.035075      -164.2227
  63   2.0000      -6.030733      -164.1046
  64   2.0000      -6.030605      -164.1011
  65   2.0000      -6.029142      -164.0613
  66   2.0000      -6.028539      -164.0449
  67   2.0000      -6.014275      -163.6567
  68   2.0000      -6.010174      -163.5451
  69   2.0000      -6.003885      -163.3740
  70   2.0000      -6.002727      -163.3425
  71   2.0000      -5.998543      -163.2287
  72   2.0000      -5.992540      -163.0653
  73   2.0000      -1.228815       -33.4378
  74   2.0000      -1.156741       -31.4765
  75   2.0000      -1.153372       -31.3849
  76   2.0000      -1.149723       -31.2856
  77   2.0000      -1.143747       -31.1229
  78   2.0000      -1.136322       -30.9209
  79   2.0000      -1.124040       -30.5867
  80   2.0000      -1.119026       -30.4502
  81   2.0000      -1.113636       -30.3036
  82   2.0000      -1.055185       -28.7130
  83   2.0000      -1.043866       -28.4050
  84   2.0000      -1.041290       -28.3349
  85   2.0000      -1.013349       -27.5746
  86   2.0000      -0.998455       -27.1693
  87   2.0000      -0.991845       -26.9895
  88   2.0000      -0.948289       -25.8042
  89   2.0000      -0.940489       -25.5920
  90   2.0000      -0.931588       -25.3498
  91   2.0000      -0.922999       -25.1161
  92   2.0000      -0.921066       -25.0635
  93   2.0000      -0.915450       -24.9107
  94   2.0000      -0.886110       -24.1123
  95   2.0000      -0.884481       -24.0679
  96   2.0000      -0.876122       -23.8405
  97   2.0000      -0.869835       -23.6694
  98   2.0000      -0.856459       -23.3054
  99   2.0000      -0.850983       -23.1564
 100   2.0000      -0.823265       -22.4022
 101   2.0000      -0.820122       -22.3167
 102   2.0000      -0.805896       -21.9295
 103   2.0000      -0.800004       -21.7692
 104   2.0000      -0.790372       -21.5071
 105   2.0000      -0.780246       -21.2316
 106   2.0000      -0.768312       -20.9068
 107   2.0000      -0.762238       -20.7416
 108   2.0000      -0.754158       -20.5217
 109   2.0000      -0.750631       -20.4257
 110   2.0000      -0.743713       -20.2375
 111   2.0000      -0.720137       -19.5959
 112   2.0000      -0.713815       -19.4239
 113   2.0000      -0.705172       -19.1887
 114   2.0000      -0.702637       -19.1197
 115   2.0000      -0.700059       -19.0496
 116   2.0000      -0.689230       -18.7549
 117   2.0000      -0.685091       -18.6423
 118   2.0000      -0.671406       -18.2699
 119   2.0000      -0.664834       -18.0910
 120   2.0000      -0.656983       -17.8774
 121   2.0000      -0.644700       -17.5432
 122   2.0000      -0.628056       -17.0903
 123   2.0000      -0.625115       -17.0102
 124   2.0000      -0.614085       -16.7101
 125   2.0000      -0.613773       -16.7016
 126   2.0000      -0.602420       -16.3927
 127   2.0000      -0.594665       -16.1817
 128   2.0000      -0.590066       -16.0565
 129   2.0000      -0.586264       -15.9530
 130   2.0000      -0.583380       -15.8746
 131   2.0000      -0.577058       -15.7025
 132   2.0000      -0.576394       -15.6845
 133   2.0000      -0.573740       -15.6123
 134   2.0000      -0.569153       -15.4875
 135   2.0000      -0.564761       -15.3679
 136   2.0000      -0.562368       -15.3028
 137   2.0000      -0.556126       -15.1330
 138   2.0000      -0.552088       -15.0231
 139   2.0000      -0.548597       -14.9281
 140   2.0000      -0.543735       -14.7958
 141   2.0000      -0.540462       -14.7067
 142   2.0000      -0.529704       -14.4140
 143   2.0000      -0.528121       -14.3709
 144   2.0000      -0.521270       -14.1845
 145   2.0000      -0.520558       -14.1651
 146   2.0000      -0.516678       -14.0595
 147   2.0000      -0.514863       -14.0101
 148   2.0000      -0.512446       -13.9444
 149   2.0000      -0.509161       -13.8550
 150   2.0000      -0.506707       -13.7882
 151   2.0000      -0.503354       -13.6970
 152   2.0000      -0.501394       -13.6436
 153   2.0000      -0.501131       -13.6365
 154   2.0000      -0.497887       -13.5482
 155   2.0000      -0.496036       -13.4978
 156   2.0000      -0.491980       -13.3875
 157   2.0000      -0.490958       -13.3597
 158   2.0000      -0.487123       -13.2553
 159   2.0000      -0.483167       -13.1476
 160   2.0000      -0.481064       -13.0904
 161   2.0000      -0.473427       -12.8826
 162   2.0000      -0.469987       -12.7890
 163   2.0000      -0.468713       -12.7543
 164   2.0000      -0.462636       -12.5890
 165   2.0000      -0.457634       -12.4529
 166   2.0000      -0.450174       -12.2499
 167   2.0000      -0.449657       -12.2358
 168   2.0000      -0.445424       -12.1206
 169   2.0000      -0.442459       -12.0399
 170   2.0000      -0.439238       -11.9523
 171   2.0000      -0.431999       -11.7553
 172   2.0000      -0.425590       -11.5809
 173   2.0000      -0.424029       -11.5384
 174   2.0000      -0.417773       -11.3682
 175   2.0000      -0.415655       -11.3105
 176   2.0000      -0.411732       -11.2038
 177   2.0000      -0.403465       -10.9788
 178   2.0000      -0.400099       -10.8872
 179   2.0000      -0.389606       -10.6017
 180   2.0000      -0.386625       -10.5206
 181   2.0000      -0.379781       -10.3344
 182   2.0000      -0.377965       -10.2849
 183   2.0000      -0.377916       -10.2836
 184   2.0000      -0.372693       -10.1415
 185   2.0000      -0.371746       -10.1157
 186   2.0000      -0.366743        -9.9796
 187   2.0000      -0.361580        -9.8391
 188   2.0000      -0.359763        -9.7897
 189   2.0000      -0.348493        -9.4830
 190   2.0000      -0.344654        -9.3785
 191   2.0000      -0.337246        -9.1769
 192   2.0000      -0.327844        -8.9211
 193   2.0000      -0.320755        -8.7282
 194   2.0000      -0.316867        -8.6224
 195   2.0000      -0.303198        -8.2504
 196   2.0000      -0.300543        -8.1782
 197   2.0000      -0.286806        -7.8044
 198   2.0000      -0.279306        -7.6003
 199   2.0000      -0.273783        -7.4500
 200   2.0000      -0.254399        -6.9225
 201   2.0000      -0.221406        -6.0248
 202   0.0000      -0.107151        -2.9157
 203   0.0000      -0.069140        -1.8814
 204   0.0000      -0.036016        -0.9800
 205   0.0000      -0.033681        -0.9165
 206   0.0000      -0.031462        -0.8561

MULLIKEN ATOMIC CHARGES
-----------------------
   0 C :   -0.103123
   1 S :    0.202452
   2 C :   -0.204152
   3 C :    0.117124
   4 C :    0.093312
   5 C :   -0.040667
   6 C :   -0.071606
   7 S :   -0.011334
   8 C :    0.152847
   9 O :   -0.163587
  10 C :   -0.095180
  11 C :    0.039260
  12 N :   -0.075196
  13 N :   -0.055372
  14 C :    0.018929
  15 C :    0.015843
  16 C :    0.003779
  17 N :   -0.281871
  18 S :    0.537104
  19 N :   -0.285750
  20 C :   -0.130720
  21 S :    0.162182
  22 C :   -0.144617
  23 C :    0.167204
  24 C :    0.050679
  25 C :   -0.056796
  26 C :   -0.067191
  27 S :   -0.009314
  28 C :    0.123724
  29 O :   -0.153355
  30 C :   -0.096296
  31 C :    0.113251
  32 N :   -0.147977
  33 C :    0.131481
  34 O :   -0.164841
  35 C :   -0.092443
  36 C :   -0.091122
  37 C :    0.146172
  38 O :   -0.184803
  39 N :   -0.104315
  40 C :    0.027381
  41 C :    0.123568
  42 O :   -0.173055
  43 C :   -0.104640
  44 C :    0.189275
  45 O :   -0.165778
  46 N :   -0.166967
  47 C :    0.165861
  48 O :   -0.135673
  49 C :   -0.034443
  50 C :    0.071382
  51 C :   -0.033244
  52 C :    0.019236
  53 H :    0.018995
  54 H :   -0.037477
  55 H :    0.075624
  56 H :    0.182624
  57 H :   -0.006993
  58 H :   -0.014715
  59 H :    0.085616
  60 H :    0.182182
  61 H :   -0.021081
  62 H :    0.128991
  63 H :    0.131876
  64 H :    0.140867
  65 H :    0.013478
  66 H :    0.060792
  67 H :    0.032606
Sum of atomic charges:   -0.0000000

LOEWDIN ATOMIC CHARGES
----------------------
   0 C :   -0.176135
   1 S :    0.519016
   2 C :   -0.211341
   3 C :   -0.016606
   4 C :   -0.062077
   5 C :   -0.040641
   6 C :   -0.175017
   7 S :    0.211072
   8 C :    0.043089
   9 O :   -0.038493
  10 C :   -0.045206
  11 C :   -0.021563
  12 N :   -0.059924
  13 N :   -0.040693
  14 C :   -0.044503
  15 C :   -0.060885
  16 C :   -0.064003
  17 N :   -0.280063
  18 S :    0.659619
  19 N :   -0.285540
  20 C :   -0.169027
  21 S :    0.500024
  22 C :   -0.196381
  23 C :   -0.017285
  24 C :   -0.037599
  25 C :   -0.038388
  26 C :   -0.170013
  27 S :    0.215033
  28 C :    0.044959
  29 O :   -0.031354
  30 C :   -0.040526
  31 C :    0.066169
  32 N :    0.013602
  33 C :    0.073379
  34 O :   -0.191654
  35 C :   -0.104220
  36 C :   -0.130562
  37 C :    0.073959
  38 O :   -0.190322
  39 N :    0.033650
  40 C :    0.037043
  41 C :    0.054900
  42 O :    0.044471
  43 C :   -0.098973
  44 C :    0.087843
  45 O :   -0.165900
  46 N :   -0.002930
  47 C :    0.088686
  48 O :   -0.153299
  49 C :   -0.103310
  50 C :    0.082024
  51 C :   -0.047199
  52 C :    0.007505
  53 H :    0.025236
  54 H :    0.026655
  55 H :   -0.014002
  56 H :    0.075654
  57 H :    0.037291
  58 H :    0.027546
  59 H :   -0.008057
  60 H :    0.077714
  61 H :    0.037557
  62 H :    0.073927
  63 H :    0.084740
  64 H :    0.096045
  65 H :    0.045118
  66 H :    0.038622
  67 H :    0.031540

  Mayer bond orders larger than 0.100000
B(  0-C ,  1-S ) :   1.2186 B(  0-C ,  2-C ) :   0.1063 B(  0-C ,  4-C ) :   1.3846
B(  0-C , 53-H ) :   0.9701 B(  1-S ,  2-C ) :   1.1600 B(  2-C ,  3-C ) :   1.3040
B(  2-C , 11-C ) :   1.2357 B(  3-C ,  4-C ) :   1.1907 B(  3-C , 10-C ) :   1.2290
B(  4-C ,  5-C ) :   1.1876 B(  5-C ,  6-C ) :   1.5524 B(  5-C , 54-H ) :   0.9892
B(  6-C ,  7-S ) :   1.0034 B(  6-C ,  8-C ) :   1.1812 B(  7-S , 55-H ) :   0.9536
B(  8-C ,  9-O ) :   1.2749 B(  8-C , 10-C ) :   1.4387 B(  9-O , 56-H ) :   0.9489
B( 10-C , 57-H ) :   1.0044 B( 11-C , 12-N ) :   1.6206 B( 11-C , 16-C ) :   1.0804
B( 12-N , 13-N ) :   1.2472 B( 13-N , 14-C ) :   1.6264 B( 14-C , 15-C ) :   1.0909
B( 14-C , 20-C ) :   1.1944 B( 15-C , 16-C ) :   1.2066 B( 15-C , 19-N ) :   1.5387
B( 16-C , 17-N ) :   1.5361 B( 17-N , 18-S ) :   1.2626 B( 17-N , 19-N ) :   0.1412
B( 18-S , 19-N ) :   1.2526 B( 20-C , 21-S ) :   1.1872 B( 20-C , 22-C ) :   0.1150
B( 20-C , 24-C ) :   1.3038 B( 21-S , 22-C ) :   1.0784 B( 22-C , 23-C ) :   1.3080
B( 22-C , 31-C ) :   1.1777 B( 23-C , 24-C ) :   1.1836 B( 23-C , 30-C ) :   1.2107
B( 24-C , 25-C ) :   1.2744 B( 25-C , 26-C ) :   1.4738 B( 25-C , 58-H ) :   0.9675
B( 26-C , 27-S ) :   1.0184 B( 26-C , 28-C ) :   1.1890 B( 27-S , 59-H ) :   0.9518
B( 28-C , 29-O ) :   1.2890 B( 28-C , 30-C ) :   1.4868 B( 29-O , 60-H ) :   0.9492
B( 30-C , 61-H ) :   0.9903 B( 31-C , 32-N ) :   1.2091 B( 31-C , 36-C ) :   1.3666
B( 32-N , 33-C ) :   1.0596 B( 32-N , 62-H ) :   0.9111 B( 33-C , 34-O ) :   2.2282
B( 33-C , 35-C ) :   0.9387 B( 35-C , 36-C ) :   1.1977 B( 35-C , 40-C ) :   1.3957
B( 36-C , 37-C ) :   0.9643 B( 37-C , 38-O ) :   2.1252 B( 37-C , 39-N ) :   1.0718
B( 39-N , 40-C ) :   1.2743 B( 39-N , 63-H ) :   0.8862 B( 40-C , 41-C ) :   1.0860
B( 41-C , 42-O ) :   1.2147 B( 41-C , 43-C ) :   1.4133 B( 42-O , 50-C ) :   1.1628
B( 43-C , 44-C ) :   0.8865 B( 43-C , 49-C ) :   1.2599 B( 44-C , 45-O ) :   2.1733
B( 44-C , 46-N ) :   1.1111 B( 46-N , 47-C ) :   1.0634 B( 46-N , 64-H ) :   0.9141
B( 47-C , 48-O ) :   2.2768 B( 47-C , 49-C ) :   0.8778 B( 49-C , 50-C ) :   1.4156
B( 50-C , 51-C ) :   1.1476 B( 51-C , 52-C ) :   1.8913 B( 51-C , 65-H ) :   0.9537
B( 52-C , 66-H ) :   0.9521 B( 52-C , 67-H ) :   0.9460

-----------------------------------------------------------------------------
         ABSORPTION SPECTRUM VIA TRANSITION ELECTRIC DIPOLE MOMENTS
-----------------------------------------------------------------------------
State   Energy  Wavelength   fosc         T2         TX        TY        TZ
        (cm-1)    (nm)                  (au**2)     (au)      (au)      (au)
-----------------------------------------------------------------------------
   0   10733.5    931.7   1.038692096  31.85832   3.34195   4.41073  -1.11140
   1   17116.1    584.2   0.018603742   0.35782  -0.45558   0.25809   0.28925
   2   18117.7    551.9   0.312851128   5.68474  -1.46955  -1.49451   1.13648
   3   18661.5    535.9   0.000317538   0.00560   0.06109   0.03886  -0.01897
   4   20261.8    493.5   0.065319589   1.06131   0.58946   0.56931  -0.62428
   5   22213.1    450.2   0.139866402   2.07290   0.08034   0.47330   1.35736
   6   24433.7    409.3   0.049493367   0.66686   0.10274   0.08560  -0.80559
   7   24957.7    400.7   0.008486352   0.11194   0.03176  -0.33059   0.04051
   8   26142.6    382.5   0.061100336   0.76943  -0.44543  -0.39551  -0.64389
   9   26783.1    373.4   0.024201186   0.29748   0.17179   0.51534  -0.04888
  10   27006.0    370.3   0.003879276   0.04729  -0.04623  -0.03418   0.20972
  11   27506.7    363.5   0.129489596   1.54979  -0.65503  -1.04657   0.15943
  12   29135.6    343.2   0.175550531   1.98360   0.18092   0.55954   1.27976
  13   29397.2    340.2   0.153567495   1.71976  -0.68723  -0.90153   0.65933
  14   29639.3    337.4   0.037932940   0.42133   0.16634   0.18864  -0.59839
  15   30207.0    331.0   0.047708353   0.51995   0.26830   0.24078  -0.62449
  16   30501.7    327.9   0.004182599   0.04514   0.17216  -0.12435   0.00663
  17   30611.8    326.7   0.004405645   0.04738   0.06649   0.12795   0.16306
  18   31123.9    321.3   0.001135504   0.01201   0.05589   0.04861   0.08078
  19   33200.9    301.2   0.047123015   0.46726  -0.31615  -0.60221  -0.06818
  20   33594.4    297.7   0.026132420   0.25609  -0.12983  -0.45995  -0.16638
  21   34556.1    289.4   0.101011331   0.96232   0.00253  -0.03429   0.98038
  22   34822.5    287.2   0.004040702   0.03820   0.06713  -0.14090  -0.11765
  23   35009.1    285.6   0.022415520   0.21079  -0.21921  -0.40079  -0.04581
  24   35294.7    283.3   0.022673107   0.21148   0.03142  -0.12588   0.44119
  25   35464.1    282.0   0.007541354   0.07001   0.02101  -0.04307  -0.26021
  26   36229.0    276.0   0.001782590   0.01620   0.06982   0.07734  -0.07309
  27   36316.9    275.4   0.041417744   0.37545   0.39221   0.39157  -0.26133
  28   36393.7    274.8   0.044299135   0.40072  -0.11889  -0.09269   0.61481
  29   36895.9    271.0   0.069575778   0.62081  -0.40250  -0.33804   0.58697
  30   37065.6    269.8   0.023230116   0.20633   0.04735  -0.08296   0.44407
  31   37477.1    266.8   0.159301484   1.39936  -0.19637  -0.54229  -1.03282
  32   37677.2    265.4   0.002974185   0.02599  -0.06794   0.07905   0.12297
  33   38149.5    262.1   0.155296266   1.34013  -0.45053  -0.56121   0.90675
  34   38405.5    260.4   0.021050631   0.18045  -0.11884  -0.01361   0.40760
  35   38612.4    259.0   0.083568879   0.71251  -0.33088  -0.59963   0.49343
  36   38877.2    257.2   0.006237866   0.05282  -0.09746  -0.17883  -0.10650
  37   38941.7    256.8   0.004796255   0.04055   0.01611  -0.09765  -0.17537
  38   39481.2    253.3   0.028089434   0.23422   0.23541   0.42157   0.03295
  39   39669.0    252.1   0.007288449   0.06049   0.02108   0.19701   0.14570
  40   40094.6    249.4   0.002199865   0.01806   0.08189  -0.10610   0.00994
  41   40183.6    248.9   0.007483539   0.06131   0.03933   0.24395   0.01582

FINAL SINGLE POINT ENERGY     -4202.136617526431

DIPOLE MOMENT
-------------
                                X             Y             Z
Electronic contribution:      0.58660       3.61988       6.44600
Nuclear contribution   :      1.95947      -0.21620      -5.86804
                        -----------------------------------------
Total Dipole Moment    :      2.54606       3.40368       0.57796
                        -----------------------------------------
Magnitude (a.u.)       :      4.28970
Magnitude (Debye)      :     10.90355

Rotational constants in cm-1:     0.003419     0.000491     0.000433
Rotational constants in MHz :   102.513894    14.721531    12.989509

                             ****ORCA TERMINATED NORMALLY****
TOTAL RUN TIME: 0 days 0 hours 5 minutes 8 seconds 843 msec
