                         Program Version 4.2.0 -  RELEASE  -
|  1> # ORCA input file
|  2> # SCF done       -176.239096720458          0.000704186855
|  3> ! CAM-B3LYP def2-SVP def2/J RIJCOSX Grid4 TightSCF
|  4> %maxcore 5000
|  5> %tddft
|  6>     Mode sTDDFT
|  7>     Ethresh 5.0
|  8>     maxcore 5000
|  9> end
| 10>
| 11> %pal
| 12>   nprocs 6
| 13>   end
| 14> * xyz 0 1
| 15>    C       -8.25519        -7.62768         9.18470
| 16>    S       -9.89983        -7.70227         8.71376
| 17>    C       -9.58252        -6.72850         7.18189
| 18>    O      -10.48105        -6.47230         6.42639
| 19>    C       -8.17714        -6.41894         7.16310
| 20>    C       -7.47892        -6.94073         8.30226
| 21>    C       -6.06150        -6.66644         8.34164
| 22>    O       -5.22259        -6.95567         9.13939
| 23>    S       -5.69787        -5.70486         6.82353
| 24>    C       -7.36192        -5.73252         6.27466
| 25>    C       -7.61627        -5.08119         5.03792
| 26>    C       -8.83074        -4.97591         4.44203
| 27>    C       -9.10034        -4.35829         3.19264
| 28>    S      -10.73021        -4.40481         2.60705
| 29>    C      -10.30953        -3.60369         1.12541
| 30>    C       -8.96280        -3.26735         1.12337
| 31>    C       -8.27261        -3.70111         2.27763
| 32>    C       -6.88869        -3.51499         2.46852
| 33>    N       -5.75993        -3.38203         2.61633
| 34>    C       -8.30438        -2.45867         0.04441
| 35>    F       -9.12608        -1.51631        -0.44993
| 36>    F       -7.22003        -1.80919         0.47493
| 37>    F       -7.91482        -3.21524        -0.99512
| 38>    C      -11.33989        -3.44238         0.15433
| 39>    C      -11.19245        -3.35131        -1.18870
| 40>    C      -12.29771        -3.24865        -2.06895
| 41>    S      -13.95059        -3.08908        -1.51316
| 42>    C      -14.62796        -3.07024        -3.22017
| 43>    O      -15.80124        -2.97624        -3.44004
| 44>    C      -13.49745        -3.18741        -4.10285
| 45>    C      -12.24298        -3.27683        -3.45162
| 46>    C      -11.11544        -3.41552        -4.34105
| 47>    O       -9.94558        -3.52624        -4.12922
| 48>    S      -11.80273        -3.41664        -6.05187
| 49>    C      -13.44913        -3.25428        -5.48741
| 50>    C      -14.57383        -3.22640        -6.33954
| 51>    C      -14.51976        -3.34193        -7.69130
| 52>    C      -15.66684        -3.35043        -8.51950
| 53>    S      -17.27957        -3.20075        -7.90712
| 54>    C      -17.97633        -3.37608        -9.49007
| 55>    C      -16.98181        -3.50074       -10.45344
| 56>    C      -15.68077        -3.49535        -9.90976
| 57>    C      -14.48114        -3.64288       -10.63471
| 58>    N      -13.47953        -3.77656       -11.17426
| 59>    C      -17.23483        -3.56884       -11.92853
| 60>    F      -18.19240        -2.70999       -12.31944
| 61>    F      -16.15474        -3.27644       -12.65458
| 62>    F      -17.63923        -4.79261       -12.32392
| 63>    C      -19.40019        -3.37401        -9.55181
| 64>    C      -20.17420        -3.89442       -10.53365
| 65>    C      -21.59631        -3.90006       -10.54102
| 66>    S      -22.34862        -4.69664       -11.90705
| 67>    C      -24.04534        -4.35927       -11.31170
| 68>    O      -25.01936        -4.71625       -11.90914
| 69>    C      -23.89583        -3.63689       -10.07469
| 70>    C      -22.54864        -3.39569        -9.66660
| 71>    C      -22.46047        -2.67348        -8.42075
| 72>    O      -21.52219        -2.30188        -7.76829
| 73>    S      -24.16690        -2.34345        -7.85855
| 74>    C      -24.87311        -3.14899        -9.23318
| 75>    C      -26.28663        -3.26598        -9.42358
| 76>    C      -27.19380        -2.77574        -8.57699
| 77>    H       -7.93056        -8.09677        10.09457
| 78>    H       -6.74220        -4.65399         4.56712
| 79>    H       -9.69780        -5.40310         4.92752
| 80>    H      -12.34750        -3.47841         0.55245
| 81>    H      -10.22631        -3.39600        -1.67083
| 82>    H      -15.53099        -3.11958        -5.84223
| 83>    H      -13.56227        -3.44853        -8.18657
| 84>    H      -19.87764        -2.95361        -8.67658
| 85>    H      -19.73472        -4.38471       -11.38959
| 86>    H      -26.58162        -3.79223       -10.32186
| 87>    H      -26.90001        -2.25180        -7.68145
| 88>    H      -28.24815        -2.88649        -8.75727
| 89> *
| 90>
| 91>                          ****END OF INPUT****

CARTESIAN COORDINATES (ANGSTROEM)
---------------------------------
  C     -8.255190   -7.627680    9.184700
  S     -9.899830   -7.702270    8.713760
  C     -9.582520   -6.728500    7.181890
  O    -10.481050   -6.472300    6.426390
  C     -8.177140   -6.418940    7.163100
  C     -7.478920   -6.940730    8.302260
  C     -6.061500   -6.666440    8.341640
  O     -5.222590   -6.955670    9.139390
  S     -5.697870   -5.704860    6.823530
  C     -7.361920   -5.732520    6.274660
  C     -7.616270   -5.081190    5.037920
  C     -8.830740   -4.975910    4.442030
  C     -9.100340   -4.358290    3.192640
  S    -10.730210   -4.404810    2.607050
  C    -10.309530   -3.603690    1.125410
  C     -8.962800   -3.267350    1.123370
  C     -8.272610   -3.701110    2.277630
  C     -6.888690   -3.514990    2.468520
  N     -5.759930   -3.382030    2.616330
  C     -8.304380   -2.458670    0.044410
  F     -9.126080   -1.516310   -0.449930
  F     -7.220030   -1.809190    0.474930
  F     -7.914820   -3.215240   -0.995120
  C    -11.339890   -3.442380    0.154330
  C    -11.192450   -3.351310   -1.188700
  C    -12.297710   -3.248650   -2.068950
  S    -13.950590   -3.089080   -1.513160
  C    -14.627960   -3.070240   -3.220170
  O    -15.801240   -2.976240   -3.440040
  C    -13.497450   -3.187410   -4.102850
  C    -12.242980   -3.276830   -3.451620
  C    -11.115440   -3.415520   -4.341050
  O     -9.945580   -3.526240   -4.129220
  S    -11.802730   -3.416640   -6.051870
  C    -13.449130   -3.254280   -5.487410
  C    -14.573830   -3.226400   -6.339540
  C    -14.519760   -3.341930   -7.691300
  C    -15.666840   -3.350430   -8.519500
  S    -17.279570   -3.200750   -7.907120
  C    -17.976330   -3.376080   -9.490070
  C    -16.981810   -3.500740  -10.453440
  C    -15.680770   -3.495350   -9.909760
  C    -14.481140   -3.642880  -10.634710
  N    -13.479530   -3.776560  -11.174260
  C    -17.234830   -3.568840  -11.928530
  F    -18.192400   -2.709990  -12.319440
  F    -16.154740   -3.276440  -12.654580
  F    -17.639230   -4.792610  -12.323920
  C    -19.400190   -3.374010   -9.551810
  C    -20.174200   -3.894420  -10.533650
  C    -21.596310   -3.900060  -10.541020
  S    -22.348620   -4.696640  -11.907050
  C    -24.045340   -4.359270  -11.311700
  O    -25.019360   -4.716250  -11.909140
  C    -23.895830   -3.636890  -10.074690
  C    -22.548640   -3.395690   -9.666600
  C    -22.460470   -2.673480   -8.420750
  O    -21.522190   -2.301880   -7.768290
  S    -24.166900   -2.343450   -7.858550
  C    -24.873110   -3.148990   -9.233180
  C    -26.286630   -3.265980   -9.423580
  C    -27.193800   -2.775740   -8.576990
  H     -7.930560   -8.096770   10.094570
  H     -6.742200   -4.653990    4.567120
  H     -9.697800   -5.403100    4.927520
  H    -12.347500   -3.478410    0.552450
  H    -10.226310   -3.396000   -1.670830
  H    -15.530990   -3.119580   -5.842230
  H    -13.562270   -3.448530   -8.186570
  H    -19.877640   -2.953610   -8.676580
  H    -19.734720   -4.384710  -11.389590
  H    -26.581620   -3.792230  -10.321860
  H    -26.900010   -2.251800   -7.681450
  H    -28.248150   -2.886490   -8.757270

 Total Charge           Charge          ....    0
 Multiplicity           Mult            ....    1
 Number of Electrons    NEL             ....  496
 Basis Dimension        Dim             ....  960

ORBITAL ENERGIES
----------------

  NO   OCC          E(Eh)            E(eV)
   0   2.0000     -89.005029     -2421.9500
   1   2.0000     -89.003358     -2421.9045
   2   2.0000     -88.964075     -2420.8356
   3   2.0000     -88.963847     -2420.8293
   4   2.0000     -88.963172     -2420.8110
   5   2.0000     -88.961787     -2420.7733
   6   2.0000     -88.959842     -2420.7204
   7   2.0000     -88.958975     -2420.6968
   8   2.0000     -24.818671      -675.3504
   9   2.0000     -24.816339      -675.2869
  10   2.0000     -24.815419      -675.2619
  11   2.0000     -24.815310      -675.2589
  12   2.0000     -24.813071      -675.1980
  13   2.0000     -24.812945      -675.1946
  14   2.0000     -19.239336      -523.5290
  15   2.0000     -19.238850      -523.5157
  16   2.0000     -19.238335      -523.5017
  17   2.0000     -19.238077      -523.4947
  18   2.0000     -19.231264      -523.3093
  19   2.0000     -19.231263      -523.3093
  20   2.0000     -14.428577      -392.6215
  21   2.0000     -14.424964      -392.5232
  22   2.0000     -10.541848      -286.8583
  23   2.0000     -10.539513      -286.7947
  24   2.0000     -10.404747      -283.1276
  25   2.0000     -10.404722      -283.1269
  26   2.0000     -10.403538      -283.0947
  27   2.0000     -10.403040      -283.0811
  28   2.0000     -10.397650      -282.9344
  29   2.0000     -10.397590      -282.9328
  30   2.0000     -10.357339      -281.8375
  31   2.0000     -10.357261      -281.8354
  32   2.0000     -10.356888      -281.8252
  33   2.0000     -10.356224      -281.8072
  34   2.0000     -10.355222      -281.7799
  35   2.0000     -10.355107      -281.7768
  36   2.0000     -10.353887      -281.7436
  37   2.0000     -10.353605      -281.7359
  38   2.0000     -10.352381      -281.7026
  39   2.0000     -10.351371      -281.6751
  40   2.0000     -10.347623      -281.5731
  41   2.0000     -10.339524      -281.3527
  42   2.0000     -10.339179      -281.3434
  43   2.0000     -10.338061      -281.3129
  44   2.0000     -10.329482      -281.0795
  45   2.0000     -10.329146      -281.0704
  46   2.0000     -10.328955      -281.0652
  47   2.0000     -10.325229      -280.9638
  48   2.0000     -10.322677      -280.8943
  49   2.0000     -10.319281      -280.8019
  50   2.0000     -10.318700      -280.7861
  51   2.0000     -10.318064      -280.7688
  52   2.0000     -10.316792      -280.7342
  53   2.0000     -10.316095      -280.7152
  54   2.0000     -10.310228      -280.5556
  55   2.0000     -10.308948      -280.5207
  56   2.0000     -10.307345      -280.4771
  57   2.0000     -10.306419      -280.4519
  58   2.0000     -10.302975      -280.3582
  59   2.0000     -10.302546      -280.3465
  60   2.0000     -10.301138      -280.3082
  61   2.0000     -10.300295      -280.2853
  62   2.0000      -8.100941      -220.4378
  63   2.0000      -8.098856      -220.3811
  64   2.0000      -8.061698      -219.3700
  65   2.0000      -8.061455      -219.3634
  66   2.0000      -8.060448      -219.3359
  67   2.0000      -8.059347      -219.3060
  68   2.0000      -8.057554      -219.2572
  69   2.0000      -8.056759      -219.2356
  70   2.0000      -6.069984      -165.1727
  71   2.0000      -6.067899      -165.1159
  72   2.0000      -6.065818      -165.0593
  73   2.0000      -6.063804      -165.0045
  74   2.0000      -6.063345      -164.9920
  75   2.0000      -6.061247      -164.9349
  76   2.0000      -6.030990      -164.1116
  77   2.0000      -6.030810      -164.1067
  78   2.0000      -6.029777      -164.0786
  79   2.0000      -6.028659      -164.0481
  80   2.0000      -6.026893      -164.0001
  81   2.0000      -6.026875      -163.9996
  82   2.0000      -6.026850      -163.9989
  83   2.0000      -6.026047      -163.9771
  84   2.0000      -6.025885      -163.9727
  85   2.0000      -6.024748      -163.9417
  86   2.0000      -6.023105      -163.8970
  87   2.0000      -6.022891      -163.8912
  88   2.0000      -6.022642      -163.8844
  89   2.0000      -6.022069      -163.8688
  90   2.0000      -6.021639      -163.8571
  91   2.0000      -6.020559      -163.8277
  92   2.0000      -6.018811      -163.7802
  93   2.0000      -6.018003      -163.7582
  94   2.0000      -1.408468       -38.3264
  95   2.0000      -1.405799       -38.2537
  96   2.0000      -1.311220       -35.6801
  97   2.0000      -1.308010       -35.5928
  98   2.0000      -1.307154       -35.5695
  99   2.0000      -1.305199       -35.5163
 100   2.0000      -1.162592       -31.6357
 101   2.0000      -1.160754       -31.5857
 102   2.0000      -1.160190       -31.5704
 103   2.0000      -1.160047       -31.5665
 104   2.0000      -1.154535       -31.4165
 105   2.0000      -1.154067       -31.4038
 106   2.0000      -1.044589       -28.4247
 107   2.0000      -1.043515       -28.3955
 108   2.0000      -1.017543       -27.6888
 109   2.0000      -1.012220       -27.5439
 110   2.0000      -1.010240       -27.4900
 111   2.0000      -1.009484       -27.4695
 112   2.0000      -1.005423       -27.3590
 113   2.0000      -0.974539       -26.5186
 114   2.0000      -0.966799       -26.3079
 115   2.0000      -0.961582       -26.1660
 116   2.0000      -0.945143       -25.7186
 117   2.0000      -0.936311       -25.4783
 118   2.0000      -0.921543       -25.0765
 119   2.0000      -0.917657       -24.9707
 120   2.0000      -0.902897       -24.5691
 121   2.0000      -0.898744       -24.4561
 122   2.0000      -0.891737       -24.2654
 123   2.0000      -0.876829       -23.8597
 124   2.0000      -0.874952       -23.8087
 125   2.0000      -0.845688       -23.0123
 126   2.0000      -0.843791       -22.9607
 127   2.0000      -0.842142       -22.9159
 128   2.0000      -0.841056       -22.8863
 129   2.0000      -0.835140       -22.7253
 130   2.0000      -0.830855       -22.6087
 131   2.0000      -0.813338       -22.1321
 132   2.0000      -0.801769       -21.8172
 133   2.0000      -0.794808       -21.6278
 134   2.0000      -0.776295       -21.1241
 135   2.0000      -0.767685       -20.8898
 136   2.0000      -0.755001       -20.5446
 137   2.0000      -0.737535       -20.0693
 138   2.0000      -0.730504       -19.8780
 139   2.0000      -0.723656       -19.6917
 140   2.0000      -0.721651       -19.6371
 141   2.0000      -0.710731       -19.3400
 142   2.0000      -0.708001       -19.2657
 143   2.0000      -0.704019       -19.1573
 144   2.0000      -0.703417       -19.1410
 145   2.0000      -0.694546       -18.8996
 146   2.0000      -0.691465       -18.8157
 147   2.0000      -0.690389       -18.7864
 148   2.0000      -0.687755       -18.7148
 149   2.0000      -0.686059       -18.6686
 150   2.0000      -0.680504       -18.5174
 151   2.0000      -0.673125       -18.3167
 152   2.0000      -0.661328       -17.9957
 153   2.0000      -0.655899       -17.8479
 154   2.0000      -0.646149       -17.5826
 155   2.0000      -0.640557       -17.4304
 156   2.0000      -0.636213       -17.3122
 157   2.0000      -0.629066       -17.1178
 158   2.0000      -0.628752       -17.1092
 159   2.0000      -0.621026       -16.8990
 160   2.0000      -0.607953       -16.5432
 161   2.0000      -0.596711       -16.2373
 162   2.0000      -0.592469       -16.1219
 163   2.0000      -0.588693       -16.0192
 164   2.0000      -0.585088       -15.9210
 165   2.0000      -0.579469       -15.7682
 166   2.0000      -0.574628       -15.6364
 167   2.0000      -0.568023       -15.4567
 168   2.0000      -0.566907       -15.4263
 169   2.0000      -0.566304       -15.4099
 170   2.0000      -0.561137       -15.2693
 171   2.0000      -0.559402       -15.2221
 172   2.0000      -0.556243       -15.1361
 173   2.0000      -0.555849       -15.1254
 174   2.0000      -0.553785       -15.0692
 175   2.0000      -0.553052       -15.0493
 176   2.0000      -0.551740       -15.0136
 177   2.0000      -0.550099       -14.9690
 178   2.0000      -0.548154       -14.9160
 179   2.0000      -0.547218       -14.8906
 180   2.0000      -0.542766       -14.7694
 181   2.0000      -0.540978       -14.7208
 182   2.0000      -0.537513       -14.6265
 183   2.0000      -0.535311       -14.5666
 184   2.0000      -0.534369       -14.5409
 185   2.0000      -0.531325       -14.4581
 186   2.0000      -0.529197       -14.4002
 187   2.0000      -0.528421       -14.3791
 188   2.0000      -0.522891       -14.2286
 189   2.0000      -0.519104       -14.1255
 190   2.0000      -0.517779       -14.0895
 191   2.0000      -0.516910       -14.0658
 192   2.0000      -0.515194       -14.0191
 193   2.0000      -0.511915       -13.9299
 194   2.0000      -0.511491       -13.9184
 195   2.0000      -0.510007       -13.8780
 196   2.0000      -0.508016       -13.8238
 197   2.0000      -0.504365       -13.7245
 198   2.0000      -0.502710       -13.6794
 199   2.0000      -0.500018       -13.6062
 200   2.0000      -0.499676       -13.5969
 201   2.0000      -0.498157       -13.5555
 202   2.0000      -0.492915       -13.4129
 203   2.0000      -0.488814       -13.3013
 204   2.0000      -0.488382       -13.2896
 205   2.0000      -0.483896       -13.1675
 206   2.0000      -0.474916       -12.9231
 207   2.0000      -0.472929       -12.8691
 208   2.0000      -0.470590       -12.8054
 209   2.0000      -0.466062       -12.6822
 210   2.0000      -0.464137       -12.6298
 211   2.0000      -0.463731       -12.6187
 212   2.0000      -0.462206       -12.5773
 213   2.0000      -0.461602       -12.5608
 214   2.0000      -0.455730       -12.4010
 215   2.0000      -0.455303       -12.3894
 216   2.0000      -0.454670       -12.3722
 217   2.0000      -0.453257       -12.3338
 218   2.0000      -0.452949       -12.3254
 219   2.0000      -0.450110       -12.2481
 220   2.0000      -0.449727       -12.2377
 221   2.0000      -0.445563       -12.1244
 222   2.0000      -0.444984       -12.1086
 223   2.0000      -0.438302       -11.9268
 224   2.0000      -0.435994       -11.8640
 225   2.0000      -0.426242       -11.5986
 226   2.0000      -0.420416       -11.4401
 227   2.0000      -0.419681       -11.4201
 228   2.0000      -0.411004       -11.1840
 229   2.0000      -0.377646       -10.2763
 230   2.0000      -0.369929       -10.0663
 231   2.0000      -0.363586        -9.8937
 232   2.0000      -0.362883        -9.8746
 233   2.0000      -0.358075        -9.7437
 234   2.0000      -0.356299        -9.6954
 235   2.0000      -0.355552        -9.6751
 236   2.0000      -0.354456        -9.6452
 237   2.0000      -0.353930        -9.6309
 238   2.0000      -0.348944        -9.4953
 239   2.0000      -0.347815        -9.4645
 240   2.0000      -0.342938        -9.3318
 241   2.0000      -0.339057        -9.2262
 242   2.0000      -0.339036        -9.2256
 243   2.0000      -0.326275        -8.8784
 244   2.0000      -0.320566        -8.7230
 245   2.0000      -0.290640        -7.9087
 246   2.0000      -0.281337        -7.6556
 247   2.0000      -0.267014        -7.2658
 248   0.0000      -0.131503        -3.5784
 249   0.0000      -0.111507        -3.0343
 250   0.0000      -0.098163        -2.6711
 251   0.0000      -0.067648        -1.8408
 252   0.0000      -0.045752        -1.2450

MULLIKEN ATOMIC CHARGES
-----------------------
   0 C :   -0.074846
   1 S :    0.061347
   2 C :    0.032353
   3 O :   -0.165871
   4 C :    0.074345
   5 C :    0.044767
   6 C :    0.057236
   7 O :   -0.126288
   8 S :    0.058434
   9 C :   -0.103700
  10 C :    0.029089
  11 C :    0.079893
  12 C :   -0.090501
  13 S :    0.213424
  14 C :   -0.137416
  15 C :   -0.021137
  16 C :   -0.054455
  17 C :   -0.225166
  18 N :    0.158259
  19 C :    0.530036
  20 F :   -0.156979
  21 F :   -0.136497
  22 F :   -0.147877
  23 C :    0.050989
  24 C :    0.002631
  25 C :   -0.098269
  26 S :    0.036298
  27 C :    0.041308
  28 O :   -0.143743
  29 C :    0.068801
  30 C :    0.077237
  31 C :    0.039278
  32 O :   -0.126861
  33 S :    0.052440
  34 C :   -0.073754
  35 C :   -0.031226
  36 C :    0.025455
  37 C :   -0.065541
  38 S :    0.203752
  39 C :   -0.131612
  40 C :   -0.029497
  41 C :   -0.038186
  42 C :   -0.243945
  43 N :    0.167171
  44 C :    0.530763
  45 F :   -0.156887
  46 F :   -0.133145
  47 F :   -0.157825
  48 C :    0.056050
  49 C :    0.052201
  50 C :   -0.123822
  51 S :    0.057225
  52 C :    0.040067
  53 O :   -0.144195
  54 C :    0.053499
  55 C :    0.083956
  56 C :    0.046426
  57 O :   -0.162781
  58 S :    0.057087
  59 C :   -0.100081
  60 C :   -0.010990
  61 C :    0.010655
  62 H :    0.053623
  63 H :    0.006056
  64 H :    0.006884
  65 H :    0.018322
  66 H :    0.031980
  67 H :    0.027501
  68 H :    0.036430
  69 H :    0.022129
  70 H :    0.002498
  71 H :    0.028664
  72 H :    0.040196
  73 H :    0.046340
Sum of atomic charges:   -0.0000000

LOEWDIN ATOMIC CHARGES
----------------------
   0 C :   -0.092376
   1 S :    0.358338
   2 C :   -0.034450
   3 O :   -0.148915
   4 C :   -0.141712
   5 C :   -0.139359
   6 C :   -0.037298
   7 O :   -0.127499
   8 S :    0.351102
   9 C :   -0.078221
  10 C :   -0.037203
  11 C :    0.002368
  12 C :   -0.140633
  13 S :    0.516664
  14 C :   -0.145163
  15 C :   -0.089629
  16 C :   -0.078821
  17 C :   -0.037442
  18 N :   -0.029838
  19 C :    0.169885
  20 F :   -0.052645
  21 F :   -0.031850
  22 F :   -0.050549
  23 C :   -0.026768
  24 C :   -0.015115
  25 C :   -0.093329
  26 S :    0.333341
  27 C :   -0.035429
  28 O :   -0.139755
  29 C :   -0.131472
  30 C :   -0.125948
  31 C :   -0.031905
  32 O :   -0.124525
  33 S :    0.338955
  34 C :   -0.091424
  35 C :   -0.034115
  36 C :   -0.003011
  37 C :   -0.142576
  38 S :    0.518251
  39 C :   -0.136012
  40 C :   -0.095208
  41 C :   -0.076242
  42 C :   -0.044362
  43 N :   -0.029192
  44 C :    0.171538
  45 F :   -0.053587
  46 F :   -0.029041
  47 F :   -0.059535
  48 C :   -0.008086
  49 C :   -0.032938
  50 C :   -0.088346
  51 S :    0.351645
  52 C :   -0.039543
  53 O :   -0.139772
  54 C :   -0.135423
  55 C :   -0.133902
  56 C :   -0.034240
  57 O :   -0.146312
  58 S :    0.352858
  59 C :   -0.087212
  60 C :   -0.042927
  61 C :    0.009764
  62 H :    0.040507
  63 H :    0.037784
  64 H :    0.032745
  65 H :    0.029994
  66 H :    0.038942
  67 H :    0.036156
  68 H :    0.044012
  69 H :    0.033672
  70 H :    0.026469
  71 H :    0.044544
  72 H :    0.024871
  73 H :    0.036451

  Mayer bond orders larger than 0.100000
B(  0-C ,  1-S ) :   1.1435 B(  0-C ,  5-C ) :   1.5640 B(  0-C , 62-H ) :   0.9675
B(  1-S ,  2-C ) :   1.0064 B(  2-C ,  3-O ) :   2.0577 B(  2-C ,  4-C ) :   0.9607
B(  3-O , 64-H ) :   0.1196 B(  4-C ,  5-C ) :   1.1342 B(  4-C ,  9-C ) :   1.4575
B(  5-C ,  6-C ) :   0.9298 B(  6-C ,  7-O ) :   2.2240 B(  6-C ,  8-S ) :   0.9650
B(  7-O ,  8-S ) :   0.1108 B(  8-S ,  9-C ) :   1.1140 B(  9-C , 10-C ) :   1.1883
B( 10-C , 11-C ) :   1.6569 B( 10-C , 63-H ) :   0.9398 B( 11-C , 12-C ) :   1.1622
B( 11-C , 64-H ) :   0.9058 B( 12-C , 13-S ) :   1.1511 B( 12-C , 16-C ) :   1.4479
B( 13-S , 14-C ) :   1.1629 B( 14-C , 15-C ) :   1.4922 B( 14-C , 23-C ) :   1.1035
B( 15-C , 16-C ) :   1.3325 B( 15-C , 19-C ) :   0.9278 B( 16-C , 17-C ) :   1.1364
B( 17-C , 18-N ) :   2.9546 B( 19-C , 20-F ) :   1.1635 B( 19-C , 21-F ) :   1.1736
B( 19-C , 22-F ) :   1.1564 B( 23-C , 24-C ) :   1.6355 B( 23-C , 65-H ) :   0.9474
B( 24-C , 25-C ) :   1.2141 B( 24-C , 66-H ) :   0.9523 B( 25-C , 26-S ) :   1.0762
B( 25-C , 30-C ) :   1.4722 B( 26-S , 27-C ) :   0.9855 B( 26-S , 28-O ) :   0.1103
B( 27-C , 28-O ) :   2.1488 B( 27-C , 29-C ) :   0.9572 B( 29-C , 30-C ) :   1.1497
B( 29-C , 34-C ) :   1.4561 B( 30-C , 31-C ) :   0.9431 B( 31-C , 32-O ) :   2.1712
B( 31-C , 33-S ) :   0.9783 B( 32-O , 33-S ) :   0.1110 B( 33-S , 34-C ) :   1.0842
B( 34-C , 35-C ) :   1.2187 B( 35-C , 36-C ) :   1.5687 B( 35-C , 67-H ) :   0.9666
B( 36-C , 37-C ) :   1.1977 B( 36-C , 68-H ) :   0.9643 B( 37-C , 38-S ) :   1.1265
B( 37-C , 41-C ) :   1.4469 B( 38-S , 39-C ) :   1.1695 B( 39-C , 40-C ) :   1.4728
B( 39-C , 48-C ) :   1.1287 B( 40-C , 41-C ) :   1.3307 B( 40-C , 44-C ) :   0.9276
B( 41-C , 42-C ) :   1.1191 B( 42-C , 43-N ) :   3.0096 B( 44-C , 45-F ) :   1.1703
B( 44-C , 46-F ) :   1.1779 B( 44-C , 47-F ) :   1.1409 B( 48-C , 49-C ) :   1.6726
B( 48-C , 69-H ) :   0.9083 B( 49-C , 50-C ) :   1.1892 B( 49-C , 70-H ) :   0.9369
B( 50-C , 51-S ) :   1.1045 B( 50-C , 55-C ) :   1.4531 B( 51-S , 52-C ) :   0.9820
B( 51-S , 53-O ) :   0.1102 B( 52-C , 53-O ) :   2.1538 B( 52-C , 54-C ) :   0.9550
B( 54-C , 55-C ) :   1.1425 B( 54-C , 59-C ) :   1.5002 B( 55-C , 56-C ) :   0.9550
B( 56-C , 57-O ) :   2.0639 B( 56-C , 58-S ) :   1.0120 B( 57-O , 69-H ) :   0.1179
B( 58-S , 59-C ) :   1.0774 B( 59-C , 60-C ) :   1.1632 B( 60-C , 61-C ) :   1.8673
B( 60-C , 71-H ) :   0.9545 B( 61-C , 72-H ) :   0.9557 B( 61-C , 73-H ) :   0.9505

-----------------------------------------------------------------------------
         ABSORPTION SPECTRUM VIA TRANSITION ELECTRIC DIPOLE MOMENTS
-----------------------------------------------------------------------------
State   Energy  Wavelength   fosc         T2         TX        TY        TZ
        (cm-1)    (nm)                  (au**2)     (au)      (au)      (au)
-----------------------------------------------------------------------------
   0   15503.3    645.0   1.761470525  37.40471   3.56098  -0.66527   4.92763
   1   19552.5    511.4   0.701775489  11.81605  -2.01204  -0.56087   2.73005
   2   21035.1    475.4   0.094246608   1.47501  -0.25785   1.18442   0.07534
   3   22120.8    452.1   0.077812526   1.15804   0.62688  -0.11507  -0.86708
   4   23921.0    418.0   0.091685064   1.26181  -0.35757   0.69819   0.80405
   5   25355.7    394.4   0.044612530   0.57924   0.15452   0.37377   0.64472
   6   25760.6    388.2   0.639107954   8.16758   2.49062  -0.11665   1.39671
   7   26675.4    374.9   0.005683705   0.07014  -0.07359  -0.24924   0.05106
   8   27170.4    368.0   0.057978858   0.70250   0.80207   0.16548  -0.17835
   9   27347.5    365.7   0.005779418   0.06957   0.23753   0.10332  -0.04979
  10   27821.6    359.4   0.010069164   0.11915   0.11316  -0.05117   0.32206
  11   27859.0    359.0   0.010736187   0.12687   0.03799  -0.07561   0.34599
  12   27911.5    358.3   0.038162809   0.45012  -0.10109  -0.02787  -0.66267
  13   27968.8    357.5   0.007275030   0.08563  -0.20692  -0.12022   0.16841
  14   28036.2    356.7   0.242960426   2.85294   0.67655  -0.39724   1.49580
  15   28419.0    351.9   0.031739212   0.36767  -0.15150  -0.19086   0.55524
  16   28834.7    346.8   0.002658761   0.03036  -0.15457   0.00197  -0.08038
  17   29327.5    341.0   0.000014264   0.00016   0.00469   0.00967   0.00668
  18   30147.0    331.7   0.012795135   0.13973  -0.00776  -0.30797   0.21171
  19   30841.1    324.2   0.028249136   0.30154   0.42790   0.10323   0.32831
  20   31968.3    312.8   0.127885390   1.31697  -1.13705  -0.14361  -0.05896
  21   32357.6    309.0   0.036405410   0.37040   0.33688   0.50672  -0.01190
  22   33079.3    302.3   0.007641123   0.07605   0.22011   0.08590   0.14219
  23   33228.2    300.9   0.060824999   0.60263  -0.16286  -0.24561   0.71818
  24   34921.8    286.4   0.111898060   1.05488  -0.95628   0.06426   0.36916
  25   35185.2    284.2   0.190960283   1.78673  -1.11181   0.08158  -0.73753
  26   35801.5    279.3   0.011014508   0.10128   0.05694   0.25608  -0.18018
  27   36204.0    276.2   0.115822177   1.05320   0.85868   0.02639  -0.56141
  28   36548.2    273.6   0.015265377   0.13750   0.08693  -0.16449  -0.32077
  29   36961.0    270.6   0.011718767   0.10438   0.08185  -0.10624  -0.29393
  30   37126.5    269.3   0.093904993   0.83268  -0.50728   0.08046  -0.75424
  31   37732.8    265.0   0.150174561   1.31025  -1.09944  -0.20988  -0.23965
  32   37830.7    264.3   0.011904986   0.10360  -0.06936  -0.01780   0.31380
  33   38080.4    262.6   0.024650220   0.21311   0.45752  -0.06116  -0.00659
  34   38264.7    261.3   0.019633210   0.16891   0.37229  -0.03847   0.16981
  35   38301.4    261.1   0.026796788   0.23033  -0.31049   0.05451  -0.36188
  36   38443.6    260.1   0.049216302   0.42146   0.30577  -0.12220  -0.55950
  37   38594.4    259.1   0.002624745   0.02239  -0.06989  -0.01110  -0.13184
  38   39011.1    256.3   0.003695004   0.03118   0.05656   0.02398   0.16555
  39   39180.9    255.2   0.000673317   0.00566   0.00156  -0.01942   0.07265
  40   39419.5    253.7   0.051021117   0.42610   0.54421  -0.12289   0.33888
  41   39621.7    252.4   0.011865785   0.09859   0.01292  -0.15240   0.27423
  42   39909.7    250.6   0.094109706   0.77630  -0.67072   0.22748  -0.52411
  43   40184.2    248.9   0.000998966   0.00818  -0.02942   0.07980  -0.03082
  44   40235.5    248.5   0.007163116   0.05861   0.05559   0.22725  -0.06227

FINAL SINGLE POINT ENERGY     -5872.713642849984

DIPOLE MOMENT
-------------
                                X             Y             Z
Electronic contribution:     30.77670       5.91809     -12.44999
Nuclear contribution   :    -33.95369      -6.13306      13.92664
                        -----------------------------------------
Total Dipole Moment    :     -3.17699      -0.21498       1.47666
                        -----------------------------------------
Magnitude (a.u.)       :      3.50999
Magnitude (Debye)      :      8.92168

Rotational constants in cm-1:     0.001900     0.000218     0.000201
Rotational constants in MHz :    56.962053     6.537111     6.024430

                             ****ORCA TERMINATED NORMALLY****
TOTAL RUN TIME: 0 days 0 hours 5 minutes 50 seconds 859 msec
