                         Program Version 4.2.0 -  RELEASE  -
|  1> # ORCA input file
|  2> # SCF done       -126.291575699185          0.000518791544
|  3> ! CAM-B3LYP def2-SVP def2/J RIJCOSX Grid4 TightSCF
|  4> %maxcore 5000
|  5> %tddft
|  6>     Mode sTDDFT
|  7>     Ethresh 5.0
|  8>     maxcore 5000
|  9> end
| 10>
| 11> %pal
| 12>   nprocs 6
| 13>   end
| 14> * xyz 0 1
| 15>    C        8.86659         0.64205         2.41918
| 16>    C        7.66761         0.79629         2.97028
| 17>    C        6.52919         1.50143         2.39690
| 18>    C        5.29247         1.47247         3.09848
| 19>    C        4.18638         2.11015         2.63312
| 20>    C        4.23648         2.83378         1.41937
| 21>    C        3.19827         3.51549         0.78342
| 22>    C        1.84855         3.73075         1.17845
| 23>    S        1.36218         3.52932         2.84591
| 24>    C       -0.27157         4.01713         2.50070
| 25>    C       -1.28876         4.08331         3.49485
| 26>    S       -2.89758         4.57274         3.01625
| 27>    C       -3.46487         4.41952         4.62959
| 28>    C       -2.48406         4.02023         5.47759
| 29>    C       -1.23393         3.82333         4.84792
| 30>    C       -0.01409         3.38519         5.58519
| 31>    C       -0.40026         4.30700         1.16376
| 32>    C        0.77281         4.15803         0.41284
| 33>    C        0.80564         4.42672        -1.05486
| 34>    S        3.78210         4.20610        -0.70646
| 35>    C        5.36926         3.54558        -0.51767
| 36>    N        6.35737         3.93432        -1.41038
| 37>    C        6.39803         3.62155        -2.85019
| 38>    C        7.48320         2.51358        -2.93886
| 39>    N        8.13969         2.56766        -1.63256
| 40>    N        7.66593         3.73752        -0.98277
| 41>    C        8.45410         4.85698        -0.81377
| 42>    C        7.90286         6.07978        -0.47616
| 43>    C        8.69629         7.19565        -0.18339
| 44>    C       10.06606         7.15106        -0.20360
| 45>    C       10.66900         5.93015        -0.53410
| 46>    N       11.97421         5.66482        -0.62134
| 47>    S       12.17718         4.13051        -1.04047
| 48>    N       10.61993         3.71079        -1.14363
| 49>    C        9.86881         4.77194        -0.84109
| 50>    C        6.92080         1.10660        -3.19817
| 51>    C        6.07921         0.57117        -2.03962
| 52>    C        6.21574         1.15683        -4.55719
| 53>    N        5.46410        -0.04350        -4.86042
| 54>    S        4.27706         0.42593        -6.01043
| 55>    N        3.99328         1.95180        -5.26321
| 56>    C        5.27389         2.41567        -4.75442
| 57>    C        5.06666         3.29428        -3.51755
| 58>    C        4.35250         4.58209        -3.93135
| 59>    C        5.47550         2.85523         0.68837
| 60>    C        6.60407         2.18666         1.21065
| 61>    H        9.64750         0.10080         2.92533
| 62>    H        9.12097         1.04031         1.45193
| 63>    H        7.48136         0.36073         3.94433
| 64>    H        5.23958         0.92208         4.02687
| 65>    H        3.26272         2.06032         3.18564
| 66>    H       -4.49125         4.63654         4.84784
| 67>    H       -2.63950         3.86769         6.53127
| 68>    H       -0.23692         3.27916         6.64366
| 69>    H        0.79189         4.10926         5.46631
| 70>    H        0.34426         2.42852         5.20486
| 71>    H       -1.33544         4.62419         0.73549
| 72>    H       -0.20805         4.55139        -1.42677
| 73>    H        1.27911         3.60746        -1.59404
| 74>    H        1.36631         5.33683        -1.26998
| 75>    H        6.80636         4.52627        -3.32474
| 76>    H        8.17423         2.75325        -3.75942
| 77>    H        9.15870         2.58701        -1.66536
| 78>    H        6.82889         6.17259        -0.44517
| 79>    H        8.19879         8.12190         0.06202
| 80>    H       10.67712         8.00898         0.01912
| 81>    H        7.78101         0.43560        -3.29562
| 82>    H        5.08620         1.00950        -1.99512
| 83>    H        6.58967         0.79066        -1.10597
| 84>    H        5.97829        -0.50924        -2.11577
| 85>    H        6.98737         1.22724        -5.33499
| 86>    H        5.01883        -0.43275        -4.03413
| 87>    H        3.31156         1.84789        -4.51462
| 88>    H        5.71937         3.03010        -5.54648
| 89>    H        4.43012         2.75573        -2.80986
| 90>    H        4.93593         5.10836        -4.68351
| 91>    H        4.21835         5.23841        -3.07614
| 92>    H        3.37903         4.35395        -4.35600
| 93>    H        7.53133         2.21703         0.66799
| 94> *
| 95>
| 96>                          ****END OF INPUT****

CARTESIAN COORDINATES (ANGSTROEM)
---------------------------------
  C      8.866590    0.642050    2.419180
  C      7.667610    0.796290    2.970280
  C      6.529190    1.501430    2.396900
  C      5.292470    1.472470    3.098480
  C      4.186380    2.110150    2.633120
  C      4.236480    2.833780    1.419370
  C      3.198270    3.515490    0.783420
  C      1.848550    3.730750    1.178450
  S      1.362180    3.529320    2.845910
  C     -0.271570    4.017130    2.500700
  C     -1.288760    4.083310    3.494850
  S     -2.897580    4.572740    3.016250
  C     -3.464870    4.419520    4.629590
  C     -2.484060    4.020230    5.477590
  C     -1.233930    3.823330    4.847920
  C     -0.014090    3.385190    5.585190
  C     -0.400260    4.307000    1.163760
  C      0.772810    4.158030    0.412840
  C      0.805640    4.426720   -1.054860
  S      3.782100    4.206100   -0.706460
  C      5.369260    3.545580   -0.517670
  N      6.357370    3.934320   -1.410380
  C      6.398030    3.621550   -2.850190
  C      7.483200    2.513580   -2.938860
  N      8.139690    2.567660   -1.632560
  N      7.665930    3.737520   -0.982770
  C      8.454100    4.856980   -0.813770
  C      7.902860    6.079780   -0.476160
  C      8.696290    7.195650   -0.183390
  C     10.066060    7.151060   -0.203600
  C     10.669000    5.930150   -0.534100
  N     11.974210    5.664820   -0.621340
  S     12.177180    4.130510   -1.040470
  N     10.619930    3.710790   -1.143630
  C      9.868810    4.771940   -0.841090
  C      6.920800    1.106600   -3.198170
  C      6.079210    0.571170   -2.039620
  C      6.215740    1.156830   -4.557190
  N      5.464100   -0.043500   -4.860420
  S      4.277060    0.425930   -6.010430
  N      3.993280    1.951800   -5.263210
  C      5.273890    2.415670   -4.754420
  C      5.066660    3.294280   -3.517550
  C      4.352500    4.582090   -3.931350
  C      5.475500    2.855230    0.688370
  C      6.604070    2.186660    1.210650
  H      9.647500    0.100800    2.925330
  H      9.120970    1.040310    1.451930
  H      7.481360    0.360730    3.944330
  H      5.239580    0.922080    4.026870
  H      3.262720    2.060320    3.185640
  H     -4.491250    4.636540    4.847840
  H     -2.639500    3.867690    6.531270
  H     -0.236920    3.279160    6.643660
  H      0.791890    4.109260    5.466310
  H      0.344260    2.428520    5.204860
  H     -1.335440    4.624190    0.735490
  H     -0.208050    4.551390   -1.426770
  H      1.279110    3.607460   -1.594040
  H      1.366310    5.336830   -1.269980
  H      6.806360    4.526270   -3.324740
  H      8.174230    2.753250   -3.759420
  H      9.158700    2.587010   -1.665360
  H      6.828890    6.172590   -0.445170
  H      8.198790    8.121900    0.062020
  H     10.677120    8.008980    0.019120
  H      7.781010    0.435600   -3.295620
  H      5.086200    1.009500   -1.995120
  H      6.589670    0.790660   -1.105970
  H      5.978290   -0.509240   -2.115770
  H      6.987370    1.227240   -5.334990
  H      5.018830   -0.432750   -4.034130
  H      3.311560    1.847890   -4.514620
  H      5.719370    3.030100   -5.546480
  H      4.430120    2.755730   -2.809860
  H      4.935930    5.108360   -4.683510
  H      4.218350    5.238410   -3.076140
  H      3.379030    4.353950   -4.356000
  H      7.531330    2.217030    0.667990

 Total Charge           Charge          ....    0
 Multiplicity           Mult            ....    1
 Number of Electrons    NEL             ....  366
 Basis Dimension        Dim             ....  829

ORBITAL ENERGIES
----------------

  NO   OCC          E(Eh)            E(eV)
   0   2.0000     -89.023352     -2422.4486
   1   2.0000     -88.960139     -2420.7285
   2   2.0000     -88.946362     -2420.3536
   3   2.0000     -88.944734     -2420.3093
   4   2.0000     -88.941402     -2420.2186
   5   2.0000     -14.485992      -394.1839
   6   2.0000     -14.466892      -393.6641
   7   2.0000     -14.445428      -393.0801
   8   2.0000     -14.434063      -392.7708
   9   2.0000     -14.425132      -392.5278
  10   2.0000     -14.409290      -392.0967
  11   2.0000     -14.406431      -392.0189
  12   2.0000     -10.328245      -281.0458
  13   2.0000     -10.327239      -281.0184
  14   2.0000     -10.326080      -280.9869
  15   2.0000     -10.318252      -280.7739
  16   2.0000     -10.317067      -280.7417
  17   2.0000     -10.304643      -280.4036
  18   2.0000     -10.297649      -280.2133
  19   2.0000     -10.295420      -280.1526
  20   2.0000     -10.293806      -280.1087
  21   2.0000     -10.293298      -280.0949
  22   2.0000     -10.293059      -280.0884
  23   2.0000     -10.289424      -279.9895
  24   2.0000     -10.284102      -279.8446
  25   2.0000     -10.281281      -279.7679
  26   2.0000     -10.280031      -279.7339
  27   2.0000     -10.271640      -279.5055
  28   2.0000     -10.271410      -279.4993
  29   2.0000     -10.270159      -279.4652
  30   2.0000     -10.269256      -279.4407
  31   2.0000     -10.269034      -279.4346
  32   2.0000     -10.267905      -279.4039
  33   2.0000     -10.266750      -279.3725
  34   2.0000     -10.263160      -279.2748
  35   2.0000     -10.261927      -279.2412
  36   2.0000     -10.260574      -279.2044
  37   2.0000     -10.260396      -279.1996
  38   2.0000     -10.259753      -279.1821
  39   2.0000     -10.259669      -279.1798
  40   2.0000     -10.259659      -279.1795
  41   2.0000     -10.259255      -279.1685
  42   2.0000     -10.258681      -279.1529
  43   2.0000     -10.256215      -279.0858
  44   2.0000     -10.251001      -278.9439
  45   2.0000     -10.249566      -278.9049
  46   2.0000      -8.115127      -220.8238
  47   2.0000      -8.054313      -219.1690
  48   2.0000      -8.040821      -218.8019
  49   2.0000      -8.037244      -218.7045
  50   2.0000      -8.036518      -218.6848
  51   2.0000      -6.086418      -165.6199
  52   2.0000      -6.078715      -165.4102
  53   2.0000      -6.077329      -165.3725
  54   2.0000      -6.023610      -163.9107
  55   2.0000      -6.019336      -163.7945
  56   2.0000      -6.016737      -163.7237
  57   2.0000      -6.010349      -163.5499
  58   2.0000      -6.009716      -163.5327
  59   2.0000      -6.006636      -163.4489
  60   2.0000      -6.006050      -163.4329
  61   2.0000      -6.003306      -163.3583
  62   2.0000      -6.002760      -163.3434
  63   2.0000      -6.002372      -163.3328
  64   2.0000      -5.999308      -163.2495
  65   2.0000      -5.993504      -163.0915
  66   2.0000      -1.162885       -31.6437
  67   2.0000      -1.122215       -30.5370
  68   2.0000      -1.048211       -28.5233
  69   2.0000      -1.013639       -27.5825
  70   2.0000      -0.985767       -26.8241
  71   2.0000      -0.978149       -26.6168
  72   2.0000      -0.970540       -26.4097
  73   2.0000      -0.966199       -26.2916
  74   2.0000      -0.955758       -26.0075
  75   2.0000      -0.951273       -25.8854
  76   2.0000      -0.935472       -25.4555
  77   2.0000      -0.922050       -25.0903
  78   2.0000      -0.887616       -24.1533
  79   2.0000      -0.868423       -23.6310
  80   2.0000      -0.865072       -23.5398
  81   2.0000      -0.861232       -23.4353
  82   2.0000      -0.853886       -23.2354
  83   2.0000      -0.851507       -23.1707
  84   2.0000      -0.844988       -22.9933
  85   2.0000      -0.830608       -22.6020
  86   2.0000      -0.821176       -22.3453
  87   2.0000      -0.811101       -22.0712
  88   2.0000      -0.795841       -21.6559
  89   2.0000      -0.794225       -21.6120
  90   2.0000      -0.784361       -21.3435
  91   2.0000      -0.762746       -20.7554
  92   2.0000      -0.756453       -20.5841
  93   2.0000      -0.748342       -20.3634
  94   2.0000      -0.740470       -20.1492
  95   2.0000      -0.727052       -19.7841
  96   2.0000      -0.716008       -19.4836
  97   2.0000      -0.712682       -19.3931
  98   2.0000      -0.708240       -19.2722
  99   2.0000      -0.703657       -19.1475
 100   2.0000      -0.694012       -18.8850
 101   2.0000      -0.681774       -18.5520
 102   2.0000      -0.681254       -18.5379
 103   2.0000      -0.656690       -17.8695
 104   2.0000      -0.646597       -17.5948
 105   2.0000      -0.633291       -17.2327
 106   2.0000      -0.628157       -17.0930
 107   2.0000      -0.623062       -16.9544
 108   2.0000      -0.619342       -16.8532
 109   2.0000      -0.606610       -16.5067
 110   2.0000      -0.600921       -16.3519
 111   2.0000      -0.595774       -16.2118
 112   2.0000      -0.586482       -15.9590
 113   2.0000      -0.582644       -15.8546
 114   2.0000      -0.575106       -15.6494
 115   2.0000      -0.571190       -15.5429
 116   2.0000      -0.568172       -15.4607
 117   2.0000      -0.559306       -15.2195
 118   2.0000      -0.555316       -15.1109
 119   2.0000      -0.551316       -15.0021
 120   2.0000      -0.549408       -14.9501
 121   2.0000      -0.545553       -14.8453
 122   2.0000      -0.539885       -14.6910
 123   2.0000      -0.537063       -14.6142
 124   2.0000      -0.536085       -14.5876
 125   2.0000      -0.523610       -14.2481
 126   2.0000      -0.520271       -14.1573
 127   2.0000      -0.513169       -13.9640
 128   2.0000      -0.511060       -13.9066
 129   2.0000      -0.507987       -13.8230
 130   2.0000      -0.502004       -13.6602
 131   2.0000      -0.498952       -13.5772
 132   2.0000      -0.494604       -13.4589
 133   2.0000      -0.492069       -13.3899
 134   2.0000      -0.488121       -13.2825
 135   2.0000      -0.487800       -13.2737
 136   2.0000      -0.477165       -12.9843
 137   2.0000      -0.474460       -12.9107
 138   2.0000      -0.472812       -12.8659
 139   2.0000      -0.470759       -12.8100
 140   2.0000      -0.467464       -12.7203
 141   2.0000      -0.463168       -12.6034
 142   2.0000      -0.460426       -12.5288
 143   2.0000      -0.456931       -12.4337
 144   2.0000      -0.454927       -12.3792
 145   2.0000      -0.452537       -12.3142
 146   2.0000      -0.451918       -12.2973
 147   2.0000      -0.448333       -12.1998
 148   2.0000      -0.447843       -12.1864
 149   2.0000      -0.444160       -12.0862
 150   2.0000      -0.439743       -11.9660
 151   2.0000      -0.435803       -11.8588
 152   2.0000      -0.433507       -11.7963
 153   2.0000      -0.428698       -11.6655
 154   2.0000      -0.424984       -11.5644
 155   2.0000      -0.422868       -11.5068
 156   2.0000      -0.419140       -11.4054
 157   2.0000      -0.415549       -11.3077
 158   2.0000      -0.410076       -11.1587
 159   2.0000      -0.407301       -11.0832
 160   2.0000      -0.403094       -10.9688
 161   2.0000      -0.402000       -10.9390
 162   2.0000      -0.397865       -10.8265
 163   2.0000      -0.395352       -10.7581
 164   2.0000      -0.392245       -10.6735
 165   2.0000      -0.384394       -10.4599
 166   2.0000      -0.380137       -10.3441
 167   2.0000      -0.374427       -10.1887
 168   2.0000      -0.368940       -10.0394
 169   2.0000      -0.353433        -9.6174
 170   2.0000      -0.347179        -9.4472
 171   2.0000      -0.333307        -9.0697
 172   2.0000      -0.330757        -9.0004
 173   2.0000      -0.321249        -8.7416
 174   2.0000      -0.314540        -8.5591
 175   2.0000      -0.313590        -8.5332
 176   2.0000      -0.306498        -8.3402
 177   2.0000      -0.303280        -8.2527
 178   2.0000      -0.289579        -7.8798
 179   2.0000      -0.278191        -7.5700
 180   2.0000      -0.264873        -7.2076
 181   2.0000      -0.252094        -6.8598
 182   2.0000      -0.210254        -5.7213
 183   0.0000      -0.051483        -1.4009
 184   0.0000      -0.037945        -1.0325
 185   0.0000      -0.004027        -0.1096
 186   0.0000       0.032874         0.8945
 187   0.0000       0.047564         1.2943

MULLIKEN ATOMIC CHARGES
-----------------------
   0 C :   -0.016034
   1 C :    0.000715
   2 C :    0.110868
   3 C :   -0.013263
   4 C :   -0.041453
   5 C :    0.102602
   6 C :   -0.114302
   7 C :   -0.089889
   8 S :    0.071707
   9 C :   -0.039901
  10 C :   -0.082713
  11 S :    0.097378
  12 C :   -0.057838
  13 C :    0.013138
  14 C :   -0.114650
  15 C :    0.117634
  16 C :   -0.063214
  17 C :   -0.088617
  18 C :    0.123160
  19 S :    0.079833
  20 C :   -0.057487
  21 N :   -0.194150
  22 C :    0.074502
  23 C :    0.061305
  24 N :   -0.104800
  25 N :   -0.148608
  26 C :    0.210710
  27 C :   -0.087296
  28 C :    0.057846
  29 C :   -0.051068
  30 C :    0.064437
  31 N :   -0.265883
  32 S :    0.504312
  33 N :   -0.345148
  34 C :    0.004640
  35 C :    0.009577
  36 C :    0.023495
  37 C :    0.109956
  38 N :   -0.332183
  39 S :    0.206833
  40 N :   -0.336631
  41 C :    0.039630
  42 C :   -0.006990
  43 C :    0.104565
  44 C :    0.127444
  45 C :   -0.083826
  46 H :    0.016011
  47 H :    0.011389
  48 H :   -0.024466
  49 H :   -0.033066
  50 H :   -0.024083
  51 H :    0.021876
  52 H :   -0.023387
  53 H :    0.006388
  54 H :    0.034920
  55 H :    0.030670
  56 H :   -0.022717
  57 H :    0.009341
  58 H :    0.019589
  59 H :    0.033536
  60 H :   -0.002234
  61 H :   -0.004729
  62 H :    0.124313
  63 H :   -0.021446
  64 H :   -0.006033
  65 H :   -0.028328
  66 H :    0.001466
  67 H :    0.005619
  68 H :    0.033969
  69 H :    0.017244
  70 H :   -0.006027
  71 H :    0.122754
  72 H :    0.124559
  73 H :   -0.007884
  74 H :   -0.015056
  75 H :    0.007006
  76 H :    0.018663
  77 H :    0.015272
  78 H :   -0.015475
Sum of atomic charges:   -0.0000000

LOEWDIN ATOMIC CHARGES
----------------------
   0 C :   -0.046606
   1 C :   -0.019820
   2 C :   -0.041607
   3 C :   -0.017975
   4 C :   -0.031533
   5 C :   -0.046956
   6 C :   -0.207278
   7 C :   -0.193616
   8 S :    0.457597
   9 C :   -0.185205
  10 C :   -0.190576
  11 S :    0.423393
  12 C :   -0.184472
  13 C :   -0.068161
  14 C :   -0.065766
  15 C :   -0.058223
  16 C :   -0.073035
  17 C :   -0.067544
  18 C :   -0.059038
  19 S :    0.489637
  20 C :   -0.154583
  21 N :   -0.023770
  22 C :    0.036811
  23 C :    0.012650
  24 N :   -0.040020
  25 N :    0.052970
  26 C :    0.005483
  27 C :   -0.066234
  28 C :    0.001297
  29 C :   -0.060423
  30 C :   -0.041658
  31 N :   -0.284230
  32 S :    0.633936
  33 N :   -0.300032
  34 C :   -0.057620
  35 C :   -0.036718
  36 C :   -0.062260
  37 C :   -0.011751
  38 N :   -0.228771
  39 S :    0.352477
  40 N :   -0.233778
  41 C :   -0.005167
  42 C :   -0.049049
  43 C :   -0.045314
  44 C :   -0.067065
  45 C :   -0.000423
  46 H :    0.023395
  47 H :    0.019702
  48 H :    0.025291
  49 H :    0.025230
  50 H :    0.011649
  51 H :    0.022030
  52 H :    0.026702
  53 H :    0.032103
  54 H :    0.030671
  55 H :    0.030460
  56 H :    0.020932
  57 H :    0.032894
  58 H :    0.025439
  59 H :    0.028352
  60 H :    0.024113
  61 H :    0.016208
  62 H :    0.040256
  63 H :    0.032151
  64 H :    0.034061
  65 H :    0.033733
  66 H :    0.030584
  67 H :    0.015159
  68 H :    0.033477
  69 H :    0.025475
  70 H :    0.020015
  71 H :    0.041056
  72 H :    0.041250
  73 H :    0.018844
  74 H :    0.010439
  75 H :    0.024641
  76 H :    0.010202
  77 H :    0.027749
  78 H :    0.025764

  Mayer bond orders larger than 0.100000
B(  0-C ,  1-C ) :   1.9601 B(  0-C , 46-H ) :   0.9478 B(  0-C , 47-H ) :   0.9460
B(  1-C ,  2-C ) :   1.0594 B(  1-C , 48-H ) :   0.9663 B(  2-C ,  3-C ) :   1.1604
B(  2-C , 45-C ) :   1.5073 B(  3-C ,  4-C ) :   1.5843 B(  3-C , 49-H ) :   0.9892
B(  4-C ,  5-C ) :   1.1729 B(  4-C , 50-H ) :   0.9731 B(  5-C ,  6-C ) :   1.3880
B(  5-C , 44-C ) :   1.1894 B(  6-C ,  7-C ) :   1.1331 B(  6-C , 19-S ) :   1.1162
B(  6-C , 20-C ) :   0.1144 B(  7-C ,  8-S ) :   1.1025 B(  7-C , 17-C ) :   1.5032
B(  8-S ,  9-C ) :   1.1082 B(  9-C , 10-C ) :   1.1370 B(  9-C , 16-C ) :   1.4957
B( 10-C , 11-S ) :   1.1276 B( 10-C , 14-C ) :   1.5313 B( 11-S , 12-C ) :   1.1547
B( 12-C , 13-C ) :   1.5733 B( 12-C , 51-H ) :   0.9711 B( 13-C , 14-C ) :   1.2592
B( 13-C , 52-H ) :   0.9938 B( 14-C , 15-C ) :   1.1069 B( 15-C , 53-H ) :   0.9413
B( 15-C , 54-H ) :   0.9389 B( 15-C , 55-H ) :   0.9408 B( 16-C , 17-C ) :   1.2779
B( 16-C , 56-H ) :   0.9907 B( 17-C , 18-C ) :   1.1058 B( 18-C , 57-H ) :   0.9412
B( 18-C , 58-H ) :   0.9393 B( 18-C , 59-H ) :   0.9363 B( 19-S , 20-C ) :   1.1426
B( 20-C , 21-N ) :   1.0365 B( 20-C , 44-C ) :   1.3622 B( 21-N , 22-C ) :   0.9399
B( 21-N , 25-N ) :   1.0358 B( 22-C , 23-C ) :   1.0110 B( 22-C , 42-C ) :   1.0368
B( 22-C , 60-H ) :   0.9002 B( 23-C , 24-N ) :   1.0394 B( 23-C , 35-C ) :   1.0383
B( 23-C , 61-H ) :   0.9073 B( 24-N , 25-N ) :   0.9795 B( 24-N , 62-H ) :   0.9070
B( 25-N , 26-C ) :   1.0483 B( 26-C , 27-C ) :   1.4905 B( 26-C , 34-C ) :   1.2166
B( 27-C , 28-C ) :   1.1879 B( 27-C , 63-H ) :   1.0064 B( 28-C , 29-C ) :   1.4575
B( 28-C , 64-H ) :   0.9855 B( 29-C , 30-C ) :   1.2115 B( 29-C , 65-H ) :   1.0284
B( 30-C , 31-N ) :   1.5060 B( 30-C , 34-C ) :   1.1862 B( 31-N , 32-S ) :   1.2798
B( 31-N , 33-N ) :   0.1513 B( 32-S , 33-N ) :   1.2339 B( 33-N , 34-C ) :   1.4477
B( 33-N , 62-H ) :   0.1010 B( 35-C , 36-C ) :   1.0504 B( 35-C , 37-C ) :   1.0421
B( 35-C , 66-H ) :   0.9055 B( 36-C , 67-H ) :   0.9637 B( 36-C , 68-H ) :   0.9421
B( 36-C , 69-H ) :   0.9481 B( 37-C , 38-N ) :   1.0305 B( 37-C , 41-C ) :   0.9601
B( 37-C , 70-H ) :   0.9003 B( 38-N , 39-S ) :   0.9882 B( 38-N , 71-H ) :   0.9341
B( 39-S , 40-N ) :   0.9793 B( 40-N , 41-C ) :   1.0399 B( 40-N , 72-H ) :   0.9304
B( 41-C , 42-C ) :   1.0664 B( 41-C , 73-H ) :   0.8987 B( 42-C , 43-C ) :   1.0623
B( 42-C , 74-H ) :   0.8431 B( 43-C , 75-H ) :   0.9556 B( 43-C , 76-H ) :   0.9570
B( 43-C , 77-H ) :   0.9586 B( 44-C , 45-C ) :   1.1784 B( 45-C , 78-H ) :   0.9898

-----------------------------------------------------------------------------
         ABSORPTION SPECTRUM VIA TRANSITION ELECTRIC DIPOLE MOMENTS
-----------------------------------------------------------------------------
State   Energy  Wavelength   fosc         T2         TX        TY        TZ
        (cm-1)    (nm)                  (au**2)     (au)      (au)      (au)
-----------------------------------------------------------------------------
   0   19749.5    506.3   0.107163115   1.78635   1.24139   0.29508  -0.39777
   1   21124.0    473.4   0.637720130   9.93869   2.82888  -0.03272  -1.39106
   2   23488.6    425.7   0.095157908   1.33371  -0.12778  -1.02209  -0.52222
   3   27257.0    366.9   0.316530094   3.82307  -1.81858   0.53392   0.48037
   4   28023.3    356.8   0.000462551   0.00543  -0.03830   0.06044  -0.01774
   5   32300.4    309.6   0.257540584   2.62490  -1.40080   0.80946  -0.08618
   6   33724.9    296.5   0.003939671   0.03846   0.16390  -0.09895   0.04246
   7   34377.5    290.9   0.001154451   0.01106  -0.06859   0.04952   0.06244
   8   36014.0    277.7   0.001939942   0.01773  -0.13141  -0.00651   0.02058
   9   37450.0    267.0   0.000434401   0.00382  -0.04556  -0.00633  -0.04126
  10   37857.2    264.2   0.004247774   0.03694  -0.15787   0.07541  -0.07957
  11   38574.8    259.2   0.003754996   0.03205  -0.10583   0.11240  -0.09064
  12   38822.3    257.6   0.178591022   1.51445  -0.76432   0.51093  -0.81806
  13   39423.3    253.7   0.032252879   0.26933  -0.29332   0.36097  -0.23022
  14   39523.3    253.0   0.005459757   0.04548  -0.18657   0.05300  -0.08866

FINAL SINGLE POINT ENERGY     -3686.798164762801

DIPOLE MOMENT
-------------
                                X             Y             Z
Electronic contribution:      7.96713      10.31995       4.95480
Nuclear contribution   :     -7.82617      -9.94780      -4.71543
                        -----------------------------------------
Total Dipole Moment    :      0.14096       0.37215       0.23938
                        -----------------------------------------
Magnitude (a.u.)       :      0.46440
Magnitude (Debye)      :      1.18041

Rotational constants in cm-1:     0.002718     0.001075     0.000908
Rotational constants in MHz :    81.490582    32.219789    27.207569

                             ****ORCA TERMINATED NORMALLY****
TOTAL RUN TIME: 0 days 0 hours 6 minutes 5 seconds 296 msec
