                         Program Version 4.2.0 -  RELEASE  -
|  1> # ORCA input file
|  2> # SCF done       -200.194757023754          0.000479874048
|  3> ! CAM-B3LYP def2-SVP def2/J RIJCOSX Grid4 TightSCF
|  4> %maxcore 5000
|  5> %tddft
|  6>     Mode sTDDFT
|  7>     Ethresh 5.0
|  8>     maxcore 5000
|  9> end
| 10>
| 11> %pal
| 12>   nprocs 6
| 13>   end
| 14> * xyz 0 1
| 15>    C        2.15288        -0.86211         1.92415
| 16>    O        1.06990        -1.36049         2.12775
| 17>    C        2.67143         0.38225         2.53031
| 18>    C        3.88992         0.73839         1.92571
| 19>    C        4.54238         1.89331         2.32758
| 20>    C        3.96997         2.66807         3.32963
| 21>    C        2.75974         2.30422         3.92562
| 22>    C        2.09774         1.15290         3.52045
| 23>   Br        2.00813         3.37238         5.29022
| 24>   Br        4.86065         4.24120         3.88037
| 25>    C        4.24064        -0.27210         0.93190
| 26>    C        5.39789        -0.30938         0.20434
| 27>    C        6.39979         0.68436         0.26237
| 28>    N        7.23873         1.46654         0.26507
| 29>    C        5.76585        -1.34812        -0.67969
| 30>    N        6.14551        -2.16305        -1.39242
| 31>    C        3.17973        -1.26630         0.92520
| 32>    C        3.03658        -2.29815         0.05410
| 33>    C        2.07418        -3.35224         0.19386
| 34>    C        1.43841        -3.90700        -0.91140
| 35>    F        1.72289        -3.41898        -2.12615
| 36>    C        0.45686        -4.90259        -0.82769
| 37>    F       -0.09991        -5.29055        -1.98251
| 38>    C        0.05161        -5.46341         0.38249
| 39>    C        0.74902        -4.97297         1.52556
| 40>    C        1.74461        -3.94304         1.44054
| 41>    N        2.29982        -3.68622         2.62115
| 42>    S        1.60420        -4.60986         3.73290
| 43>    N        0.58879        -5.40437         2.77459
| 44>    C       -0.96878        -6.44053         0.60010
| 45>    C       -1.75793        -7.02310        -0.33927
| 46>    C       -2.80682        -7.95928        -0.14978
| 47>    N       -3.30211        -8.53646         0.99852
| 48>    C       -2.90486        -8.33636         2.37250
| 49>    C       -3.47219        -7.04129         2.94930
| 50>    C       -4.39502        -9.39103         0.72491
| 51>    O       -4.99786       -10.00473         1.57941
| 52>    C       -4.54862        -9.32901        -0.70989
| 53>    C       -3.56582        -8.45787        -1.21312
| 54>    C       -3.72694        -8.39814        -2.65105
| 55>    O       -3.12654        -7.79974        -3.51336
| 56>    N       -4.83346        -9.24532        -2.91699
| 57>    C       -5.22481        -9.48335        -4.28625
| 58>    C       -4.79652       -10.86609        -4.77023
| 59>    C       -5.33285        -9.80269        -1.76613
| 60>    C       -6.44786       -10.65168        -1.55088
| 61>    C       -7.37534       -11.09699        -2.43489
| 62>    C       -8.50735       -11.90520        -2.10079
| 63>    C       -9.43255       -12.22287        -3.13259
| 64>    N       -9.37253       -11.81353        -4.39820
| 65>    S      -10.64145       -12.38423        -5.19588
| 66>    N      -11.33635       -13.17960        -3.98078
| 67>    C      -10.58807       -13.03982        -2.88665
| 68>    C      -10.83820       -13.55784        -1.58842
| 69>    C       -9.93663       -13.17948        -0.59402
| 70>    C       -8.80974       -12.40709        -0.83714
| 71>    C      -11.97109       -14.36170        -1.25453
| 72>    C      -12.74955       -15.15527        -2.03501
| 73>    C      -14.09736       -15.55110        -1.53547
| 74>    O      -14.51615       -15.44629        -0.40826
| 75>    C      -14.81641       -16.04391        -2.73101
| 76>    C      -13.93513       -16.07638        -3.82801
| 77>    C      -12.60641       -15.66585        -3.38101
| 78>    C      -11.43354       -15.92978        -4.03377
| 79>    C      -10.16015       -15.75076        -3.45541
| 80>    N       -9.10399       -15.64813        -3.01853
| 81>    C      -11.36057       -16.46309        -5.33702
| 82>    N      -11.24765       -16.86701        -6.40508
| 83>    C      -14.39669       -16.47718        -5.07016
| 84>    C      -15.73203       -16.84342        -5.19632
| 85>    C      -16.59724       -16.82011        -4.10003
| 86>    C      -16.13915       -16.41624        -2.85225
| 87>   Br      -18.40514       -17.33234        -4.30036
| 88>   Br      -16.37022       -17.37487        -6.89382
| 89>    H        5.47392         2.20966         1.88700
| 90>    H        1.15985         0.86410         3.96889
| 91>    H        3.65617        -2.34423        -0.83303
| 92>    H       -1.07668        -6.68170         1.64535
| 93>    H       -1.62908        -6.77198        -1.38335
| 94>    H       -1.81657        -8.37338         2.45415
| 95>    H       -3.32207        -9.18504         2.92392
| 96>    H       -3.15730        -6.17645         2.37036
| 97>    H       -3.13420        -6.91804         3.97432
| 98>    H       -4.55871        -7.08264         2.94390
| 99>    H       -4.70925        -8.71709        -4.87363
|100>    H       -6.30185        -9.33610        -4.39728
|101>    H       -3.71394       -10.95520        -4.72242
|102>    H       -5.11040       -11.00598        -5.80070
|103>    H       -5.23544       -11.65295        -4.16144
|104>    H       -6.54266       -10.92392        -0.50747
|105>    H       -7.32559       -10.84006        -3.48112
|106>    H      -10.10805       -13.54141         0.40922
|107>    H       -8.14943       -12.19474        -0.01140
|108>    H      -12.30577       -14.28291        -0.22360
|109>    H      -13.75680       -16.50199        -5.93759
|110>    H      -16.79987       -16.39271        -1.99951
|111> *
|112>
|113>                          ****END OF INPUT****

CARTESIAN COORDINATES (ANGSTROEM)
---------------------------------
  C      2.152880   -0.862110    1.924150
  O      1.069900   -1.360490    2.127750
  C      2.671430    0.382250    2.530310
  C      3.889920    0.738390    1.925710
  C      4.542380    1.893310    2.327580
  C      3.969970    2.668070    3.329630
  C      2.759740    2.304220    3.925620
  C      2.097740    1.152900    3.520450
  Br     2.008130    3.372380    5.290220
  Br     4.860650    4.241200    3.880370
  C      4.240640   -0.272100    0.931900
  C      5.397890   -0.309380    0.204340
  C      6.399790    0.684360    0.262370
  N      7.238730    1.466540    0.265070
  C      5.765850   -1.348120   -0.679690
  N      6.145510   -2.163050   -1.392420
  C      3.179730   -1.266300    0.925200
  C      3.036580   -2.298150    0.054100
  C      2.074180   -3.352240    0.193860
  C      1.438410   -3.907000   -0.911400
  F      1.722890   -3.418980   -2.126150
  C      0.456860   -4.902590   -0.827690
  F     -0.099910   -5.290550   -1.982510
  C      0.051610   -5.463410    0.382490
  C      0.749020   -4.972970    1.525560
  C      1.744610   -3.943040    1.440540
  N      2.299820   -3.686220    2.621150
  S      1.604200   -4.609860    3.732900
  N      0.588790   -5.404370    2.774590
  C     -0.968780   -6.440530    0.600100
  C     -1.757930   -7.023100   -0.339270
  C     -2.806820   -7.959280   -0.149780
  N     -3.302110   -8.536460    0.998520
  C     -2.904860   -8.336360    2.372500
  C     -3.472190   -7.041290    2.949300
  C     -4.395020   -9.391030    0.724910
  O     -4.997860  -10.004730    1.579410
  C     -4.548620   -9.329010   -0.709890
  C     -3.565820   -8.457870   -1.213120
  C     -3.726940   -8.398140   -2.651050
  O     -3.126540   -7.799740   -3.513360
  N     -4.833460   -9.245320   -2.916990
  C     -5.224810   -9.483350   -4.286250
  C     -4.796520  -10.866090   -4.770230
  C     -5.332850   -9.802690   -1.766130
  C     -6.447860  -10.651680   -1.550880
  C     -7.375340  -11.096990   -2.434890
  C     -8.507350  -11.905200   -2.100790
  C     -9.432550  -12.222870   -3.132590
  N     -9.372530  -11.813530   -4.398200
  S    -10.641450  -12.384230   -5.195880
  N    -11.336350  -13.179600   -3.980780
  C    -10.588070  -13.039820   -2.886650
  C    -10.838200  -13.557840   -1.588420
  C     -9.936630  -13.179480   -0.594020
  C     -8.809740  -12.407090   -0.837140
  C    -11.971090  -14.361700   -1.254530
  C    -12.749550  -15.155270   -2.035010
  C    -14.097360  -15.551100   -1.535470
  O    -14.516150  -15.446290   -0.408260
  C    -14.816410  -16.043910   -2.731010
  C    -13.935130  -16.076380   -3.828010
  C    -12.606410  -15.665850   -3.381010
  C    -11.433540  -15.929780   -4.033770
  C    -10.160150  -15.750760   -3.455410
  N     -9.103990  -15.648130   -3.018530
  C    -11.360570  -16.463090   -5.337020
  N    -11.247650  -16.867010   -6.405080
  C    -14.396690  -16.477180   -5.070160
  C    -15.732030  -16.843420   -5.196320
  C    -16.597240  -16.820110   -4.100030
  C    -16.139150  -16.416240   -2.852250
  Br   -18.405140  -17.332340   -4.300360
  Br   -16.370220  -17.374870   -6.893820
  H      5.473920    2.209660    1.887000
  H      1.159850    0.864100    3.968890
  H      3.656170   -2.344230   -0.833030
  H     -1.076680   -6.681700    1.645350
  H     -1.629080   -6.771980   -1.383350
  H     -1.816570   -8.373380    2.454150
  H     -3.322070   -9.185040    2.923920
  H     -3.157300   -6.176450    2.370360
  H     -3.134200   -6.918040    3.974320
  H     -4.558710   -7.082640    2.943900
  H     -4.709250   -8.717090   -4.873630
  H     -6.301850   -9.336100   -4.397280
  H     -3.713940  -10.955200   -4.722420
  H     -5.110400  -11.005980   -5.800700
  H     -5.235440  -11.652950   -4.161440
  H     -6.542660  -10.923920   -0.507470
  H     -7.325590  -10.840060   -3.481120
  H    -10.108050  -13.541410    0.409220
  H     -8.149430  -12.194740   -0.011400
  H    -12.305770  -14.282910   -0.223600
  H    -13.756800  -16.501990   -5.937590
  H    -16.799870  -16.392710   -1.999510

 Total Charge           Charge          ....    0
 Multiplicity           Mult            ....    1
 Number of Electrons    NEL             ....  626
 Basis Dimension        Dim             .... 1226

ORBITAL ENERGIES
----------------

  NO   OCC          E(Eh)            E(eV)
   0   2.0000    -482.882688    -13139.9060
   1   2.0000    -482.880707    -13139.8521
   2   2.0000    -482.878256    -13139.7854
   3   2.0000    -482.877497    -13139.7647
   4   2.0000     -89.039493     -2422.8878
   5   2.0000     -89.038822     -2422.8695
   6   2.0000     -62.560312     -1702.3526
   7   2.0000     -62.558317     -1702.2984
   8   2.0000     -62.555835     -1702.2308
   9   2.0000     -62.555094     -1702.2107
  10   2.0000     -56.394264     -1534.5660
  11   2.0000     -56.392285     -1534.5121
  12   2.0000     -56.391609     -1534.4937
  13   2.0000     -56.391511     -1534.4910
  14   2.0000     -56.389787     -1534.4441
  15   2.0000     -56.389609     -1534.4393
  16   2.0000     -56.389508     -1534.4365
  17   2.0000     -56.389051     -1534.4241
  18   2.0000     -56.387132     -1534.3719
  19   2.0000     -56.387041     -1534.3694
  20   2.0000     -56.386393     -1534.3518
  21   2.0000     -56.386292     -1534.3490
  22   2.0000     -24.817924      -675.3300
  23   2.0000     -24.814697      -675.2422
  24   2.0000     -19.230105      -523.2778
  25   2.0000     -19.225737      -523.1589
  26   2.0000     -19.199620      -522.4482
  27   2.0000     -19.198246      -522.4108
  28   2.0000     -14.460662      -393.4946
  29   2.0000     -14.460600      -393.4929
  30   2.0000     -14.454875      -393.3372
  31   2.0000     -14.454794      -393.3349
  32   2.0000     -14.450747      -393.2248
  33   2.0000     -14.450083      -393.2067
  34   2.0000     -14.427619      -392.5955
  35   2.0000     -14.427098      -392.5813
  36   2.0000     -14.421929      -392.4406
  37   2.0000     -14.421139      -392.4191
  38   2.0000     -10.402995      -283.0799
  39   2.0000     -10.396618      -282.9064
  40   2.0000     -10.382601      -282.5249
  41   2.0000     -10.381479      -282.4944
  42   2.0000     -10.381225      -282.4875
  43   2.0000     -10.376069      -282.3472
  44   2.0000     -10.360256      -281.9169
  45   2.0000     -10.359817      -281.9050
  46   2.0000     -10.359129      -281.8862
  47   2.0000     -10.355932      -281.7992
  48   2.0000     -10.354875      -281.7705
  49   2.0000     -10.354735      -281.7667
  50   2.0000     -10.350273      -281.6453
  51   2.0000     -10.349092      -281.6131
  52   2.0000     -10.348491      -281.5968
  53   2.0000     -10.345723      -281.5214
  54   2.0000     -10.344011      -281.4748
  55   2.0000     -10.343705      -281.4665
  56   2.0000     -10.338114      -281.3144
  57   2.0000     -10.337275      -281.2916
  58   2.0000     -10.332873      -281.1718
  59   2.0000     -10.329477      -281.0793
  60   2.0000     -10.329099      -281.0691
  61   2.0000     -10.328678      -281.0576
  62   2.0000     -10.325028      -280.9583
  63   2.0000     -10.324373      -280.9405
  64   2.0000     -10.323949      -280.9289
  65   2.0000     -10.322824      -280.8983
  66   2.0000     -10.322712      -280.8953
  67   2.0000     -10.319883      -280.8183
  68   2.0000     -10.318144      -280.7710
  69   2.0000     -10.318068      -280.7689
  70   2.0000     -10.317834      -280.7625
  71   2.0000     -10.315778      -280.7066
  72   2.0000     -10.313880      -280.6549
  73   2.0000     -10.313856      -280.6543
  74   2.0000     -10.312872      -280.6275
  75   2.0000     -10.311703      -280.5957
  76   2.0000     -10.311670      -280.5948
  77   2.0000     -10.310377      -280.5596
  78   2.0000     -10.310321      -280.5581
  79   2.0000     -10.307160      -280.4721
  80   2.0000     -10.305621      -280.4302
  81   2.0000     -10.305608      -280.4298
  82   2.0000     -10.305590      -280.4294
  83   2.0000     -10.304990      -280.4130
  84   2.0000     -10.304539      -280.4007
  85   2.0000     -10.303460      -280.3714
  86   2.0000     -10.272511      -279.5292
  87   2.0000     -10.270929      -279.4862
  88   2.0000     -10.266477      -279.3650
  89   2.0000     -10.264744      -279.3179
  90   2.0000      -8.789643      -239.1784
  91   2.0000      -8.787634      -239.1237
  92   2.0000      -8.785131      -239.0556
  93   2.0000      -8.784407      -239.0359
  94   2.0000      -8.130949      -221.2544
  95   2.0000      -8.130464      -221.2412
  96   2.0000      -6.625784      -180.2968
  97   2.0000      -6.623821      -180.2433
  98   2.0000      -6.621255      -180.1735
  99   2.0000      -6.620536      -180.1539
 100   2.0000      -6.611765      -179.9153
 101   2.0000      -6.610970      -179.8936
 102   2.0000      -6.609726      -179.8598
 103   2.0000      -6.608941      -179.8384
 104   2.0000      -6.607250      -179.7924
 105   2.0000      -6.606533      -179.7729
 106   2.0000      -6.606481      -179.7715
 107   2.0000      -6.605740      -179.7513
 108   2.0000      -6.102155      -166.0481
 109   2.0000      -6.101707      -166.0359
 110   2.0000      -6.094413      -165.8374
 111   2.0000      -6.093927      -165.8242
 112   2.0000      -6.093381      -165.8093
 113   2.0000      -6.092845      -165.7947
 114   2.0000      -2.741669       -74.6046
 115   2.0000      -2.739715       -74.5514
 116   2.0000      -2.737945       -74.5033
 117   2.0000      -2.737306       -74.4859
 118   2.0000      -2.737160       -74.4819
 119   2.0000      -2.736479       -74.4634
 120   2.0000      -2.735917       -74.4481
 121   2.0000      -2.735332       -74.4322
 122   2.0000      -2.733376       -74.3789
 123   2.0000      -2.732823       -74.3639
 124   2.0000      -2.732657       -74.3594
 125   2.0000      -2.732057       -74.3430
 126   2.0000      -2.726158       -74.1825
 127   2.0000      -2.726147       -74.1822
 128   2.0000      -2.724114       -74.1269
 129   2.0000      -2.724086       -74.1262
 130   2.0000      -2.721661       -74.0602
 131   2.0000      -2.721643       -74.0597
 132   2.0000      -2.720908       -74.0397
 133   2.0000      -2.720900       -74.0394
 134   2.0000      -1.340694       -36.4821
 135   2.0000      -1.322628       -35.9905
 136   2.0000      -1.147563       -31.2268
 137   2.0000      -1.141412       -31.0594
 138   2.0000      -1.141385       -31.0587
 139   2.0000      -1.139431       -31.0055
 140   2.0000      -1.139154       -30.9980
 141   2.0000      -1.134697       -30.8767
 142   2.0000      -1.070403       -29.1271
 143   2.0000      -1.060794       -28.8657
 144   2.0000      -1.033357       -28.1191
 145   2.0000      -1.028018       -27.9738
 146   2.0000      -1.016780       -27.6680
 147   2.0000      -1.011682       -27.5293
 148   2.0000      -1.005654       -27.3652
 149   2.0000      -1.001678       -27.2570
 150   2.0000      -0.998565       -27.1723
 151   2.0000      -0.995218       -27.0812
 152   2.0000      -0.994445       -27.0602
 153   2.0000      -0.985305       -26.8115
 154   2.0000      -0.983214       -26.7546
 155   2.0000      -0.976431       -26.5700
 156   2.0000      -0.936594       -25.4860
 157   2.0000      -0.932708       -25.3803
 158   2.0000      -0.927722       -25.2446
 159   2.0000      -0.927062       -25.2266
 160   2.0000      -0.921929       -25.0870
 161   2.0000      -0.918652       -24.9978
 162   2.0000      -0.913931       -24.8693
 163   2.0000      -0.909236       -24.7416
 164   2.0000      -0.902227       -24.5508
 165   2.0000      -0.886543       -24.1241
 166   2.0000      -0.879349       -23.9283
 167   2.0000      -0.877507       -23.8782
 168   2.0000      -0.875759       -23.8306
 169   2.0000      -0.871718       -23.7207
 170   2.0000      -0.859794       -23.3962
 171   2.0000      -0.854966       -23.2648
 172   2.0000      -0.851410       -23.1681
 173   2.0000      -0.843550       -22.9542
 174   2.0000      -0.825467       -22.4621
 175   2.0000      -0.816348       -22.2140
 176   2.0000      -0.803491       -21.8641
 177   2.0000      -0.782882       -21.3033
 178   2.0000      -0.776813       -21.1382
 179   2.0000      -0.772477       -21.0202
 180   2.0000      -0.765091       -20.8192
 181   2.0000      -0.764812       -20.8116
 182   2.0000      -0.759967       -20.6797
 183   2.0000      -0.752211       -20.4687
 184   2.0000      -0.739864       -20.1327
 185   2.0000      -0.733157       -19.9502
 186   2.0000      -0.727008       -19.7829
 187   2.0000      -0.717811       -19.5326
 188   2.0000      -0.715470       -19.4689
 189   2.0000      -0.711094       -19.3498
 190   2.0000      -0.705882       -19.2080
 191   2.0000      -0.702243       -19.1090
 192   2.0000      -0.696333       -18.9482
 193   2.0000      -0.691873       -18.8268
 194   2.0000      -0.688835       -18.7442
 195   2.0000      -0.681416       -18.5423
 196   2.0000      -0.676759       -18.4155
 197   2.0000      -0.661577       -18.0024
 198   2.0000      -0.660913       -17.9844
 199   2.0000      -0.654641       -17.8137
 200   2.0000      -0.651370       -17.7247
 201   2.0000      -0.641309       -17.4509
 202   2.0000      -0.636769       -17.3274
 203   2.0000      -0.633378       -17.2351
 204   2.0000      -0.625250       -17.0139
 205   2.0000      -0.622321       -16.9342
 206   2.0000      -0.615360       -16.7448
 207   2.0000      -0.608755       -16.5651
 208   2.0000      -0.605673       -16.4812
 209   2.0000      -0.599015       -16.3000
 210   2.0000      -0.597740       -16.2653
 211   2.0000      -0.594424       -16.1751
 212   2.0000      -0.587764       -15.9939
 213   2.0000      -0.585038       -15.9197
 214   2.0000      -0.580116       -15.7858
 215   2.0000      -0.576389       -15.6843
 216   2.0000      -0.573455       -15.6045
 217   2.0000      -0.571657       -15.5556
 218   2.0000      -0.569995       -15.5104
 219   2.0000      -0.567289       -15.4367
 220   2.0000      -0.564348       -15.3567
 221   2.0000      -0.563621       -15.3369
 222   2.0000      -0.561077       -15.2677
 223   2.0000      -0.556746       -15.1498
 224   2.0000      -0.554803       -15.0970
 225   2.0000      -0.553384       -15.0583
 226   2.0000      -0.551082       -14.9957
 227   2.0000      -0.547758       -14.9053
 228   2.0000      -0.545728       -14.8500
 229   2.0000      -0.544247       -14.8097
 230   2.0000      -0.539398       -14.6778
 231   2.0000      -0.536489       -14.5986
 232   2.0000      -0.535203       -14.5636
 233   2.0000      -0.530781       -14.4433
 234   2.0000      -0.525861       -14.3094
 235   2.0000      -0.523562       -14.2469
 236   2.0000      -0.521196       -14.1825
 237   2.0000      -0.519484       -14.1359
 238   2.0000      -0.515401       -14.0248
 239   2.0000      -0.511620       -13.9219
 240   2.0000      -0.511263       -13.9122
 241   2.0000      -0.509230       -13.8568
 242   2.0000      -0.506608       -13.7855
 243   2.0000      -0.505526       -13.7561
 244   2.0000      -0.502344       -13.6695
 245   2.0000      -0.498981       -13.5780
 246   2.0000      -0.497687       -13.5428
 247   2.0000      -0.497040       -13.5251
 248   2.0000      -0.492470       -13.4008
 249   2.0000      -0.483874       -13.1669
 250   2.0000      -0.480778       -13.0826
 251   2.0000      -0.478395       -13.0178
 252   2.0000      -0.475369       -12.9354
 253   2.0000      -0.474729       -12.9180
 254   2.0000      -0.471441       -12.8286
 255   2.0000      -0.470043       -12.7905
 256   2.0000      -0.468971       -12.7614
 257   2.0000      -0.468057       -12.7365
 258   2.0000      -0.465738       -12.6734
 259   2.0000      -0.463328       -12.6078
 260   2.0000      -0.462263       -12.5788
 261   2.0000      -0.459071       -12.4920
 262   2.0000      -0.458895       -12.4872
 263   2.0000      -0.457036       -12.4366
 264   2.0000      -0.455956       -12.4072
 265   2.0000      -0.454888       -12.3781
 266   2.0000      -0.454302       -12.3622
 267   2.0000      -0.453526       -12.3411
 268   2.0000      -0.451330       -12.2813
 269   2.0000      -0.447720       -12.1831
 270   2.0000      -0.447298       -12.1716
 271   2.0000      -0.439036       -11.9468
 272   2.0000      -0.438113       -11.9217
 273   2.0000      -0.436288       -11.8720
 274   2.0000      -0.435663       -11.8550
 275   2.0000      -0.433324       -11.7913
 276   2.0000      -0.432050       -11.7567
 277   2.0000      -0.429929       -11.6990
 278   2.0000      -0.425638       -11.5822
 279   2.0000      -0.425421       -11.5763
 280   2.0000      -0.423376       -11.5206
 281   2.0000      -0.422135       -11.4869
 282   2.0000      -0.416975       -11.3465
 283   2.0000      -0.414371       -11.2756
 284   2.0000      -0.412232       -11.2174
 285   2.0000      -0.406355       -11.0575
 286   2.0000      -0.401829       -10.9343
 287   2.0000      -0.397875       -10.8267
 288   2.0000      -0.395698       -10.7675
 289   2.0000      -0.395337       -10.7577
 290   2.0000      -0.391842       -10.6626
 291   2.0000      -0.383374       -10.4321
 292   2.0000      -0.381715       -10.3870
 293   2.0000      -0.375224       -10.2104
 294   2.0000      -0.369016       -10.0414
 295   2.0000      -0.358560        -9.7569
 296   2.0000      -0.356215        -9.6931
 297   2.0000      -0.354542        -9.6476
 298   2.0000      -0.352828        -9.6009
 299   2.0000      -0.349573        -9.5124
 300   2.0000      -0.348350        -9.4791
 301   2.0000      -0.347903        -9.4669
 302   2.0000      -0.343427        -9.3451
 303   2.0000      -0.340890        -9.2761
 304   2.0000      -0.339476        -9.2376
 305   2.0000      -0.337054        -9.1717
 306   2.0000      -0.333112        -9.0644
 307   2.0000      -0.324315        -8.8251
 308   2.0000      -0.318235        -8.6596
 309   2.0000      -0.309453        -8.4206
 310   2.0000      -0.304244        -8.2789
 311   2.0000      -0.296780        -8.0758
 312   2.0000      -0.243731        -6.6323
 313   0.0000      -0.125822        -3.4238
 314   0.0000      -0.107178        -2.9165
 315   0.0000      -0.085733        -2.3329
 316   0.0000      -0.075660        -2.0588
 317   0.0000      -0.065357        -1.7785

MULLIKEN ATOMIC CHARGES
-----------------------
   0 C :    0.160185
   1 O :   -0.137337
   2 C :   -0.022192
   3 C :    0.040422
   4 C :   -0.007990
   5 C :   -0.025132
   6 C :   -0.014795
   7 C :   -0.016442
   8 Br:    0.018136
   9 Br:    0.025920
  10 C :    0.290628
  11 C :   -0.326934
  12 C :   -0.186022
  13 N :    0.167659
  14 C :   -0.199154
  15 N :    0.170462
  16 C :   -0.056790
  17 C :   -0.047991
  18 C :   -0.024210
  19 C :    0.198719
  20 F :   -0.154374
  21 C :    0.163640
  22 F :   -0.156870
  23 C :    0.050240
  24 C :    0.008114
  25 C :    0.059017
  26 N :   -0.273461
  27 S :    0.525031
  28 N :   -0.287428
  29 C :   -0.046986
  30 C :   -0.009029
  31 C :    0.117605
  32 N :   -0.271610
  33 C :    0.092143
  34 C :    0.007973
  35 C :    0.148934
  36 O :   -0.194546
  37 C :   -0.040482
  38 C :   -0.038075
  39 C :    0.150700
  40 O :   -0.176814
  41 N :   -0.270104
  42 C :    0.091866
  43 C :    0.000279
  44 C :    0.126472
  45 C :   -0.006838
  46 C :   -0.016816
  47 C :    0.084606
  48 C :    0.036314
  49 N :   -0.278624
  50 S :    0.530460
  51 N :   -0.288038
  52 C :    0.013286
  53 C :    0.079562
  54 C :    0.011719
  55 C :   -0.031773
  56 C :   -0.008112
  57 C :   -0.115970
  58 C :    0.135598
  59 O :   -0.133151
  60 C :    0.004137
  61 C :    0.021747
  62 C :    0.324871
  63 C :   -0.320772
  64 C :   -0.207382
  65 N :    0.171884
  66 C :   -0.198921
  67 N :    0.166099
  68 C :   -0.014611
  69 C :   -0.021382
  70 C :   -0.016520
  71 C :   -0.024834
  72 Br:    0.013977
  73 Br:    0.020981
  74 H :    0.008168
  75 H :    0.005190
  76 H :    0.044639
  77 H :    0.004623
  78 H :    0.022596
  79 H :    0.032313
  80 H :    0.042952
  81 H :    0.021305
  82 H :    0.024005
  83 H :    0.026631
  84 H :    0.046611
  85 H :    0.031977
  86 H :    0.026980
  87 H :    0.027107
  88 H :    0.025530
  89 H :    0.007314
  90 H :    0.001785
  91 H :   -0.003886
  92 H :    0.003027
  93 H :    0.023293
  94 H :    0.009190
  95 H :    0.007779
Sum of atomic charges:   -0.0000000

LOEWDIN ATOMIC CHARGES
----------------------
   0 C :    0.085774
   1 O :   -0.129973
   2 C :   -0.039516
   3 C :   -0.011981
   4 C :   -0.005915
   5 C :   -0.118090
   6 C :   -0.121610
   7 C :    0.006792
   8 Br:    0.140780
   9 Br:    0.144664
  10 C :    0.072040
  11 C :   -0.121510
  12 C :   -0.019330
  13 N :   -0.037348
  14 C :   -0.022980
  15 N :   -0.035666
  16 C :   -0.068805
  17 C :    0.078150
  18 C :   -0.066364
  19 C :    0.094680
  20 F :   -0.034899
  21 C :    0.068448
  22 F :   -0.030254
  23 C :   -0.034795
  24 C :   -0.043425
  25 C :   -0.036839
  26 N :   -0.276534
  27 S :    0.658643
  28 N :   -0.286462
  29 C :   -0.008123
  30 C :   -0.007181
  31 C :    0.072554
  32 N :   -0.005514
  33 C :    0.034216
  34 C :   -0.061754
  35 C :    0.080479
  36 O :   -0.194887
  37 C :   -0.111729
  38 C :   -0.106603
  39 C :    0.083450
  40 O :   -0.179205
  41 N :   -0.005714
  42 C :    0.034212
  43 C :   -0.061606
  44 C :    0.077906
  45 C :   -0.011514
  46 C :    0.004695
  47 C :   -0.003064
  48 C :   -0.037723
  49 N :   -0.278334
  50 S :    0.658741
  51 N :   -0.284011
  52 C :   -0.041464
  53 C :   -0.044076
  54 C :    0.031713
  55 C :   -0.002449
  56 C :    0.070405
  57 C :   -0.079037
  58 C :    0.086369
  59 O :   -0.131983
  60 C :   -0.045193
  61 C :   -0.004574
  62 C :    0.074711
  63 C :   -0.127174
  64 C :   -0.019379
  65 N :   -0.049104
  66 C :   -0.022308
  67 N :   -0.046314
  68 C :   -0.010342
  69 C :   -0.117442
  70 C :   -0.124973
  71 C :    0.007726
  72 Br:    0.137136
  73 Br:    0.141648
  74 H :    0.044923
  75 H :    0.045965
  76 H :    0.049508
  77 H :    0.035949
  78 H :    0.044879
  79 H :    0.024363
  80 H :    0.037696
  81 H :    0.022389
  82 H :    0.032144
  83 H :    0.031839
  84 H :    0.038337
  85 H :    0.023423
  86 H :    0.031906
  87 H :    0.033253
  88 H :    0.023740
  89 H :    0.044366
  90 H :    0.034690
  91 H :    0.040387
  92 H :    0.039854
  93 H :    0.048575
  94 H :    0.044309
  95 H :    0.046643

  Mayer bond orders larger than 0.100000
B(  0-C ,  1-O ) :   2.2341 B(  0-C ,  2-C ) :   0.9471 B(  0-C , 16-C ) :   0.9332
B(  2-C ,  3-C ) :   1.3282 B(  2-C ,  7-C ) :   1.3714 B(  3-C ,  4-C ) :   1.3593
B(  3-C , 10-C ) :   0.9996 B(  4-C ,  5-C ) :   1.3756 B(  4-C , 74-H ) :   0.9790
B(  5-C ,  6-C ) :   1.4165 B(  5-C ,  9-Br) :   1.0594 B(  6-C ,  7-C ) :   1.3553
B(  6-C ,  8-Br) :   1.0352 B(  7-C , 75-H ) :   1.0076 B( 10-C , 11-C ) :   1.6683
B( 10-C , 16-C ) :   1.0562 B( 11-C , 12-C ) :   1.1354 B( 11-C , 14-C ) :   1.1395
B( 12-C , 13-N ) :   2.9752 B( 14-C , 15-N ) :   2.9862 B( 16-C , 17-C ) :   1.6791
B( 17-C , 18-C ) :   1.0826 B( 17-C , 76-H ) :   0.9386 B( 18-C , 19-C ) :   1.3857
B( 18-C , 23-C ) :   0.1223 B( 18-C , 25-C ) :   1.1830 B( 19-C , 20-F ) :   1.1834
B( 19-C , 21-C ) :   1.1610 B( 21-C , 22-F ) :   1.1444 B( 21-C , 23-C ) :   1.3321
B( 23-C , 24-C ) :   1.1488 B( 23-C , 29-C ) :   1.1718 B( 24-C , 25-C ) :   1.1584
B( 24-C , 28-N ) :   1.5480 B( 25-C , 26-N ) :   1.5373 B( 26-N , 27-S ) :   1.2683
B( 26-N , 28-N ) :   0.1453 B( 27-S , 28-N ) :   1.2667 B( 29-C , 30-C ) :   1.5270
B( 29-C , 77-H ) :   0.9738 B( 30-C , 31-C ) :   1.1817 B( 30-C , 78-H ) :   0.9499
B( 31-C , 32-N ) :   1.1680 B( 31-C , 38-C ) :   1.3338 B( 32-N , 33-C ) :   0.9397
B( 32-N , 35-C ) :   1.0412 B( 33-C , 34-C ) :   1.1185 B( 33-C , 79-H ) :   0.9516
B( 33-C , 80-H ) :   0.9223 B( 34-C , 81-H ) :   0.9678 B( 34-C , 82-H ) :   0.9678
B( 34-C , 83-H ) :   0.9608 B( 35-C , 36-O ) :   2.1151 B( 35-C , 37-C ) :   0.9811
B( 37-C , 38-C ) :   1.2489 B( 37-C , 44-C ) :   1.3233 B( 38-C , 39-C ) :   0.9735
B( 39-C , 40-O ) :   2.1379 B( 39-C , 41-N ) :   1.0264 B( 41-N , 42-C ) :   0.9385
B( 41-N , 44-C ) :   1.1819 B( 42-C , 43-C ) :   1.1172 B( 42-C , 84-H ) :   0.9227
B( 42-C , 85-H ) :   0.9511 B( 43-C , 86-H ) :   0.9621 B( 43-C , 87-H ) :   0.9679
B( 43-C , 88-H ) :   0.9681 B( 44-C , 45-C ) :   1.1890 B( 45-C , 46-C ) :   1.5372
B( 45-C , 89-H ) :   0.9449 B( 46-C , 47-C ) :   1.1331 B( 46-C , 90-H ) :   0.9863
B( 47-C , 48-C ) :   1.1573 B( 47-C , 53-C ) :   0.1026 B( 47-C , 55-C ) :   1.4063
B( 48-C , 49-N ) :   1.5390 B( 48-C , 52-C ) :   1.1691 B( 49-N , 50-S ) :   1.2749
B( 49-N , 51-N ) :   0.1402 B( 50-S , 51-N ) :   1.2515 B( 51-N , 52-C ) :   1.5262
B( 52-C , 53-C ) :   1.1774 B( 53-C , 54-C ) :   1.4016 B( 53-C , 56-C ) :   1.0847
B( 54-C , 55-C ) :   1.2663 B( 54-C , 91-H ) :   0.9942 B( 55-C , 92-H ) :   0.9913
B( 56-C , 57-C ) :   1.6811 B( 56-C , 93-H ) :   0.9420 B( 57-C , 58-C ) :   0.9375
B( 57-C , 62-C ) :   1.0321 B( 58-C , 59-O ) :   2.2713 B( 58-C , 60-C ) :   0.9218
B( 60-C , 61-C ) :   1.3258 B( 60-C , 71-C ) :   1.3695 B( 61-C , 62-C ) :   1.0107
B( 61-C , 68-C ) :   1.3682 B( 62-C , 63-C ) :   1.6576 B( 63-C , 64-C ) :   1.1641
B( 63-C , 66-C ) :   1.1412 B( 64-C , 65-N ) :   3.0073 B( 66-C , 67-N ) :   2.9892
B( 68-C , 69-C ) :   1.3654 B( 68-C , 94-H ) :   0.9842 B( 69-C , 70-C ) :   1.4209
B( 69-C , 73-Br) :   1.0539 B( 70-C , 71-C ) :   1.3562 B( 70-C , 72-Br) :   1.0340
B( 71-C , 95-H ) :   1.0091

-----------------------------------------------------------------------------
         ABSORPTION SPECTRUM VIA TRANSITION ELECTRIC DIPOLE MOMENTS
-----------------------------------------------------------------------------
State   Energy  Wavelength   fosc         T2         TX        TY        TZ
        (cm-1)    (nm)                  (au**2)     (au)      (au)      (au)
-----------------------------------------------------------------------------
   0   11883.3    841.5   1.483229777  41.09085   4.70185   3.88443   1.97350
   1   16982.2    588.9   0.006668245   0.12927   0.09210  -0.33851   0.07872
   2   22542.5    443.6   0.349711085   5.10720  -1.35298  -1.77740   0.34274
   3   22840.0    437.8   0.023088285   0.33279  -0.20741   0.07843  -0.53256
   4   23889.3    418.6   0.573055206   7.89711   1.91491   2.00983   0.43680
   5   24493.5    408.3   0.028081677   0.37744   0.21065   0.53384  -0.21927
   6   25134.1    397.9   0.008183356   0.10719   0.28143   0.09553   0.13734
   7   25277.3    395.6   0.175610445   2.28715   1.35094   0.50726   0.45254
   8   26526.6    377.0   0.138535819   1.71931   1.01966   0.43702  -0.69902
   9   27142.1    368.4   0.089878038   1.09015   0.46448   0.80713   0.47216
  10   27243.4    367.1   0.033768012   0.40806  -0.36470  -0.47356  -0.22538
  11   27809.5    359.6   0.037429997   0.44310  -0.30711   0.31251   0.50112
  12   28053.0    356.5   0.080751758   0.94765   0.53053  -0.59457  -0.55918
  13   28768.3    347.6   0.048877302   0.55933   0.50380   0.54963  -0.05849
  14   29397.6    340.2   0.018446710   0.20658  -0.37779   0.05785   0.24598
  15   29795.1    335.6   0.013775654   0.15221   0.34155   0.08710   0.16723
  16   30087.2    332.4   0.014143422   0.15476   0.30083  -0.19847  -0.15770
  17   30800.9    324.7   0.001658028   0.01772  -0.07533   0.03665   0.10346
  18   31076.4    321.8   0.090515410   0.95889   0.06608   0.07968  -0.97374
  19   31694.7    315.5   0.011320949   0.11759   0.19714   0.00445  -0.28055
  20   31710.7    315.4   0.012206191   0.12672  -0.24970   0.20642  -0.14752
  21   32267.0    309.9   0.111890578   1.14159  -0.36656  -0.03311  -1.00306
  22   32438.0    308.3   0.012336832   0.12521   0.25956   0.23984   0.01765
  23   32646.6    306.3   0.015344081   0.15473  -0.31875   0.17294  -0.15238
  24   32811.5    304.8   0.067525223   0.67751   0.08169  -0.43734  -0.69251
  25   32981.6    303.2   0.122726259   1.22501   1.07447   0.08638  -0.25114
  26   33538.9    298.2   0.012450838   0.12222   0.16255   0.23367   0.20295
  27   33701.0    296.7   0.044880885   0.43842  -0.42807   0.29858   0.40746
  28   34028.9    293.9   0.308134410   2.98104   1.14806  -0.61942  -1.13107
  29   34228.5    292.2   0.291071075   2.79954  -1.65134  -0.10984   0.24607
  30   34530.2    289.6   0.036802127   0.35087   0.50334   0.06103  -0.30626
  31   34974.0    285.9   0.358028510   3.37014  -1.74510  -0.26014   0.50703
  32   35116.0    284.8   0.358514799   3.36107   1.41855  -0.36128  -1.10375
  33   35290.8    283.4   0.032235846   0.30071  -0.49032  -0.07961   0.23230
  34   35854.1    278.9   0.028061478   0.25766   0.12382   0.48922  -0.05474
  35   36367.5    275.0   0.016676985   0.15097   0.07780  -0.03155   0.37936
  36   36413.5    274.6   0.013623264   0.12317   0.04877  -0.34749  -0.00647
  37   36500.6    274.0   0.002429206   0.02191   0.08587   0.12056  -0.00177
  38   36739.8    272.2   0.030332918   0.27180   0.09297  -0.41219  -0.30538
  39   36918.1    270.9   0.000221480   0.00198   0.01253  -0.01934  -0.03800
  40   37011.7    270.2   0.001590334   0.01415   0.02302  -0.05016   0.10536
  41   37243.6    268.5   0.011540306   0.10201   0.27483  -0.11514   0.11499
  42   37395.2    267.4   0.000470798   0.00414  -0.03828  -0.02559   0.04500
  43   37489.4    266.7   0.074776007   0.65664  -0.72984   0.08396   0.34195
  44   37815.9    264.4   0.041574281   0.36193  -0.41118  -0.31738   0.30353
  45   38169.0    262.0   0.030530690   0.26333   0.17036   0.43472  -0.21289
  46   38780.4    257.9   0.002695305   0.02288  -0.03170   0.13135   0.06799
  47   38952.8    256.7   0.052341165   0.44236  -0.13117  -0.64084  -0.12033
  48   39081.9    255.9   0.286933538   2.41702  -0.93481  -0.77510  -0.97076
  49   39499.7    253.2   0.095728961   0.79786   0.35285   0.45260   0.68448
  50   39803.3    251.2   0.009178110   0.07591  -0.13959  -0.22651   0.07157
  51   40013.1    249.9   0.035755151   0.29418   0.41806   0.32039  -0.12943
  52   40175.9    248.9   0.025131802   0.20594  -0.07062   0.23553   0.38141
  53   40223.7    248.6   0.001093079   0.00895   0.02294  -0.04627  -0.07924

FINAL SINGLE POINT ENERGY    -14130.988077053669

DIPOLE MOMENT
-------------
                                X             Y             Z
Electronic contribution:    -67.95090      69.99114       9.56601
Nuclear contribution   :     66.11312     -69.25000      -7.71952
                        -----------------------------------------
Total Dipole Moment    :     -1.83777       0.74114       1.84649
                        -----------------------------------------
Magnitude (a.u.)       :      2.70855
Magnitude (Debye)      :      6.88458

Rotational constants in cm-1:     0.002105     0.000107     0.000105
Rotational constants in MHz :    63.095911     3.210305     3.146765

                             ****ORCA TERMINATED NORMALLY****
TOTAL RUN TIME: 0 days 0 hours 10 minutes 40 seconds 514 msec
