                         Program Version 4.2.0 -  RELEASE  -
|  1> # ORCA input file
|  2> # SCF done       -174.608330304155          0.000394005715
|  3> ! CAM-B3LYP def2-SVP def2/J RIJCOSX Grid4 TightSCF
|  4> %maxcore 5000
|  5> %tddft
|  6>     Mode sTDDFT
|  7>     Ethresh 5.0
|  8>     maxcore 5000
|  9> end
| 10>
| 11> %pal
| 12>   nprocs 6
| 13>   end
| 14> * xyz 0 1
| 15>    C        1.39548        -1.90215        -3.42241
| 16>    O        0.93174        -2.97209        -3.75450
| 17>    C        2.61977        -1.27906        -3.95985
| 18>    C        2.82159        -0.02874        -3.34909
| 19>    C        3.92665         0.73050        -3.70007
| 20>    C        4.80465         0.22951        -4.65449
| 21>    C        4.59055        -1.01250        -5.25889
| 22>    C        3.48679        -1.77891        -4.90965
| 23>   Br        5.79911        -1.66478        -6.55505
| 24>   Br        6.31293         1.26370        -5.12905
| 25>    C        1.73560         0.21903        -2.40323
| 26>    C        1.55788         1.37132        -1.68965
| 27>    C        2.43358         2.47904        -1.75303
| 28>    N        3.10745         3.40709        -1.76288
| 29>    C        0.48427         1.65016        -0.81353
| 30>    N       -0.35118         1.97260        -0.09631
| 31>    C        0.87801        -0.95948        -2.40766
| 32>    C       -0.17960        -1.17803        -1.57658
| 33>    C       -1.05831        -2.28311        -1.50664
| 34>    S       -1.13223        -3.71220        -2.52650
| 35>    C       -2.48082        -4.19691        -1.53239
| 36>    N       -2.75735        -3.32530        -0.57821
| 37>    N       -1.98962        -2.29436        -0.57245
| 38>    C       -3.19904        -5.40177        -1.74281
| 39>    C       -4.24058        -5.75908        -0.94816
| 40>    C       -4.98802        -6.94546        -1.14776
| 41>    N       -6.05397        -7.31804        -0.36303
| 42>    C       -6.61209        -6.57421         0.74146
| 43>    C       -7.49141        -5.42178         0.26345
| 44>    C       -6.62192        -8.52971        -0.78596
| 45>    O       -7.57562        -9.05193        -0.24320
| 46>    C       -5.81615        -8.92716        -1.92174
| 47>    C       -4.82328        -7.93572        -2.11606
| 48>    C       -4.01814        -8.32910        -3.25212
| 49>    O       -3.06700        -7.80738        -3.79732
| 50>    N       -4.58785        -9.54228        -3.67771
| 51>    C       -4.01894       -10.28642        -4.77583
| 52>    C       -3.15831       -11.44951        -4.28874
| 53>    C       -5.65544        -9.91266        -2.89524
| 54>    C       -6.42297       -11.08751        -3.11493
| 55>    C       -7.45622       -11.43331        -2.31104
| 56>    C       -8.28027       -12.59574        -2.46547
| 57>    C       -8.22485       -13.50805        -3.53399
| 58>    N       -9.00821       -14.55700        -3.61295
| 59>    C       -9.86076       -14.77445        -2.61041
| 60>    N      -10.01947       -13.96056        -1.56007
| 61>    C       -9.26102       -12.89379        -1.50067
| 62>    C      -10.71295       -15.93373        -2.72748
| 63>    C      -11.43629       -16.52610        -1.75422
| 64>    C      -12.56317       -17.44235        -2.11294
| 65>    O      -12.76126       -17.97113        -3.17715
| 66>    C      -13.40282       -17.49470        -0.89655
| 67>    C      -12.76413       -16.80430         0.15179
| 68>    C      -11.46208       -16.33489        -0.31172
| 69>    C      -10.40153       -16.01600         0.48396
| 70>    C       -9.08548       -15.82873         0.00457
| 71>    N       -7.98554       -15.74402        -0.30946
| 72>    C      -10.47643       -15.93609         1.89178
| 73>    N      -10.49943       -15.85092         3.03524
| 74>    C      -13.38789       -16.68987         1.38321
| 75>    C      -14.63701       -17.27514         1.55240
| 76>    C      -15.25745       -17.97336         0.51210
| 77>    C      -14.63917       -18.08473        -0.72634
| 78>   Br      -16.94977       -18.76912         0.77623
| 79>   Br      -15.49801       -17.11022         3.22512
| 80>    H        4.12841         1.69168        -3.25632
| 81>    H        3.30897        -2.74022        -5.36630
| 82>    H       -0.41988        -0.43028        -0.83044
| 83>    H       -2.88921        -6.02540        -2.56981
| 84>    H       -4.50880        -5.10471        -0.13167
| 85>    H       -5.80380        -6.20810         1.37960
| 86>    H       -7.21691        -7.28627         1.30986
| 87>    H       -6.91949        -4.71489        -0.33318
| 88>    H       -7.90696        -4.89927         1.12027
| 89>    H       -8.31051        -5.80445        -0.34067
| 90>    H       -3.39699        -9.57737        -5.32933
| 91>    H       -4.81835       -10.63895        -5.43361
| 92>    H       -2.34054       -11.07507        -3.67807
| 93>    H       -2.74053       -11.97893        -5.14043
| 94>    H       -3.74181       -12.14814        -3.69305
| 95>    H       -6.15030       -11.70687        -3.95666
| 96>    H       -7.69619       -10.80191        -1.46493
| 97>    H       -7.53889       -13.38083        -4.36130
| 98>    H       -9.41663       -12.24002        -0.65128
| 99>    H      -10.82975       -16.31654        -3.73447
|100>    H      -12.93827       -16.15301         2.20316
|101>    H      -15.11216       -18.61769        -1.53660
|102> *
|103>
|104>                          ****END OF INPUT****

CARTESIAN COORDINATES (ANGSTROEM)
---------------------------------
  C      1.395480   -1.902150   -3.422410
  O      0.931740   -2.972090   -3.754500
  C      2.619770   -1.279060   -3.959850
  C      2.821590   -0.028740   -3.349090
  C      3.926650    0.730500   -3.700070
  C      4.804650    0.229510   -4.654490
  C      4.590550   -1.012500   -5.258890
  C      3.486790   -1.778910   -4.909650
  Br     5.799110   -1.664780   -6.555050
  Br     6.312930    1.263700   -5.129050
  C      1.735600    0.219030   -2.403230
  C      1.557880    1.371320   -1.689650
  C      2.433580    2.479040   -1.753030
  N      3.107450    3.407090   -1.762880
  C      0.484270    1.650160   -0.813530
  N     -0.351180    1.972600   -0.096310
  C      0.878010   -0.959480   -2.407660
  C     -0.179600   -1.178030   -1.576580
  C     -1.058310   -2.283110   -1.506640
  S     -1.132230   -3.712200   -2.526500
  C     -2.480820   -4.196910   -1.532390
  N     -2.757350   -3.325300   -0.578210
  N     -1.989620   -2.294360   -0.572450
  C     -3.199040   -5.401770   -1.742810
  C     -4.240580   -5.759080   -0.948160
  C     -4.988020   -6.945460   -1.147760
  N     -6.053970   -7.318040   -0.363030
  C     -6.612090   -6.574210    0.741460
  C     -7.491410   -5.421780    0.263450
  C     -6.621920   -8.529710   -0.785960
  O     -7.575620   -9.051930   -0.243200
  C     -5.816150   -8.927160   -1.921740
  C     -4.823280   -7.935720   -2.116060
  C     -4.018140   -8.329100   -3.252120
  O     -3.067000   -7.807380   -3.797320
  N     -4.587850   -9.542280   -3.677710
  C     -4.018940  -10.286420   -4.775830
  C     -3.158310  -11.449510   -4.288740
  C     -5.655440   -9.912660   -2.895240
  C     -6.422970  -11.087510   -3.114930
  C     -7.456220  -11.433310   -2.311040
  C     -8.280270  -12.595740   -2.465470
  C     -8.224850  -13.508050   -3.533990
  N     -9.008210  -14.557000   -3.612950
  C     -9.860760  -14.774450   -2.610410
  N    -10.019470  -13.960560   -1.560070
  C     -9.261020  -12.893790   -1.500670
  C    -10.712950  -15.933730   -2.727480
  C    -11.436290  -16.526100   -1.754220
  C    -12.563170  -17.442350   -2.112940
  O    -12.761260  -17.971130   -3.177150
  C    -13.402820  -17.494700   -0.896550
  C    -12.764130  -16.804300    0.151790
  C    -11.462080  -16.334890   -0.311720
  C    -10.401530  -16.016000    0.483960
  C     -9.085480  -15.828730    0.004570
  N     -7.985540  -15.744020   -0.309460
  C    -10.476430  -15.936090    1.891780
  N    -10.499430  -15.850920    3.035240
  C    -13.387890  -16.689870    1.383210
  C    -14.637010  -17.275140    1.552400
  C    -15.257450  -17.973360    0.512100
  C    -14.639170  -18.084730   -0.726340
  Br   -16.949770  -18.769120    0.776230
  Br   -15.498010  -17.110220    3.225120
  H      4.128410    1.691680   -3.256320
  H      3.308970   -2.740220   -5.366300
  H     -0.419880   -0.430280   -0.830440
  H     -2.889210   -6.025400   -2.569810
  H     -4.508800   -5.104710   -0.131670
  H     -5.803800   -6.208100    1.379600
  H     -7.216910   -7.286270    1.309860
  H     -6.919490   -4.714890   -0.333180
  H     -7.906960   -4.899270    1.120270
  H     -8.310510   -5.804450   -0.340670
  H     -3.396990   -9.577370   -5.329330
  H     -4.818350  -10.638950   -5.433610
  H     -2.340540  -11.075070   -3.678070
  H     -2.740530  -11.978930   -5.140430
  H     -3.741810  -12.148140   -3.693050
  H     -6.150300  -11.706870   -3.956660
  H     -7.696190  -10.801910   -1.464930
  H     -7.538890  -13.380830   -4.361300
  H     -9.416630  -12.240020   -0.651280
  H    -10.829750  -16.316540   -3.734470
  H    -12.938270  -16.153010    2.203160
  H    -15.112160  -18.617690   -1.536600

 Total Charge           Charge          ....    0
 Multiplicity           Mult            ....    1
 Number of Electrons    NEL             ....  556
 Basis Dimension        Dim             .... 1096

ORBITAL ENERGIES
----------------

  NO   OCC          E(Eh)            E(eV)
   0   2.0000    -482.884624    -13139.9586
   1   2.0000    -482.882997    -13139.9144
   2   2.0000    -482.880608    -13139.8494
   3   2.0000    -482.879715    -13139.8251
   4   2.0000     -88.987100     -2421.4621
   5   2.0000     -62.562242     -1702.4052
   6   2.0000     -62.560596     -1702.3604
   7   2.0000     -62.558208     -1702.2954
   8   2.0000     -62.557345     -1702.2719
   9   2.0000     -56.396199     -1534.6186
  10   2.0000     -56.394570     -1534.5743
  11   2.0000     -56.393539     -1534.5462
  12   2.0000     -56.393430     -1534.5432
  13   2.0000     -56.392161     -1534.5087
  14   2.0000     -56.391885     -1534.5012
  15   2.0000     -56.391782     -1534.4984
  16   2.0000     -56.391308     -1534.4855
  17   2.0000     -56.389501     -1534.4363
  18   2.0000     -56.389412     -1534.4339
  19   2.0000     -56.388635     -1534.4128
  20   2.0000     -56.388538     -1534.4101
  21   2.0000     -19.243422      -523.6401
  22   2.0000     -19.230451      -523.2872
  23   2.0000     -19.205445      -522.6067
  24   2.0000     -19.201167      -522.4903
  25   2.0000     -14.465967      -393.6390
  26   2.0000     -14.462956      -393.5570
  27   2.0000     -14.458047      -393.4235
  28   2.0000     -14.447897      -393.1473
  29   2.0000     -14.432841      -392.7376
  30   2.0000     -14.431898      -392.7119
  31   2.0000     -14.429648      -392.6507
  32   2.0000     -14.429039      -392.6341
  33   2.0000     -14.425386      -392.5347
  34   2.0000     -14.422268      -392.4499
  35   2.0000     -10.391612      -282.7701
  36   2.0000     -10.386915      -282.6423
  37   2.0000     -10.384017      -282.5635
  38   2.0000     -10.381287      -282.4892
  39   2.0000     -10.364604      -282.0352
  40   2.0000     -10.363134      -281.9952
  41   2.0000     -10.362692      -281.9832
  42   2.0000     -10.362319      -281.9730
  43   2.0000     -10.359245      -281.8894
  44   2.0000     -10.358603      -281.8719
  45   2.0000     -10.358115      -281.8586
  46   2.0000     -10.356117      -281.8043
  47   2.0000     -10.353171      -281.7241
  48   2.0000     -10.352678      -281.7107
  49   2.0000     -10.350399      -281.6487
  50   2.0000     -10.348436      -281.5953
  51   2.0000     -10.348334      -281.5925
  52   2.0000     -10.341576      -281.4086
  53   2.0000     -10.338798      -281.3330
  54   2.0000     -10.338118      -281.3145
  55   2.0000     -10.330642      -281.1110
  56   2.0000     -10.330406      -281.1046
  57   2.0000     -10.328819      -281.0615
  58   2.0000     -10.326483      -280.9979
  59   2.0000     -10.325023      -280.9582
  60   2.0000     -10.324439      -280.9423
  61   2.0000     -10.321842      -280.8716
  62   2.0000     -10.321242      -280.8553
  63   2.0000     -10.320639      -280.8389
  64   2.0000     -10.319623      -280.8112
  65   2.0000     -10.318945      -280.7928
  66   2.0000     -10.317340      -280.7491
  67   2.0000     -10.316406      -280.7237
  68   2.0000     -10.314587      -280.6742
  69   2.0000     -10.314494      -280.6716
  70   2.0000     -10.313999      -280.6582
  71   2.0000     -10.313252      -280.6378
  72   2.0000     -10.310021      -280.5499
  73   2.0000     -10.307444      -280.4798
  74   2.0000     -10.306481      -280.4536
  75   2.0000     -10.306401      -280.4514
  76   2.0000     -10.303667      -280.3770
  77   2.0000     -10.274674      -279.5881
  78   2.0000     -10.273396      -279.5533
  79   2.0000     -10.272980      -279.5420
  80   2.0000     -10.267685      -279.3979
  81   2.0000      -8.791578      -239.2310
  82   2.0000      -8.789911      -239.1856
  83   2.0000      -8.787523      -239.1207
  84   2.0000      -8.786681      -239.0977
  85   2.0000      -8.081239      -219.9017
  86   2.0000      -6.627754      -180.3504
  87   2.0000      -6.626125      -180.3060
  88   2.0000      -6.623669      -180.2392
  89   2.0000      -6.622876      -180.2176
  90   2.0000      -6.613701      -179.9679
  91   2.0000      -6.612873      -179.9454
  92   2.0000      -6.612007      -179.9219
  93   2.0000      -6.611183      -179.8994
  94   2.0000      -6.609643      -179.8575
  95   2.0000      -6.608855      -179.8361
  96   2.0000      -6.608792      -179.8344
  97   2.0000      -6.607966      -179.8119
  98   2.0000      -6.049993      -164.6287
  99   2.0000      -6.046125      -164.5234
 100   2.0000      -6.043969      -164.4648
 101   2.0000      -2.743622       -74.6577
 102   2.0000      -2.742000       -74.6136
 103   2.0000      -2.739879       -74.5559
 104   2.0000      -2.739574       -74.5476
 105   2.0000      -2.739269       -74.5393
 106   2.0000      -2.738742       -74.5249
 107   2.0000      -2.738205       -74.5103
 108   2.0000      -2.737625       -74.4946
 109   2.0000      -2.735791       -74.4446
 110   2.0000      -2.735199       -74.4285
 111   2.0000      -2.734968       -74.4223
 112   2.0000      -2.734404       -74.4069
 113   2.0000      -2.728077       -74.2347
 114   2.0000      -2.728056       -74.2342
 115   2.0000      -2.726370       -74.1883
 116   2.0000      -2.726354       -74.1879
 117   2.0000      -2.724038       -74.1249
 118   2.0000      -2.724024       -74.1245
 119   2.0000      -2.723159       -74.1009
 120   2.0000      -2.723141       -74.1004
 121   2.0000      -1.160465       -31.5779
 122   2.0000      -1.157022       -31.4842
 123   2.0000      -1.146631       -31.2014
 124   2.0000      -1.146112       -31.1873
 125   2.0000      -1.138658       -30.9844
 126   2.0000      -1.105221       -30.0746
 127   2.0000      -1.075977       -29.2788
 128   2.0000      -1.066891       -29.0316
 129   2.0000      -1.036701       -28.2101
 130   2.0000      -1.030916       -28.0527
 131   2.0000      -1.019694       -27.7473
 132   2.0000      -1.014447       -27.6045
 133   2.0000      -1.007339       -27.4111
 134   2.0000      -1.004062       -27.3219
 135   2.0000      -0.997563       -27.1451
 136   2.0000      -0.989571       -26.9276
 137   2.0000      -0.983218       -26.7547
 138   2.0000      -0.958617       -26.0853
 139   2.0000      -0.948529       -25.8108
 140   2.0000      -0.942121       -25.6364
 141   2.0000      -0.936775       -25.4909
 142   2.0000      -0.930636       -25.3239
 143   2.0000      -0.926100       -25.2005
 144   2.0000      -0.920905       -25.0591
 145   2.0000      -0.918204       -24.9856
 146   2.0000      -0.911913       -24.8144
 147   2.0000      -0.903466       -24.5846
 148   2.0000      -0.896559       -24.3966
 149   2.0000      -0.887550       -24.1515
 150   2.0000      -0.878141       -23.8954
 151   2.0000      -0.863138       -23.4872
 152   2.0000      -0.858793       -23.3690
 153   2.0000      -0.857834       -23.3428
 154   2.0000      -0.856736       -23.3130
 155   2.0000      -0.829332       -22.5673
 156   2.0000      -0.818628       -22.2760
 157   2.0000      -0.809012       -22.0143
 158   2.0000      -0.790907       -21.5217
 159   2.0000      -0.782088       -21.2817
 160   2.0000      -0.778912       -21.1953
 161   2.0000      -0.772356       -21.0169
 162   2.0000      -0.769375       -20.9358
 163   2.0000      -0.767403       -20.8821
 164   2.0000      -0.747568       -20.3424
 165   2.0000      -0.739925       -20.1344
 166   2.0000      -0.729657       -19.8550
 167   2.0000      -0.718510       -19.5516
 168   2.0000      -0.716254       -19.4903
 169   2.0000      -0.713273       -19.4091
 170   2.0000      -0.706974       -19.2377
 171   2.0000      -0.699130       -19.0243
 172   2.0000      -0.696378       -18.9494
 173   2.0000      -0.684189       -18.6177
 174   2.0000      -0.682649       -18.5758
 175   2.0000      -0.672583       -18.3019
 176   2.0000      -0.660702       -17.9786
 177   2.0000      -0.652628       -17.7589
 178   2.0000      -0.646739       -17.5987
 179   2.0000      -0.639281       -17.3957
 180   2.0000      -0.636996       -17.3336
 181   2.0000      -0.632059       -17.1992
 182   2.0000      -0.627385       -17.0720
 183   2.0000      -0.622876       -16.9493
 184   2.0000      -0.602962       -16.4074
 185   2.0000      -0.600120       -16.3301
 186   2.0000      -0.596494       -16.2314
 187   2.0000      -0.595810       -16.2128
 188   2.0000      -0.586037       -15.9469
 189   2.0000      -0.584756       -15.9120
 190   2.0000      -0.579203       -15.7609
 191   2.0000      -0.575395       -15.6573
 192   2.0000      -0.572198       -15.5703
 193   2.0000      -0.567029       -15.4296
 194   2.0000      -0.563422       -15.3315
 195   2.0000      -0.556208       -15.1352
 196   2.0000      -0.555909       -15.1271
 197   2.0000      -0.553258       -15.0549
 198   2.0000      -0.552655       -15.0385
 199   2.0000      -0.550231       -14.9725
 200   2.0000      -0.549665       -14.9571
 201   2.0000      -0.548024       -14.9125
 202   2.0000      -0.545130       -14.8337
 203   2.0000      -0.541377       -14.7316
 204   2.0000      -0.539080       -14.6691
 205   2.0000      -0.537496       -14.6260
 206   2.0000      -0.534951       -14.5568
 207   2.0000      -0.533419       -14.5151
 208   2.0000      -0.530019       -14.4226
 209   2.0000      -0.520480       -14.1630
 210   2.0000      -0.519010       -14.1230
 211   2.0000      -0.515204       -14.0194
 212   2.0000      -0.513350       -13.9690
 213   2.0000      -0.512224       -13.9383
 214   2.0000      -0.511904       -13.9296
 215   2.0000      -0.504812       -13.7366
 216   2.0000      -0.503624       -13.7043
 217   2.0000      -0.498459       -13.5638
 218   2.0000      -0.497564       -13.5394
 219   2.0000      -0.496269       -13.5042
 220   2.0000      -0.488723       -13.2988
 221   2.0000      -0.488017       -13.2796
 222   2.0000      -0.480051       -13.0629
 223   2.0000      -0.477390       -12.9905
 224   2.0000      -0.475176       -12.9302
 225   2.0000      -0.472767       -12.8646
 226   2.0000      -0.470186       -12.7944
 227   2.0000      -0.468454       -12.7473
 228   2.0000      -0.465944       -12.6790
 229   2.0000      -0.464848       -12.6491
 230   2.0000      -0.462068       -12.5735
 231   2.0000      -0.460054       -12.5187
 232   2.0000      -0.458483       -12.4759
 233   2.0000      -0.456067       -12.4102
 234   2.0000      -0.455056       -12.3827
 235   2.0000      -0.454111       -12.3570
 236   2.0000      -0.452066       -12.3013
 237   2.0000      -0.450792       -12.2667
 238   2.0000      -0.443937       -12.0801
 239   2.0000      -0.440841       -11.9959
 240   2.0000      -0.439995       -11.9729
 241   2.0000      -0.439307       -11.9541
 242   2.0000      -0.438922       -11.9437
 243   2.0000      -0.435172       -11.8416
 244   2.0000      -0.433579       -11.7983
 245   2.0000      -0.433053       -11.7840
 246   2.0000      -0.424584       -11.5535
 247   2.0000      -0.423969       -11.5368
 248   2.0000      -0.421358       -11.4657
 249   2.0000      -0.414545       -11.2804
 250   2.0000      -0.408691       -11.1210
 251   2.0000      -0.406228       -11.0540
 252   2.0000      -0.404727       -11.0132
 253   2.0000      -0.404342       -11.0027
 254   2.0000      -0.399560       -10.8726
 255   2.0000      -0.397473       -10.8158
 256   2.0000      -0.397193       -10.8082
 257   2.0000      -0.394140       -10.7251
 258   2.0000      -0.387205       -10.5364
 259   2.0000      -0.381715       -10.3870
 260   2.0000      -0.363211        -9.8835
 261   2.0000      -0.362142        -9.8544
 262   2.0000      -0.360639        -9.8135
 263   2.0000      -0.357839        -9.7373
 264   2.0000      -0.353847        -9.6287
 265   2.0000      -0.352137        -9.5821
 266   2.0000      -0.347401        -9.4533
 267   2.0000      -0.344710        -9.3800
 268   2.0000      -0.342734        -9.3263
 269   2.0000      -0.340716        -9.2714
 270   2.0000      -0.338206        -9.2030
 271   2.0000      -0.330002        -8.9798
 272   2.0000      -0.326736        -8.8909
 273   2.0000      -0.322572        -8.7776
 274   2.0000      -0.319978        -8.7070
 275   2.0000      -0.312021        -8.4905
 276   2.0000      -0.309518        -8.4224
 277   2.0000      -0.249083        -6.7779
 278   0.0000      -0.119727        -3.2579
 279   0.0000      -0.104126        -2.8334
 280   0.0000      -0.086507        -2.3540
 281   0.0000      -0.078368        -2.1325
 282   0.0000      -0.068702        -1.8695

MULLIKEN ATOMIC CHARGES
-----------------------
   0 C :    0.173523
   1 O :   -0.155885
   2 C :   -0.018738
   3 C :    0.036541
   4 C :   -0.005015
   5 C :   -0.025471
   6 C :   -0.017052
   7 C :   -0.014981
   8 Br:    0.021970
   9 Br:    0.029624
  10 C :    0.310631
  11 C :   -0.332711
  12 C :   -0.186923
  13 N :    0.167808
  14 C :   -0.197483
  15 N :    0.177884
  16 C :   -0.085844
  17 C :    0.020621
  18 C :   -0.108698
  19 S :    0.201225
  20 C :   -0.082014
  21 N :   -0.054859
  22 N :   -0.026462
  23 C :    0.059495
  24 C :   -0.021314
  25 C :    0.139153
  26 N :   -0.253555
  27 C :    0.095864
  28 C :    0.003523
  29 C :    0.168952
  30 O :   -0.211893
  31 C :   -0.064658
  32 C :   -0.056324
  33 C :    0.167072
  34 O :   -0.202615
  35 N :   -0.257127
  36 C :    0.097224
  37 C :    0.002248
  38 C :    0.129624
  39 C :    0.002979
  40 C :    0.012066
  41 C :    0.034942
  42 C :    0.042654
  43 N :   -0.038085
  44 C :   -0.077479
  45 N :   -0.073968
  46 C :    0.047831
  47 C :    0.087184
  48 C :   -0.087142
  49 C :    0.139102
  50 O :   -0.121298
  51 C :   -0.006794
  52 C :    0.027494
  53 C :    0.280298
  54 C :   -0.286914
  55 C :   -0.178951
  56 N :    0.161277
  57 C :   -0.192305
  58 N :    0.164762
  59 C :   -0.009189
  60 C :   -0.021534
  61 C :   -0.015993
  62 C :   -0.019996
  63 Br:    0.017766
  64 Br:    0.025559
  65 H :    0.008603
  66 H :    0.008968
  67 H :    0.036423
  68 H :    0.012846
  69 H :    0.008665
  70 H :    0.030671
  71 H :    0.045206
  72 H :    0.021895
  73 H :    0.027956
  74 H :    0.027737
  75 H :    0.046548
  76 H :    0.023912
  77 H :    0.032278
  78 H :    0.026880
  79 H :    0.019735
  80 H :   -0.024662
  81 H :    0.018746
  82 H :    0.009792
  83 H :    0.027561
  84 H :    0.030353
  85 H :    0.012909
  86 H :    0.009352
Sum of atomic charges:   -0.0000000

LOEWDIN ATOMIC CHARGES
----------------------
   0 C :    0.085581
   1 O :   -0.146800
   2 C :   -0.044239
   3 C :   -0.010454
   4 C :   -0.005577
   5 C :   -0.116266
   6 C :   -0.122148
   7 C :    0.009395
   8 Br:    0.143489
   9 Br:    0.147607
  10 C :    0.070761
  11 C :   -0.119377
  12 C :   -0.018636
  13 N :   -0.036038
  14 C :   -0.025934
  15 N :   -0.026228
  16 C :   -0.089696
  17 C :    0.057320
  18 C :   -0.177911
  19 S :    0.489760
  20 C :   -0.152628
  21 N :   -0.080866
  22 N :   -0.040739
  23 C :   -0.014472
  24 C :   -0.001855
  25 C :    0.069326
  26 N :    0.004420
  27 C :    0.037456
  28 C :   -0.059739
  29 C :    0.080551
  30 O :   -0.200592
  31 C :   -0.119790
  32 C :   -0.111203
  33 C :    0.082588
  34 O :   -0.192358
  35 N :    0.001103
  36 C :    0.036242
  37 C :   -0.060373
  38 C :    0.080088
  39 C :   -0.037536
  40 C :    0.033234
  41 C :   -0.060137
  42 C :    0.063972
  43 N :   -0.061340
  44 C :    0.018406
  45 N :   -0.063994
  46 C :    0.069906
  47 C :    0.059482
  48 C :   -0.054629
  49 C :    0.085939
  50 O :   -0.121811
  51 C :   -0.046242
  52 C :   -0.006012
  53 C :    0.069883
  54 C :   -0.107356
  55 C :   -0.016391
  56 N :   -0.047534
  57 C :   -0.019760
  58 N :   -0.037708
  59 C :   -0.008345
  60 C :   -0.116268
  61 C :   -0.123744
  62 C :    0.009009
  63 Br:    0.140404
  64 Br:    0.145602
  65 H :    0.045258
  66 H :    0.047532
  67 H :    0.060252
  68 H :    0.037752
  69 H :    0.039204
  70 H :    0.026698
  71 H :    0.038302
  72 H :    0.024572
  73 H :    0.033151
  74 H :    0.031311
  75 H :    0.039004
  76 H :    0.022929
  77 H :    0.033518
  78 H :    0.032338
  79 H :    0.023158
  80 H :    0.028192
  81 H :    0.039981
  82 H :    0.025987
  83 H :    0.035393
  84 H :    0.053892
  85 H :    0.045469
  86 H :    0.047304

  Mayer bond orders larger than 0.100000
B(  0-C ,  1-O ) :   2.1673 B(  0-C ,  2-C ) :   0.9597 B(  0-C , 16-C ) :   0.9551
B(  2-C ,  3-C ) :   1.3264 B(  2-C ,  7-C ) :   1.3664 B(  3-C ,  4-C ) :   1.3633
B(  3-C , 10-C ) :   0.9935 B(  4-C ,  5-C ) :   1.3728 B(  4-C , 65-H ) :   0.9785
B(  5-C ,  6-C ) :   1.4156 B(  5-C ,  9-Br) :   1.0630 B(  6-C ,  7-C ) :   1.3559
B(  6-C ,  8-Br) :   1.0378 B(  7-C , 66-H ) :   1.0079 B( 10-C , 11-C ) :   1.6667
B( 10-C , 16-C ) :   1.0587 B( 11-C , 12-C ) :   1.1396 B( 11-C , 14-C ) :   1.1359
B( 12-C , 13-N ) :   2.9724 B( 14-C , 15-N ) :   2.9774 B( 16-C , 17-C ) :   1.5727
B( 17-C , 18-C ) :   1.1683 B( 17-C , 67-H ) :   0.9437 B( 18-C , 19-S ) :   1.0922
B( 18-C , 22-N ) :   1.5821 B( 19-S , 20-C ) :   1.1231 B( 19-S , 22-N ) :   0.1012
B( 20-C , 21-N ) :   1.5579 B( 20-C , 23-C ) :   1.1323 B( 21-N , 22-N ) :   1.3040
B( 23-C , 24-C ) :   1.6395 B( 23-C , 68-H ) :   0.9290 B( 24-C , 25-C ) :   1.1316
B( 24-C , 69-H ) :   0.9714 B( 25-C , 26-N ) :   1.1621 B( 25-C , 32-C ) :   1.3411
B( 26-N , 27-C ) :   0.9401 B( 26-N , 29-C ) :   1.0691 B( 27-C , 28-C ) :   1.1197
B( 27-C , 70-H ) :   0.9501 B( 27-C , 71-H ) :   0.9290 B( 28-C , 72-H ) :   0.9690
B( 28-C , 73-H ) :   0.9681 B( 28-C , 74-H ) :   0.9638 B( 29-C , 30-O ) :   2.0183
B( 29-C , 31-C ) :   0.9844 B( 30-O , 81-H ) :   0.1178 B( 31-C , 32-C ) :   1.2594
B( 31-C , 38-C ) :   1.3411 B( 32-C , 33-C ) :   0.9816 B( 33-C , 34-O ) :   2.0361
B( 33-C , 35-N ) :   1.0566 B( 34-O , 68-H ) :   0.1068 B( 35-N , 36-C ) :   0.9431
B( 35-N , 38-C ) :   1.1664 B( 36-C , 37-C ) :   1.1181 B( 36-C , 75-H ) :   0.9278
B( 36-C , 76-H ) :   0.9496 B( 37-C , 77-H ) :   0.9636 B( 37-C , 78-H ) :   0.9682
B( 37-C , 79-H ) :   0.9690 B( 38-C , 39-C ) :   1.1537 B( 39-C , 40-C ) :   1.6181
B( 39-C , 80-H ) :   0.9580 B( 40-C , 41-C ) :   1.0779 B( 40-C , 81-H ) :   0.9600
B( 41-C , 42-C ) :   1.2958 B( 41-C , 46-C ) :   1.2929 B( 42-C , 43-N ) :   1.5828
B( 42-C , 82-H ) :   0.9827 B( 43-N , 44-C ) :   1.5057 B( 44-C , 45-N ) :   1.4702
B( 44-C , 47-C ) :   1.0161 B( 45-N , 46-C ) :   1.5571 B( 46-C , 83-H ) :   0.9874
B( 47-C , 48-C ) :   1.7054 B( 47-C , 84-H ) :   0.9530 B( 48-C , 49-C ) :   0.9238
B( 48-C , 53-C ) :   1.0052 B( 49-C , 50-O ) :   2.2925 B( 49-C , 51-C ) :   0.9206
B( 51-C , 52-C ) :   1.3228 B( 51-C , 62-C ) :   1.3691 B( 52-C , 53-C ) :   1.0083
B( 52-C , 59-C ) :   1.3659 B( 53-C , 54-C ) :   1.7107 B( 54-C , 55-C ) :   1.1500
B( 54-C , 57-C ) :   1.1314 B( 55-C , 56-N ) :   2.9846 B( 57-C , 58-N ) :   2.9924
B( 59-C , 60-C ) :   1.3740 B( 59-C , 85-H ) :   0.9829 B( 60-C , 61-C ) :   1.4127
B( 60-C , 64-Br) :   1.0552 B( 61-C , 62-C ) :   1.3635 B( 61-C , 63-Br) :   1.0360
B( 62-C , 86-H ) :   1.0077

-----------------------------------------------------------------------------
         ABSORPTION SPECTRUM VIA TRANSITION ELECTRIC DIPOLE MOMENTS
-----------------------------------------------------------------------------
State   Energy  Wavelength   fosc         T2         TX        TY        TZ
        (cm-1)    (nm)                  (au**2)     (au)      (au)      (au)
-----------------------------------------------------------------------------
   0   13756.2    726.9   1.115789501  26.70300  -2.84030  -4.29996  -0.38211
   1   18932.1    528.2   0.004333865   0.07536  -0.15347   0.22561   0.03011
   2   23019.6    434.4   0.104836945   1.49931   0.69577   0.11806  -1.00064
   3   23191.5    431.2   0.001625287   0.02307  -0.01194   0.07007  -0.13424
   4   24779.6    403.6   0.047196180   0.62703  -0.26456   0.32803   0.67040
   5   25221.3    396.5   0.011972706   0.15628  -0.35448   0.01751  -0.17411
   6   25832.3    387.1   0.135131283   1.72214  -0.98465  -0.82914   0.25520
   7   26323.3    379.9   0.667109648   8.34319   1.96202   2.05254  -0.52983
   8   27345.2    365.7   0.055260875   0.66529  -0.25668  -0.74095   0.22451
   9   27593.2    362.4   0.089421115   1.06688  -0.33458  -0.71334   0.66789
  10   28239.9    354.1   0.016644836   0.19404  -0.28190  -0.28030   0.18975
  11   28773.5    347.5   0.255239459   2.92032   1.39983   0.10580  -0.97447
  12   29228.3    342.1   0.602636308   6.78777   1.93376   1.57096  -0.76187
  13   29730.9    336.4   0.002800570   0.03101  -0.01433   0.08976   0.15082
  14   30163.8    331.5   0.010249324   0.11186  -0.26334   0.20586   0.01177
  15   30794.0    324.7   0.009153396   0.09786   0.21256   0.22617  -0.03901
  16   31473.9    317.7   0.001995911   0.02088  -0.10132   0.05391   0.08778
  17   31778.8    314.7   0.149661349   1.55042   1.15669   0.04665  -0.45859
  18   32044.3    312.1   0.003611064   0.03710   0.03765  -0.06953   0.17563
  19   32449.1    308.2   0.021107824   0.21415  -0.42512  -0.10907  -0.14672
  20   32697.8    305.8   0.200844330   2.02216   0.94917   0.74244   0.75500
  21   33143.7    301.7   0.002804547   0.02786  -0.00007  -0.00971  -0.16662
  22   33443.4    299.0   0.012629350   0.12432  -0.21480  -0.26197  -0.09776
  23   33629.1    297.4   0.023558762   0.23063   0.37747  -0.03614  -0.29469
  24   33893.3    295.0   0.327413861   3.18023   1.40044  -0.26333  -1.07222
  25   34444.6    290.3   0.273173472   2.61092  -0.89666   1.05684   0.83067
  26   34471.9    290.1   0.023904319   0.22829  -0.42448   0.07962   0.20436
  27   34573.3    289.2   0.349559717   3.32856  -0.69862  -1.41551  -0.91478
  28   35446.2    282.1   0.005495988   0.05104  -0.07582  -0.20743  -0.04763
  29   35545.8    281.3   0.298749680   2.76691  -1.45514  -0.75479  -0.28243
  30   36376.0    274.9   0.045010273   0.40735  -0.50555  -0.19870  -0.33509
  31   37066.6    269.8   0.034032224   0.30226   0.36976   0.30241  -0.27218
  32   37131.2    269.3   0.233218298   2.06776  -1.06595  -0.65322   0.71049
  33   37435.0    267.1   0.029234563   0.25710  -0.14830  -0.41657   0.24813
  34   37929.3    263.6   0.002339101   0.02030  -0.01203   0.01721  -0.14093
  35   38034.2    262.9   0.095360985   0.82542  -0.62151  -0.50011   0.43478
  36   38067.1    262.7   0.197475869   1.70781   0.97205   0.44062  -0.75417
  37   38205.7    261.7   0.007276974   0.06270   0.10645   0.22552   0.02265
  38   38300.7    261.1   0.003911471   0.03362   0.17584   0.03490  -0.03850
  39   38358.3    260.7   0.049917843   0.42842   0.22251   0.48306   0.38153
  40   38493.0    259.8   0.012267786   0.10492  -0.29309   0.00257   0.13789
  41   38729.2    258.2   0.037044270   0.31489  -0.05218  -0.54882  -0.10468
  42   38846.6    257.4   0.039275784   0.33285  -0.55916  -0.14205  -0.00395
  43   38976.7    256.6   0.183436952   1.54938  -0.57783  -0.57825  -0.93867
  44   39745.2    251.6   0.134063681   1.11046  -0.93038  -0.27027   0.41449
  45   39809.5    251.2   0.052924026   0.43767   0.52103   0.12825  -0.38697
  46   40186.7    248.8   0.006003502   0.04918  -0.21897   0.00736   0.03436

FINAL SINGLE POINT ENERGY    -13305.106954475657

DIPOLE MOMENT
-------------
                                X             Y             Z
Electronic contribution:     11.00265     -12.40365      -0.46716
Nuclear contribution   :    -11.18784      11.35150      -1.64444
                        -----------------------------------------
Total Dipole Moment    :     -0.18519      -1.05215      -2.11160
                        -----------------------------------------
Magnitude (a.u.)       :      2.36647
Magnitude (Debye)      :      6.01508

Rotational constants in cm-1:     0.002549     0.000133     0.000128
Rotational constants in MHz :    76.406702     3.994024     3.837634

                             ****ORCA TERMINATED NORMALLY****
TOTAL RUN TIME: 0 days 0 hours 7 minutes 39 seconds 65 msec
