                         Program Version 4.2.0 -  RELEASE  -
|  1> # ORCA input file
|  2> # SCF done       -215.409632111561          0.000550757635
|  3> ! CAM-B3LYP def2-SVP def2/J RIJCOSX Grid4 TightSCF
|  4> %maxcore 5000
|  5> %tddft
|  6>     Mode sTDDFT
|  7>     Ethresh 5.0
|  8>     maxcore 5000
|  9> end
| 10>
| 11> %pal
| 12>   nprocs 6
| 13>   end
| 14> * xyz 0 1
| 15>    C        2.88015        -3.20323         4.92236
| 16>    C        3.25866        -4.02534         5.94759
| 17>    C        4.01470        -3.60709         7.06611
| 18>    N        4.61453        -3.34083         8.00645
| 19>    C        2.99319        -5.41144         6.01988
| 20>    N        2.84299        -6.54384         6.13196
| 21>    C        3.26693        -1.80307         4.77371
| 22>    C        2.86587        -1.35917         3.50086
| 23>    C        3.10776        -0.07410         3.06690
| 24>    C        3.75106         0.81181         3.93787
| 25>    C        4.13989         0.38238         5.21704
| 26>    C        3.91289        -0.92834         5.63128
| 27>    C        4.81845         1.29292         6.18887
| 28>    O        5.47880         0.89997         7.11504
| 29>    O        4.58970         2.57571         5.91546
| 30>    C        5.20424         3.52708         6.77444
| 31>    C        4.01036         2.12150         3.46301
| 32>    N        4.19939         3.14564         2.98549
| 33>    C        2.18320        -2.45584         2.77650
| 34>    O        1.76726        -2.40142         1.64089
| 35>    C        2.10886        -3.57599         3.74439
| 36>    C        1.32992        -4.69681         3.67783
| 37>    C        0.54406        -5.22038         2.62782
| 38>    S       -0.54556        -6.52896         3.03824
| 39>    C       -1.08867        -6.68047         1.40582
| 40>    C       -0.42581        -5.75193         0.58326
| 41>    C        0.47839        -4.93966         1.27325
| 42>    C       -0.63073        -5.62315        -0.80183
| 43>    N       -0.77528        -5.50450        -1.93399
| 44>    C       -2.07706        -7.64622         1.10487
| 45>    C       -2.54092        -7.94772        -0.13852
| 46>    C       -3.54524        -8.92369        -0.34385
| 47>    N       -3.99192        -9.31333        -1.58341
| 48>    C       -3.48409        -8.86812        -2.85976
| 49>    C       -2.15607        -9.53548        -3.20679
| 50>    C       -5.00234       -10.29242        -1.49808
| 51>    O       -5.54257       -10.79513        -2.45894
| 52>    C       -5.17870       -10.48860        -0.07437
| 53>    C       -4.27413        -9.64299         0.60607
| 54>    C       -4.47156        -9.85030         2.02230
| 55>    O       -3.91918        -9.38218         2.99851
| 56>    N       -5.50651       -10.80361         2.10415
| 57>    C       -5.94171       -11.26522         3.40085
| 58>    C       -7.08912       -10.41825         3.94804
| 59>    C       -5.94068       -11.18927         0.85759
| 60>    C       -6.94194       -12.13102         0.49002
| 61>    C       -7.91824       -12.67557         1.24946
| 62>    C       -8.88121       -13.64446         0.79035
| 63>    C       -9.98516       -13.92959         1.59858
| 64>    C      -10.94118       -14.85431         1.22177
| 65>    N      -12.03593       -15.03232         2.15143
| 66>    O      -11.78729       -14.85068         3.32349
| 67>    O      -13.12738       -15.32545         1.71670
| 68>    C      -10.81441       -15.59704         0.02880
| 69>    C       -9.69488       -15.30279        -0.76858
| 70>    C       -8.76853       -14.35154        -0.41662
| 71>    C      -11.73888       -16.63684        -0.34931
| 72>    C      -11.42449       -17.67232        -1.16434
| 73>    C      -12.36684       -18.68847        -1.46790
| 74>    C      -12.08234       -19.80858        -2.19269
| 75>    C      -12.98914       -20.90268        -2.50418
| 76>    C      -14.34843       -20.91224        -2.36161
| 77>    C      -15.17946       -21.99229        -2.73730
| 78>    N      -15.91379       -22.82185        -3.03322
| 79>    C      -15.12356       -19.83630        -1.87327
| 80>    N      -15.82009       -19.00335        -1.50279
| 81>    C      -12.19070       -21.98629        -3.07473
| 82>    C      -10.86458       -21.54217        -3.22997
| 83>    C      -10.73918       -20.15706        -2.72458
| 84>    O       -9.73797       -19.47592        -2.74184
| 85>    C       -9.87942       -22.35245        -3.75114
| 86>    C      -10.22065       -23.65501        -4.12907
| 87>    C      -11.53831       -24.11184        -3.96501
| 88>    C      -12.52312       -23.28230        -3.43402
| 89>    C      -11.93652       -25.50988        -4.31352
| 90>    O      -12.87405       -26.07455        -3.81320
| 91>    O      -11.13597       -26.03992        -5.23518
| 92>    C      -11.40220       -27.38318        -5.61694
| 93>    C       -9.18570       -24.48479        -4.62739
| 94>    N       -8.28302       -25.08775        -4.99389
| 95>    H        2.80463         0.24094         2.07970
| 96>    H        4.24339        -1.21368         6.61785
| 97>    H        5.01508         4.49881         6.32679
| 98>    H        6.27604         3.33413         6.84660
| 99>    H        4.76651         3.46915         7.77303
|100>    H        1.26145        -5.28375         4.58685
|101>    H        1.06354        -4.17171         0.80060
|102>    H       -2.47743        -8.18232         1.95655
|103>    H       -2.14308        -7.44353        -1.00548
|104>    H       -3.37948        -7.77993        -2.85497
|105>    H       -4.24032        -9.14790        -3.59833
|106>    H       -1.39444        -9.29709        -2.46773
|107>    H       -1.81682        -9.18863        -4.17835
|108>    H       -2.27927       -10.61517        -3.24497
|109>    H       -5.07952       -11.16270         4.06712
|110>    H       -6.21033       -12.32151         3.33575
|111>    H       -6.74499        -9.40020         4.11144
|112>    H       -7.42931       -10.82551         4.89612
|113>    H       -7.92668       -10.38741         3.25418
|114>    H       -6.89766       -12.36947        -0.56494
|115>    H       -8.04981       -12.37060         2.27604
|116>    H      -10.11661       -13.41411         2.53951
|117>    H       -9.57286       -15.83047        -1.70082
|118>    H       -7.93358       -14.16434        -1.07282
|119>    H      -12.73185       -16.59672         0.07778
|120>    H      -10.43241       -17.78033        -1.57552
|121>    H      -13.36228       -18.56157        -1.06124
|122>    H       -8.86742       -21.99137        -3.85695
|123>    H      -13.51542       -23.68670        -3.30937
|124>    H      -10.53820       -27.70747        -6.19068
|125>    H      -12.30752       -27.42730        -6.22544
|126>    H      -11.53879       -28.00707        -4.73188
|127> *
|128>
|129>                          ****END OF INPUT****

CARTESIAN COORDINATES (ANGSTROEM)
---------------------------------
  C      2.880150   -3.203230    4.922360
  C      3.258660   -4.025340    5.947590
  C      4.014700   -3.607090    7.066110
  N      4.614530   -3.340830    8.006450
  C      2.993190   -5.411440    6.019880
  N      2.842990   -6.543840    6.131960
  C      3.266930   -1.803070    4.773710
  C      2.865870   -1.359170    3.500860
  C      3.107760   -0.074100    3.066900
  C      3.751060    0.811810    3.937870
  C      4.139890    0.382380    5.217040
  C      3.912890   -0.928340    5.631280
  C      4.818450    1.292920    6.188870
  O      5.478800    0.899970    7.115040
  O      4.589700    2.575710    5.915460
  C      5.204240    3.527080    6.774440
  C      4.010360    2.121500    3.463010
  N      4.199390    3.145640    2.985490
  C      2.183200   -2.455840    2.776500
  O      1.767260   -2.401420    1.640890
  C      2.108860   -3.575990    3.744390
  C      1.329920   -4.696810    3.677830
  C      0.544060   -5.220380    2.627820
  S     -0.545560   -6.528960    3.038240
  C     -1.088670   -6.680470    1.405820
  C     -0.425810   -5.751930    0.583260
  C      0.478390   -4.939660    1.273250
  C     -0.630730   -5.623150   -0.801830
  N     -0.775280   -5.504500   -1.933990
  C     -2.077060   -7.646220    1.104870
  C     -2.540920   -7.947720   -0.138520
  C     -3.545240   -8.923690   -0.343850
  N     -3.991920   -9.313330   -1.583410
  C     -3.484090   -8.868120   -2.859760
  C     -2.156070   -9.535480   -3.206790
  C     -5.002340  -10.292420   -1.498080
  O     -5.542570  -10.795130   -2.458940
  C     -5.178700  -10.488600   -0.074370
  C     -4.274130   -9.642990    0.606070
  C     -4.471560   -9.850300    2.022300
  O     -3.919180   -9.382180    2.998510
  N     -5.506510  -10.803610    2.104150
  C     -5.941710  -11.265220    3.400850
  C     -7.089120  -10.418250    3.948040
  C     -5.940680  -11.189270    0.857590
  C     -6.941940  -12.131020    0.490020
  C     -7.918240  -12.675570    1.249460
  C     -8.881210  -13.644460    0.790350
  C     -9.985160  -13.929590    1.598580
  C    -10.941180  -14.854310    1.221770
  N    -12.035930  -15.032320    2.151430
  O    -11.787290  -14.850680    3.323490
  O    -13.127380  -15.325450    1.716700
  C    -10.814410  -15.597040    0.028800
  C     -9.694880  -15.302790   -0.768580
  C     -8.768530  -14.351540   -0.416620
  C    -11.738880  -16.636840   -0.349310
  C    -11.424490  -17.672320   -1.164340
  C    -12.366840  -18.688470   -1.467900
  C    -12.082340  -19.808580   -2.192690
  C    -12.989140  -20.902680   -2.504180
  C    -14.348430  -20.912240   -2.361610
  C    -15.179460  -21.992290   -2.737300
  N    -15.913790  -22.821850   -3.033220
  C    -15.123560  -19.836300   -1.873270
  N    -15.820090  -19.003350   -1.502790
  C    -12.190700  -21.986290   -3.074730
  C    -10.864580  -21.542170   -3.229970
  C    -10.739180  -20.157060   -2.724580
  O     -9.737970  -19.475920   -2.741840
  C     -9.879420  -22.352450   -3.751140
  C    -10.220650  -23.655010   -4.129070
  C    -11.538310  -24.111840   -3.965010
  C    -12.523120  -23.282300   -3.434020
  C    -11.936520  -25.509880   -4.313520
  O    -12.874050  -26.074550   -3.813200
  O    -11.135970  -26.039920   -5.235180
  C    -11.402200  -27.383180   -5.616940
  C     -9.185700  -24.484790   -4.627390
  N     -8.283020  -25.087750   -4.993890
  H      2.804630    0.240940    2.079700
  H      4.243390   -1.213680    6.617850
  H      5.015080    4.498810    6.326790
  H      6.276040    3.334130    6.846600
  H      4.766510    3.469150    7.773030
  H      1.261450   -5.283750    4.586850
  H      1.063540   -4.171710    0.800600
  H     -2.477430   -8.182320    1.956550
  H     -2.143080   -7.443530   -1.005480
  H     -3.379480   -7.779930   -2.854970
  H     -4.240320   -9.147900   -3.598330
  H     -1.394440   -9.297090   -2.467730
  H     -1.816820   -9.188630   -4.178350
  H     -2.279270  -10.615170   -3.244970
  H     -5.079520  -11.162700    4.067120
  H     -6.210330  -12.321510    3.335750
  H     -6.744990   -9.400200    4.111440
  H     -7.429310  -10.825510    4.896120
  H     -7.926680  -10.387410    3.254180
  H     -6.897660  -12.369470   -0.564940
  H     -8.049810  -12.370600    2.276040
  H    -10.116610  -13.414110    2.539510
  H     -9.572860  -15.830470   -1.700820
  H     -7.933580  -14.164340   -1.072820
  H    -12.731850  -16.596720    0.077780
  H    -10.432410  -17.780330   -1.575520
  H    -13.362280  -18.561570   -1.061240
  H     -8.867420  -21.991370   -3.856950
  H    -13.515420  -23.686700   -3.309370
  H    -10.538200  -27.707470   -6.190680
  H    -12.307520  -27.427300   -6.225440
  H    -11.538790  -28.007070   -4.731880

 Total Charge           Charge          ....    0
 Multiplicity           Mult            ....    1
 Number of Electrons    NEL             ....  552
 Basis Dimension        Dim             .... 1284

ORBITAL ENERGIES
----------------

  NO   OCC          E(Eh)            E(eV)
   0   2.0000     -88.998451     -2421.7710
   1   2.0000     -19.279368      -524.6183
   2   2.0000     -19.277818      -524.5761
   3   2.0000     -19.262055      -524.1472
   4   2.0000     -19.260729      -524.1111
   5   2.0000     -19.244319      -523.6646
   6   2.0000     -19.239455      -523.5322
   7   2.0000     -19.223664      -523.1025
   8   2.0000     -19.222195      -523.0625
   9   2.0000     -19.210405      -522.7417
  10   2.0000     -19.203685      -522.5588
  11   2.0000     -14.666776      -399.1033
  12   2.0000     -14.471154      -393.7801
  13   2.0000     -14.467152      -393.6712
  14   2.0000     -14.434579      -392.7849
  15   2.0000     -14.431008      -392.6877
  16   2.0000     -14.430272      -392.6677
  17   2.0000     -14.429055      -392.6346
  18   2.0000     -14.427941      -392.6042
  19   2.0000     -14.418411      -392.3449
  20   2.0000     -14.417306      -392.3148
  21   2.0000     -10.421985      -283.5966
  22   2.0000     -10.420408      -283.5537
  23   2.0000     -10.395129      -282.8658
  24   2.0000     -10.391558      -282.7687
  25   2.0000     -10.389713      -282.7185
  26   2.0000     -10.387867      -282.6682
  27   2.0000     -10.365750      -282.0664
  28   2.0000     -10.362818      -281.9866
  29   2.0000     -10.361302      -281.9454
  30   2.0000     -10.357749      -281.8487
  31   2.0000     -10.357693      -281.8472
  32   2.0000     -10.357643      -281.8458
  33   2.0000     -10.355535      -281.7884
  34   2.0000     -10.353503      -281.7331
  35   2.0000     -10.352015      -281.6926
  36   2.0000     -10.349970      -281.6370
  37   2.0000     -10.347105      -281.5591
  38   2.0000     -10.342881      -281.4441
  39   2.0000     -10.339347      -281.3479
  40   2.0000     -10.336129      -281.2604
  41   2.0000     -10.335077      -281.2317
  42   2.0000     -10.334872      -281.2262
  43   2.0000     -10.333155      -281.1794
  44   2.0000     -10.332767      -281.1689
  45   2.0000     -10.332739      -281.1681
  46   2.0000     -10.332112      -281.1510
  47   2.0000     -10.331395      -281.1315
  48   2.0000     -10.331360      -281.1306
  49   2.0000     -10.331345      -281.1302
  50   2.0000     -10.331006      -281.1210
  51   2.0000     -10.329851      -281.0895
  52   2.0000     -10.329120      -281.0697
  53   2.0000     -10.328856      -281.0625
  54   2.0000     -10.326829      -281.0073
  55   2.0000     -10.323658      -280.9210
  56   2.0000     -10.323371      -280.9132
  57   2.0000     -10.322342      -280.8852
  58   2.0000     -10.321638      -280.8661
  59   2.0000     -10.321312      -280.8572
  60   2.0000     -10.321216      -280.8546
  61   2.0000     -10.320988      -280.8484
  62   2.0000     -10.319546      -280.8091
  63   2.0000     -10.318798      -280.7888
  64   2.0000     -10.318529      -280.7814
  65   2.0000     -10.318139      -280.7708
  66   2.0000     -10.316587      -280.7286
  67   2.0000     -10.316480      -280.7257
  68   2.0000     -10.316363      -280.7225
  69   2.0000     -10.316356      -280.7223
  70   2.0000     -10.316201      -280.7181
  71   2.0000     -10.314801      -280.6800
  72   2.0000     -10.312342      -280.6131
  73   2.0000     -10.312161      -280.6082
  74   2.0000     -10.311861      -280.6000
  75   2.0000     -10.302372      -280.3418
  76   2.0000     -10.279294      -279.7138
  77   2.0000     -10.277984      -279.6782
  78   2.0000     -10.276440      -279.6362
  79   2.0000     -10.269887      -279.4578
  80   2.0000      -8.094076      -220.2510
  81   2.0000      -6.063114      -164.9857
  82   2.0000      -6.058998      -164.8737
  83   2.0000      -6.056529      -164.8065
  84   2.0000      -1.343150       -36.5490
  85   2.0000      -1.212946       -33.0060
  86   2.0000      -1.211295       -32.9610
  87   2.0000      -1.161837       -31.6152
  88   2.0000      -1.159602       -31.5544
  89   2.0000      -1.154295       -31.4100
  90   2.0000      -1.150324       -31.3019
  91   2.0000      -1.141844       -31.0712
  92   2.0000      -1.118129       -30.4258
  93   2.0000      -1.116671       -30.3862
  94   2.0000      -1.079443       -29.3731
  95   2.0000      -1.070604       -29.1326
  96   2.0000      -1.040603       -28.3162
  97   2.0000      -1.036338       -28.2002
  98   2.0000      -1.035097       -28.1664
  99   2.0000      -1.023105       -27.8401
 100   2.0000      -1.020298       -27.7637
 101   2.0000      -1.010180       -27.4884
 102   2.0000      -1.010146       -27.4875
 103   2.0000      -1.008740       -27.4492
 104   2.0000      -1.007237       -27.4083
 105   2.0000      -1.004658       -27.3381
 106   2.0000      -1.003035       -27.2940
 107   2.0000      -0.978095       -26.6153
 108   2.0000      -0.975595       -26.5473
 109   2.0000      -0.950323       -25.8596
 110   2.0000      -0.946297       -25.7501
 111   2.0000      -0.940387       -25.5892
 112   2.0000      -0.934035       -25.4164
 113   2.0000      -0.925909       -25.1953
 114   2.0000      -0.922621       -25.1058
 115   2.0000      -0.917302       -24.9611
 116   2.0000      -0.909863       -24.7586
 117   2.0000      -0.898220       -24.4418
 118   2.0000      -0.897215       -24.4145
 119   2.0000      -0.894770       -24.3479
 120   2.0000      -0.889522       -24.2051
 121   2.0000      -0.884657       -24.0727
 122   2.0000      -0.870449       -23.6861
 123   2.0000      -0.865818       -23.5601
 124   2.0000      -0.843035       -22.9401
 125   2.0000      -0.839608       -22.8469
 126   2.0000      -0.832963       -22.6661
 127   2.0000      -0.824217       -22.4281
 128   2.0000      -0.820905       -22.3380
 129   2.0000      -0.812088       -22.0980
 130   2.0000      -0.800157       -21.7734
 131   2.0000      -0.797041       -21.6886
 132   2.0000      -0.789435       -21.4816
 133   2.0000      -0.783106       -21.3094
 134   2.0000      -0.772713       -21.0266
 135   2.0000      -0.755997       -20.5717
 136   2.0000      -0.754326       -20.5263
 137   2.0000      -0.744383       -20.2557
 138   2.0000      -0.740281       -20.1441
 139   2.0000      -0.728999       -19.8371
 140   2.0000      -0.726780       -19.7767
 141   2.0000      -0.720590       -19.6083
 142   2.0000      -0.714737       -19.4490
 143   2.0000      -0.711018       -19.3478
 144   2.0000      -0.708223       -19.2717
 145   2.0000      -0.705797       -19.2057
 146   2.0000      -0.689496       -18.7621
 147   2.0000      -0.686011       -18.6673
 148   2.0000      -0.684309       -18.6210
 149   2.0000      -0.678036       -18.4503
 150   2.0000      -0.676542       -18.4096
 151   2.0000      -0.673676       -18.3317
 152   2.0000      -0.665805       -18.1175
 153   2.0000      -0.664775       -18.0894
 154   2.0000      -0.662634       -18.0312
 155   2.0000      -0.651510       -17.7285
 156   2.0000      -0.646590       -17.5946
 157   2.0000      -0.645694       -17.5702
 158   2.0000      -0.643008       -17.4971
 159   2.0000      -0.631683       -17.1890
 160   2.0000      -0.627989       -17.0884
 161   2.0000      -0.620068       -16.8729
 162   2.0000      -0.617658       -16.8073
 163   2.0000      -0.613602       -16.6970
 164   2.0000      -0.607942       -16.5429
 165   2.0000      -0.604084       -16.4380
 166   2.0000      -0.599988       -16.3265
 167   2.0000      -0.599150       -16.3037
 168   2.0000      -0.597241       -16.2518
 169   2.0000      -0.594878       -16.1874
 170   2.0000      -0.591676       -16.1003
 171   2.0000      -0.587004       -15.9732
 172   2.0000      -0.586011       -15.9462
 173   2.0000      -0.583795       -15.8859
 174   2.0000      -0.579561       -15.7707
 175   2.0000      -0.574357       -15.6291
 176   2.0000      -0.572678       -15.5834
 177   2.0000      -0.569255       -15.4902
 178   2.0000      -0.562933       -15.3182
 179   2.0000      -0.562082       -15.2950
 180   2.0000      -0.561143       -15.2695
 181   2.0000      -0.558439       -15.1959
 182   2.0000      -0.556416       -15.1409
 183   2.0000      -0.553520       -15.0620
 184   2.0000      -0.552150       -15.0248
 185   2.0000      -0.550892       -14.9905
 186   2.0000      -0.548978       -14.9385
 187   2.0000      -0.545915       -14.8551
 188   2.0000      -0.543873       -14.7995
 189   2.0000      -0.542002       -14.7486
 190   2.0000      -0.538217       -14.6456
 191   2.0000      -0.534867       -14.5545
 192   2.0000      -0.534689       -14.5496
 193   2.0000      -0.531306       -14.4576
 194   2.0000      -0.529002       -14.3949
 195   2.0000      -0.527759       -14.3611
 196   2.0000      -0.525505       -14.2997
 197   2.0000      -0.523805       -14.2535
 198   2.0000      -0.520308       -14.1583
 199   2.0000      -0.518280       -14.1031
 200   2.0000      -0.515348       -14.0233
 201   2.0000      -0.515102       -14.0166
 202   2.0000      -0.510781       -13.8991
 203   2.0000      -0.510597       -13.8941
 204   2.0000      -0.506337       -13.7781
 205   2.0000      -0.501741       -13.6531
 206   2.0000      -0.497976       -13.5506
 207   2.0000      -0.496638       -13.5142
 208   2.0000      -0.495287       -13.4774
 209   2.0000      -0.489680       -13.3249
 210   2.0000      -0.488107       -13.2821
 211   2.0000      -0.484492       -13.1837
 212   2.0000      -0.482860       -13.1393
 213   2.0000      -0.482377       -13.1261
 214   2.0000      -0.481894       -13.1130
 215   2.0000      -0.481458       -13.1011
 216   2.0000      -0.478791       -13.0286
 217   2.0000      -0.474893       -12.9225
 218   2.0000      -0.470293       -12.7973
 219   2.0000      -0.469038       -12.7632
 220   2.0000      -0.465817       -12.6755
 221   2.0000      -0.464128       -12.6296
 222   2.0000      -0.461382       -12.5548
 223   2.0000      -0.460766       -12.5381
 224   2.0000      -0.460062       -12.5189
 225   2.0000      -0.458870       -12.4865
 226   2.0000      -0.457466       -12.4483
 227   2.0000      -0.456804       -12.4303
 228   2.0000      -0.456729       -12.4282
 229   2.0000      -0.456081       -12.4106
 230   2.0000      -0.454679       -12.3724
 231   2.0000      -0.454235       -12.3604
 232   2.0000      -0.454192       -12.3592
 233   2.0000      -0.453891       -12.3510
 234   2.0000      -0.451484       -12.2855
 235   2.0000      -0.447531       -12.1779
 236   2.0000      -0.446435       -12.1481
 237   2.0000      -0.445037       -12.1101
 238   2.0000      -0.443090       -12.0571
 239   2.0000      -0.441031       -12.0011
 240   2.0000      -0.439521       -11.9600
 241   2.0000      -0.439012       -11.9461
 242   2.0000      -0.436789       -11.8856
 243   2.0000      -0.436295       -11.8722
 244   2.0000      -0.429052       -11.6751
 245   2.0000      -0.425023       -11.5655
 246   2.0000      -0.423326       -11.5193
 247   2.0000      -0.422497       -11.4967
 248   2.0000      -0.417812       -11.3692
 249   2.0000      -0.414927       -11.2907
 250   2.0000      -0.413298       -11.2464
 251   2.0000      -0.405121       -11.0239
 252   2.0000      -0.402991       -10.9659
 253   2.0000      -0.398436       -10.8420
 254   2.0000      -0.396754       -10.7962
 255   2.0000      -0.392422       -10.6783
 256   2.0000      -0.390615       -10.6292
 257   2.0000      -0.388683       -10.5766
 258   2.0000      -0.380031       -10.3412
 259   2.0000      -0.378822       -10.3083
 260   2.0000      -0.370299       -10.0763
 261   2.0000      -0.366847        -9.9824
 262   2.0000      -0.364569        -9.9204
 263   2.0000      -0.364254        -9.9118
 264   2.0000      -0.362913        -9.8754
 265   2.0000      -0.361715        -9.8428
 266   2.0000      -0.356775        -9.7083
 267   2.0000      -0.356058        -9.6888
 268   2.0000      -0.352648        -9.5960
 269   2.0000      -0.346951        -9.4410
 270   2.0000      -0.337080        -9.1724
 271   2.0000      -0.333732        -9.0813
 272   2.0000      -0.331015        -9.0074
 273   2.0000      -0.308836        -8.4038
 274   2.0000      -0.302951        -8.2437
 275   2.0000      -0.253182        -6.8894
 276   0.0000      -0.128004        -3.4832
 277   0.0000      -0.114029        -3.1029
 278   0.0000      -0.099734        -2.7139
 279   0.0000      -0.092919        -2.5285
 280   0.0000      -0.083597        -2.2748

MULLIKEN ATOMIC CHARGES
-----------------------
   0 C :    0.292193
   1 C :   -0.331249
   2 C :   -0.187961
   3 N :    0.176900
   4 C :   -0.203619
   5 N :    0.174111
   6 C :    0.063918
   7 C :   -0.000827
   8 C :   -0.040743
   9 C :   -0.077781
  10 C :    0.067886
  11 C :   -0.074895
  12 C :    0.169688
  13 O :   -0.181846
  14 O :   -0.290519
  15 C :    0.190234
  16 C :   -0.150760
  17 N :    0.140926
  18 C :    0.164872
  19 O :   -0.139552
  20 C :   -0.086667
  21 C :    0.056088
  22 C :   -0.111752
  23 S :    0.204445
  24 C :   -0.052600
  25 C :   -0.089404
  26 C :    0.051997
  27 C :   -0.158133
  28 N :    0.124195
  29 C :    0.059658
  30 C :   -0.026896
  31 C :    0.133601
  32 N :   -0.258847
  33 C :    0.087892
  34 C :    0.006507
  35 C :    0.150169
  36 O :   -0.186494
  37 C :   -0.044813
  38 C :   -0.054781
  39 C :    0.165129
  40 O :   -0.209117
  41 N :   -0.260068
  42 C :    0.099065
  43 C :    0.004672
  44 C :    0.105158
  45 C :   -0.008308
  46 C :    0.002434
  47 C :    0.110761
  48 C :   -0.071467
  49 C :    0.153190
  50 N :    0.244354
  51 O :   -0.222600
  52 O :   -0.222435
  53 C :    0.074265
  54 C :   -0.029643
  55 C :    0.023699
  56 C :   -0.013336
  57 C :    0.010079
  58 C :   -0.031474
  59 C :   -0.068985
  60 C :    0.315484
  61 C :   -0.325764
  62 C :   -0.190472
  63 N :    0.174567
  64 C :   -0.198109
  65 N :    0.168380
  66 C :    0.060532
  67 C :    0.003022
  68 C :    0.153709
  69 O :   -0.139933
  70 C :   -0.041369
  71 C :   -0.080047
  72 C :    0.072831
  73 C :   -0.074550
  74 C :    0.167832
  75 O :   -0.183382
  76 O :   -0.290635
  77 C :    0.184911
  78 C :   -0.148242
  79 N :    0.139104
  80 H :    0.015102
  81 H :    0.025407
  82 H :    0.049006
  83 H :    0.041991
  84 H :    0.036424
  85 H :    0.023289
  86 H :    0.029509
  87 H :    0.008883
  88 H :   -0.006777
  89 H :    0.041310
  90 H :    0.045751
  91 H :    0.016769
  92 H :    0.031256
  93 H :    0.028016
  94 H :    0.043243
  95 H :    0.028176
  96 H :    0.033504
  97 H :    0.026472
  98 H :    0.020598
  99 H :    0.015358
 100 H :   -0.018310
 101 H :    0.004930
 102 H :    0.004285
 103 H :    0.002185
 104 H :    0.041074
 105 H :    0.032007
 106 H :    0.022641
 107 H :    0.012828
 108 H :    0.025122
 109 H :    0.050116
 110 H :    0.038893
 111 H :    0.042563
Sum of atomic charges:   -0.0000000

LOEWDIN ATOMIC CHARGES
----------------------
   0 C :    0.068462
   1 C :   -0.121442
   2 C :   -0.024102
   3 N :   -0.027759
   4 C :   -0.025888
   5 N :   -0.035899
   6 C :   -0.002835
   7 C :   -0.032907
   8 C :    0.045763
   9 C :   -0.032257
  10 C :   -0.022285
  11 C :    0.035199
  12 C :    0.084010
  13 O :   -0.153963
  14 O :   -0.065128
  15 C :    0.088927
  16 C :   -0.034540
  17 N :   -0.039365
  18 C :    0.088224
  19 O :   -0.126881
  20 C :   -0.090839
  21 C :    0.050926
  22 C :   -0.180729
  23 S :    0.507340
  24 C :   -0.123783
  25 C :   -0.106709
  26 C :    0.025388
  27 C :   -0.024093
  28 N :   -0.051601
  29 C :   -0.006331
  30 C :   -0.015611
  31 C :    0.077980
  32 N :    0.000357
  33 C :    0.036346
  34 C :   -0.059101
  35 C :    0.079215
  36 O :   -0.190834
  37 C :   -0.110505
  38 C :   -0.117583
  39 C :    0.082762
  40 O :   -0.196390
  41 N :    0.001510
  42 C :    0.035824
  43 C :   -0.062504
  44 C :    0.071391
  45 C :   -0.018121
  46 C :   -0.003439
  47 C :   -0.016239
  48 C :    0.008830
  49 C :   -0.014688
  50 N :    0.284059
  51 O :   -0.190380
  52 O :   -0.187670
  53 C :   -0.014018
  54 C :    0.010361
  55 C :    0.014788
  56 C :    0.030928
  57 C :   -0.021178
  58 C :    0.077075
  59 C :   -0.090443
  60 C :    0.067131
  61 C :   -0.117869
  62 C :   -0.023098
  63 N :   -0.030100
  64 C :   -0.022299
  65 N :   -0.032732
  66 C :   -0.001156
  67 C :   -0.033821
  68 C :    0.087254
  69 O :   -0.132736
  70 C :    0.045451
  71 C :   -0.033568
  72 C :   -0.021148
  73 C :    0.034644
  74 C :    0.084078
  75 O :   -0.154554
  76 O :   -0.065283
  77 C :    0.088345
  78 C :   -0.034143
  79 N :   -0.041109
  80 H :    0.052093
  81 H :    0.049606
  82 H :    0.032972
  83 H :    0.027987
  84 H :    0.026896
  85 H :    0.045965
  86 H :    0.044556
  87 H :    0.038224
  88 H :    0.038167
  89 H :    0.029236
  90 H :    0.039094
  91 H :    0.022710
  92 H :    0.034829
  93 H :    0.031033
  94 H :    0.038238
  95 H :    0.024651
  96 H :    0.034853
  97 H :    0.032460
  98 H :    0.020723
  99 H :    0.046260
 100 H :    0.032220
 101 H :    0.040599
 102 H :    0.041529
 103 H :    0.039284
 104 H :    0.037941
 105 H :    0.031635
 106 H :    0.045994
 107 H :    0.051329
 108 H :    0.049673
 109 H :    0.033157
 110 H :    0.027618
 111 H :    0.027556

  Mayer bond orders larger than 0.100000
B(  0-C ,  1-C ) :   1.6604 B(  0-C ,  6-C ) :   0.9797 B(  0-C , 20-C ) :   1.0631
B(  1-C ,  2-C ) :   1.1399 B(  1-C ,  4-C ) :   1.1361 B(  2-C ,  3-N ) :   2.9773
B(  4-C ,  5-N ) :   2.9968 B(  6-C ,  7-C ) :   1.3317 B(  6-C , 11-C ) :   1.3274
B(  7-C ,  8-C ) :   1.3618 B(  7-C , 18-C ) :   0.9347 B(  8-C ,  9-C ) :   1.3576
B(  8-C , 80-H ) :   1.0153 B(  9-C , 10-C ) :   1.3687 B(  9-C , 16-C ) :   1.0708
B( 10-C , 11-C ) :   1.3758 B( 10-C , 12-C ) :   0.8692 B( 11-C , 81-H ) :   0.9888
B( 12-C , 13-O ) :   2.1313 B( 12-C , 14-O ) :   1.2443 B( 14-O , 15-C ) :   0.9057
B( 15-C , 82-H ) :   0.9800 B( 15-C , 83-H ) :   0.9740 B( 15-C , 84-H ) :   0.9785
B( 16-C , 17-N ) :   3.0455 B( 18-C , 19-O ) :   2.1901 B( 18-C , 20-C ) :   0.9419
B( 20-C , 21-C ) :   1.6146 B( 21-C , 22-C ) :   1.1906 B( 21-C , 85-H ) :   0.9205
B( 22-C , 23-S ) :   1.1060 B( 22-C , 26-C ) :   1.4197 B( 23-S , 24-C ) :   1.1908
B( 24-C , 25-C ) :   1.3777 B( 24-C , 29-C ) :   1.1635 B( 25-C , 26-C ) :   1.3248
B( 25-C , 27-C ) :   1.1194 B( 26-C , 86-H ) :   0.9844 B( 27-C , 28-N ) :   2.9689
B( 29-C , 30-C ) :   1.6023 B( 29-C , 87-H ) :   0.9197 B( 30-C , 31-C ) :   1.1722
B( 30-C , 88-H ) :   0.9493 B( 31-C , 32-N ) :   1.1741 B( 31-C , 38-C ) :   1.3264
B( 32-N , 33-C ) :   0.9361 B( 32-N , 35-C ) :   1.0361 B( 33-C , 34-C ) :   1.1225
B( 33-C , 89-H ) :   0.9483 B( 33-C , 90-H ) :   0.9280 B( 34-C , 91-H ) :   0.9678
B( 34-C , 92-H ) :   0.9676 B( 34-C , 93-H ) :   0.9639 B( 35-C , 36-O ) :   2.1388
B( 35-C , 37-C ) :   0.9724 B( 37-C , 38-C ) :   1.2508 B( 37-C , 44-C ) :   1.3475
B( 38-C , 39-C ) :   0.9875 B( 39-C , 40-O ) :   2.0148 B( 39-C , 41-N ) :   1.0634
B( 40-O , 87-H ) :   0.1168 B( 41-N , 42-C ) :   0.9389 B( 41-N , 44-C ) :   1.1724
B( 42-C , 43-C ) :   1.1164 B( 42-C , 94-H ) :   0.9278 B( 42-C , 95-H ) :   0.9507
B( 43-C , 96-H ) :   0.9598 B( 43-C , 97-H ) :   0.9692 B( 43-C , 98-H ) :   0.9656
B( 44-C , 45-C ) :   1.1724 B( 45-C , 46-C ) :   1.6114 B( 45-C , 99-H ) :   0.9433
B( 46-C , 47-C ) :   1.0761 B( 46-C ,100-H ) :   0.9866 B( 47-C , 48-C ) :   1.2811
B( 47-C , 55-C ) :   1.3094 B( 48-C , 49-C ) :   1.3878 B( 48-C ,101-H ) :   0.9999
B( 49-C , 50-N ) :   0.8682 B( 49-C , 53-C ) :   1.3540 B( 50-N , 51-O ) :   1.5632
B( 50-N , 52-O ) :   1.5245 B( 51-O , 52-O ) :   0.2696 B( 53-C , 54-C ) :   1.3217
B( 53-C , 56-C ) :   1.0529 B( 54-C , 55-C ) :   1.4310 B( 54-C ,102-H ) :   0.9881
B( 55-C ,103-H ) :   0.9900 B( 56-C , 57-C ) :   1.6032 B( 56-C ,104-H ) :   0.9771
B( 57-C , 58-C ) :   1.1446 B( 57-C ,105-H ) :   0.9701 B( 58-C , 59-C ) :   1.5644
B( 58-C ,106-H ) :   0.9665 B( 59-C , 60-C ) :   1.0461 B( 59-C , 68-C ) :   0.9447
B( 60-C , 61-C ) :   1.6665 B( 60-C , 66-C ) :   0.9777 B( 61-C , 62-C ) :   1.1362
B( 61-C , 64-C ) :   1.1419 B( 62-C , 63-N ) :   2.9789 B( 64-C , 65-N ) :   2.9807
B( 66-C , 67-C ) :   1.3353 B( 66-C , 73-C ) :   1.3263 B( 67-C , 68-C ) :   0.9291
B( 67-C , 70-C ) :   1.3593 B( 68-C , 69-O ) :   2.2037 B( 70-C , 71-C ) :   1.3582
B( 70-C ,107-H ) :   1.0161 B( 71-C , 72-C ) :   1.3719 B( 71-C , 78-C ) :   1.0681
B( 72-C , 73-C ) :   1.3759 B( 72-C , 74-C ) :   0.8680 B( 73-C ,108-H ) :   0.9889
B( 74-C , 75-O ) :   2.1320 B( 74-C , 76-O ) :   1.2405 B( 76-O , 77-C ) :   0.9056
B( 77-C ,109-H ) :   0.9799 B( 77-C ,110-H ) :   0.9801 B( 77-C ,111-H ) :   0.9723
B( 78-C , 79-N ) :   3.0452

-----------------------------------------------------------------------------
         ABSORPTION SPECTRUM VIA TRANSITION ELECTRIC DIPOLE MOMENTS
-----------------------------------------------------------------------------
State   Energy  Wavelength   fosc         T2         TX        TY        TZ
        (cm-1)    (nm)                  (au**2)     (au)      (au)      (au)
-----------------------------------------------------------------------------
   0   13085.0    764.2   1.291906133  32.50380   3.96472   4.04374   0.65803
   1   18858.6    530.3   0.134409989   2.34638  -0.60981  -1.40063   0.11290
   2   22078.1    452.9   0.266871907   3.97939  -0.55297  -0.56531  -1.83140
   3   24087.9    415.1   0.146810712   2.00647   0.20096   1.04568   0.93415
   4   24190.2    413.4   0.685125834   9.32408   1.88262   1.63998   1.75792
   5   24910.9    401.4   0.672158439   8.88295  -1.63991  -2.26807  -1.02444
   6   25536.2    391.6   0.116603034   1.50325   0.16594   1.10155   0.51215
   7   25601.7    390.6   0.022442834   0.28859   0.24134  -0.23131  -0.42053
   8   27545.5    363.0   0.002398005   0.02866  -0.07954   0.09611   0.11444
   9   28302.6    353.3   0.012433578   0.14463   0.22265   0.27195   0.14525
  10   28617.4    349.4   0.023635568   0.27190  -0.17181  -0.49211  -0.01460
  11   28884.6    346.2   0.059880676   0.68249   0.44309   0.23289   0.65721
  12   29081.1    343.9   0.076997537   0.87165  -0.58380  -0.41197   0.60092
  13   29204.1    342.4   0.049875890   0.56224  -0.26503  -0.49658   0.49538
  14   29847.1    335.0   0.036896683   0.40697  -0.26753  -0.56349  -0.13370
  15   29935.5    334.1   0.007628251   0.08389  -0.28501  -0.04886   0.01655
  16   30751.7    325.2   0.128991130   1.38091   0.19368   1.15778   0.05432
  17   31217.8    320.3   0.008593667   0.09063  -0.13071  -0.27118  -0.00056
  18   31414.7    318.3   0.034594694   0.36254   0.30847  -0.48727  -0.17308
  19   31641.4    316.0   0.301237639   3.13422  -0.84104   1.43000   0.61803
  20   32107.8    311.5   0.086852343   0.89053   0.47423   0.72585  -0.37253
  21   32839.8    304.5   0.046525564   0.46641   0.24551   0.61556  -0.16498
  22   33498.6    298.5   0.081378868   0.79976   0.59524  -0.12834  -0.65496
  23   33756.9    296.2   0.043109022   0.42042  -0.08352  -0.09054  -0.63659
  24   34281.0    291.7   0.385278431   3.69996  -0.09792  -1.77742   0.72879
  25   34374.6    290.9   0.050847978   0.48698   0.61584  -0.16660  -0.28278
  26   34825.4    287.1   0.266937901   2.52342  -1.38392   0.57484   0.52700
  27   35127.6    284.7   0.119279339   1.11787   0.04856   0.98738   0.37495
  28   35583.5    281.0   0.153025354   1.41576   0.79789  -0.72366  -0.50542
  29   35685.5    280.2   0.140945796   1.30028  -0.75580   0.76292   0.38340
  30   36386.6    274.8   0.137853012   1.24724  -0.72186  -0.66350  -0.53472
  31   36615.7    273.1   0.323621787   2.90969  -0.37728  -0.98226   1.34258
  32   36719.6    272.3   0.222714621   1.99676  -1.08179   0.09031  -0.90463
  33   37288.3    268.2   0.301334139   2.66043  -1.62706  -0.10319  -0.04962
  34   37622.5    265.8   0.010469069   0.09161   0.29918  -0.01783  -0.04225
  35   38003.1    263.1   0.018546307   0.16066   0.38491   0.07789  -0.08024
  36   38194.6    261.8   0.026745998   0.23053  -0.09071  -0.39833  -0.25226
  37   38427.8    260.2   0.011539469   0.09886   0.00470   0.29065   0.11984
  38   38635.9    258.8   0.011546802   0.09839  -0.05502   0.20954   0.22683
  39   39117.5    255.6   0.024554771   0.20665  -0.11981  -0.33925   0.27786
  40   39689.3    252.0   0.117055550   0.97094   0.66823   0.44301   0.57285
  41   39785.5    251.3   0.030396613   0.25152   0.16281   0.13413  -0.45500
  42   40201.2    248.7   0.003664804   0.03001  -0.06552  -0.09121  -0.13190
  43   40249.0    248.5   0.017618032   0.14410   0.05883   0.37190  -0.04832

FINAL SINGLE POINT ENERGY     -3960.757924683090

DIPOLE MOMENT
-------------
                                X             Y             Z
Electronic contribution:      5.48889       3.00361       9.12688
Nuclear contribution   :     -4.70813      -2.05809      -9.36603
                        -----------------------------------------
Total Dipole Moment    :      0.78076       0.94552      -0.23915
                        -----------------------------------------
Magnitude (a.u.)       :      1.24931
Magnitude (Debye)      :      3.17551

Rotational constants in cm-1:     0.002065     0.000129     0.000127
Rotational constants in MHz :    61.914821     3.880613     3.811807

                             ****ORCA TERMINATED NORMALLY****
TOTAL RUN TIME: 0 days 0 hours 10 minutes 53 seconds 494 msec
