                         Program Version 4.2.0 -  RELEASE  -
|  1> # ORCA input file
|  2> # SCF done       -211.361045969696          0.000416947491
|  3> ! CAM-B3LYP def2-SVP def2/J RIJCOSX Grid4 TightSCF
|  4> %maxcore 5000
|  5> %tddft
|  6>     Mode sTDDFT
|  7>     Ethresh 5.0
|  8>     maxcore 5000
|  9> end
| 10>
| 11> %pal
| 12>   nprocs 6
| 13>   end
| 14> * xyz 0 1
| 15>    C       -0.54100         2.26955         0.08243
| 16>    C        0.00195         3.31109         0.78728
| 17>    C        0.20954         3.29234         2.18210
| 18>    N        0.38322         3.33796         3.31559
| 19>    C        0.47928         4.49808         0.19753
| 20>    N        0.89319         5.47475        -0.24245
| 21>    C       -0.83201         0.94437         0.61559
| 22>    C       -0.94552         0.02871        -0.47232
| 23>    C       -1.18243        -1.30040        -0.26880
| 24>    C       -1.32801        -1.78094         1.05197
| 25>    C       -1.23145        -0.86827         2.14249
| 26>    C       -0.98001         0.50195         1.90304
| 27>    C       -1.38644        -1.35941         3.45485
| 28>    C       -1.62224        -2.68799         3.68168
| 29>    C       -1.71587        -3.58588         2.60771
| 30>    C       -1.57151        -3.14219         1.32113
| 31>    C       -0.79020         0.75652        -1.74299
| 32>    O       -0.79673         0.31536        -2.86798
| 33>    C       -0.70192         2.19618        -1.35645
| 34>    C       -0.84320         3.15633        -2.30022
| 35>    C       -1.19258         4.52679        -2.10487
| 36>    S       -2.35105         4.98474        -0.89275
| 37>    C       -2.30133         6.65059        -1.38965
| 38>    C       -1.43008         6.81670        -2.45601
| 39>    C       -0.79015         5.62458        -2.84262
| 40>    C        0.31590         5.57994        -3.85243
| 41>    N        1.54546         5.02724        -3.16053
| 42>    O        1.50850         3.85659        -2.87530
| 43>    O        2.46117         5.77147        -2.95382
| 44>    C        0.62549         6.95789        -4.42646
| 45>    C       -0.63957         7.78592        -4.59658
| 46>    C       -1.25557         8.09050        -3.22766
| 47>    N       -2.58967         8.70442        -3.48250
| 48>    O       -2.75231         9.84592        -3.12481
| 49>    O       -3.40987         8.02334        -4.04235
| 50>    C       -3.06962         7.64585        -0.72933
| 51>    C       -3.96471         7.36316         0.24938
| 52>    C       -4.80991         8.26151         0.94417
| 53>    S       -5.93471         7.54731         2.06074
| 54>    C       -6.62511         9.09825         2.44712
| 55>    C       -6.00451        10.11266         1.71301
| 56>    C       -4.96803         9.64846         0.89285
| 57>    C       -4.12535        10.57072         0.07296
| 58>    C       -4.38401        12.03686         0.41646
| 59>    C       -5.87661        12.32875         0.55676
| 60>    C       -6.65417        11.99502        -0.71443
| 61>    C       -6.42199        11.54503         1.75389
| 62>    C       -7.65384         9.16499         3.41461
| 63>    C       -8.24423        10.26091         4.01106
| 64>    C       -9.21502         9.82115         4.94814
| 65>    C       -9.20162         8.34401         4.89565
| 66>    C       -8.27086         7.96965         3.98512
| 67>    C      -10.01076         7.46420         5.62327
| 68>    N      -10.66188         6.71144         6.19663
| 69>    C      -10.01282        10.60346         5.75349
| 70>    C      -10.95123        10.16551         6.73407
| 71>    C      -11.58209        11.26334         7.28136
| 72>    C      -11.00678        12.45540         6.67868
| 73>    C      -10.06717        12.07241         5.77177
| 74>    C       -9.28820        12.94337         5.00349
| 75>    N       -8.65256        13.66955         4.37889
| 76>    C      -12.57633        11.19560         8.29461
| 77>    C      -13.58720        12.08052         8.51895
| 78>    C      -14.52067        12.05003         9.63150
| 79>    C      -14.36332        11.35182        10.79999
| 80>    C      -15.28901        11.37602        11.86413
| 81>    N      -16.00605        11.35178        12.76027
| 82>    C      -13.24501        10.55261        11.11937
| 83>    N      -12.35699         9.90931        11.45984
| 84>    C      -15.60922        12.96930         9.32703
| 85>    C      -15.32678        13.61274         8.08826
| 86>    C      -14.05781        13.10225         7.54232
| 87>    O      -13.55452        13.39984         6.48096
| 88>    C      -16.17129        14.53893         7.54710
| 89>    C      -17.36048        14.87067         8.23377
| 90>    C      -17.65425        14.22602         9.47024
| 91>    C      -16.76072        13.27032        10.00552
| 92>    C      -18.84725        14.55977        10.14318
| 93>    C      -19.70892        15.48635         9.62237
| 94>    C      -19.41818        16.12116         8.40551
| 95>    C      -18.26883        15.82030         7.72623
| 96>    H       -1.25771        -1.97837        -1.10593
| 97>    H       -0.92140         1.17291         2.74588
| 98>    H       -1.31056        -0.66482         4.27846
| 99>    H       -1.73760        -3.05478         4.69052
|100>    H       -1.90322        -4.63071         2.80496
|101>    H       -1.64270        -3.82893         0.49044
|102>    H       -0.78688         2.81027        -3.32822
|103>    H        0.07938         4.84426        -4.63024
|104>    H        1.13201         6.85354        -5.38629
|105>    H        1.30450         7.47447        -3.74426
|106>    H       -1.37248         7.23602        -5.19288
|107>    H       -0.40283         8.71865        -5.11043
|108>    H       -0.66434         8.82984        -2.67617
|109>    H       -2.90642         8.66429        -1.03393
|110>    H       -4.09015         6.32197         0.52595
|111>    H       -4.32542        10.40375        -0.98951
|112>    H       -3.06985        10.34705         0.24819
|113>    H       -3.94780        12.66434        -0.36163
|114>    H       -3.89049        12.28131         1.35984
|115>    H       -6.00326        13.39586         0.76476
|116>    H       -6.68677        10.92202        -0.88617
|117>    H       -6.19364        12.47009        -1.57728
|118>    H       -7.67727        12.35495        -0.63236
|119>    H       -7.51214        11.60714         1.76376
|120>    H       -6.06068        11.99769         2.68256
|121>    H       -8.00423        11.29012         3.85216
|122>    H       -8.01787         6.96368         3.70390
|123>    H      -11.15555         9.14030         6.97533
|124>    H      -11.25679        13.46475         6.93955
|125>    H      -12.52430        10.30947         8.91706
|126>    H      -15.93419        15.01290         6.60607
|127>    H      -17.01463        12.79395        10.93917
|128>    H      -19.06605        14.06912        11.08023
|129>    H      -20.61997        15.73541        10.14552
|130>    H      -20.10967        16.84939         8.00885
|131>    H      -18.03981        16.30543         6.78865
|132> *
|133>
|134>                          ****END OF INPUT****

CARTESIAN COORDINATES (ANGSTROEM)
---------------------------------
  C     -0.541000    2.269550    0.082430
  C      0.001950    3.311090    0.787280
  C      0.209540    3.292340    2.182100
  N      0.383220    3.337960    3.315590
  C      0.479280    4.498080    0.197530
  N      0.893190    5.474750   -0.242450
  C     -0.832010    0.944370    0.615590
  C     -0.945520    0.028710   -0.472320
  C     -1.182430   -1.300400   -0.268800
  C     -1.328010   -1.780940    1.051970
  C     -1.231450   -0.868270    2.142490
  C     -0.980010    0.501950    1.903040
  C     -1.386440   -1.359410    3.454850
  C     -1.622240   -2.687990    3.681680
  C     -1.715870   -3.585880    2.607710
  C     -1.571510   -3.142190    1.321130
  C     -0.790200    0.756520   -1.742990
  O     -0.796730    0.315360   -2.867980
  C     -0.701920    2.196180   -1.356450
  C     -0.843200    3.156330   -2.300220
  C     -1.192580    4.526790   -2.104870
  S     -2.351050    4.984740   -0.892750
  C     -2.301330    6.650590   -1.389650
  C     -1.430080    6.816700   -2.456010
  C     -0.790150    5.624580   -2.842620
  C      0.315900    5.579940   -3.852430
  N      1.545460    5.027240   -3.160530
  O      1.508500    3.856590   -2.875300
  O      2.461170    5.771470   -2.953820
  C      0.625490    6.957890   -4.426460
  C     -0.639570    7.785920   -4.596580
  C     -1.255570    8.090500   -3.227660
  N     -2.589670    8.704420   -3.482500
  O     -2.752310    9.845920   -3.124810
  O     -3.409870    8.023340   -4.042350
  C     -3.069620    7.645850   -0.729330
  C     -3.964710    7.363160    0.249380
  C     -4.809910    8.261510    0.944170
  S     -5.934710    7.547310    2.060740
  C     -6.625110    9.098250    2.447120
  C     -6.004510   10.112660    1.713010
  C     -4.968030    9.648460    0.892850
  C     -4.125350   10.570720    0.072960
  C     -4.384010   12.036860    0.416460
  C     -5.876610   12.328750    0.556760
  C     -6.654170   11.995020   -0.714430
  C     -6.421990   11.545030    1.753890
  C     -7.653840    9.164990    3.414610
  C     -8.244230   10.260910    4.011060
  C     -9.215020    9.821150    4.948140
  C     -9.201620    8.344010    4.895650
  C     -8.270860    7.969650    3.985120
  C    -10.010760    7.464200    5.623270
  N    -10.661880    6.711440    6.196630
  C    -10.012820   10.603460    5.753490
  C    -10.951230   10.165510    6.734070
  C    -11.582090   11.263340    7.281360
  C    -11.006780   12.455400    6.678680
  C    -10.067170   12.072410    5.771770
  C     -9.288200   12.943370    5.003490
  N     -8.652560   13.669550    4.378890
  C    -12.576330   11.195600    8.294610
  C    -13.587200   12.080520    8.518950
  C    -14.520670   12.050030    9.631500
  C    -14.363320   11.351820   10.799990
  C    -15.289010   11.376020   11.864130
  N    -16.006050   11.351780   12.760270
  C    -13.245010   10.552610   11.119370
  N    -12.356990    9.909310   11.459840
  C    -15.609220   12.969300    9.327030
  C    -15.326780   13.612740    8.088260
  C    -14.057810   13.102250    7.542320
  O    -13.554520   13.399840    6.480960
  C    -16.171290   14.538930    7.547100
  C    -17.360480   14.870670    8.233770
  C    -17.654250   14.226020    9.470240
  C    -16.760720   13.270320   10.005520
  C    -18.847250   14.559770   10.143180
  C    -19.708920   15.486350    9.622370
  C    -19.418180   16.121160    8.405510
  C    -18.268830   15.820300    7.726230
  H     -1.257710   -1.978370   -1.105930
  H     -0.921400    1.172910    2.745880
  H     -1.310560   -0.664820    4.278460
  H     -1.737600   -3.054780    4.690520
  H     -1.903220   -4.630710    2.804960
  H     -1.642700   -3.828930    0.490440
  H     -0.786880    2.810270   -3.328220
  H      0.079380    4.844260   -4.630240
  H      1.132010    6.853540   -5.386290
  H      1.304500    7.474470   -3.744260
  H     -1.372480    7.236020   -5.192880
  H     -0.402830    8.718650   -5.110430
  H     -0.664340    8.829840   -2.676170
  H     -2.906420    8.664290   -1.033930
  H     -4.090150    6.321970    0.525950
  H     -4.325420   10.403750   -0.989510
  H     -3.069850   10.347050    0.248190
  H     -3.947800   12.664340   -0.361630
  H     -3.890490   12.281310    1.359840
  H     -6.003260   13.395860    0.764760
  H     -6.686770   10.922020   -0.886170
  H     -6.193640   12.470090   -1.577280
  H     -7.677270   12.354950   -0.632360
  H     -7.512140   11.607140    1.763760
  H     -6.060680   11.997690    2.682560
  H     -8.004230   11.290120    3.852160
  H     -8.017870    6.963680    3.703900
  H    -11.155550    9.140300    6.975330
  H    -11.256790   13.464750    6.939550
  H    -12.524300   10.309470    8.917060
  H    -15.934190   15.012900    6.606070
  H    -17.014630   12.793950   10.939170
  H    -19.066050   14.069120   11.080230
  H    -20.619970   15.735410   10.145520
  H    -20.109670   16.849390    8.008850
  H    -18.039810   16.305430    6.788650

 Total Charge           Charge          ....    0
 Multiplicity           Mult            ....    1
 Number of Electrons    NEL             ....  562
 Basis Dimension        Dim             .... 1322

ORBITAL ENERGIES
----------------

  NO   OCC          E(Eh)            E(eV)
   0   2.0000     -88.981179     -2421.3010
   1   2.0000     -88.969682     -2420.9881
   2   2.0000     -19.264054      -524.2015
   3   2.0000     -19.263502      -524.1865
   4   2.0000     -19.262186      -524.1507
   5   2.0000     -19.258800      -524.0586
   6   2.0000     -19.220887      -523.0269
   7   2.0000     -19.215668      -522.8849
   8   2.0000     -14.659986      -398.9185
   9   2.0000     -14.656449      -398.8223
  10   2.0000     -14.416875      -392.3031
  11   2.0000     -14.416576      -392.2950
  12   2.0000     -14.416297      -392.2874
  13   2.0000     -14.415938      -392.2776
  14   2.0000     -14.412959      -392.1965
  15   2.0000     -14.403786      -391.9469
  16   2.0000     -10.371866      -282.2328
  17   2.0000     -10.366568      -282.0887
  18   2.0000     -10.355086      -281.7762
  19   2.0000     -10.353501      -281.7331
  20   2.0000     -10.344714      -281.4940
  21   2.0000     -10.344642      -281.4920
  22   2.0000     -10.343091      -281.4498
  23   2.0000     -10.341830      -281.4155
  24   2.0000     -10.330932      -281.1190
  25   2.0000     -10.329061      -281.0680
  26   2.0000     -10.327706      -281.0312
  27   2.0000     -10.327184      -281.0170
  28   2.0000     -10.322376      -280.8861
  29   2.0000     -10.321847      -280.8717
  30   2.0000     -10.319939      -280.8198
  31   2.0000     -10.319897      -280.8187
  32   2.0000     -10.319300      -280.8024
  33   2.0000     -10.318739      -280.7872
  34   2.0000     -10.318658      -280.7849
  35   2.0000     -10.318139      -280.7708
  36   2.0000     -10.317169      -280.7445
  37   2.0000     -10.316590      -280.7287
  38   2.0000     -10.315272      -280.6928
  39   2.0000     -10.314861      -280.6816
  40   2.0000     -10.314497      -280.6717
  41   2.0000     -10.311318      -280.5852
  42   2.0000     -10.308520      -280.5091
  43   2.0000     -10.307399      -280.4786
  44   2.0000     -10.307006      -280.4679
  45   2.0000     -10.305995      -280.4404
  46   2.0000     -10.304772      -280.4071
  47   2.0000     -10.304690      -280.4049
  48   2.0000     -10.304357      -280.3958
  49   2.0000     -10.302816      -280.3539
  50   2.0000     -10.302496      -280.3452
  51   2.0000     -10.302023      -280.3323
  52   2.0000     -10.301428      -280.3161
  53   2.0000     -10.299538      -280.2647
  54   2.0000     -10.299311      -280.2585
  55   2.0000     -10.299036      -280.2510
  56   2.0000     -10.298892      -280.2471
  57   2.0000     -10.298875      -280.2466
  58   2.0000     -10.298732      -280.2428
  59   2.0000     -10.298395      -280.2336
  60   2.0000     -10.298285      -280.2306
  61   2.0000     -10.298177      -280.2276
  62   2.0000     -10.296915      -280.1933
  63   2.0000     -10.295980      -280.1679
  64   2.0000     -10.293582      -280.1026
  65   2.0000     -10.290866      -280.0287
  66   2.0000     -10.290388      -280.0157
  67   2.0000     -10.288111      -279.9537
  68   2.0000     -10.287628      -279.9406
  69   2.0000     -10.287461      -279.9360
  70   2.0000     -10.287368      -279.9335
  71   2.0000     -10.287008      -279.9237
  72   2.0000     -10.286847      -279.9193
  73   2.0000     -10.286756      -279.9168
  74   2.0000     -10.286287      -279.9041
  75   2.0000     -10.280612      -279.7497
  76   2.0000     -10.276457      -279.6366
  77   2.0000     -10.272665      -279.5334
  78   2.0000     -10.269724      -279.4534
  79   2.0000     -10.264460      -279.3101
  80   2.0000     -10.253031      -278.9991
  81   2.0000      -8.076084      -219.7614
  82   2.0000      -8.065317      -219.4684
  83   2.0000      -6.045316      -164.5014
  84   2.0000      -6.041310      -164.3924
  85   2.0000      -6.038177      -164.3072
  86   2.0000      -6.034378      -164.2038
  87   2.0000      -6.030567      -164.1001
  88   2.0000      -6.027540      -164.0177
  89   2.0000      -1.344574       -36.5877
  90   2.0000      -1.342174       -36.5224
  91   2.0000      -1.164869       -31.6977
  92   2.0000      -1.164763       -31.6948
  93   2.0000      -1.136238       -30.9186
  94   2.0000      -1.131114       -30.7792
  95   2.0000      -1.029329       -28.0095
  96   2.0000      -1.020301       -27.7638
  97   2.0000      -1.019086       -27.7307
  98   2.0000      -1.017819       -27.6963
  99   2.0000      -1.005587       -27.3634
 100   2.0000      -1.000103       -27.2142
 101   2.0000      -0.999710       -27.2035
 102   2.0000      -0.999071       -27.1861
 103   2.0000      -0.995430       -27.0870
 104   2.0000      -0.994380       -27.0585
 105   2.0000      -0.985277       -26.8107
 106   2.0000      -0.980476       -26.6801
 107   2.0000      -0.974709       -26.5232
 108   2.0000      -0.972276       -26.4570
 109   2.0000      -0.969063       -26.3695
 110   2.0000      -0.950004       -25.8509
 111   2.0000      -0.930729       -25.3264
 112   2.0000      -0.927164       -25.2294
 113   2.0000      -0.926419       -25.2091
 114   2.0000      -0.919250       -25.0141
 115   2.0000      -0.907862       -24.7042
 116   2.0000      -0.904049       -24.6004
 117   2.0000      -0.887584       -24.1524
 118   2.0000      -0.883739       -24.0478
 119   2.0000      -0.882370       -24.0105
 120   2.0000      -0.880373       -23.9562
 121   2.0000      -0.872600       -23.7447
 122   2.0000      -0.860958       -23.4279
 123   2.0000      -0.858221       -23.3534
 124   2.0000      -0.851081       -23.1591
 125   2.0000      -0.846403       -23.0318
 126   2.0000      -0.839254       -22.8373
 127   2.0000      -0.835575       -22.7371
 128   2.0000      -0.831039       -22.6137
 129   2.0000      -0.829950       -22.5841
 130   2.0000      -0.829469       -22.5710
 131   2.0000      -0.811840       -22.0913
 132   2.0000      -0.798059       -21.7163
 133   2.0000      -0.785608       -21.3775
 134   2.0000      -0.772434       -21.0190
 135   2.0000      -0.765292       -20.8247
 136   2.0000      -0.763449       -20.7745
 137   2.0000      -0.761101       -20.7106
 138   2.0000      -0.743689       -20.2368
 139   2.0000      -0.741732       -20.1836
 140   2.0000      -0.727286       -19.7905
 141   2.0000      -0.723196       -19.6792
 142   2.0000      -0.720699       -19.6112
 143   2.0000      -0.714707       -19.4482
 144   2.0000      -0.709468       -19.3056
 145   2.0000      -0.706395       -19.2220
 146   2.0000      -0.704316       -19.1654
 147   2.0000      -0.702424       -19.1139
 148   2.0000      -0.698159       -18.9979
 149   2.0000      -0.691391       -18.8137
 150   2.0000      -0.683558       -18.6005
 151   2.0000      -0.679917       -18.5015
 152   2.0000      -0.677284       -18.4298
 153   2.0000      -0.674856       -18.3638
 154   2.0000      -0.666822       -18.1452
 155   2.0000      -0.662046       -18.0152
 156   2.0000      -0.659560       -17.9475
 157   2.0000      -0.654183       -17.8012
 158   2.0000      -0.646381       -17.5889
 159   2.0000      -0.644754       -17.5446
 160   2.0000      -0.642011       -17.4700
 161   2.0000      -0.638025       -17.3615
 162   2.0000      -0.635483       -17.2924
 163   2.0000      -0.633380       -17.2352
 164   2.0000      -0.627905       -17.0862
 165   2.0000      -0.621715       -16.9177
 166   2.0000      -0.614624       -16.7248
 167   2.0000      -0.612587       -16.6693
 168   2.0000      -0.608597       -16.5608
 169   2.0000      -0.608053       -16.5460
 170   2.0000      -0.604927       -16.4609
 171   2.0000      -0.600469       -16.3396
 172   2.0000      -0.597445       -16.2573
 173   2.0000      -0.593557       -16.1515
 174   2.0000      -0.583180       -15.8691
 175   2.0000      -0.578748       -15.7485
 176   2.0000      -0.576073       -15.6758
 177   2.0000      -0.561690       -15.2844
 178   2.0000      -0.560263       -15.2455
 179   2.0000      -0.557656       -15.1746
 180   2.0000      -0.553815       -15.0701
 181   2.0000      -0.550637       -14.9836
 182   2.0000      -0.548544       -14.9266
 183   2.0000      -0.547243       -14.8912
 184   2.0000      -0.546177       -14.8622
 185   2.0000      -0.544982       -14.8297
 186   2.0000      -0.541360       -14.7311
 187   2.0000      -0.539028       -14.6677
 188   2.0000      -0.536875       -14.6091
 189   2.0000      -0.536032       -14.5862
 190   2.0000      -0.532715       -14.4959
 191   2.0000      -0.530040       -14.4231
 192   2.0000      -0.527800       -14.3622
 193   2.0000      -0.525489       -14.2993
 194   2.0000      -0.523999       -14.2587
 195   2.0000      -0.523421       -14.2430
 196   2.0000      -0.519716       -14.1422
 197   2.0000      -0.519522       -14.1369
 198   2.0000      -0.516835       -14.0638
 199   2.0000      -0.515266       -14.0211
 200   2.0000      -0.514724       -14.0064
 201   2.0000      -0.512914       -13.9571
 202   2.0000      -0.510690       -13.8966
 203   2.0000      -0.509916       -13.8755
 204   2.0000      -0.504155       -13.7188
 205   2.0000      -0.503447       -13.6995
 206   2.0000      -0.501100       -13.6356
 207   2.0000      -0.500577       -13.6214
 208   2.0000      -0.497355       -13.5337
 209   2.0000      -0.494073       -13.4444
 210   2.0000      -0.491341       -13.3701
 211   2.0000      -0.490804       -13.3555
 212   2.0000      -0.488161       -13.2835
 213   2.0000      -0.487876       -13.2758
 214   2.0000      -0.485548       -13.2124
 215   2.0000      -0.483731       -13.1630
 216   2.0000      -0.482358       -13.1256
 217   2.0000      -0.480362       -13.0713
 218   2.0000      -0.475630       -12.9426
 219   2.0000      -0.473119       -12.8742
 220   2.0000      -0.467646       -12.7253
 221   2.0000      -0.465946       -12.6790
 222   2.0000      -0.465604       -12.6697
 223   2.0000      -0.460426       -12.5288
 224   2.0000      -0.454062       -12.3557
 225   2.0000      -0.451618       -12.2892
 226   2.0000      -0.449994       -12.2450
 227   2.0000      -0.449067       -12.2197
 228   2.0000      -0.446871       -12.1600
 229   2.0000      -0.445675       -12.1274
 230   2.0000      -0.444705       -12.1010
 231   2.0000      -0.442288       -12.0353
 232   2.0000      -0.442122       -12.0308
 233   2.0000      -0.440385       -11.9835
 234   2.0000      -0.439670       -11.9640
 235   2.0000      -0.437660       -11.9093
 236   2.0000      -0.436268       -11.8715
 237   2.0000      -0.434913       -11.8346
 238   2.0000      -0.434706       -11.8290
 239   2.0000      -0.433705       -11.8017
 240   2.0000      -0.432916       -11.7802
 241   2.0000      -0.432130       -11.7588
 242   2.0000      -0.431325       -11.7370
 243   2.0000      -0.427222       -11.6253
 244   2.0000      -0.426812       -11.6142
 245   2.0000      -0.425063       -11.5665
 246   2.0000      -0.420377       -11.4390
 247   2.0000      -0.420285       -11.4365
 248   2.0000      -0.417223       -11.3532
 249   2.0000      -0.416844       -11.3429
 250   2.0000      -0.410253       -11.1635
 251   2.0000      -0.408178       -11.1071
 252   2.0000      -0.406928       -11.0731
 253   2.0000      -0.401550       -10.9267
 254   2.0000      -0.401248       -10.9185
 255   2.0000      -0.399260       -10.8644
 256   2.0000      -0.398073       -10.8321
 257   2.0000      -0.397087       -10.8053
 258   2.0000      -0.392395       -10.6776
 259   2.0000      -0.390734       -10.6324
 260   2.0000      -0.389005       -10.5854
 261   2.0000      -0.387834       -10.5535
 262   2.0000      -0.385006       -10.4765
 263   2.0000      -0.384719       -10.4687
 264   2.0000      -0.379231       -10.3194
 265   2.0000      -0.375010       -10.2045
 266   2.0000      -0.364807        -9.9269
 267   2.0000      -0.351672        -9.5695
 268   2.0000      -0.346738        -9.4352
 269   2.0000      -0.342608        -9.3228
 270   2.0000      -0.337698        -9.1892
 271   2.0000      -0.329154        -8.9567
 272   2.0000      -0.324476        -8.8295
 273   2.0000      -0.321436        -8.7467
 274   2.0000      -0.317062        -8.6277
 275   2.0000      -0.316478        -8.6118
 276   2.0000      -0.302954        -8.2438
 277   2.0000      -0.299181        -8.1411
 278   2.0000      -0.294196        -8.0055
 279   2.0000      -0.288914        -7.8617
 280   2.0000      -0.253222        -6.8905
 281   0.0000      -0.130422        -3.5490
 282   0.0000      -0.096047        -2.6136
 283   0.0000      -0.080717        -2.1964
 284   0.0000      -0.060972        -1.6591
 285   0.0000      -0.057562        -1.5663

MULLIKEN ATOMIC CHARGES
-----------------------
   0 C :    0.285983
   1 C :   -0.340271
   2 C :   -0.181578
   3 N :    0.153346
   4 C :   -0.172594
   5 N :    0.151431
   6 C :    0.033088
   7 C :    0.002975
   8 C :   -0.079092
   9 C :    0.095956
  10 C :    0.095424
  11 C :   -0.080253
  12 C :   -0.018374
  13 C :    0.035506
  14 C :    0.035878
  15 C :   -0.016619
  16 C :    0.147393
  17 O :   -0.139188
  18 C :   -0.138824
  19 C :    0.088744
  20 C :   -0.212670
  21 S :    0.168556
  22 C :   -0.085845
  23 C :   -0.011637
  24 C :    0.034356
  25 C :    0.114635
  26 N :    0.220483
  27 O :   -0.217169
  28 O :   -0.192457
  29 C :    0.059787
  30 C :    0.049702
  31 C :    0.135807
  32 N :    0.176620
  33 O :   -0.219255
  34 O :   -0.204166
  35 C :   -0.025624
  36 C :    0.053477
  37 C :   -0.104500
  38 S :    0.122655
  39 C :   -0.105135
  40 C :   -0.098779
  41 C :   -0.075052
  42 C :    0.063988
  43 C :    0.082639
  44 C :   -0.110124
  45 C :    0.053151
  46 C :    0.138432
  47 C :    0.124786
  48 C :   -0.177332
  49 C :    0.138960
  50 C :   -0.084343
  51 C :   -0.024318
  52 C :   -0.178137
  53 N :    0.143112
  54 C :    0.095057
  55 C :   -0.077275
  56 C :    0.080884
  57 C :    0.069584
  58 C :   -0.134257
  59 C :   -0.161813
  60 N :    0.117853
  61 C :   -0.027871
  62 C :   -0.088918
  63 C :    0.305241
  64 C :   -0.340214
  65 C :   -0.178315
  66 N :    0.152055
  67 C :   -0.204255
  68 N :    0.167613
  69 C :    0.054166
  70 C :   -0.013440
  71 C :    0.145995
  72 O :   -0.143183
  73 C :   -0.076129
  74 C :    0.097885
  75 C :    0.095818
  76 C :   -0.082125
  77 C :   -0.018353
  78 C :    0.039153
  79 C :    0.034155
  80 C :   -0.013936
  81 H :   -0.010773
  82 H :   -0.005876
  83 H :   -0.008568
  84 H :   -0.003898
  85 H :   -0.003871
  86 H :   -0.015976
  87 H :    0.026985
  88 H :    0.048354
  89 H :    0.025747
  90 H :    0.049957
  91 H :    0.037473
  92 H :    0.029462
  93 H :    0.038167
  94 H :   -0.015319
  95 H :   -0.008146
  96 H :    0.040634
  97 H :    0.034431
  98 H :    0.005056
  99 H :    0.001767
 100 H :    0.006047
 101 H :    0.016569
 102 H :    0.014385
 103 H :    0.012753
 104 H :    0.028131
 105 H :    0.038174
 106 H :   -0.001878
 107 H :    0.013272
 108 H :    0.011917
 109 H :    0.001650
 110 H :    0.038447
 111 H :   -0.012095
 112 H :   -0.007969
 113 H :   -0.008976
 114 H :   -0.004312
 115 H :   -0.003659
 116 H :   -0.016975
Sum of atomic charges:   -0.0000000

LOEWDIN ATOMIC CHARGES
----------------------
   0 C :    0.066390
   1 C :   -0.138524
   2 C :   -0.018550
   3 N :   -0.050522
   4 C :   -0.020170
   5 N :   -0.062759
   6 C :   -0.023911
   7 C :   -0.057506
   8 C :    0.033550
   9 C :   -0.008647
  10 C :   -0.005437
  11 C :    0.017216
  12 C :   -0.005924
  13 C :   -0.012147
  14 C :   -0.012123
  15 C :   -0.009054
  16 C :    0.085160
  17 O :   -0.140474
  18 C :   -0.091209
  19 C :    0.056832
  20 C :   -0.175958
  21 S :    0.485812
  22 C :   -0.141412
  23 C :   -0.065838
  24 C :   -0.046017
  25 C :    0.023018
  26 N :    0.278331
  27 O :   -0.175765
  28 O :   -0.157457
  29 C :   -0.030845
  30 C :   -0.019918
  31 C :    0.021004
  32 N :    0.273307
  33 O :   -0.198084
  34 O :   -0.183697
  35 C :   -0.048501
  36 C :   -0.026315
  37 C :   -0.159072
  38 S :    0.447170
  39 C :   -0.171415
  40 C :   -0.023538
  41 C :   -0.040753
  42 C :   -0.032004
  43 C :   -0.020883
  44 C :   -0.030733
  45 C :   -0.050500
  46 C :   -0.021400
  47 C :   -0.013055
  48 C :   -0.050337
  49 C :    0.052754
  50 C :   -0.072241
  51 C :    0.047928
  52 C :   -0.031472
  53 N :   -0.055687
  54 C :    0.018608
  55 C :    0.022258
  56 C :   -0.035652
  57 C :    0.073994
  58 C :   -0.097945
  59 C :   -0.024130
  60 N :   -0.076570
  61 C :    0.075988
  62 C :   -0.084538
  63 C :    0.073188
  64 C :   -0.132419
  65 C :   -0.016767
  66 N :   -0.049890
  67 C :   -0.025359
  68 N :   -0.044013
  69 C :   -0.025668
  70 C :   -0.057000
  71 C :    0.084261
  72 O :   -0.133545
  73 C :    0.034236
  74 C :   -0.008217
  75 C :   -0.005348
  76 C :    0.020098
  77 C :   -0.004985
  78 C :   -0.011866
  79 C :   -0.011693
  80 C :   -0.008644
  81 H :    0.039654
  82 H :    0.038774
  83 H :    0.034780
  84 H :    0.033574
  85 H :    0.033188
  86 H :    0.032178
  87 H :    0.047679
  88 H :    0.047876
  89 H :    0.038812
  90 H :    0.039225
  91 H :    0.032808
  92 H :    0.037700
  93 H :    0.044020
  94 H :    0.028894
  95 H :    0.022358
  96 H :    0.035454
  97 H :    0.036557
  98 H :    0.026907
  99 H :    0.022977
 100 H :    0.029305
 101 H :    0.023058
 102 H :    0.025951
 103 H :    0.026944
 104 H :    0.037730
 105 H :    0.041364
 106 H :    0.032143
 107 H :    0.032622
 108 H :    0.038617
 109 H :    0.036734
 110 H :    0.052385
 111 H :    0.039491
 112 H :    0.039199
 113 H :    0.034974
 114 H :    0.033564
 115 H :    0.033299
 116 H :    0.032204

  Mayer bond orders larger than 0.100000
B(  0-C ,  1-C ) :   1.6536 B(  0-C ,  6-C ) :   0.9994 B(  0-C , 18-C ) :   1.0323
B(  1-C ,  2-C ) :   1.1318 B(  1-C ,  4-C ) :   1.1740 B(  2-C ,  3-N ) :   2.9860
B(  4-C ,  5-N ) :   2.9704 B(  6-C ,  7-C ) :   1.2152 B(  6-C , 11-C ) :   1.4541
B(  7-C ,  8-C ) :   1.4730 B(  7-C , 16-C ) :   0.9214 B(  8-C ,  9-C ) :   1.1862
B(  8-C , 81-H ) :   1.0159 B(  9-C , 10-C ) :   1.2548 B(  9-C , 15-C ) :   1.2437
B( 10-C , 11-C ) :   1.2065 B( 10-C , 12-C ) :   1.2394 B( 11-C , 82-H ) :   0.9932
B( 12-C , 13-C ) :   1.4907 B( 12-C , 83-H ) :   0.9980 B( 13-C , 14-C ) :   1.2583
B( 13-C , 84-H ) :   0.9893 B( 14-C , 15-C ) :   1.4902 B( 14-C , 85-H ) :   0.9891
B( 15-C , 86-H ) :   0.9979 B( 16-C , 17-O ) :   2.2757 B( 16-C , 18-C ) :   0.9321
B( 18-C , 19-C ) :   1.7164 B( 19-C , 20-C ) :   1.0730 B( 19-C , 87-H ) :   0.9143
B( 20-C , 21-S ) :   1.1434 B( 20-C , 24-C ) :   1.4723 B( 21-S , 22-C ) :   1.1256
B( 22-C , 23-C ) :   1.5011 B( 22-C , 35-C ) :   1.1561 B( 23-C , 24-C ) :   1.3564
B( 23-C , 31-C ) :   0.9758 B( 24-C , 25-C ) :   1.0296 B( 25-C , 26-N ) :   0.8202
B( 25-C , 29-C ) :   1.0636 B( 25-C , 88-H ) :   0.8814 B( 26-N , 27-O ) :   1.5396
B( 26-N , 28-O ) :   1.6109 B( 27-O , 28-O ) :   0.2652 B( 29-C , 30-C ) :   1.0958
B( 29-C , 89-H ) :   0.9202 B( 29-C , 90-H ) :   0.9044 B( 30-C , 31-C ) :   1.0575
B( 30-C , 91-H ) :   0.9259 B( 30-C , 92-H ) :   0.9293 B( 31-C , 32-N ) :   0.8308
B( 31-C , 93-H ) :   0.8906 B( 32-N , 33-O ) :   1.5267 B( 32-N , 34-O ) :   1.5946
B( 33-O , 34-O ) :   0.2670 B( 35-C , 36-C ) :   1.6546 B( 35-C , 94-H ) :   0.9469
B( 36-C , 37-C ) :   1.1563 B( 36-C , 95-H ) :   0.9452 B( 37-C , 38-S ) :   1.1275
B( 37-C , 39-C ) :   0.1049 B( 37-C , 41-C ) :   1.4434 B( 38-S , 39-C ) :   1.1130
B( 39-C , 40-C ) :   1.4451 B( 39-C , 47-C ) :   1.1413 B( 40-C , 41-C ) :   1.3545
B( 40-C , 46-C ) :   1.0612 B( 41-C , 42-C ) :   1.0584 B( 42-C , 43-C ) :   1.0767
B( 42-C , 96-H ) :   0.8949 B( 42-C , 97-H ) :   0.9065 B( 43-C , 44-C ) :   1.0511
B( 43-C , 98-H ) :   0.9311 B( 43-C , 99-H ) :   0.9417 B( 44-C , 45-C ) :   1.0665
B( 44-C , 46-C ) :   1.0394 B( 44-C ,100-H ) :   0.9189 B( 45-C ,101-H ) :   0.9622
B( 45-C ,102-H ) :   0.9680 B( 45-C ,103-H ) :   0.9615 B( 46-C ,104-H ) :   0.9090
B( 46-C ,105-H ) :   0.8938 B( 47-C , 48-C ) :   1.5176 B( 47-C , 51-C ) :   1.0149
B( 48-C , 49-C ) :   1.1421 B( 48-C ,106-H ) :   0.9959 B( 49-C , 50-C ) :   1.0926
B( 49-C , 54-C ) :   1.3882 B( 50-C , 51-C ) :   1.7088 B( 50-C , 52-C ) :   1.0783
B( 51-C ,107-H ) :   1.0090 B( 52-C , 53-N ) :   2.9708 B( 54-C , 55-C ) :   1.1156
B( 54-C , 58-C ) :   1.1263 B( 55-C , 56-C ) :   1.4959 B( 55-C ,108-H ) :   1.0066
B( 56-C , 57-C ) :   1.0717 B( 56-C , 61-C ) :   1.1095 B( 57-C , 58-C ) :   1.6535
B( 57-C ,109-H ) :   1.0080 B( 58-C , 59-C ) :   1.0977 B( 59-C , 60-N ) :   2.9567
B( 61-C , 62-C ) :   1.6146 B( 61-C ,110-H ) :   0.9499 B( 62-C , 63-C ) :   1.0453
B( 62-C , 71-C ) :   0.9367 B( 63-C , 64-C ) :   1.6531 B( 63-C , 69-C ) :   0.9937
B( 64-C , 65-C ) :   1.1417 B( 64-C , 67-C ) :   1.1410 B( 65-C , 66-N ) :   2.9679
B( 67-C , 68-N ) :   2.9921 B( 69-C , 70-C ) :   1.2118 B( 69-C , 76-C ) :   1.4470
B( 70-C , 71-C ) :   0.9458 B( 70-C , 73-C ) :   1.4711 B( 71-C , 72-O ) :   2.2192
B( 73-C , 74-C ) :   1.1806 B( 73-C ,111-H ) :   1.0161 B( 74-C , 75-C ) :   1.2560
B( 74-C , 80-C ) :   1.2428 B( 75-C , 76-C ) :   1.2071 B( 75-C , 77-C ) :   1.2391
B( 76-C ,112-H ) :   0.9905 B( 77-C , 78-C ) :   1.4907 B( 77-C ,113-H ) :   0.9974
B( 78-C , 79-C ) :   1.2583 B( 78-C ,114-H ) :   0.9887 B( 79-C , 80-C ) :   1.4888
B( 79-C ,115-H ) :   0.9894 B( 80-C ,116-H ) :   0.9980

-----------------------------------------------------------------------------
         ABSORPTION SPECTRUM VIA TRANSITION ELECTRIC DIPOLE MOMENTS
-----------------------------------------------------------------------------
State   Energy  Wavelength   fosc         T2         TX        TY        TZ
        (cm-1)    (nm)                  (au**2)     (au)      (au)      (au)
-----------------------------------------------------------------------------
   0   12268.7    815.1   1.125418981  30.19902  -3.80425   2.48559   3.09007
   1   18007.8    555.3   0.008302912   0.15179   0.21504  -0.16920  -0.27735
   2   19256.4    519.3   0.372503881   6.36841  -1.48307   2.04177   0.00946
   3   21946.2    455.7   0.244506804   3.66781  -1.35115   0.39120   1.29968
   4   22648.5    441.5   0.057624663   0.83762  -0.33110   0.06515   0.85073
   5   24102.9    414.9   0.307127860   4.19494   1.42651  -0.75129  -1.26315
   6   25489.5    392.3   0.012198063   0.15755   0.32892  -0.18745  -0.11923
   7   25644.3    390.0   0.003776716   0.04848   0.05298   0.02415  -0.21235
   8   25663.2    389.7   0.057520021   0.73788  -0.37320  -0.75576   0.16558
   9   26849.8    372.4   0.031664788   0.38825   0.32298  -0.51313   0.14362
  10   27171.3    368.0   0.736105756   8.91877  -1.83151   1.03495   2.11972
  11   27652.5    361.6   0.024621938   0.29313   0.04872  -0.51085   0.17261
  12   28348.2    352.8   0.040510615   0.47046  -0.19320  -0.27694  -0.59702
  13   28579.2    349.9   0.002122165   0.02445   0.12858   0.07846   0.04190
  14   28742.0    347.9   0.007443444   0.08526  -0.12742  -0.23473   0.11800
  15   29193.9    342.5   0.068067849   0.76758   0.42370   0.09557  -0.76088
  16   29386.2    340.3   0.038542697   0.43179   0.18564  -0.61893   0.11940
  17   29615.5    337.7   0.067861839   0.75437  -0.53761   0.41383   0.54229
  18   30023.2    333.1   0.309293122   3.39147  -1.40898   1.18080  -0.10936
  19   30337.7    329.6   0.228641765   2.48112   0.71224   0.92427  -1.05809
  20   30822.2    324.4   0.170379641   1.81982  -1.14778   0.70603  -0.06288
  21   31248.8    320.0   0.173110237   1.82375  -1.08891   0.79861  -0.01589
  22   32202.7    310.5   0.057846085   0.59137  -0.20276   0.70425  -0.23299
  23   32709.2    305.7   0.131480449   1.32332   0.00298  -1.12334   0.24783
  24   33216.6    301.1   0.046397191   0.45985   0.44827   0.31516  -0.39947
  25   33337.1    300.0   0.023076999   0.22789   0.31035   0.31799   0.17453
  26   33846.1    295.5   0.125954431   1.22513  -0.94287   0.57428   0.07945
  27   33974.5    294.3   0.158439035   1.53527   0.56617   1.09540   0.12176
  28   34026.7    293.9   0.111632573   1.08006  -0.43934   0.92020   0.20066
  29   34537.4    289.5   0.416434105   3.96947   0.96888   1.61819  -0.64203
  30   34866.7    286.8   0.132359971   1.24975  -0.44983   0.99178  -0.25252
  31   34990.7    285.8   0.151723839   1.42750  -0.01683  -0.86628   0.82266
  32   35227.1    283.9   0.072526381   0.67779  -0.09268  -0.76702   0.28440
  33   35652.5    280.5   0.043715931   0.40367   0.25111   0.35460  -0.46354
  34   35893.9    278.6   0.273898899   2.51215  -0.11790   1.21443  -1.01163
  35   36099.3    277.0   0.278850912   2.54301  -1.18741   0.74561  -0.75969
  36   36472.1    274.2   0.088336466   0.79736  -0.11783   0.34371  -0.81569
  37   36694.5    272.5   0.049048675   0.44005  -0.29313   0.59456   0.02506
  38   36793.2    271.8   0.059512949   0.53250  -0.29826  -0.32854   0.57931
  39   37031.8    270.0   0.173162277   1.53941  -0.59127   1.08577   0.10444
  40   37758.8    264.8   0.027582713   0.24049   0.18423  -0.19864  -0.40877
  41   37860.2    264.1   0.048961536   0.42574   0.32559   0.47111  -0.31271
  42   38263.8    261.3   0.061567331   0.52971  -0.54406  -0.26525   0.40417
  43   38406.8    260.4   0.004500606   0.03858   0.04111   0.17276  -0.08391
  44   38960.5    256.7   0.118729949   1.00326   0.01041  -0.82691   0.56512
  45   39120.6    255.6   0.049382796   0.41557  -0.25027  -0.29714  -0.51444
  46   39229.0    254.9   0.009338107   0.07837  -0.00125  -0.02094  -0.27915
  47   39699.0    251.9   0.012228102   0.10140   0.16832   0.26113  -0.06987
  48   39897.0    250.6   0.150731855   1.24377  -0.86456   0.03574   0.70358
  49   40194.7    248.8   0.209968357   1.71973  -0.11844   0.31790   1.26674

FINAL SINGLE POINT ENERGY     -4179.504351213111

DIPOLE MOMENT
-------------
                                X             Y             Z
Electronic contribution:     -0.05953     -26.34743      24.93108
Nuclear contribution   :     -0.70886      26.45679     -27.93762
                        -----------------------------------------
Total Dipole Moment    :     -0.76839       0.10936      -3.00654
                        -----------------------------------------
Magnitude (a.u.)       :      3.10511
Magnitude (Debye)      :      7.89255

Rotational constants in cm-1:     0.001289     0.000210     0.000186
Rotational constants in MHz :    38.629394     6.298738     5.590562

                             ****ORCA TERMINATED NORMALLY****
TOTAL RUN TIME: 0 days 0 hours 21 minutes 32 seconds 460 msec
