                         Program Version 4.2.0 -  RELEASE  -
|  1> # ORCA input file
|  2> # SCF done       -216.751108425827          0.000429329235
|  3> ! CAM-B3LYP def2-SVP def2/J RIJCOSX Grid4 TightSCF
|  4> %maxcore 5000
|  5> %tddft
|  6>     Mode sTDDFT
|  7>     Ethresh 5.0
|  8>     maxcore 5000
|  9> end
| 10>
| 11> %pal
| 12>   nprocs 6
| 13>   end
| 14> * xyz 0 1
| 15>    C       -3.85310        -0.60110         1.87463
| 16>    N       -5.04124         0.04220         1.94507
| 17>    C       -6.24176        -0.43968         2.58377
| 18>    C       -6.25957        -0.08825         4.06982
| 19>    C       -4.95584         1.33943         1.38427
| 20>    O       -5.91035         2.07903         1.26488
| 21>    C       -3.57275         1.45903         0.99044
| 22>    C       -2.93110         0.22037         1.27450
| 23>    C       -1.55770         0.33030         0.82888
| 24>    O       -0.63460        -0.45029         0.83433
| 25>    N       -1.45914         1.64551         0.31167
| 26>    C       -0.17924         2.10548        -0.17418
| 27>    C        0.54653         2.97642         0.84861
| 28>    C       -2.64565         2.33599         0.43151
| 29>    C       -2.94955         3.69256         0.14986
| 30>    C       -2.16733         4.64160        -0.43451
| 31>    C       -2.56194         5.99835        -0.54807
| 32>    O       -3.71111         6.40378         0.01709
| 33>    C       -3.85932         7.72967        -0.16600
| 34>    C       -2.73052         8.22808        -0.86736
| 35>    C       -1.91297         7.10378        -1.12484
| 36>    C       -0.60839         7.07162        -1.84377
| 37>    F       -0.13657         5.83304        -2.04521
| 38>    F       -0.65855         7.63551        -3.06107
| 39>    F        0.36978         7.71797        -1.17154
| 40>    O       -2.59040         9.53040        -1.04378
| 41>    C       -1.53922        10.10155        -1.80065
| 42>    C       -4.92348         8.46042         0.41059
| 43>    C       -5.30478         9.76649         0.09325
| 44>    N       -5.13319        10.44190        -1.12300
| 45>    O       -5.34412        11.64279        -1.13818
| 46>    O       -4.82919         9.78903        -2.10976
| 47>    C       -6.09809        10.29415         1.15890
| 48>    C       -6.19638         9.35485         2.14021
| 49>    C       -5.54813         8.15667         1.70809
| 50>    C       -5.62370         6.92221         2.33599
| 51>    C       -5.80199         5.67501         1.67259
| 52>    C       -6.13155         4.72498         2.59386
| 53>    C       -6.07387         5.30909         3.89797
| 54>    N       -6.21357         4.55045         5.06358
| 55>    O       -6.03225         5.07676         6.15316
| 56>    O       -6.50061         3.36698         4.93355
| 57>    C       -5.77828         6.67173         3.77815
| 58>    C       -5.57678         7.58723         4.82673
| 59>    C       -4.85670         8.74450         4.73868
| 60>    C       -4.77881         9.63041         5.84139
| 61>    O       -5.41767         9.29175         6.95891
| 62>    C       -5.24755        10.24512         7.90120
| 63>    C       -4.45548        11.27690         7.35885
| 64>    C       -4.14894        10.87283         6.03539
| 65>    C       -3.31048        11.57523         5.02514
| 66>    F       -3.09423        10.85095         3.92174
| 67>    F       -3.85013        12.73559         4.59861
| 68>    F       -2.08484        11.88917         5.49365
| 69>    O       -4.14913        12.36220         8.07345
| 70>    C       -3.61394        13.53043         7.47459
| 71>    C       -5.90654         9.93437         9.12154
| 72>    N       -5.76367        10.45658        10.37897
| 73>    C       -4.98764        11.59718        10.80217
| 74>    C       -5.78549        12.89067        10.66423
| 75>    C       -6.52655         9.73496        11.33312
| 76>    O       -6.54421        10.01169        12.51194
| 77>    C       -7.18368         8.70726        10.56182
| 78>    C       -6.80041         8.86381         9.20978
| 79>    C       -7.51230         7.87302         8.43476
| 80>    O       -7.61478         7.67601         7.24408
| 81>    N       -8.22202         7.11956         9.40299
| 82>    C       -9.02078         6.00008         8.96542
| 83>    C       -8.18029         4.72997         8.85192
| 84>    C       -8.02848         7.60437        10.66504
| 85>    C       -8.56491         7.13020        11.91165
| 86>    C       -9.05751         5.92679        12.20675
| 87>    H       -3.73859        -1.60085         2.25179
| 88>    H       -6.30411        -1.52175         2.44154
| 89>    H       -7.08552         0.04036         2.08122
| 90>    H       -5.38972        -0.50759         4.57114
| 91>    H       -7.15600        -0.49422         4.52943
| 92>    H       -6.26102         0.99015         4.21134
| 93>    H       -0.30548         2.62230        -1.12796
| 94>    H        0.40760         1.19839        -0.35068
| 95>    H       -0.05181         3.83934         1.13150
| 96>    H        1.48676         3.32405         0.43023
| 97>    H        0.75748         2.39484         1.74264
| 98>    H       -3.94102         3.97740         0.47792
| 99>    H       -1.19925         4.39630        -0.82855
|100>    H       -1.70153        11.17589        -1.73166
|101>    H       -1.60059         9.79707        -2.84652
|102>    H       -0.55980         9.85590        -1.38676
|103>    H       -6.55061        11.26701         1.13393
|104>    H       -6.77922         9.42731         3.03766
|105>    H       -5.82835         5.55390         0.60831
|106>    H       -6.39419         3.70303         2.39452
|107>    H       -6.01899         7.32400         5.78278
|108>    H       -4.31706         8.99390         3.84067
|109>    H       -3.64083        14.28210         8.26188
|110>    H       -4.22334        13.86619         6.63405
|111>    H       -2.58075        13.38500         7.15634
|112>    H       -4.06626        11.64399        10.22360
|113>    H       -4.75081        11.42827        11.85656
|114>    H       -6.06719        13.05485         9.62766
|115>    H       -5.18619        13.73015        11.00424
|116>    H       -6.68586        12.83698        11.27119
|117>    H       -9.40005         6.26145         7.97263
|118>    H       -9.86522         5.87407         9.64570
|119>    H       -7.40377         4.86968         8.10304
|120>    H       -8.80908         3.89737         8.54853
|121>    H       -7.70426         4.48723         9.79968
|122>    H       -8.48628         7.87485        12.69448
|123>    H       -9.10636         5.11244        11.50696
|124>    H       -9.40796         5.71473        13.20243
|125> *
|126>
|127>                          ****END OF INPUT****

CARTESIAN COORDINATES (ANGSTROEM)
---------------------------------
  C     -3.853100   -0.601100    1.874630
  N     -5.041240    0.042200    1.945070
  C     -6.241760   -0.439680    2.583770
  C     -6.259570   -0.088250    4.069820
  C     -4.955840    1.339430    1.384270
  O     -5.910350    2.079030    1.264880
  C     -3.572750    1.459030    0.990440
  C     -2.931100    0.220370    1.274500
  C     -1.557700    0.330300    0.828880
  O     -0.634600   -0.450290    0.834330
  N     -1.459140    1.645510    0.311670
  C     -0.179240    2.105480   -0.174180
  C      0.546530    2.976420    0.848610
  C     -2.645650    2.335990    0.431510
  C     -2.949550    3.692560    0.149860
  C     -2.167330    4.641600   -0.434510
  C     -2.561940    5.998350   -0.548070
  O     -3.711110    6.403780    0.017090
  C     -3.859320    7.729670   -0.166000
  C     -2.730520    8.228080   -0.867360
  C     -1.912970    7.103780   -1.124840
  C     -0.608390    7.071620   -1.843770
  F     -0.136570    5.833040   -2.045210
  F     -0.658550    7.635510   -3.061070
  F      0.369780    7.717970   -1.171540
  O     -2.590400    9.530400   -1.043780
  C     -1.539220   10.101550   -1.800650
  C     -4.923480    8.460420    0.410590
  C     -5.304780    9.766490    0.093250
  N     -5.133190   10.441900   -1.123000
  O     -5.344120   11.642790   -1.138180
  O     -4.829190    9.789030   -2.109760
  C     -6.098090   10.294150    1.158900
  C     -6.196380    9.354850    2.140210
  C     -5.548130    8.156670    1.708090
  C     -5.623700    6.922210    2.335990
  C     -5.801990    5.675010    1.672590
  C     -6.131550    4.724980    2.593860
  C     -6.073870    5.309090    3.897970
  N     -6.213570    4.550450    5.063580
  O     -6.032250    5.076760    6.153160
  O     -6.500610    3.366980    4.933550
  C     -5.778280    6.671730    3.778150
  C     -5.576780    7.587230    4.826730
  C     -4.856700    8.744500    4.738680
  C     -4.778810    9.630410    5.841390
  O     -5.417670    9.291750    6.958910
  C     -5.247550   10.245120    7.901200
  C     -4.455480   11.276900    7.358850
  C     -4.148940   10.872830    6.035390
  C     -3.310480   11.575230    5.025140
  F     -3.094230   10.850950    3.921740
  F     -3.850130   12.735590    4.598610
  F     -2.084840   11.889170    5.493650
  O     -4.149130   12.362200    8.073450
  C     -3.613940   13.530430    7.474590
  C     -5.906540    9.934370    9.121540
  N     -5.763670   10.456580   10.378970
  C     -4.987640   11.597180   10.802170
  C     -5.785490   12.890670   10.664230
  C     -6.526550    9.734960   11.333120
  O     -6.544210   10.011690   12.511940
  C     -7.183680    8.707260   10.561820
  C     -6.800410    8.863810    9.209780
  C     -7.512300    7.873020    8.434760
  O     -7.614780    7.676010    7.244080
  N     -8.222020    7.119560    9.402990
  C     -9.020780    6.000080    8.965420
  C     -8.180290    4.729970    8.851920
  C     -8.028480    7.604370   10.665040
  C     -8.564910    7.130200   11.911650
  C     -9.057510    5.926790   12.206750
  H     -3.738590   -1.600850    2.251790
  H     -6.304110   -1.521750    2.441540
  H     -7.085520    0.040360    2.081220
  H     -5.389720   -0.507590    4.571140
  H     -7.156000   -0.494220    4.529430
  H     -6.261020    0.990150    4.211340
  H     -0.305480    2.622300   -1.127960
  H      0.407600    1.198390   -0.350680
  H     -0.051810    3.839340    1.131500
  H      1.486760    3.324050    0.430230
  H      0.757480    2.394840    1.742640
  H     -3.941020    3.977400    0.477920
  H     -1.199250    4.396300   -0.828550
  H     -1.701530   11.175890   -1.731660
  H     -1.600590    9.797070   -2.846520
  H     -0.559800    9.855900   -1.386760
  H     -6.550610   11.267010    1.133930
  H     -6.779220    9.427310    3.037660
  H     -5.828350    5.553900    0.608310
  H     -6.394190    3.703030    2.394520
  H     -6.018990    7.324000    5.782780
  H     -4.317060    8.993900    3.840670
  H     -3.640830   14.282100    8.261880
  H     -4.223340   13.866190    6.634050
  H     -2.580750   13.385000    7.156340
  H     -4.066260   11.643990   10.223600
  H     -4.750810   11.428270   11.856560
  H     -6.067190   13.054850    9.627660
  H     -5.186190   13.730150   11.004240
  H     -6.685860   12.836980   11.271190
  H     -9.400050    6.261450    7.972630
  H     -9.865220    5.874070    9.645700
  H     -7.403770    4.869680    8.103040
  H     -8.809080    3.897370    8.548530
  H     -7.704260    4.487230    9.799680
  H     -8.486280    7.874850   12.694480
  H     -9.106360    5.112440   11.506960
  H     -9.407960    5.714730   13.202430

 Total Charge           Charge          ....    0
 Multiplicity           Mult            ....    1
 Number of Electrons    NEL             ....  518
 Basis Dimension        Dim             .... 1198

ORBITAL ENERGIES
----------------

  NO   OCC          E(Eh)            E(eV)
   0   2.0000     -24.822868      -675.4646
   1   2.0000     -24.817621      -675.3218
   2   2.0000     -24.816309      -675.2861
   3   2.0000     -24.813233      -675.2024
   4   2.0000     -24.811782      -675.1629
   5   2.0000     -24.810397      -675.1252
   6   2.0000     -19.321779      -525.7723
   7   2.0000     -19.308207      -525.4030
   8   2.0000     -19.279534      -524.6228
   9   2.0000     -19.279257      -524.6153
  10   2.0000     -19.228197      -523.2258
  11   2.0000     -19.227201      -523.1987
  12   2.0000     -19.221447      -523.0422
  13   2.0000     -19.221196      -523.0353
  14   2.0000     -19.202814      -522.5351
  15   2.0000     -19.190054      -522.1879
  16   2.0000     -19.181989      -521.9685
  17   2.0000     -19.181121      -521.9448
  18   2.0000     -14.636260      -398.2729
  19   2.0000     -14.629378      -398.0856
  20   2.0000     -14.461197      -393.5092
  21   2.0000     -14.456595      -393.3840
  22   2.0000     -14.449339      -393.1865
  23   2.0000     -14.446343      -393.1050
  24   2.0000     -10.543105      -286.8925
  25   2.0000     -10.538525      -286.7678
  26   2.0000     -10.382520      -282.5227
  27   2.0000     -10.378197      -282.4051
  28   2.0000     -10.376524      -282.3596
  29   2.0000     -10.375617      -282.3349
  30   2.0000     -10.374750      -282.3113
  31   2.0000     -10.368033      -282.1285
  32   2.0000     -10.366087      -282.0756
  33   2.0000     -10.365654      -282.0638
  34   2.0000     -10.357788      -281.8497
  35   2.0000     -10.353027      -281.7202
  36   2.0000     -10.348170      -281.5880
  37   2.0000     -10.343648      -281.4650
  38   2.0000     -10.340414      -281.3770
  39   2.0000     -10.338548      -281.3262
  40   2.0000     -10.333232      -281.1815
  41   2.0000     -10.331871      -281.1445
  42   2.0000     -10.321967      -280.8750
  43   2.0000     -10.320600      -280.8378
  44   2.0000     -10.316441      -280.7246
  45   2.0000     -10.316011      -280.7129
  46   2.0000     -10.315944      -280.7111
  47   2.0000     -10.315460      -280.6979
  48   2.0000     -10.314571      -280.6737
  49   2.0000     -10.310823      -280.5717
  50   2.0000     -10.310506      -280.5631
  51   2.0000     -10.310221      -280.5554
  52   2.0000     -10.309983      -280.5489
  53   2.0000     -10.307903      -280.4923
  54   2.0000     -10.298361      -280.2327
  55   2.0000     -10.296374      -280.1786
  56   2.0000     -10.296286      -280.1762
  57   2.0000     -10.288601      -279.9671
  58   2.0000     -10.286868      -279.9199
  59   2.0000     -10.284831      -279.8645
  60   2.0000     -10.279703      -279.7249
  61   2.0000     -10.279476      -279.7188
  62   2.0000     -10.275622      -279.6139
  63   2.0000     -10.270097      -279.4636
  64   2.0000     -10.270080      -279.4631
  65   2.0000     -10.265485      -279.3380
  66   2.0000     -10.264685      -279.3163
  67   2.0000     -10.256162      -279.0844
  68   2.0000     -10.255765      -279.0736
  69   2.0000     -10.254137      -279.0292
  70   2.0000     -10.251456      -278.9563
  71   2.0000     -10.244572      -278.7690
  72   2.0000      -1.409035       -38.3418
  73   2.0000      -1.404344       -38.2141
  74   2.0000      -1.312049       -35.7027
  75   2.0000      -1.307416       -35.5766
  76   2.0000      -1.305577       -35.5266
  77   2.0000      -1.304264       -35.4908
  78   2.0000      -1.301712       -35.4214
  79   2.0000      -1.300129       -35.3783
  80   2.0000      -1.246552       -33.9204
  81   2.0000      -1.239462       -33.7275
  82   2.0000      -1.185412       -32.2567
  83   2.0000      -1.182779       -32.1850
  84   2.0000      -1.140936       -31.0464
  85   2.0000      -1.130789       -30.7703
  86   2.0000      -1.125796       -30.6345
  87   2.0000      -1.119933       -30.4749
  88   2.0000      -1.119121       -30.4528
  89   2.0000      -1.116664       -30.3860
  90   2.0000      -1.070229       -29.1224
  91   2.0000      -1.058278       -28.7972
  92   2.0000      -1.056501       -28.7489
  93   2.0000      -1.047475       -28.5032
  94   2.0000      -1.007887       -27.4260
  95   2.0000      -0.987340       -26.8669
  96   2.0000      -0.948207       -25.8020
  97   2.0000      -0.941506       -25.6197
  98   2.0000      -0.934128       -25.4189
  99   2.0000      -0.930608       -25.3231
 100   2.0000      -0.928979       -25.2788
 101   2.0000      -0.918788       -25.0015
 102   2.0000      -0.900959       -24.5163
 103   2.0000      -0.891061       -24.2470
 104   2.0000      -0.887346       -24.1459
 105   2.0000      -0.879588       -23.9348
 106   2.0000      -0.874779       -23.8039
 107   2.0000      -0.869657       -23.6646
 108   2.0000      -0.861406       -23.4400
 109   2.0000      -0.838282       -22.8108
 110   2.0000      -0.837178       -22.7808
 111   2.0000      -0.834131       -22.6979
 112   2.0000      -0.823160       -22.3993
 113   2.0000      -0.821445       -22.3526
 114   2.0000      -0.810533       -22.0557
 115   2.0000      -0.807233       -21.9659
 116   2.0000      -0.805384       -21.9156
 117   2.0000      -0.803944       -21.8764
 118   2.0000      -0.795123       -21.6364
 119   2.0000      -0.781764       -21.2729
 120   2.0000      -0.765920       -20.8417
 121   2.0000      -0.760811       -20.7027
 122   2.0000      -0.755668       -20.5628
 123   2.0000      -0.749666       -20.3994
 124   2.0000      -0.736053       -20.0290
 125   2.0000      -0.731577       -19.9072
 126   2.0000      -0.726118       -19.7587
 127   2.0000      -0.718680       -19.5563
 128   2.0000      -0.716954       -19.5093
 129   2.0000      -0.712139       -19.3783
 130   2.0000      -0.699182       -19.0257
 131   2.0000      -0.698797       -19.0152
 132   2.0000      -0.696650       -18.9568
 133   2.0000      -0.690316       -18.7844
 134   2.0000      -0.688358       -18.7312
 135   2.0000      -0.686438       -18.6789
 136   2.0000      -0.679822       -18.4989
 137   2.0000      -0.677835       -18.4448
 138   2.0000      -0.677009       -18.4224
 139   2.0000      -0.670102       -18.2344
 140   2.0000      -0.667655       -18.1678
 141   2.0000      -0.658795       -17.9267
 142   2.0000      -0.654105       -17.7991
 143   2.0000      -0.648598       -17.6493
 144   2.0000      -0.641513       -17.4564
 145   2.0000      -0.637007       -17.3338
 146   2.0000      -0.628796       -17.1104
 147   2.0000      -0.624676       -16.9983
 148   2.0000      -0.622083       -16.9277
 149   2.0000      -0.620056       -16.8726
 150   2.0000      -0.617671       -16.8077
 151   2.0000      -0.616373       -16.7724
 152   2.0000      -0.609884       -16.5958
 153   2.0000      -0.604227       -16.4418
 154   2.0000      -0.603185       -16.4135
 155   2.0000      -0.598466       -16.2851
 156   2.0000      -0.596935       -16.2434
 157   2.0000      -0.596059       -16.2196
 158   2.0000      -0.588399       -16.0112
 159   2.0000      -0.583842       -15.8871
 160   2.0000      -0.581476       -15.8228
 161   2.0000      -0.579853       -15.7786
 162   2.0000      -0.574361       -15.6292
 163   2.0000      -0.570315       -15.5191
 164   2.0000      -0.569784       -15.5046
 165   2.0000      -0.568143       -15.4600
 166   2.0000      -0.567501       -15.4425
 167   2.0000      -0.566471       -15.4145
 168   2.0000      -0.564285       -15.3550
 169   2.0000      -0.563803       -15.3419
 170   2.0000      -0.563384       -15.3305
 171   2.0000      -0.559921       -15.2362
 172   2.0000      -0.558508       -15.1978
 173   2.0000      -0.557796       -15.1784
 174   2.0000      -0.552469       -15.0335
 175   2.0000      -0.551463       -15.0061
 176   2.0000      -0.550830       -14.9888
 177   2.0000      -0.547809       -14.9066
 178   2.0000      -0.545336       -14.8394
 179   2.0000      -0.539198       -14.6723
 180   2.0000      -0.537300       -14.6207
 181   2.0000      -0.535168       -14.5627
 182   2.0000      -0.528521       -14.3818
 183   2.0000      -0.527355       -14.3501
 184   2.0000      -0.525212       -14.2918
 185   2.0000      -0.522535       -14.2189
 186   2.0000      -0.520412       -14.1611
 187   2.0000      -0.518942       -14.1211
 188   2.0000      -0.518397       -14.1063
 189   2.0000      -0.516967       -14.0674
 190   2.0000      -0.516190       -14.0463
 191   2.0000      -0.511772       -13.9260
 192   2.0000      -0.509527       -13.8649
 193   2.0000      -0.508665       -13.8415
 194   2.0000      -0.506065       -13.7707
 195   2.0000      -0.505196       -13.7471
 196   2.0000      -0.503314       -13.6959
 197   2.0000      -0.502094       -13.6627
 198   2.0000      -0.499614       -13.5952
 199   2.0000      -0.498133       -13.5549
 200   2.0000      -0.494472       -13.4553
 201   2.0000      -0.492347       -13.3974
 202   2.0000      -0.489291       -13.3143
 203   2.0000      -0.487078       -13.2541
 204   2.0000      -0.483532       -13.1576
 205   2.0000      -0.480673       -13.0798
 206   2.0000      -0.477016       -12.9803
 207   2.0000      -0.475852       -12.9486
 208   2.0000      -0.474745       -12.9185
 209   2.0000      -0.471414       -12.8278
 210   2.0000      -0.464458       -12.6385
 211   2.0000      -0.461104       -12.5473
 212   2.0000      -0.460498       -12.5308
 213   2.0000      -0.459774       -12.5111
 214   2.0000      -0.457855       -12.4589
 215   2.0000      -0.456192       -12.4136
 216   2.0000      -0.455639       -12.3986
 217   2.0000      -0.455028       -12.3820
 218   2.0000      -0.451101       -12.2751
 219   2.0000      -0.450188       -12.2502
 220   2.0000      -0.449617       -12.2347
 221   2.0000      -0.444981       -12.1085
 222   2.0000      -0.444353       -12.0915
 223   2.0000      -0.443319       -12.0633
 224   2.0000      -0.438283       -11.9263
 225   2.0000      -0.432397       -11.7661
 226   2.0000      -0.427975       -11.6458
 227   2.0000      -0.427712       -11.6386
 228   2.0000      -0.426588       -11.6081
 229   2.0000      -0.424948       -11.5634
 230   2.0000      -0.421819       -11.4783
 231   2.0000      -0.420613       -11.4455
 232   2.0000      -0.414852       -11.2887
 233   2.0000      -0.410467       -11.1694
 234   2.0000      -0.408900       -11.1267
 235   2.0000      -0.398304       -10.8384
 236   2.0000      -0.392202       -10.6724
 237   2.0000      -0.375588       -10.2203
 238   2.0000      -0.371699       -10.1145
 239   2.0000      -0.367176        -9.9914
 240   2.0000      -0.364210        -9.9107
 241   2.0000      -0.357645        -9.7320
 242   2.0000      -0.354971        -9.6592
 243   2.0000      -0.352356        -9.5881
 244   2.0000      -0.350865        -9.5475
 245   2.0000      -0.346764        -9.4359
 246   2.0000      -0.345123        -9.3913
 247   2.0000      -0.338508        -9.2113
 248   2.0000      -0.335935        -9.1412
 249   2.0000      -0.333890        -9.0856
 250   2.0000      -0.324443        -8.8285
 251   2.0000      -0.323226        -8.7954
 252   2.0000      -0.319429        -8.6921
 253   2.0000      -0.315499        -8.5852
 254   2.0000      -0.307763        -8.3746
 255   2.0000      -0.279191        -7.5972
 256   2.0000      -0.269171        -7.3245
 257   2.0000      -0.246173        -6.6987
 258   2.0000      -0.228579        -6.2200
 259   0.0000      -0.130789        -3.5590
 260   0.0000      -0.087312        -2.3759
 261   0.0000      -0.069142        -1.8815
 262   0.0000      -0.044263        -1.2045
 263   0.0000      -0.018592        -0.5059

MULLIKEN ATOMIC CHARGES
-----------------------
   0 C :    0.063722
   1 N :   -0.254501
   2 C :    0.106768
   3 C :   -0.006481
   4 C :    0.180169
   5 O :   -0.200549
   6 C :   -0.061524
   7 C :   -0.007070
   8 C :    0.163426
   9 O :   -0.183292
  10 N :   -0.278960
  11 C :    0.093624
  12 C :    0.003661
  13 C :    0.138153
  14 C :   -0.012575
  15 C :   -0.043492
  16 C :    0.146540
  17 O :   -0.188801
  18 C :    0.115886
  19 C :    0.143692
  20 C :   -0.167685
  21 C :    0.517703
  22 F :   -0.149133
  23 F :   -0.154770
  24 F :   -0.162884
  25 O :   -0.273909
  26 C :    0.174227
  27 C :    0.050138
  28 C :    0.031320
  29 N :    0.268467
  30 O :   -0.267467
  31 O :   -0.261252
  32 C :    0.031160
  33 C :   -0.011922
  34 C :   -0.016357
  35 C :    0.035479
  36 C :    0.004655
  37 C :    0.005464
  38 C :    0.084372
  39 N :    0.294529
  40 O :   -0.241419
  41 O :   -0.263146
  42 C :    0.060553
  43 C :   -0.024067
  44 C :   -0.069908
  45 C :    0.138278
  46 O :   -0.159809
  47 C :    0.071630
  48 C :    0.126156
  49 C :   -0.167833
  50 C :    0.517582
  51 F :   -0.143499
  52 F :   -0.163124
  53 F :   -0.164429
  54 O :   -0.306913
  55 C :    0.174618
  56 C :    0.107379
  57 N :   -0.269046
  58 C :    0.126323
  59 C :    0.005241
  60 C :    0.144883
  61 O :   -0.195677
  62 C :   -0.046952
  63 C :   -0.041953
  64 C :    0.161407
  65 O :   -0.200176
  66 N :   -0.258160
  67 C :    0.106398
  68 C :   -0.002664
  69 C :    0.082289
  70 C :   -0.030037
  71 C :   -0.004483
  72 H :    0.020705
  73 H :    0.018489
  74 H :    0.039881
  75 H :    0.009836
  76 H :    0.020533
  77 H :    0.050052
  78 H :    0.027915
  79 H :    0.046365
  80 H :    0.018477
  81 H :    0.023982
  82 H :    0.029174
  83 H :    0.007278
  84 H :    0.004075
  85 H :    0.051835
  86 H :    0.048615
  87 H :    0.036549
  88 H :   -0.002914
  89 H :    0.003627
  90 H :    0.001181
  91 H :    0.008613
  92 H :    0.057503
  93 H :    0.031341
  94 H :    0.043028
  95 H :    0.039636
  96 H :    0.044466
  97 H :    0.021818
  98 H :    0.033084
  99 H :    0.010912
 100 H :    0.012596
 101 H :    0.026640
 102 H :    0.030331
 103 H :    0.018165
 104 H :    0.039435
 105 H :    0.015038
 106 H :    0.009644
 107 H :    0.021620
 108 H :    0.027544
 109 H :    0.032959
Sum of atomic charges:   -0.0000000

LOEWDIN ATOMIC CHARGES
----------------------
   0 C :    0.106568
   1 N :    0.006659
   2 C :    0.038814
   3 C :   -0.062119
   4 C :    0.089149
   5 O :   -0.183947
   6 C :   -0.107911
   7 C :   -0.135400
   8 C :    0.083835
   9 O :   -0.186022
  10 N :   -0.011519
  11 C :    0.033869
  12 C :   -0.062592
  13 C :    0.073820
  14 C :   -0.003687
  15 C :   -0.036060
  16 C :    0.070508
  17 O :    0.047571
  18 C :    0.013534
  19 C :    0.056869
  20 C :   -0.155567
  21 C :    0.174790
  22 F :   -0.047721
  23 F :   -0.051208
  24 F :   -0.065764
  25 O :   -0.052535
  26 C :    0.081201
  27 C :   -0.019795
  28 C :   -0.057190
  29 N :    0.283791
  30 O :   -0.229110
  31 O :   -0.225150
  32 C :    0.009839
  33 C :   -0.049365
  34 C :    0.040850
  35 C :    0.033194
  36 C :   -0.048698
  37 C :    0.024917
  38 C :   -0.056561
  39 N :    0.292746
  40 O :   -0.208498
  41 O :   -0.226614
  42 C :    0.011117
  43 C :    0.019962
  44 C :   -0.029250
  45 C :    0.067743
  46 O :    0.068156
  47 C :   -0.004247
  48 C :    0.039735
  49 C :   -0.159148
  50 C :    0.174146
  51 F :   -0.042107
  52 F :   -0.063315
  53 F :   -0.062597
  54 O :   -0.074446
  55 C :    0.078467
  56 C :    0.056392
  57 N :   -0.002043
  58 C :    0.035189
  59 C :   -0.061585
  60 C :    0.080874
  61 O :   -0.198001
  62 C :   -0.126166
  63 C :   -0.119724
  64 C :    0.085074
  65 O :   -0.188537
  66 N :    0.005358
  67 C :    0.035854
  68 C :   -0.066184
  69 C :    0.076144
  70 C :   -0.029116
  71 C :   -0.016840
  72 H :    0.036169
  73 H :    0.025363
  74 H :    0.036071
  75 H :    0.021790
  76 H :    0.030319
  77 H :    0.034189
  78 H :    0.021313
  79 H :    0.039266
  80 H :    0.020564
  81 H :    0.031801
  82 H :    0.033106
  83 H :    0.048940
  84 H :    0.032811
  85 H :    0.036949
  86 H :    0.025237
  87 H :    0.016405
  88 H :    0.037181
  89 H :    0.031870
  90 H :    0.025956
  91 H :    0.031548
  92 H :    0.044080
  93 H :    0.034227
  94 H :    0.031964
  95 H :    0.020371
  96 H :    0.019111
  97 H :    0.019863
  98 H :    0.032901
  99 H :    0.017306
 100 H :    0.026057
 101 H :    0.029707
 102 H :    0.033450
 103 H :    0.021740
 104 H :    0.030642
 105 H :    0.027889
 106 H :    0.018262
 107 H :    0.048500
 108 H :    0.024632
 109 H :    0.032049

  Mayer bond orders larger than 0.100000
B(  0-C ,  1-N ) :   1.2164 B(  0-C ,  7-C ) :   1.4268 B(  0-C , 72-H ) :   0.9892
B(  1-N ,  2-C ) :   0.9341 B(  1-N ,  4-C ) :   1.0419 B(  2-C ,  3-C ) :   1.1189
B(  2-C , 73-H ) :   0.9527 B(  2-C , 74-H ) :   0.9356 B(  3-C , 75-H ) :   0.9652
B(  3-C , 76-H ) :   0.9664 B(  3-C , 77-H ) :   0.9597 B(  4-C ,  5-O ) :   2.0207
B(  4-C ,  6-C ) :   0.9964 B(  6-C ,  7-C ) :   1.2124 B(  6-C , 13-C ) :   1.3650
B(  7-C ,  8-C ) :   0.9577 B(  8-C ,  9-O ) :   2.1700 B(  8-C , 10-N ) :   1.0139
B( 10-N , 11-C ) :   0.9431 B( 10-N , 13-C ) :   1.1653 B( 11-C , 12-C ) :   1.1154
B( 11-C , 78-H ) :   0.9515 B( 11-C , 79-H ) :   0.9207 B( 12-C , 80-H ) :   0.9681
B( 12-C , 81-H ) :   0.9677 B( 12-C , 82-H ) :   0.9616 B( 13-C , 14-C ) :   1.1745
B( 14-C , 15-C ) :   1.5514 B( 14-C , 83-H ) :   0.9562 B( 15-C , 16-C ) :   1.1921
B( 15-C , 84-H ) :   0.9513 B( 16-C , 17-O ) :   1.1839 B( 16-C , 18-C ) :   0.1080
B( 16-C , 20-C ) :   1.3566 B( 17-O , 18-C ) :   1.1178 B( 18-C , 19-C ) :   1.3686
B( 18-C , 27-C ) :   1.1310 B( 19-C , 20-C ) :   1.2544 B( 19-C , 25-O ) :   1.2588
B( 20-C , 21-C ) :   0.9438 B( 21-C , 22-F ) :   1.1367 B( 21-C , 23-F ) :   1.1633
B( 21-C , 24-F ) :   1.1578 B( 25-O , 26-C ) :   0.9009 B( 26-C , 85-H ) :   0.9761
B( 26-C , 86-H ) :   0.9691 B( 26-C , 87-H ) :   0.9621 B( 27-C , 28-C ) :   1.4634
B( 27-C , 34-C ) :   1.0588 B( 28-C , 29-N ) :   0.9616 B( 28-C , 32-C ) :   1.1603
B( 29-N , 30-O ) :   1.5079 B( 29-N , 31-O ) :   1.5121 B( 30-O , 31-O ) :   0.2541
B( 32-C , 33-C ) :   1.5441 B( 32-C , 88-H ) :   1.0124 B( 33-C , 34-C ) :   1.1736
B( 33-C , 89-H ) :   0.9968 B( 34-C , 35-C ) :   1.4226 B( 35-C , 36-C ) :   1.1871
B( 35-C , 42-C ) :   1.0249 B( 36-C , 37-C ) :   1.5269 B( 36-C , 90-H ) :   0.9959
B( 37-C , 38-C ) :   1.1269 B( 37-C , 91-H ) :   0.9921 B( 38-C , 39-N ) :   0.9634
B( 38-C , 42-C ) :   1.4437 B( 39-N , 40-O ) :   1.4739 B( 39-N , 41-O ) :   1.4785
B( 40-O , 41-O ) :   0.2486 B( 42-C , 43-C ) :   1.1893 B( 43-C , 44-C ) :   1.5342
B( 43-C , 92-H ) :   0.9361 B( 44-C , 45-C ) :   1.2043 B( 44-C , 93-H ) :   0.9482
B( 45-C , 46-O ) :   1.2105 B( 45-C , 47-C ) :   0.1296 B( 45-C , 49-C ) :   1.3527
B( 46-O , 47-C ) :   1.1663 B( 47-C , 48-C ) :   1.3744 B( 47-C , 56-C ) :   1.0398
B( 48-C , 49-C ) :   1.2425 B( 48-C , 54-O ) :   1.2177 B( 49-C , 50-C ) :   0.9448
B( 50-C , 51-F ) :   1.1538 B( 50-C , 52-F ) :   1.1554 B( 50-C , 53-F ) :   1.1524
B( 54-O , 55-C ) :   0.9100 B( 55-C , 94-H ) :   0.9755 B( 55-C , 95-H ) :   0.9659
B( 55-C , 96-H ) :   0.9658 B( 56-C , 57-N ) :   1.2197 B( 56-C , 63-C ) :   1.3604
B( 57-N , 58-C ) :   0.9432 B( 57-N , 60-C ) :   1.0140 B( 58-C , 59-C ) :   1.1180
B( 58-C , 97-H ) :   0.9447 B( 58-C , 98-H ) :   0.9279 B( 59-C , 99-H ) :   0.9676
B( 59-C ,100-H ) :   0.9684 B( 59-C ,101-H ) :   0.9645 B( 60-C , 61-O ) :   2.1324
B( 60-C , 62-C ) :   0.9884 B( 62-C , 63-C ) :   1.2215 B( 62-C , 69-C ) :   1.3641
B( 63-C , 64-C ) :   0.9742 B( 64-C , 65-O ) :   2.0521 B( 64-C , 66-N ) :   1.0383
B( 66-N , 67-C ) :   0.9397 B( 66-N , 69-C ) :   1.1966 B( 67-C , 68-C ) :   1.1165
B( 67-C ,102-H ) :   0.9273 B( 67-C ,103-H ) :   0.9502 B( 68-C ,104-H ) :   0.9480
B( 68-C ,105-H ) :   0.9662 B( 68-C ,106-H ) :   0.9629 B( 69-C , 70-C ) :   1.1399
B( 70-C , 71-C ) :   1.8866 B( 70-C ,107-H ) :   0.9404 B( 71-C ,108-H ) :   0.9604
B( 71-C ,109-H ) :   0.9420

-----------------------------------------------------------------------------
         ABSORPTION SPECTRUM VIA TRANSITION ELECTRIC DIPOLE MOMENTS
-----------------------------------------------------------------------------
State   Energy  Wavelength   fosc         T2         TX        TY        TZ
        (cm-1)    (nm)                  (au**2)     (au)      (au)      (au)
-----------------------------------------------------------------------------
   0    6405.7   1561.1   0.202357072  10.39988  -0.96825   1.33184   2.77283
   1    8914.7   1121.7   0.040935760   1.51172  -0.45911   1.03017  -0.48957
   2   13346.9    749.2   0.006520240   0.16083   0.31965  -0.21896   0.10349
   3   15012.1    666.1   0.067693911   1.48451   0.57570   1.02595  -0.31703
   4   17074.0    585.7   0.154809972   2.98496   0.67275   1.20703  -1.03703
   5   18652.9    536.1   0.131809197   2.32635  -0.32131   1.48307  -0.15372
   6   20447.7    489.1   0.151471683   2.43872   0.96437   1.07709  -0.59042
   7   23034.7    434.1   0.047794466   0.68308  -0.26419  -0.34994  -0.70059
   8   23298.2    429.2   0.162557830   2.29700  -0.03153   0.30305   1.48464
   9   23759.1    420.9   0.144654100   2.00436  -1.36992   0.34549   0.09119
  10   24387.9    410.0   0.033582190   0.45332  -0.35125  -0.49319   0.29447
  11   24420.5    409.5   0.174098414   2.34702   1.33456   0.54370  -0.51995
  12   24698.8    404.9   0.001075158   0.01433  -0.09271  -0.05270  -0.05439
  13   24907.0    401.5   0.042339028   0.55962   0.66058   0.23472   0.26109
  14   25155.3    397.5   0.086202729   1.12815   0.28812   0.98696  -0.26656
  15   25641.9    390.0   0.084676308   1.08715  -0.72967  -0.72313   0.17835
  16   26012.3    384.4   0.321584884   4.06999  -0.14301   1.97036   0.40892
  17   26335.6    379.7   0.005083593   0.06355   0.20461  -0.07743  -0.12526
  18   27324.8    366.0   0.126934916   1.52933   0.31502   0.60833  -1.02957
  19   27760.0    360.2   0.016782394   0.19903   0.14321  -0.15611  -0.39261
  20   28275.0    353.7   0.506839997   5.90125   0.37624   2.39768  -0.10394
  21   29366.0    340.5   0.034704250   0.38906   0.01662  -0.60612   0.14628
  22   29823.0    335.3   0.023573534   0.26023   0.12612  -0.46248  -0.17444
  23   30024.1    333.1   0.050156880   0.54997   0.47004  -0.57276   0.03127
  24   30172.5    331.4   0.005589205   0.06098  -0.24361   0.01395   0.03798
  25   30693.9    325.8   0.040296157   0.43220   0.18985  -0.62267  -0.09189
  26   30898.2    323.6   0.008853711   0.09433   0.09258   0.03975   0.29014
  27   31084.4    321.7   0.006942468   0.07353  -0.22055  -0.10828  -0.11472
  28   31189.6    320.6   0.017315258   0.18277  -0.14060   0.39603  -0.07849
  29   31636.3    316.1   0.002614827   0.02721   0.14359   0.08034   0.01179
  30   32045.5    312.1   0.221768030   2.27828  -0.39224   0.62075  -1.31875
  31   32152.9    311.0   0.059135319   0.60548  -0.00090   0.53324  -0.56669
  32   32277.0    309.8   0.012366447   0.12613  -0.15895  -0.17764  -0.26327
  33   32292.3    309.7   0.103705289   1.05725  -0.01623  -0.91275  -0.47316
  34   32522.8    307.5   0.111149098   1.12511   0.15242   0.98908  -0.35155
  35   33068.0    302.4   0.006450211   0.06422   0.07999   0.00138   0.24045
  36   33337.4    300.0   0.133254764   1.31591   0.30107   0.88670  -0.66260
  37   33398.1    299.4   0.231320204   2.28017  -0.28371  -1.25434   0.79141
  38   33939.1    294.6   0.017274705   0.16757   0.32482  -0.16114  -0.18998
  39   34243.7    292.0   0.041408322   0.39809   0.09397  -0.47683   0.40236
  40   34560.4    289.3   0.279484098   2.66228  -0.56742  -1.29270   0.81807
  41   35077.4    285.1   0.183177174   1.71917  -1.04044   0.47312   0.64249
  42   35395.4    282.5   0.027929042   0.25977   0.00042  -0.38764   0.33092
  43   35888.0    278.6   0.016067651   0.14739   0.05221   0.13668  -0.35494
  44   36530.9    273.7   0.035251050   0.31768   0.20801   0.38538  -0.35481
  45   36720.6    272.3   0.050006453   0.44832   0.17711  -0.63968   0.08812
  46   36908.6    270.9   0.021032201   0.18760  -0.26995   0.30265  -0.15209
  47   36973.8    270.5   0.058336367   0.51942  -0.22192  -0.66404  -0.17096
  48   37314.2    268.0   0.044145978   0.38949   0.06615   0.62024   0.02045
  49   37723.6    265.1   0.067863798   0.59224  -0.20396  -0.70790   0.22253
  50   37888.0    263.9   0.028149684   0.24459  -0.13195  -0.46397   0.10917
  51   38009.0    263.1   0.012134048   0.10510  -0.08134  -0.14326   0.27921
  52   38376.1    260.6   0.007981564   0.06847   0.06475   0.24268   0.07338
  53   38790.0    257.8   0.013538806   0.11490   0.29720   0.16186   0.01948
  54   39280.2    254.6   0.005190903   0.04351   0.07035  -0.16392  -0.10811
  55   39549.0    252.9   0.035890429   0.29876   0.30468   0.30789  -0.33336
  56   39745.5    251.6   0.014027248   0.11619  -0.15053  -0.30518  -0.01974
  57   39812.0    251.2   0.001012695   0.00837   0.01974   0.08630   0.02318

FINAL SINGLE POINT ENERGY     -3677.603167404046

DIPOLE MOMENT
-------------
                                X             Y             Z
Electronic contribution:     30.60135      35.65659     -56.96587
Nuclear contribution   :    -29.93060     -35.61122      57.37386
                        -----------------------------------------
Total Dipole Moment    :      0.67076       0.04537       0.40799
                        -----------------------------------------
Magnitude (a.u.)       :      0.78640
Magnitude (Debye)      :      1.99888

Rotational constants in cm-1:     0.001176     0.000628     0.000464
Rotational constants in MHz :    35.258423    18.814136    13.915657

                             ****ORCA TERMINATED NORMALLY****
TOTAL RUN TIME: 0 days 0 hours 15 minutes 29 seconds 599 msec
