                         Program Version 4.2.0 -  RELEASE  -
|  1> # ORCA input file
|  2> # SCF done       -196.160580306779          0.000944808022
|  3> ! CAM-B3LYP def2-SVP def2/J RIJCOSX Grid4 TightSCF
|  4> %maxcore 5000
|  5> %tddft
|  6>     Mode sTDDFT
|  7>     Ethresh 5.0
|  8>     maxcore 5000
|  9> end
| 10>
| 11> %pal
| 12>   nprocs 6
| 13>   end
| 14> * xyz 0 1
| 15>    C       -0.44142        -3.16066         6.52023
| 16>    C       -0.28408        -4.36034         5.81846
| 17>    C        0.84735        -5.14366         6.05977
| 18>    C        1.80941        -4.72960         6.98183
| 19>    C        1.63091        -3.54674         7.66390
| 20>    C        0.50322        -2.76040         7.43579
| 21>    O        1.06617        -6.30367         5.39793
| 22>    C        0.11638        -6.79276         4.59218
| 23>    C        0.49318        -8.11051         4.00792
| 24>    C       -1.03987        -6.13491         4.30398
| 25>    C       -1.26978        -4.77170         4.81540
| 26>    O       -2.17019        -4.03497         4.44295
| 27>    C       -2.10561        -6.72295         3.51410
| 28>    C       -2.90925        -7.81394         3.80549
| 29>    N       -2.84792        -8.65055         4.92281
| 30>    O       -3.82061        -9.35607         5.14985
| 31>    O       -1.84902        -8.63404         5.62730
| 32>    C       -4.00897        -7.86262         2.86813
| 33>    C       -3.94609        -6.76525         2.08097
| 34>    C       -2.78642        -5.99574         2.46217
| 35>    C       -2.42327        -4.73594         2.00889
| 36>    C       -1.12532        -4.23584         1.71059
| 37>    C       -1.25798        -3.08175         0.98826
| 38>    C       -2.64373        -2.75618         0.87028
| 39>    N       -3.13023        -1.59417         0.26353
| 40>    O       -4.34152        -1.41351         0.24786
| 41>    O       -2.32056        -0.82838        -0.23374
| 42>    C       -3.39137        -3.73163         1.53782
| 43>    C       -4.74140        -3.74232         1.90597
| 44>    C       -5.15234        -4.45774         3.01018
| 45>    C       -6.42020        -4.89137         3.41288
| 46>    N       -7.65813        -4.73623         2.83340
| 47>    C       -8.01469        -3.85298         1.74851
| 48>    C       -8.03514        -2.39111         2.18473
| 49>    C       -8.63637        -5.51331         3.47699
| 50>    O       -9.80425        -5.53178         3.14372
| 51>    C       -7.91767        -6.22063         4.52186
| 52>    C       -6.58361        -5.80174         4.47174
| 53>    C       -5.82896        -6.54101         5.46964
| 54>    O       -4.66643        -6.49605         5.80062
| 55>    N       -6.78316        -7.39860         6.04853
| 56>    C       -6.40577        -8.34734         7.07087
| 57>    C       -6.63500        -7.78941         8.47178
| 58>    C       -8.03308        -7.21363         5.51860
| 59>    C       -9.18288        -7.90619         5.93951
| 60>    C      -10.41594        -7.67113         5.39686
| 61>    C      -11.60574        -8.31689         5.79921
| 62>    C      -11.80038        -9.27070         6.78162
| 63>    C      -13.18384        -9.60317         6.84598
| 64>    C      -13.84733        -8.79666         5.80367
| 65>    C      -12.90113        -8.03942         5.19254
| 66>    C      -15.20214        -8.82695         5.44909
| 67>    N      -16.29778        -8.83766         5.10523
| 68>    C      -13.78989       -10.47930         7.71379
| 69>    C      -15.18578       -10.76185         7.83938
| 70>    C      -15.36613       -11.71191         8.80683
| 71>    C      -14.06274       -12.05932         9.35261
| 72>    C      -13.11146       -11.32468         8.71662
| 73>    C      -11.74137       -11.38126         8.98208
| 74>    N      -10.61873       -11.44829         9.22166
| 75>    C      -16.64049       -12.20384         9.29155
| 76>    C      -16.86563       -13.51189         9.59313
| 77>    O      -18.02726       -13.97309        10.08297
| 78>    C      -19.05539       -13.11605        10.30624
| 79>    C      -20.23633       -13.64459        10.82737
| 80>    C      -21.30790       -12.80980        11.05854
| 81>    C      -21.22000       -11.44908        10.77471
| 82>    C      -20.05594       -10.92751        10.25833
| 83>    C      -18.95447       -11.75346        10.01931
| 84>    C      -17.70882       -11.19874         9.46780
| 85>    O      -17.57254       -10.01924         9.20450
| 86>    C      -15.88785       -14.62305         9.37467
| 87>    H       -1.32219        -2.57102         6.31746
| 88>    H        2.67462        -5.35251         7.14386
| 89>    H        2.37179        -3.22779         8.38099
| 90>    H        0.37509        -1.83644         7.97797
| 91>    H        1.57557        -8.19027         3.94928
| 92>    H        0.04855        -8.24354         3.02583
| 93>    H        0.12274        -8.89685         4.66778
| 94>    H       -4.72803        -8.65851         2.84214
| 95>    H       -4.58305        -6.52462         1.25186
| 96>    H       -0.20796        -4.75103         1.92404
| 97>    H       -0.47063        -2.48469         0.56689
| 98>    H       -5.41324        -3.12366         1.32764
| 99>    H       -4.37551        -4.76917         3.69970
|100>    H       -9.01690        -4.15725         1.43208
|101>    H       -7.32297        -4.00478         0.91544
|102>    H       -8.78621        -2.24296         2.95730
|103>    H       -8.27927        -1.75982         1.33533
|104>    H       -7.06885        -2.08386         2.57738
|105>    H       -5.34376        -8.55774         6.91857
|106>    H       -6.96168        -9.27537         6.92300
|107>    H       -6.04217        -6.88947         8.61567
|108>    H       -6.33448        -8.52567         9.21138
|109>    H       -7.68414        -7.54512         8.62699
|110>    H       -9.07535        -8.63717         6.72736
|111>    H      -10.50895        -6.93894         4.60464
|112>    H      -11.05037        -9.69203         7.42077
|113>    H      -13.05310        -7.34424         4.38758
|114>    H      -15.95728       -10.29556         7.26087
|115>    H      -13.89336       -12.75065        10.15689
|116>    H      -20.28624       -14.70132        11.03730
|117>    H      -22.22248       -13.21685        11.46205
|118>    H      -22.06628       -10.80631        10.96123
|119>    H      -19.95506        -9.87833        10.02618
|120>    H      -15.35252       -14.84126        10.29863
|121>    H      -15.17074       -14.36699         8.60129
|122>    H      -16.43002       -15.52206         9.08916
|123> *
|124>
|125>                          ****END OF INPUT****

CARTESIAN COORDINATES (ANGSTROEM)
---------------------------------
  C     -0.441420   -3.160660    6.520230
  C     -0.284080   -4.360340    5.818460
  C      0.847350   -5.143660    6.059770
  C      1.809410   -4.729600    6.981830
  C      1.630910   -3.546740    7.663900
  C      0.503220   -2.760400    7.435790
  O      1.066170   -6.303670    5.397930
  C      0.116380   -6.792760    4.592180
  C      0.493180   -8.110510    4.007920
  C     -1.039870   -6.134910    4.303980
  C     -1.269780   -4.771700    4.815400
  O     -2.170190   -4.034970    4.442950
  C     -2.105610   -6.722950    3.514100
  C     -2.909250   -7.813940    3.805490
  N     -2.847920   -8.650550    4.922810
  O     -3.820610   -9.356070    5.149850
  O     -1.849020   -8.634040    5.627300
  C     -4.008970   -7.862620    2.868130
  C     -3.946090   -6.765250    2.080970
  C     -2.786420   -5.995740    2.462170
  C     -2.423270   -4.735940    2.008890
  C     -1.125320   -4.235840    1.710590
  C     -1.257980   -3.081750    0.988260
  C     -2.643730   -2.756180    0.870280
  N     -3.130230   -1.594170    0.263530
  O     -4.341520   -1.413510    0.247860
  O     -2.320560   -0.828380   -0.233740
  C     -3.391370   -3.731630    1.537820
  C     -4.741400   -3.742320    1.905970
  C     -5.152340   -4.457740    3.010180
  C     -6.420200   -4.891370    3.412880
  N     -7.658130   -4.736230    2.833400
  C     -8.014690   -3.852980    1.748510
  C     -8.035140   -2.391110    2.184730
  C     -8.636370   -5.513310    3.476990
  O     -9.804250   -5.531780    3.143720
  C     -7.917670   -6.220630    4.521860
  C     -6.583610   -5.801740    4.471740
  C     -5.828960   -6.541010    5.469640
  O     -4.666430   -6.496050    5.800620
  N     -6.783160   -7.398600    6.048530
  C     -6.405770   -8.347340    7.070870
  C     -6.635000   -7.789410    8.471780
  C     -8.033080   -7.213630    5.518600
  C     -9.182880   -7.906190    5.939510
  C    -10.415940   -7.671130    5.396860
  C    -11.605740   -8.316890    5.799210
  C    -11.800380   -9.270700    6.781620
  C    -13.183840   -9.603170    6.845980
  C    -13.847330   -8.796660    5.803670
  C    -12.901130   -8.039420    5.192540
  C    -15.202140   -8.826950    5.449090
  N    -16.297780   -8.837660    5.105230
  C    -13.789890  -10.479300    7.713790
  C    -15.185780  -10.761850    7.839380
  C    -15.366130  -11.711910    8.806830
  C    -14.062740  -12.059320    9.352610
  C    -13.111460  -11.324680    8.716620
  C    -11.741370  -11.381260    8.982080
  N    -10.618730  -11.448290    9.221660
  C    -16.640490  -12.203840    9.291550
  C    -16.865630  -13.511890    9.593130
  O    -18.027260  -13.973090   10.082970
  C    -19.055390  -13.116050   10.306240
  C    -20.236330  -13.644590   10.827370
  C    -21.307900  -12.809800   11.058540
  C    -21.220000  -11.449080   10.774710
  C    -20.055940  -10.927510   10.258330
  C    -18.954470  -11.753460   10.019310
  C    -17.708820  -11.198740    9.467800
  O    -17.572540  -10.019240    9.204500
  C    -15.887850  -14.623050    9.374670
  H     -1.322190   -2.571020    6.317460
  H      2.674620   -5.352510    7.143860
  H      2.371790   -3.227790    8.380990
  H      0.375090   -1.836440    7.977970
  H      1.575570   -8.190270    3.949280
  H      0.048550   -8.243540    3.025830
  H      0.122740   -8.896850    4.667780
  H     -4.728030   -8.658510    2.842140
  H     -4.583050   -6.524620    1.251860
  H     -0.207960   -4.751030    1.924040
  H     -0.470630   -2.484690    0.566890
  H     -5.413240   -3.123660    1.327640
  H     -4.375510   -4.769170    3.699700
  H     -9.016900   -4.157250    1.432080
  H     -7.322970   -4.004780    0.915440
  H     -8.786210   -2.242960    2.957300
  H     -8.279270   -1.759820    1.335330
  H     -7.068850   -2.083860    2.577380
  H     -5.343760   -8.557740    6.918570
  H     -6.961680   -9.275370    6.923000
  H     -6.042170   -6.889470    8.615670
  H     -6.334480   -8.525670    9.211380
  H     -7.684140   -7.545120    8.626990
  H     -9.075350   -8.637170    6.727360
  H    -10.508950   -6.938940    4.604640
  H    -11.050370   -9.692030    7.420770
  H    -13.053100   -7.344240    4.387580
  H    -15.957280  -10.295560    7.260870
  H    -13.893360  -12.750650   10.156890
  H    -20.286240  -14.701320   11.037300
  H    -22.222480  -13.216850   11.462050
  H    -22.066280  -10.806310   10.961230
  H    -19.955060   -9.878330   10.026180
  H    -15.352520  -14.841260   10.298630
  H    -15.170740  -14.366990    8.601290
  H    -16.430020  -15.522060    9.089160

 Total Charge           Charge          ....    0
 Multiplicity           Mult            ....    1
 Number of Electrons    NEL             ....  494
 Basis Dimension        Dim             .... 1188

ORBITAL ENERGIES
----------------

  NO   OCC          E(Eh)            E(eV)
   0   2.0000     -19.307476      -525.3831
   1   2.0000     -19.300494      -525.1931
   2   2.0000     -19.230369      -523.2849
   3   2.0000     -19.229690      -523.2665
   4   2.0000     -19.217866      -522.9447
   5   2.0000     -19.217295      -522.9292
   6   2.0000     -19.202353      -522.5226
   7   2.0000     -19.194750      -522.3157
   8   2.0000     -19.193782      -522.2894
   9   2.0000     -19.193656      -522.2859
  10   2.0000     -14.636041      -398.2669
  11   2.0000     -14.627273      -398.0283
  12   2.0000     -14.461217      -393.5097
  13   2.0000     -14.455900      -393.3650
  14   2.0000     -14.410502      -392.1297
  15   2.0000     -14.403607      -391.9421
  16   2.0000     -10.384707      -282.5822
  17   2.0000     -10.379066      -282.4287
  18   2.0000     -10.377406      -282.3836
  19   2.0000     -10.367037      -282.1014
  20   2.0000     -10.358370      -281.8656
  21   2.0000     -10.358101      -281.8583
  22   2.0000     -10.356568      -281.8165
  23   2.0000     -10.354873      -281.7704
  24   2.0000     -10.352840      -281.7151
  25   2.0000     -10.337165      -281.2886
  26   2.0000     -10.325012      -280.9579
  27   2.0000     -10.323929      -280.9284
  28   2.0000     -10.316533      -280.7271
  29   2.0000     -10.316360      -280.7224
  30   2.0000     -10.314788      -280.6796
  31   2.0000     -10.314081      -280.6604
  32   2.0000     -10.313564      -280.6463
  33   2.0000     -10.312056      -280.6053
  34   2.0000     -10.306824      -280.4629
  35   2.0000     -10.306336      -280.4497
  36   2.0000     -10.305735      -280.4333
  37   2.0000     -10.305469      -280.4261
  38   2.0000     -10.305342      -280.4226
  39   2.0000     -10.304157      -280.3904
  40   2.0000     -10.303939      -280.3844
  41   2.0000     -10.303636      -280.3762
  42   2.0000     -10.302973      -280.3582
  43   2.0000     -10.301999      -280.3317
  44   2.0000     -10.301763      -280.3252
  45   2.0000     -10.301234      -280.3108
  46   2.0000     -10.300452      -280.2895
  47   2.0000     -10.296089      -280.1708
  48   2.0000     -10.294830      -280.1366
  49   2.0000     -10.291739      -280.0525
  50   2.0000     -10.291732      -280.0523
  51   2.0000     -10.291335      -280.0415
  52   2.0000     -10.291105      -280.0352
  53   2.0000     -10.288576      -279.9664
  54   2.0000     -10.287497      -279.9370
  55   2.0000     -10.286878      -279.9202
  56   2.0000     -10.285016      -279.8695
  57   2.0000     -10.283311      -279.8231
  58   2.0000     -10.283142      -279.8185
  59   2.0000     -10.282897      -279.8119
  60   2.0000     -10.281201      -279.7657
  61   2.0000     -10.280843      -279.7560
  62   2.0000     -10.279571      -279.7213
  63   2.0000     -10.277018      -279.6519
  64   2.0000     -10.276517      -279.6382
  65   2.0000     -10.273120      -279.5458
  66   2.0000     -10.272212      -279.5211
  67   2.0000     -10.272075      -279.5174
  68   2.0000     -10.271763      -279.5089
  69   2.0000     -10.271142      -279.4920
  70   2.0000     -10.259098      -279.1643
  71   2.0000     -10.258334      -279.1435
  72   2.0000      -1.305992       -35.5378
  73   2.0000      -1.295543       -35.2535
  74   2.0000      -1.221375       -33.2353
  75   2.0000      -1.216085       -33.0914
  76   2.0000      -1.142266       -31.0826
  77   2.0000      -1.133085       -30.8328
  78   2.0000      -1.122760       -30.5519
  79   2.0000      -1.114042       -30.3146
  80   2.0000      -1.113238       -30.2928
  81   2.0000      -1.112787       -30.2805
  82   2.0000      -1.072187       -29.1757
  83   2.0000      -1.059777       -28.8380
  84   2.0000      -1.016017       -27.6472
  85   2.0000      -1.003387       -27.3036
  86   2.0000      -0.999844       -27.2071
  87   2.0000      -0.985167       -26.8078
  88   2.0000      -0.982740       -26.7417
  89   2.0000      -0.980168       -26.6717
  90   2.0000      -0.969110       -26.3708
  91   2.0000      -0.963703       -26.2237
  92   2.0000      -0.934266       -25.4227
  93   2.0000      -0.928859       -25.2755
  94   2.0000      -0.919155       -25.0115
  95   2.0000      -0.917377       -24.9631
  96   2.0000      -0.910093       -24.7649
  97   2.0000      -0.894267       -24.3342
  98   2.0000      -0.881123       -23.9766
  99   2.0000      -0.875349       -23.8195
 100   2.0000      -0.873050       -23.7569
 101   2.0000      -0.868795       -23.6411
 102   2.0000      -0.867645       -23.6098
 103   2.0000      -0.859456       -23.3870
 104   2.0000      -0.852965       -23.2104
 105   2.0000      -0.849205       -23.1080
 106   2.0000      -0.840854       -22.8808
 107   2.0000      -0.837540       -22.7906
 108   2.0000      -0.821527       -22.3549
 109   2.0000      -0.820868       -22.3369
 110   2.0000      -0.819010       -22.2864
 111   2.0000      -0.804243       -21.8846
 112   2.0000      -0.800662       -21.7871
 113   2.0000      -0.781672       -21.2704
 114   2.0000      -0.773207       -21.0400
 115   2.0000      -0.760125       -20.6841
 116   2.0000      -0.756984       -20.5986
 117   2.0000      -0.751110       -20.4388
 118   2.0000      -0.739439       -20.1212
 119   2.0000      -0.725321       -19.7370
 120   2.0000      -0.721160       -19.6238
 121   2.0000      -0.716063       -19.4851
 122   2.0000      -0.714856       -19.4522
 123   2.0000      -0.712569       -19.3900
 124   2.0000      -0.709497       -19.3064
 125   2.0000      -0.695864       -18.9354
 126   2.0000      -0.694174       -18.8894
 127   2.0000      -0.689368       -18.7586
 128   2.0000      -0.685732       -18.6597
 129   2.0000      -0.680464       -18.5164
 130   2.0000      -0.668900       -18.2017
 131   2.0000      -0.661066       -17.9885
 132   2.0000      -0.655042       -17.8246
 133   2.0000      -0.652595       -17.7580
 134   2.0000      -0.650959       -17.7135
 135   2.0000      -0.641601       -17.4588
 136   2.0000      -0.638466       -17.3735
 137   2.0000      -0.634716       -17.2715
 138   2.0000      -0.627545       -17.0764
 139   2.0000      -0.626216       -17.0402
 140   2.0000      -0.618692       -16.8355
 141   2.0000      -0.615461       -16.7475
 142   2.0000      -0.608711       -16.5639
 143   2.0000      -0.602747       -16.4016
 144   2.0000      -0.602252       -16.3881
 145   2.0000      -0.601190       -16.3592
 146   2.0000      -0.593221       -16.1424
 147   2.0000      -0.592017       -16.1096
 148   2.0000      -0.588501       -16.0139
 149   2.0000      -0.584811       -15.9135
 150   2.0000      -0.583915       -15.8891
 151   2.0000      -0.580639       -15.8000
 152   2.0000      -0.577338       -15.7102
 153   2.0000      -0.576213       -15.6795
 154   2.0000      -0.568655       -15.4739
 155   2.0000      -0.566253       -15.4085
 156   2.0000      -0.561712       -15.2850
 157   2.0000      -0.560462       -15.2509
 158   2.0000      -0.553153       -15.0521
 159   2.0000      -0.548289       -14.9197
 160   2.0000      -0.544887       -14.8271
 161   2.0000      -0.536194       -14.5906
 162   2.0000      -0.533661       -14.5216
 163   2.0000      -0.531430       -14.4609
 164   2.0000      -0.529806       -14.4168
 165   2.0000      -0.528143       -14.3715
 166   2.0000      -0.525235       -14.2924
 167   2.0000      -0.524396       -14.2695
 168   2.0000      -0.523990       -14.2585
 169   2.0000      -0.521259       -14.1842
 170   2.0000      -0.520514       -14.1639
 171   2.0000      -0.519634       -14.1400
 172   2.0000      -0.516703       -14.0602
 173   2.0000      -0.515068       -14.0157
 174   2.0000      -0.512966       -13.9585
 175   2.0000      -0.512076       -13.9343
 176   2.0000      -0.510700       -13.8969
 177   2.0000      -0.509794       -13.8722
 178   2.0000      -0.507766       -13.8170
 179   2.0000      -0.505106       -13.7446
 180   2.0000      -0.503454       -13.6997
 181   2.0000      -0.497757       -13.5447
 182   2.0000      -0.497414       -13.5353
 183   2.0000      -0.495555       -13.4847
 184   2.0000      -0.489722       -13.3260
 185   2.0000      -0.487356       -13.2616
 186   2.0000      -0.485769       -13.2184
 187   2.0000      -0.483843       -13.1660
 188   2.0000      -0.483286       -13.1509
 189   2.0000      -0.481172       -13.0934
 190   2.0000      -0.479949       -13.0601
 191   2.0000      -0.479148       -13.0383
 192   2.0000      -0.475246       -12.9321
 193   2.0000      -0.473677       -12.8894
 194   2.0000      -0.471681       -12.8351
 195   2.0000      -0.471122       -12.8199
 196   2.0000      -0.467035       -12.7087
 197   2.0000      -0.466463       -12.6931
 198   2.0000      -0.459833       -12.5127
 199   2.0000      -0.458897       -12.4872
 200   2.0000      -0.457275       -12.4431
 201   2.0000      -0.454137       -12.3577
 202   2.0000      -0.452336       -12.3087
 203   2.0000      -0.450649       -12.2628
 204   2.0000      -0.448623       -12.2076
 205   2.0000      -0.447662       -12.1815
 206   2.0000      -0.445946       -12.1348
 207   2.0000      -0.444519       -12.0960
 208   2.0000      -0.442061       -12.0291
 209   2.0000      -0.441224       -12.0063
 210   2.0000      -0.435598       -11.8532
 211   2.0000      -0.432944       -11.7810
 212   2.0000      -0.432271       -11.7627
 213   2.0000      -0.429952       -11.6996
 214   2.0000      -0.429412       -11.6849
 215   2.0000      -0.426106       -11.5949
 216   2.0000      -0.424274       -11.5451
 217   2.0000      -0.419887       -11.4257
 218   2.0000      -0.415807       -11.3147
 219   2.0000      -0.415420       -11.3042
 220   2.0000      -0.395983       -10.7752
 221   2.0000      -0.381322       -10.3763
 222   2.0000      -0.379624       -10.3301
 223   2.0000      -0.370947       -10.0940
 224   2.0000      -0.369753       -10.0615
 225   2.0000      -0.364549        -9.9199
 226   2.0000      -0.357932        -9.7398
 227   2.0000      -0.355522        -9.6743
 228   2.0000      -0.355263        -9.6672
 229   2.0000      -0.353865        -9.6292
 230   2.0000      -0.346382        -9.4255
 231   2.0000      -0.341793        -9.3007
 232   2.0000      -0.338938        -9.2230
 233   2.0000      -0.337246        -9.1769
 234   2.0000      -0.336557        -9.1582
 235   2.0000      -0.331748        -9.0273
 236   2.0000      -0.331192        -9.0122
 237   2.0000      -0.326518        -8.8850
 238   2.0000      -0.323203        -8.7948
 239   2.0000      -0.317805        -8.6479
 240   2.0000      -0.316321        -8.6075
 241   2.0000      -0.303125        -8.2485
 242   2.0000      -0.299262        -8.1433
 243   2.0000      -0.295096        -8.0300
 244   2.0000      -0.286426        -7.7941
 245   2.0000      -0.277784        -7.5589
 246   2.0000      -0.234951        -6.3933
 247   0.0000      -0.135747        -3.6939
 248   0.0000      -0.113838        -3.0977
 249   0.0000      -0.073353        -1.9960
 250   0.0000      -0.031779        -0.8648
 251   0.0000      -0.026411        -0.7187

MULLIKEN ATOMIC CHARGES
-----------------------
   0 C :   -0.001063
   1 C :   -0.046797
   2 C :    0.180219
   3 C :   -0.029707
   4 C :    0.039039
   5 C :    0.038141
   6 O :   -0.191375
   7 C :    0.001052
   8 C :    0.116350
   9 C :   -0.129786
  10 C :    0.200846
  11 O :   -0.201316
  12 C :    0.033151
  13 C :    0.076638
  14 N :    0.291493
  15 O :   -0.260142
  16 O :   -0.259224
  17 C :   -0.014777
  18 C :    0.041506
  19 C :   -0.053602
  20 C :    0.067146
  21 C :    0.022156
  22 C :    0.026352
  23 C :    0.075986
  24 N :    0.276876
  25 O :   -0.275335
  26 O :   -0.263801
  27 C :    0.036326
  28 C :   -0.053001
  29 C :    0.010392
  30 C :    0.096408
  31 N :   -0.262694
  32 C :    0.101927
  33 C :    0.001498
  34 C :    0.168847
  35 O :   -0.212957
  36 C :   -0.086033
  37 C :   -0.024735
  38 C :    0.175069
  39 O :   -0.186391
  40 N :   -0.256511
  41 C :    0.092945
  42 C :    0.008260
  43 C :    0.172641
  44 C :   -0.024321
  45 C :    0.019168
  46 C :    0.104171
  47 C :   -0.105652
  48 C :    0.106302
  49 C :   -0.081969
  50 C :   -0.002299
  51 C :   -0.179233
  52 N :    0.140015
  53 C :    0.107271
  54 C :   -0.062097
  55 C :    0.038282
  56 C :   -0.012096
  57 C :   -0.107975
  58 C :   -0.167489
  59 N :    0.123877
  60 C :   -0.040731
  61 C :   -0.033327
  62 O :   -0.202326
  63 C :    0.177029
  64 C :   -0.032382
  65 C :    0.041584
  66 C :    0.038561
  67 C :   -0.004338
  68 C :   -0.059406
  69 C :    0.163348
  70 O :   -0.170152
  71 C :    0.097057
  72 H :    0.001674
  73 H :   -0.012982
  74 H :   -0.001405
  75 H :   -0.007603
  76 H :    0.025921
  77 H :    0.035140
  78 H :    0.064532
  79 H :   -0.013821
  80 H :   -0.013790
  81 H :   -0.020670
  82 H :   -0.000204
  83 H :    0.019004
  84 H :    0.052505
  85 H :    0.042174
  86 H :    0.025743
  87 H :    0.023596
  88 H :    0.030597
  89 H :    0.029430
  90 H :    0.052944
  91 H :    0.030201
  92 H :    0.028880
  93 H :    0.031089
  94 H :    0.012211
  95 H :   -0.009289
  96 H :    0.008603
  97 H :    0.002772
  98 H :    0.014233
  99 H :    0.013864
 100 H :   -0.008308
 101 H :   -0.013950
 102 H :   -0.001150
 103 H :   -0.004825
 104 H :    0.005412
 105 H :    0.049085
 106 H :    0.053050
 107 H :    0.042449
Sum of atomic charges:    0.0000000

LOEWDIN ATOMIC CHARGES
----------------------
   0 C :    0.024221
   1 C :   -0.080666
   2 C :    0.065846
   3 C :   -0.037510
   4 C :    0.002151
   5 C :   -0.028574
   6 O :    0.009991
   7 C :    0.109448
   8 C :   -0.056254
   9 C :   -0.130719
  10 C :    0.089066
  11 O :   -0.179022
  12 C :    0.006675
  13 C :   -0.031236
  14 N :    0.295962
  15 O :   -0.220352
  16 O :   -0.211671
  17 C :   -0.030605
  18 C :   -0.029778
  19 C :    0.017398
  20 C :    0.073650
  21 C :   -0.052984
  22 C :    0.036785
  23 C :   -0.073839
  24 N :    0.286759
  25 O :   -0.240041
  26 O :   -0.227500
  27 C :    0.021738
  28 C :   -0.000989
  29 C :    0.022364
  30 C :    0.049073
  31 N :    0.001262
  32 C :    0.036293
  33 C :   -0.060134
  34 C :    0.079360
  35 O :   -0.202666
  36 C :   -0.123780
  37 C :   -0.075403
  38 C :    0.089436
  39 O :   -0.176353
  40 N :    0.007916
  41 C :    0.038645
  42 C :   -0.059880
  43 C :    0.095756
  44 C :   -0.030005
  45 C :    0.043579
  46 C :   -0.026562
  47 C :   -0.003599
  48 C :    0.035058
  49 C :   -0.079757
  50 C :    0.059587
  51 C :   -0.031631
  52 N :   -0.055819
  53 C :    0.048575
  54 C :   -0.001977
  55 C :   -0.008403
  56 C :    0.053464
  57 C :   -0.091433
  58 C :   -0.030410
  59 N :   -0.074049
  60 C :   -0.122425
  61 C :    0.092474
  62 O :    0.000181
  63 C :    0.062742
  64 C :   -0.038740
  65 C :    0.002553
  66 C :   -0.026917
  67 C :    0.024972
  68 C :   -0.085487
  69 C :    0.075099
  70 O :   -0.166583
  71 C :   -0.050081
  72 H :    0.039501
  73 H :    0.036764
  74 H :    0.034204
  75 H :    0.031785
  76 H :    0.038423
  77 H :    0.041009
  78 H :    0.050304
  79 H :    0.029762
  80 H :    0.026982
  81 H :    0.025777
  82 H :    0.037491
  83 H :    0.038150
  84 H :    0.052426
  85 H :    0.036766
  86 H :    0.023629
  87 H :    0.030578
  88 H :    0.035112
  89 H :    0.025898
  90 H :    0.037524
  91 H :    0.027563
  92 H :    0.031482
  93 H :    0.034389
  94 H :    0.020927
  95 H :    0.036128
  96 H :    0.039711
  97 H :    0.032494
  98 H :    0.043300
  99 H :    0.038726
 100 H :    0.034408
 101 H :    0.036352
 102 H :    0.034464
 103 H :    0.032746
 104 H :    0.040868
 105 H :    0.047659
 106 H :    0.045375
 107 H :    0.047075

  Mayer bond orders larger than 0.100000
B(  0-C ,  1-C ) :   1.3306 B(  0-C ,  5-C ) :   1.4043 B(  0-C , 72-H ) :   0.9976
B(  1-C ,  2-C ) :   1.3390 B(  1-C , 10-C ) :   1.0058 B(  2-C ,  3-C ) :   1.3546
B(  2-C ,  6-O ) :   1.0864 B(  3-C ,  4-C ) :   1.4151 B(  3-C , 73-H ) :   0.9944
B(  4-C ,  5-C ) :   1.3237 B(  4-C , 74-H ) :   0.9909 B(  5-C , 75-H ) :   0.9941
B(  6-O ,  7-C ) :   1.1632 B(  7-C ,  8-C ) :   1.1313 B(  7-C ,  9-C ) :   1.5592
B(  8-C , 76-H ) :   0.9324 B(  8-C , 77-H ) :   0.9396 B(  8-C , 78-H ) :   0.9167
B(  9-C , 10-C ) :   1.0153 B(  9-C , 12-C ) :   0.9755 B( 10-C , 11-O ) :   2.0666
B( 12-C , 13-C ) :   1.5812 B( 12-C , 19-C ) :   1.1339 B( 13-C , 14-N ) :   0.9578
B( 13-C , 17-C ) :   1.1255 B( 14-N , 15-O ) :   1.5034 B( 14-N , 16-O ) :   1.4908
B( 15-O , 16-O ) :   0.2479 B( 17-C , 18-C ) :   1.5903 B( 17-C , 79-H ) :   1.0159
B( 18-C , 19-C ) :   1.1115 B( 18-C , 80-H ) :   0.9979 B( 19-C , 20-C ) :   1.3871
B( 20-C , 21-C ) :   1.1938 B( 20-C , 27-C ) :   1.0160 B( 21-C , 22-C ) :   1.4928
B( 21-C , 81-H ) :   1.0074 B( 22-C , 23-C ) :   1.1761 B( 22-C , 82-H ) :   1.0108
B( 23-C , 24-N ) :   0.9748 B( 23-C , 27-C ) :   1.4012 B( 24-N , 25-O ) :   1.4822
B( 24-N , 26-O ) :   1.5192 B( 25-O , 26-O ) :   0.2461 B( 27-C , 28-C ) :   1.2850
B( 28-C , 29-C ) :   1.4015 B( 28-C , 83-H ) :   0.9566 B( 29-C , 30-C ) :   1.2745
B( 29-C , 84-H ) :   0.9044 B( 30-C , 31-N ) :   1.1534 B( 30-C , 37-C ) :   1.3069
B( 31-N , 32-C ) :   0.9389 B( 31-N , 34-C ) :   1.0779 B( 32-C , 33-C ) :   1.1188
B( 32-C , 85-H ) :   0.9263 B( 32-C , 86-H ) :   0.9491 B( 33-C , 87-H ) :   0.9620
B( 33-C , 88-H ) :   0.9681 B( 33-C , 89-H ) :   0.9677 B( 34-C , 35-O ) :   2.0142
B( 34-C , 36-C ) :   0.9856 B( 35-O , 96-H ) :   0.1196 B( 36-C , 37-C ) :   1.3088
B( 36-C , 43-C ) :   1.2580 B( 37-C , 38-C ) :   0.9581 B( 38-C , 39-O ) :   2.0986
B( 38-C , 40-N ) :   1.0413 B( 40-N , 41-C ) :   0.9301 B( 40-N , 43-C ) :   1.1892
B( 41-C , 42-C ) :   1.1195 B( 41-C , 90-H ) :   0.9227 B( 41-C , 91-H ) :   0.9495
B( 42-C , 92-H ) :   0.9647 B( 42-C , 93-H ) :   0.9683 B( 42-C , 94-H ) :   0.9666
B( 43-C , 44-C ) :   1.1838 B( 44-C , 45-C ) :   1.5459 B( 44-C , 95-H ) :   0.9705
B( 45-C , 46-C ) :   1.1195 B( 45-C , 96-H ) :   0.9532 B( 46-C , 47-C ) :   1.5202
B( 46-C , 50-C ) :   1.0351 B( 47-C , 48-C ) :   1.1274 B( 47-C , 97-H ) :   0.9944
B( 48-C , 49-C ) :   1.1025 B( 48-C , 53-C ) :   1.4193 B( 49-C , 50-C ) :   1.6641
B( 49-C , 51-C ) :   1.0880 B( 50-C , 98-H ) :   1.0283 B( 51-C , 52-N ) :   2.9741
B( 53-C , 54-C ) :   1.0987 B( 53-C , 57-C ) :   1.0985 B( 54-C , 55-C ) :   1.6240
B( 54-C , 99-H ) :   1.0044 B( 55-C , 56-C ) :   1.0668 B( 55-C , 60-C ) :   0.9533
B( 56-C , 57-C ) :   1.6583 B( 56-C ,100-H ) :   1.0204 B( 57-C , 58-C ) :   1.0930
B( 58-C , 59-N ) :   2.9582 B( 60-C , 61-C ) :   1.5738 B( 60-C , 69-C ) :   1.0109
B( 61-C , 62-O ) :   1.1493 B( 61-C , 71-C ) :   1.1084 B( 62-O , 63-C ) :   1.0764
B( 63-C , 64-C ) :   1.3558 B( 63-C , 68-C ) :   1.3352 B( 64-C , 65-C ) :   1.4138
B( 64-C ,101-H ) :   0.9945 B( 65-C , 66-C ) :   1.3278 B( 65-C ,102-H ) :   0.9900
B( 66-C , 67-C ) :   1.3996 B( 66-C ,103-H ) :   0.9945 B( 67-C , 68-C ) :   1.3393
B( 67-C ,104-H ) :   0.9975 B( 68-C , 69-C ) :   0.9761 B( 69-C , 70-O ) :   2.1960
B( 71-C ,105-H ) :   0.9353 B( 71-C ,106-H ) :   0.9481 B( 71-C ,107-H ) :   0.9364

-----------------------------------------------------------------------------
         ABSORPTION SPECTRUM VIA TRANSITION ELECTRIC DIPOLE MOMENTS
-----------------------------------------------------------------------------
State   Energy  Wavelength   fosc         T2         TX        TY        TZ
        (cm-1)    (nm)                  (au**2)     (au)      (au)      (au)
-----------------------------------------------------------------------------
   0    6568.3   1522.5   0.345458216  17.31490  -3.36211  -1.50500   1.93548
   1   11459.2    872.7   0.222606751   6.39530  -1.20267  -1.79051   1.32021
   2   12906.4    774.8   0.006907718   0.17620  -0.37114  -0.04943  -0.18977
   3   15702.1    636.9   0.079321385   1.66306  -0.72680  -0.80887   0.69321
   4   17245.4    579.9   0.011349457   0.21666  -0.24718  -0.03535   0.39283
   5   18048.4    554.1   0.009073434   0.16550  -0.00125  -0.34524  -0.21520
   6   18909.2    528.8   0.014097837   0.24545  -0.37690   0.22437   0.23033
   7   19786.5    505.4   0.460730494   7.66573  -1.11743  -2.09056   1.43062
   8   21405.8    467.2   0.006578850   0.10118   0.13303  -0.28764  -0.02727
   9   22180.7    450.8   0.037823530   0.56139   0.52981   0.48578  -0.21143
  10   22739.8    439.8   0.014722692   0.21315   0.34453   0.09823  -0.29119
  11   23693.2    422.1   0.425621902   5.91392   1.99894   1.04114  -0.91333
  12   24174.3    413.7   0.020431911   0.27825   0.38716  -0.15512   0.32294
  13   24427.6    409.4   0.014695038   0.19805  -0.33427  -0.26280   0.13131
  14   25286.2    395.5   0.082468247   1.07369  -0.86421   0.37783  -0.42903
  15   25390.5    393.8   0.154844613   2.00771  -1.22988  -0.67127   0.21095
  16   25850.1    386.8   0.014824388   0.18880  -0.12809   0.25046  -0.33115
  17   26830.3    372.7   0.018193121   0.22323   0.09024   0.45334  -0.09783
  18   27043.6    369.8   0.004424154   0.05386   0.22428   0.03891  -0.04516
  19   27334.8    365.8   0.003626905   0.04368   0.19543  -0.05956  -0.04407
  20   27518.4    363.4   0.005161324   0.06175   0.02386   0.04896  -0.24245
  21   27808.6    359.6   0.090911685   1.07626  -0.49426  -0.70490   0.57886
  22   28166.4    355.0   0.262273408   3.06548  -0.64815  -1.11960   1.17978
  23   28318.4    353.1   0.058946696   0.68528   0.69298   0.44950  -0.05480
  24   28522.3    350.6   0.005271592   0.06085   0.02525  -0.04754   0.24072
  25   28591.0    349.8   0.110312853   1.27020  -0.49184  -0.89536   0.47606
  26   29093.9    343.7   0.001635589   0.01851   0.07137  -0.10049   0.05759
  27   29275.8    341.6   0.014157057   0.15920  -0.22521   0.01999   0.32876
  28   30256.2    330.5   0.148554088   1.61639   0.04349  -1.00585   0.77637
  29   31004.4    322.5   0.003450076   0.03663  -0.02935   0.18498   0.03945
  30   31136.6    321.2   0.006849122   0.07242   0.25969   0.03632  -0.06051
  31   31357.0    318.9   0.002987835   0.03137  -0.06768   0.09387   0.13408
  32   31444.3    318.0   0.004456186   0.04665  -0.12185   0.16189   0.07481
  33   31941.5    313.1   0.111959619   1.15393  -0.32544  -0.80198   0.63628
  34   32098.1    311.5   0.024181035   0.24801  -0.49765  -0.01035   0.01571
  35   32268.1    309.9   0.020621172   0.21039   0.31311  -0.29731   0.15477
  36   32457.9    308.1   0.006696120   0.06792  -0.25256  -0.00516   0.06405
  37   32609.7    306.7   0.082378781   0.83166   0.67086   0.55512  -0.27102
  38   32623.8    306.5   0.014341046   0.14472   0.25301   0.18310  -0.21721
  39   33129.9    301.8   0.304787995   3.02868   1.60231   0.66031  -0.15901
  40   33849.4    295.4   0.016095268   0.15654  -0.38537  -0.08934   0.00679
  41   34269.1    291.8   0.011717089   0.11256  -0.23583   0.11760  -0.20765
  42   34518.3    289.7   0.014934309   0.14243   0.26790   0.20375   0.17073
  43   34686.9    288.3   0.044858580   0.42575  -0.18877  -0.62324   0.04105
  44   34763.0    287.7   0.015975257   0.15129   0.17084   0.31930  -0.14197
  45   34965.1    286.0   0.177827676   1.67433   0.48868   1.10186  -0.47055
  46   35200.3    284.1   0.103399658   0.96705  -0.38758  -0.82837   0.36143
  47   35327.0    283.1   0.013885971   0.12940   0.32216   0.12255  -0.10296
  48   35406.6    282.4   0.023065092   0.21446  -0.09588  -0.37308   0.25706
  49   35965.4    278.0   0.029325369   0.26843  -0.23337  -0.27543   0.37163
  50   35986.8    277.9   0.017722146   0.16212   0.05477   0.38475  -0.10531
  51   36158.7    276.6   0.007748800   0.07055  -0.12531   0.12422  -0.19854
  52   36344.3    275.1   0.024099208   0.21829  -0.04398   0.33523  -0.32246
  53   36603.8    273.2   0.026407661   0.23751   0.18374  -0.42323   0.15692
  54   36615.7    273.1   0.015978378   0.14366   0.22407   0.30397   0.03248
  55   36816.1    271.6   0.006177877   0.05524  -0.05449  -0.06071   0.22043
  56   36931.8    270.8   0.011829924   0.10545   0.31722   0.05193   0.04614
  57   37191.6    268.9   0.083148340   0.73601  -0.51146   0.68487  -0.07333
  58   37367.7    267.6   0.008216801   0.07239   0.26118   0.02688  -0.05876
  59   37601.1    265.9   0.001212307   0.01061   0.06380   0.06182  -0.05217
  60   37633.1    265.7   0.004441410   0.03885   0.02415   0.17339  -0.09059
  61   37837.9    264.3   0.025868333   0.22507   0.30994   0.02334   0.35841
  62   38070.0    262.7   0.021475096   0.18571  -0.40559   0.12197  -0.07952
  63   38342.2    260.8   0.026119990   0.22427   0.10972  -0.32290   0.32859
  64   38404.9    260.4   0.142346463   1.22021   0.37483  -0.58772   0.85691
  65   39604.2    252.5   0.001993821   0.01657   0.00297  -0.06019   0.11376
  66   39754.6    251.5   0.013523861   0.11199   0.05168  -0.27976   0.17622
  67   39927.8    250.5   0.083865354   0.69149  -0.11748   0.81817  -0.09105
  68   40019.6    249.9   0.023313504   0.19178   0.26150  -0.31303   0.15941
  69   40228.1    248.6   0.004996527   0.04089  -0.07449  -0.15945  -0.09957

FINAL SINGLE POINT ENERGY     -3232.057146930453

DIPOLE MOMENT
-------------
                                X             Y             Z
Electronic contribution:      0.52232       0.47043      -8.64453
Nuclear contribution   :     -0.94110      -3.36214      10.87674
                        -----------------------------------------
Total Dipole Moment    :     -0.41879      -2.89172       2.23221
                        -----------------------------------------
Magnitude (a.u.)       :      3.67698
Magnitude (Debye)      :      9.34614

Rotational constants in cm-1:     0.002276     0.000304     0.000282
Rotational constants in MHz :    68.243985     9.126777     8.449636

                             ****ORCA TERMINATED NORMALLY****
TOTAL RUN TIME: 0 days 0 hours 12 minutes 9 seconds 412 msec
