                         Program Version 4.2.0 -  RELEASE  -
|  1> # ORCA input file
|  2> # SCF done       -239.256059032119          0.000389738006
|  3> ! CAM-B3LYP def2-SVP def2/J RIJCOSX Grid4 TightSCF
|  4> %maxcore 5000
|  5> %tddft
|  6>     Mode sTDDFT
|  7>     Ethresh 5.0
|  8>     maxcore 5000
|  9> end
| 10>
| 11> %pal
| 12>   nprocs 6
| 13>   end
| 14> * xyz 0 1
| 15>    C       -8.89373        -9.68781         4.38053
| 16>    C       -9.53306       -10.74628         3.79929
| 17>    F       -9.72414       -11.87820         4.48812
| 18>    C       -9.99933       -10.66238         2.47102
| 19>    F      -10.62310       -11.71578         1.92844
| 20>    C       -9.81801        -9.52060         1.74241
| 21>    C       -9.16115        -8.41229         2.31266
| 22>    C       -8.69020        -8.49522         3.65637
| 23>    C       -8.02925        -7.39675         4.24931
| 24>    C       -7.84298        -6.25026         3.52112
| 25>    C       -8.32028        -6.17436         2.18102
| 26>    C       -8.96018        -7.22175         1.58093
| 27>    C       -8.00952        -4.84935         1.62344
| 28>    O       -8.16131        -4.46280         0.48811
| 29>    C       -7.42402        -4.07128         2.75894
| 30>    C       -7.20107        -4.99076         3.86779
| 31>    C       -6.41943        -4.75924         4.96225
| 32>    C       -5.71866        -3.56004         5.21415
| 33>    N       -5.09836        -2.62454         5.45518
| 34>    C       -6.12201        -5.73437         5.93908
| 35>    N       -5.81845        -6.48516         6.75138
| 36>    C       -7.14629        -2.75617         2.70916
| 37>    C       -7.35426        -1.89413         1.55427
| 38>    C       -8.54925        -1.63978         0.92743
| 39>    C       -9.91634        -2.13932         1.25741
| 40>    F       -9.96711        -2.86069         2.38614
| 41>    F      -10.76995        -1.11070         1.44313
| 42>    F      -10.45743        -2.89025         0.29229
| 43>    S       -8.43240        -0.47731        -0.33961
| 44>    C       -6.74550        -0.29497        -0.03051
| 45>    C       -5.95481         0.58716        -0.77039
| 46>    N       -5.27781         1.30873        -1.35210
| 47>    C       -6.29130        -1.11011         0.99992
| 48>    C       -4.91876        -1.11503         1.42245
| 49>    C       -4.35498        -2.12636         2.11857
| 50>    C       -3.06435        -2.24937         2.70439
| 51>    N       -2.01778        -1.36505         2.76058
| 52>    C       -1.93875        -0.02248         2.23679
| 53>    C       -2.70031         0.97128         3.11033
| 54>    C       -0.93360        -1.88505         3.51407
| 55>    O        0.10560        -1.28904         3.68203
| 56>    C       -1.38938        -3.18874         3.94197
| 57>    C       -2.68567        -3.38810         3.41080
| 58>    C       -3.14342        -4.68358         3.84571
| 59>    O       -4.19166        -5.27804         3.65892
| 60>    N       -2.08172        -5.19769         4.61219
| 61>    C       -2.22308        -6.46124         5.30051
| 62>    C       -1.91690        -7.64073         4.38183
| 63>    C       -1.03357        -4.31267         4.67347
| 64>    C        0.21092        -4.46055         5.36474
| 65>    C        0.85192        -5.60378         5.65783
| 66>    C        2.12329        -5.64843         6.35534
| 67>    C        2.43301        -4.94367         7.49557
| 68>    C        1.53812        -4.04931         8.28602
| 69>    F        0.27617        -4.49696         8.32610
| 70>    F        1.95489        -3.93416         9.55308
| 71>    F        1.48297        -2.79853         7.79406
| 72>    S        4.02906        -5.23108         8.07446
| 73>    C        4.30304        -6.34940         6.77676
| 74>    C        5.56358        -6.93737         6.65413
| 75>    N        6.60554        -7.41374         6.58574
| 76>    C        3.20316        -6.49866         5.95035
| 77>    C        3.09670        -7.33361         4.77518
| 78>    C        3.60842        -8.55741         4.53513
| 79>    C        4.36014        -9.44971         5.36310
| 80>    C        4.43263        -9.63320         6.70348
| 81>    C        5.59017       -10.42482         7.23594
| 82>    O        6.26496       -11.20862         6.61937
| 83>    C        5.72969        -9.99141         8.63868
| 84>    C        6.72999       -10.26555         9.52537
| 85>    C        6.67709        -9.69535        10.81722
| 86>    C        5.58829        -8.84234        11.16321
| 87>    C        5.54671        -8.27003        12.45064
| 88>    C        6.53686        -8.53641        13.35435
| 89>    C        7.61237        -9.38183        13.01210
| 90>    C        7.68237        -9.94921        11.77028
| 91>    F        8.56753        -9.62414        13.91719
| 92>    F        6.49499        -7.99574        14.57718
| 93>    C        4.56477        -8.57896        10.22522
| 94>    C        4.63105        -9.15253         8.98307
| 95>    C        3.73273        -9.06731         7.83698
| 96>    C        2.42388        -8.66887         7.87608
| 97>    C        1.54029        -8.78402         6.78813
| 98>    N        0.77718        -8.85259         5.93308
| 99>    C        1.80557        -8.10641         9.01282
|100>    N        1.27435        -7.59461         9.89140
|101>    H       -8.54198        -9.76980         5.39709
|102>    H      -10.18046        -9.47199         0.72755
|103>    H       -7.68906        -7.48502         5.26867
|104>    H       -9.31126        -7.13898         0.56357
|105>    H       -6.71395        -2.25417         3.56607
|106>    H       -4.35196        -0.24993         1.11313
|107>    H       -4.94747        -3.01518         2.29262
|108>    H       -2.29324        -0.00649         1.20339
|109>    H       -0.87494         0.23414         2.24125
|110>    H       -3.74419         0.68505         3.21491
|111>    H       -2.64892         1.96272         2.66925
|112>    H       -2.25404         1.00628         4.10084
|113>    H       -3.26345        -6.53065         5.63295
|114>    H       -1.57679        -6.45816         6.17968
|115>    H       -0.92168        -7.56086         3.95116
|116>    H       -2.64257        -7.67363         3.57299
|117>    H       -1.97396        -8.56635         4.94589
|118>    H        0.68227        -3.50923         5.57888
|119>    H        0.47681        -6.56523         5.33813
|120>    H        2.50940        -6.88107         3.98596
|121>    H        3.45987        -8.93964         3.53213
|122>    H        5.02540       -10.10712         4.80795
|123>    H        7.55284       -10.90435         9.24396
|124>    H        4.72971        -7.62312        12.72984
|125>    H        8.51252       -10.59234        11.52373
|126>    H        3.75952        -7.91990        10.50949
|127> *
|128>
|129>                          ****END OF INPUT****

CARTESIAN COORDINATES (ANGSTROEM)
---------------------------------
  C     -8.893730   -9.687810    4.380530
  C     -9.533060  -10.746280    3.799290
  F     -9.724140  -11.878200    4.488120
  C     -9.999330  -10.662380    2.471020
  F    -10.623100  -11.715780    1.928440
  C     -9.818010   -9.520600    1.742410
  C     -9.161150   -8.412290    2.312660
  C     -8.690200   -8.495220    3.656370
  C     -8.029250   -7.396750    4.249310
  C     -7.842980   -6.250260    3.521120
  C     -8.320280   -6.174360    2.181020
  C     -8.960180   -7.221750    1.580930
  C     -8.009520   -4.849350    1.623440
  O     -8.161310   -4.462800    0.488110
  C     -7.424020   -4.071280    2.758940
  C     -7.201070   -4.990760    3.867790
  C     -6.419430   -4.759240    4.962250
  C     -5.718660   -3.560040    5.214150
  N     -5.098360   -2.624540    5.455180
  C     -6.122010   -5.734370    5.939080
  N     -5.818450   -6.485160    6.751380
  C     -7.146290   -2.756170    2.709160
  C     -7.354260   -1.894130    1.554270
  C     -8.549250   -1.639780    0.927430
  C     -9.916340   -2.139320    1.257410
  F     -9.967110   -2.860690    2.386140
  F    -10.769950   -1.110700    1.443130
  F    -10.457430   -2.890250    0.292290
  S     -8.432400   -0.477310   -0.339610
  C     -6.745500   -0.294970   -0.030510
  C     -5.954810    0.587160   -0.770390
  N     -5.277810    1.308730   -1.352100
  C     -6.291300   -1.110110    0.999920
  C     -4.918760   -1.115030    1.422450
  C     -4.354980   -2.126360    2.118570
  C     -3.064350   -2.249370    2.704390
  N     -2.017780   -1.365050    2.760580
  C     -1.938750   -0.022480    2.236790
  C     -2.700310    0.971280    3.110330
  C     -0.933600   -1.885050    3.514070
  O      0.105600   -1.289040    3.682030
  C     -1.389380   -3.188740    3.941970
  C     -2.685670   -3.388100    3.410800
  C     -3.143420   -4.683580    3.845710
  O     -4.191660   -5.278040    3.658920
  N     -2.081720   -5.197690    4.612190
  C     -2.223080   -6.461240    5.300510
  C     -1.916900   -7.640730    4.381830
  C     -1.033570   -4.312670    4.673470
  C      0.210920   -4.460550    5.364740
  C      0.851920   -5.603780    5.657830
  C      2.123290   -5.648430    6.355340
  C      2.433010   -4.943670    7.495570
  C      1.538120   -4.049310    8.286020
  F      0.276170   -4.496960    8.326100
  F      1.954890   -3.934160    9.553080
  F      1.482970   -2.798530    7.794060
  S      4.029060   -5.231080    8.074460
  C      4.303040   -6.349400    6.776760
  C      5.563580   -6.937370    6.654130
  N      6.605540   -7.413740    6.585740
  C      3.203160   -6.498660    5.950350
  C      3.096700   -7.333610    4.775180
  C      3.608420   -8.557410    4.535130
  C      4.360140   -9.449710    5.363100
  C      4.432630   -9.633200    6.703480
  C      5.590170  -10.424820    7.235940
  O      6.264960  -11.208620    6.619370
  C      5.729690   -9.991410    8.638680
  C      6.729990  -10.265550    9.525370
  C      6.677090   -9.695350   10.817220
  C      5.588290   -8.842340   11.163210
  C      5.546710   -8.270030   12.450640
  C      6.536860   -8.536410   13.354350
  C      7.612370   -9.381830   13.012100
  C      7.682370   -9.949210   11.770280
  F      8.567530   -9.624140   13.917190
  F      6.494990   -7.995740   14.577180
  C      4.564770   -8.578960   10.225220
  C      4.631050   -9.152530    8.983070
  C      3.732730   -9.067310    7.836980
  C      2.423880   -8.668870    7.876080
  C      1.540290   -8.784020    6.788130
  N      0.777180   -8.852590    5.933080
  C      1.805570   -8.106410    9.012820
  N      1.274350   -7.594610    9.891400
  H     -8.541980   -9.769800    5.397090
  H    -10.180460   -9.471990    0.727550
  H     -7.689060   -7.485020    5.268670
  H     -9.311260   -7.138980    0.563570
  H     -6.713950   -2.254170    3.566070
  H     -4.351960   -0.249930    1.113130
  H     -4.947470   -3.015180    2.292620
  H     -2.293240   -0.006490    1.203390
  H     -0.874940    0.234140    2.241250
  H     -3.744190    0.685050    3.214910
  H     -2.648920    1.962720    2.669250
  H     -2.254040    1.006280    4.100840
  H     -3.263450   -6.530650    5.632950
  H     -1.576790   -6.458160    6.179680
  H     -0.921680   -7.560860    3.951160
  H     -2.642570   -7.673630    3.572990
  H     -1.973960   -8.566350    4.945890
  H      0.682270   -3.509230    5.578880
  H      0.476810   -6.565230    5.338130
  H      2.509400   -6.881070    3.985960
  H      3.459870   -8.939640    3.532130
  H      5.025400  -10.107120    4.807950
  H      7.552840  -10.904350    9.243960
  H      4.729710   -7.623120   12.729840
  H      8.512520  -10.592340   11.523730
  H      3.759520   -7.919900   10.509490

 Total Charge           Charge          ....    0
 Multiplicity           Mult            ....    1
 Number of Electrons    NEL             ....  608
 Basis Dimension        Dim             .... 1342

ORBITAL ENERGIES
----------------

  NO   OCC          E(Eh)            E(eV)
   0   2.0000     -89.010458     -2422.0977
   1   2.0000     -89.004535     -2421.9365
   2   2.0000     -24.819186      -675.3644
   3   2.0000     -24.815989      -675.2774
   4   2.0000     -24.811246      -675.1483
   5   2.0000     -24.810607      -675.1309
   6   2.0000     -24.809014      -675.0876
   7   2.0000     -24.808416      -675.0713
   8   2.0000     -24.803226      -674.9301
   9   2.0000     -24.802762      -674.9175
  10   2.0000     -24.801488      -674.8828
  11   2.0000     -24.801112      -674.8726
  12   2.0000     -19.227514      -523.2072
  13   2.0000     -19.225256      -523.1458
  14   2.0000     -19.201690      -522.5045
  15   2.0000     -19.195962      -522.3487
  16   2.0000     -14.460773      -393.4976
  17   2.0000     -14.459121      -393.4527
  18   2.0000     -14.436773      -392.8446
  19   2.0000     -14.436485      -392.8367
  20   2.0000     -14.432390      -392.7253
  21   2.0000     -14.427214      -392.5845
  22   2.0000     -14.424775      -392.5181
  23   2.0000     -14.422490      -392.4559
  24   2.0000     -10.540234      -286.8144
  25   2.0000     -10.539991      -286.8077
  26   2.0000     -10.386945      -282.6431
  27   2.0000     -10.386436      -282.6293
  28   2.0000     -10.385134      -282.5939
  29   2.0000     -10.384809      -282.5850
  30   2.0000     -10.381687      -282.5001
  31   2.0000     -10.379736      -282.4470
  32   2.0000     -10.378212      -282.4055
  33   2.0000     -10.375594      -282.3343
  34   2.0000     -10.363427      -282.0032
  35   2.0000     -10.360765      -281.9307
  36   2.0000     -10.355822      -281.7962
  37   2.0000     -10.354323      -281.7554
  38   2.0000     -10.351200      -281.6705
  39   2.0000     -10.349637      -281.6279
  40   2.0000     -10.347183      -281.5612
  41   2.0000     -10.346284      -281.5367
  42   2.0000     -10.346024      -281.5296
  43   2.0000     -10.342621      -281.4370
  44   2.0000     -10.338962      -281.3375
  45   2.0000     -10.337383      -281.2945
  46   2.0000     -10.334853      -281.2257
  47   2.0000     -10.334311      -281.2109
  48   2.0000     -10.330849      -281.1167
  49   2.0000     -10.330519      -281.1077
  50   2.0000     -10.330113      -281.0967
  51   2.0000     -10.329508      -281.0802
  52   2.0000     -10.328492      -281.0526
  53   2.0000     -10.326887      -281.0089
  54   2.0000     -10.324888      -280.9545
  55   2.0000     -10.324771      -280.9513
  56   2.0000     -10.320185      -280.8265
  57   2.0000     -10.317232      -280.7461
  58   2.0000     -10.316947      -280.7384
  59   2.0000     -10.316617      -280.7294
  60   2.0000     -10.315071      -280.6873
  61   2.0000     -10.314563      -280.6735
  62   2.0000     -10.314338      -280.6674
  63   2.0000     -10.313292      -280.6390
  64   2.0000     -10.312195      -280.6091
  65   2.0000     -10.312177      -280.6086
  66   2.0000     -10.311919      -280.6016
  67   2.0000     -10.311160      -280.5809
  68   2.0000     -10.309791      -280.5437
  69   2.0000     -10.308699      -280.5140
  70   2.0000     -10.308090      -280.4974
  71   2.0000     -10.308066      -280.4967
  72   2.0000     -10.306935      -280.4660
  73   2.0000     -10.306220      -280.4465
  74   2.0000     -10.306094      -280.4431
  75   2.0000     -10.306054      -280.4420
  76   2.0000     -10.305944      -280.4390
  77   2.0000     -10.304780      -280.4073
  78   2.0000     -10.303840      -280.3817
  79   2.0000     -10.303772      -280.3799
  80   2.0000     -10.300690      -280.2960
  81   2.0000     -10.298699      -280.2418
  82   2.0000     -10.268552      -279.4215
  83   2.0000     -10.266771      -279.3730
  84   2.0000     -10.263030      -279.2713
  85   2.0000     -10.253981      -279.0250
  86   2.0000      -8.105140      -220.5521
  87   2.0000      -8.099658      -220.4029
  88   2.0000      -6.074541      -165.2967
  89   2.0000      -6.070094      -165.1756
  90   2.0000      -6.068921      -165.1437
  91   2.0000      -6.067332      -165.1005
  92   2.0000      -6.064674      -165.0282
  93   2.0000      -6.061865      -164.9517
  94   2.0000      -1.404336       -38.2139
  95   2.0000      -1.404184       -38.2098
  96   2.0000      -1.326531       -36.0968
  97   2.0000      -1.324513       -36.0418
  98   2.0000      -1.311623       -35.6911
  99   2.0000      -1.309623       -35.6367
 100   2.0000      -1.308525       -35.6068
 101   2.0000      -1.307925       -35.5905
 102   2.0000      -1.302632       -35.4464
 103   2.0000      -1.300353       -35.3844
 104   2.0000      -1.144106       -31.1327
 105   2.0000      -1.141937       -31.0737
 106   2.0000      -1.140518       -31.0351
 107   2.0000      -1.133397       -30.8413
 108   2.0000      -1.070198       -29.1216
 109   2.0000      -1.060793       -28.8656
 110   2.0000      -1.046259       -28.4701
 111   2.0000      -1.038476       -28.2584
 112   2.0000      -1.033874       -28.1331
 113   2.0000      -1.025910       -27.9164
 114   2.0000      -1.017878       -27.6979
 115   2.0000      -1.013678       -27.5836
 116   2.0000      -1.011855       -27.5340
 117   2.0000      -1.010095       -27.4861
 118   2.0000      -1.005784       -27.3688
 119   2.0000      -1.002248       -27.2726
 120   2.0000      -0.990860       -26.9627
 121   2.0000      -0.986632       -26.8476
 122   2.0000      -0.948003       -25.7965
 123   2.0000      -0.942192       -25.6383
 124   2.0000      -0.936961       -25.4960
 125   2.0000      -0.935784       -25.4640
 126   2.0000      -0.932784       -25.3823
 127   2.0000      -0.930237       -25.3130
 128   2.0000      -0.920292       -25.0424
 129   2.0000      -0.914248       -24.8780
 130   2.0000      -0.900373       -24.5004
 131   2.0000      -0.900325       -24.4991
 132   2.0000      -0.894985       -24.3538
 133   2.0000      -0.893403       -24.3107
 134   2.0000      -0.889009       -24.1912
 135   2.0000      -0.879847       -23.9419
 136   2.0000      -0.870815       -23.6961
 137   2.0000      -0.857797       -23.3418
 138   2.0000      -0.852466       -23.1968
 139   2.0000      -0.847854       -23.0713
 140   2.0000      -0.845101       -22.9964
 141   2.0000      -0.823266       -22.4022
 142   2.0000      -0.820587       -22.3293
 143   2.0000      -0.817165       -22.2362
 144   2.0000      -0.807876       -21.9834
 145   2.0000      -0.804449       -21.8902
 146   2.0000      -0.801014       -21.7967
 147   2.0000      -0.787327       -21.4243
 148   2.0000      -0.776670       -21.1343
 149   2.0000      -0.773252       -21.0412
 150   2.0000      -0.760389       -20.6912
 151   2.0000      -0.758590       -20.6423
 152   2.0000      -0.746824       -20.3221
 153   2.0000      -0.742699       -20.2099
 154   2.0000      -0.741005       -20.1638
 155   2.0000      -0.730938       -19.8898
 156   2.0000      -0.728232       -19.8162
 157   2.0000      -0.725608       -19.7448
 158   2.0000      -0.721416       -19.6307
 159   2.0000      -0.718165       -19.5423
 160   2.0000      -0.711260       -19.3544
 161   2.0000      -0.706429       -19.2229
 162   2.0000      -0.701255       -19.0821
 163   2.0000      -0.697779       -18.9875
 164   2.0000      -0.692462       -18.8428
 165   2.0000      -0.690418       -18.7872
 166   2.0000      -0.688383       -18.7318
 167   2.0000      -0.686238       -18.6735
 168   2.0000      -0.685462       -18.6524
 169   2.0000      -0.684769       -18.6335
 170   2.0000      -0.672205       -18.2916
 171   2.0000      -0.670210       -18.2373
 172   2.0000      -0.665667       -18.1137
 173   2.0000      -0.661328       -17.9956
 174   2.0000      -0.658044       -17.9063
 175   2.0000      -0.654929       -17.8215
 176   2.0000      -0.650669       -17.7056
 177   2.0000      -0.647202       -17.6113
 178   2.0000      -0.643918       -17.5219
 179   2.0000      -0.633512       -17.2387
 180   2.0000      -0.628604       -17.1052
 181   2.0000      -0.621917       -16.9232
 182   2.0000      -0.618358       -16.8264
 183   2.0000      -0.611841       -16.6490
 184   2.0000      -0.607685       -16.5360
 185   2.0000      -0.604427       -16.4473
 186   2.0000      -0.602462       -16.3938
 187   2.0000      -0.599227       -16.3058
 188   2.0000      -0.596996       -16.2451
 189   2.0000      -0.590775       -16.0758
 190   2.0000      -0.590145       -16.0587
 191   2.0000      -0.588822       -16.0227
 192   2.0000      -0.587431       -15.9848
 193   2.0000      -0.582699       -15.8560
 194   2.0000      -0.577611       -15.7176
 195   2.0000      -0.575426       -15.6581
 196   2.0000      -0.571613       -15.5544
 197   2.0000      -0.569413       -15.4945
 198   2.0000      -0.567446       -15.4410
 199   2.0000      -0.565960       -15.4005
 200   2.0000      -0.562894       -15.3171
 201   2.0000      -0.562350       -15.3023
 202   2.0000      -0.560818       -15.2606
 203   2.0000      -0.559015       -15.2116
 204   2.0000      -0.557797       -15.1784
 205   2.0000      -0.555014       -15.1027
 206   2.0000      -0.553205       -15.0535
 207   2.0000      -0.552245       -15.0274
 208   2.0000      -0.552007       -15.0209
 209   2.0000      -0.550357       -14.9760
 210   2.0000      -0.549111       -14.9421
 211   2.0000      -0.544662       -14.8210
 212   2.0000      -0.541505       -14.7351
 213   2.0000      -0.539084       -14.6692
 214   2.0000      -0.536174       -14.5900
 215   2.0000      -0.535273       -14.5655
 216   2.0000      -0.534336       -14.5400
 217   2.0000      -0.531650       -14.4669
 218   2.0000      -0.528278       -14.3752
 219   2.0000      -0.528034       -14.3685
 220   2.0000      -0.526709       -14.3325
 221   2.0000      -0.524861       -14.2822
 222   2.0000      -0.523933       -14.2569
 223   2.0000      -0.523515       -14.2456
 224   2.0000      -0.521568       -14.1926
 225   2.0000      -0.519058       -14.1243
 226   2.0000      -0.517375       -14.0785
 227   2.0000      -0.516988       -14.0680
 228   2.0000      -0.515192       -14.0191
 229   2.0000      -0.514401       -13.9976
 230   2.0000      -0.512553       -13.9473
 231   2.0000      -0.510765       -13.8986
 232   2.0000      -0.508391       -13.8340
 233   2.0000      -0.503277       -13.6949
 234   2.0000      -0.502789       -13.6816
 235   2.0000      -0.501082       -13.6351
 236   2.0000      -0.498041       -13.5524
 237   2.0000      -0.497480       -13.5371
 238   2.0000      -0.496746       -13.5171
 239   2.0000      -0.496313       -13.5054
 240   2.0000      -0.494199       -13.4478
 241   2.0000      -0.492155       -13.3922
 242   2.0000      -0.488736       -13.2992
 243   2.0000      -0.488110       -13.2821
 244   2.0000      -0.479135       -13.0379
 245   2.0000      -0.475243       -12.9320
 246   2.0000      -0.474549       -12.9131
 247   2.0000      -0.473856       -12.8943
 248   2.0000      -0.473042       -12.8721
 249   2.0000      -0.470475       -12.8023
 250   2.0000      -0.469293       -12.7701
 251   2.0000      -0.468904       -12.7595
 252   2.0000      -0.466059       -12.6821
 253   2.0000      -0.464120       -12.6294
 254   2.0000      -0.463558       -12.6141
 255   2.0000      -0.462997       -12.5988
 256   2.0000      -0.462582       -12.5875
 257   2.0000      -0.458145       -12.4667
 258   2.0000      -0.457758       -12.4562
 259   2.0000      -0.456362       -12.4182
 260   2.0000      -0.455530       -12.3956
 261   2.0000      -0.454993       -12.3810
 262   2.0000      -0.454610       -12.3706
 263   2.0000      -0.453793       -12.3483
 264   2.0000      -0.451356       -12.2820
 265   2.0000      -0.449975       -12.2444
 266   2.0000      -0.449324       -12.2267
 267   2.0000      -0.447643       -12.1810
 268   2.0000      -0.443610       -12.0712
 269   2.0000      -0.442441       -12.0394
 270   2.0000      -0.437952       -11.9173
 271   2.0000      -0.435585       -11.8529
 272   2.0000      -0.433728       -11.8023
 273   2.0000      -0.433282       -11.7902
 274   2.0000      -0.431590       -11.7441
 275   2.0000      -0.429541       -11.6884
 276   2.0000      -0.428642       -11.6639
 277   2.0000      -0.427183       -11.6242
 278   2.0000      -0.424800       -11.5594
 279   2.0000      -0.419438       -11.4135
 280   2.0000      -0.415698       -11.3117
 281   2.0000      -0.412892       -11.2354
 282   2.0000      -0.402842       -10.9619
 283   2.0000      -0.396775       -10.7968
 284   2.0000      -0.395713       -10.7679
 285   2.0000      -0.389782       -10.6065
 286   2.0000      -0.389477       -10.5982
 287   2.0000      -0.382100       -10.3975
 288   2.0000      -0.368234       -10.0202
 289   2.0000      -0.356412        -9.6985
 290   2.0000      -0.354137        -9.6366
 291   2.0000      -0.344413        -9.3720
 292   2.0000      -0.343099        -9.3362
 293   2.0000      -0.339170        -9.2293
 294   2.0000      -0.335383        -9.1262
 295   2.0000      -0.326113        -8.8740
 296   2.0000      -0.323572        -8.8048
 297   2.0000      -0.323059        -8.7909
 298   2.0000      -0.320637        -8.7250
 299   2.0000      -0.318477        -8.6662
 300   2.0000      -0.316872        -8.6225
 301   2.0000      -0.308121        -8.3844
 302   2.0000      -0.301664        -8.2087
 303   2.0000      -0.250884        -6.8269
 304   0.0000      -0.110898        -3.0177
 305   0.0000      -0.098817        -2.6890
 306   0.0000      -0.094297        -2.5660
 307   0.0000      -0.065425        -1.7803
 308   0.0000      -0.064407        -1.7526

MULLIKEN ATOMIC CHARGES
-----------------------
   0 C :   -0.106379
   1 C :    0.242840
   2 F :   -0.169491
   3 C :    0.238311
   4 F :   -0.170666
   5 C :   -0.101147
   6 C :    0.112799
   7 C :    0.116743
   8 C :   -0.088044
   9 C :    0.061151
  10 C :   -0.001686
  11 C :   -0.075991
  12 C :    0.137050
  13 O :   -0.136030
  14 C :   -0.005359
  15 C :    0.318404
  16 C :   -0.280453
  17 C :   -0.222131
  18 N :    0.163500
  19 C :   -0.168360
  20 N :    0.135756
  21 C :   -0.176167
  22 C :    0.092316
  23 C :   -0.237070
  24 C :    0.553049
  25 F :   -0.153071
  26 F :   -0.163432
  27 F :   -0.144778
  28 S :    0.270247
  29 C :   -0.288626
  30 C :   -0.191026
  31 N :    0.142382
  32 C :    0.182252
  33 C :   -0.019136
  34 C :   -0.038815
  35 C :    0.136884
  36 N :   -0.267956
  37 C :    0.093355
  38 C :    0.002800
  39 C :    0.148354
  40 O :   -0.181429
  41 C :   -0.023160
  42 C :   -0.019108
  43 C :    0.171117
  44 O :   -0.229598
  45 N :   -0.252323
  46 C :    0.103341
  47 C :    0.015184
  48 C :    0.086265
  49 C :   -0.001628
  50 C :   -0.060210
  51 C :    0.084245
  52 C :   -0.280737
  53 C :    0.556629
  54 F :   -0.144475
  55 F :   -0.151484
  56 F :   -0.150424
  57 S :    0.268001
  58 C :   -0.315615
  59 C :   -0.207249
  60 N :    0.179561
  61 C :    0.178248
  62 C :   -0.035596
  63 C :    0.033993
  64 C :    0.043916
  65 C :   -0.151178
  66 C :    0.160672
  67 O :   -0.124840
  68 C :    0.023678
  69 C :   -0.079297
  70 C :    0.116872
  71 C :    0.116700
  72 C :   -0.110266
  73 C :    0.243922
  74 C :    0.241405
  75 C :   -0.105431
  76 F :   -0.168729
  77 F :   -0.167961
  78 C :   -0.095878
  79 C :    0.050637
  80 C :    0.276972
  81 C :   -0.338750
  82 C :   -0.173449
  83 N :    0.167335
  84 C :   -0.194888
  85 N :    0.174980
  86 H :    0.006870
  87 H :    0.000422
  88 H :   -0.006098
  89 H :   -0.007589
  90 H :    0.060652
  91 H :    0.008781
  92 H :    0.027754
  93 H :    0.032055
  94 H :    0.045586
  95 H :    0.021650
  96 H :    0.026198
  97 H :    0.031448
  98 H :    0.035463
  99 H :    0.033109
 100 H :    0.013473
 101 H :    0.021869
 102 H :    0.031479
 103 H :    0.025989
 104 H :    0.026392
 105 H :    0.031297
 106 H :    0.024425
 107 H :    0.038693
 108 H :   -0.005675
 109 H :    0.006904
 110 H :    0.002562
 111 H :   -0.006060
Sum of atomic charges:   -0.0000000

LOEWDIN ATOMIC CHARGES
----------------------
   0 C :   -0.029934
   1 C :    0.068458
   2 F :   -0.047166
   3 C :    0.067516
   4 F :   -0.048062
   5 C :   -0.031637
   6 C :   -0.008951
   7 C :   -0.003213
   8 C :    0.017778
   9 C :   -0.014271
  10 C :   -0.054007
  11 C :    0.035663
  12 C :    0.082086
  13 O :   -0.132349
  14 C :   -0.058239
  15 C :    0.071042
  16 C :   -0.109304
  17 C :   -0.016250
  18 N :   -0.053525
  19 C :   -0.009254
  20 N :   -0.053035
  21 C :    0.049131
  22 C :   -0.030332
  23 C :   -0.208516
  24 C :    0.148997
  25 F :   -0.046051
  26 F :   -0.066530
  27 F :   -0.046218
  28 S :    0.537560
  29 C :   -0.216853
  30 C :   -0.056494
  31 N :   -0.038315
  32 C :   -0.013975
  33 C :   -0.002416
  34 C :   -0.013123
  35 C :    0.082154
  36 N :   -0.002910
  37 C :    0.035033
  38 C :   -0.061348
  39 C :    0.085697
  40 O :   -0.183485
  41 C :   -0.114709
  42 C :   -0.105822
  43 C :    0.087654
  44 O :   -0.205756
  45 N :    0.009542
  46 C :    0.038636
  47 C :   -0.058947
  48 C :    0.076727
  49 C :   -0.004072
  50 C :   -0.019442
  51 C :   -0.025839
  52 C :   -0.222638
  53 C :    0.150978
  54 F :   -0.044113
  55 F :   -0.052033
  56 F :   -0.054519
  57 S :    0.530511
  58 C :   -0.212542
  59 C :   -0.051686
  60 N :   -0.033325
  61 C :   -0.028413
  62 C :    0.008159
  63 C :   -0.018561
  64 C :    0.057054
  65 C :   -0.075528
  66 C :    0.091075
  67 O :   -0.123238
  68 C :   -0.048766
  69 C :    0.037101
  70 C :   -0.006395
  71 C :   -0.005688
  72 C :   -0.030361
  73 C :    0.067780
  74 C :    0.068841
  75 C :   -0.031234
  76 F :   -0.046321
  77 F :   -0.046153
  78 C :    0.012440
  79 C :   -0.023816
  80 C :    0.066328
  81 C :   -0.132249
  82 C :   -0.000484
  83 N :   -0.046533
  84 C :   -0.023302
  85 N :   -0.042200
  86 H :    0.047700
  87 H :    0.045416
  88 H :    0.039897
  89 H :    0.041634
  90 H :    0.050900
  91 H :    0.038482
  92 H :    0.046405
  93 H :    0.023566
  94 H :    0.038877
  95 H :    0.022033
  96 H :    0.032461
  97 H :    0.034234
  98 H :    0.035622
  99 H :    0.029429
 100 H :    0.017183
 101 H :    0.027691
 102 H :    0.033607
 103 H :    0.045122
 104 H :    0.034345
 105 H :    0.047376
 106 H :    0.047544
 107 H :    0.052730
 108 H :    0.042851
 109 H :    0.047576
 110 H :    0.046127
 111 H :    0.037698

  Mayer bond orders larger than 0.100000
B(  0-C ,  1-C ) :   1.4445 B(  0-C ,  5-C ) :   0.1085 B(  0-C ,  7-C ) :   1.1850
B(  0-C , 86-H ) :   1.0061 B(  1-C ,  2-F ) :   1.1363 B(  1-C ,  3-C ) :   1.1888
B(  3-C ,  4-F ) :   1.1342 B(  3-C ,  5-C ) :   1.4456 B(  5-C ,  6-C ) :   1.1902
B(  5-C , 87-H ) :   1.0062 B(  6-C ,  7-C ) :   1.2539 B(  6-C , 11-C ) :   1.1960
B(  7-C ,  8-C ) :   1.2252 B(  8-C ,  9-C ) :   1.4374 B(  8-C , 88-H ) :   0.9921
B(  9-C , 10-C ) :   1.2226 B(  9-C , 15-C ) :   0.9985 B( 10-C , 11-C ) :   1.4626
B( 10-C , 12-C ) :   0.9400 B( 11-C , 89-H ) :   1.0157 B( 12-C , 13-O ) :   2.2422
B( 12-C , 14-C ) :   0.9141 B( 14-C , 15-C ) :   1.0238 B( 14-C , 21-C ) :   1.7553
B( 15-C , 16-C ) :   1.6922 B( 16-C , 17-C ) :   1.1481 B( 16-C , 19-C ) :   1.1466
B( 17-C , 18-N ) :   2.9392 B( 19-C , 20-N ) :   2.9011 B( 21-C , 22-C ) :   0.9745
B( 21-C , 90-H ) :   0.9270 B( 22-C , 23-C ) :   1.6140 B( 22-C , 32-C ) :   1.2321
B( 23-C , 24-C ) :   0.9401 B( 23-C , 28-S ) :   1.1418 B( 23-C , 29-C ) :   0.1192
B( 24-C , 25-F ) :   1.1417 B( 24-C , 26-F ) :   1.1739 B( 24-C , 27-F ) :   1.1927
B( 28-S , 29-C ) :   1.1654 B( 29-C , 30-C ) :   1.2052 B( 29-C , 32-C ) :   1.4387
B( 30-C , 31-N ) :   2.9930 B( 32-C , 33-C ) :   1.1269 B( 33-C , 34-C ) :   1.6084
B( 33-C , 91-H ) :   0.9551 B( 34-C , 35-C ) :   1.1603 B( 34-C , 92-H ) :   0.9330
B( 35-C , 36-N ) :   1.1879 B( 35-C , 42-C ) :   1.3491 B( 36-N , 37-C ) :   0.9371
B( 36-N , 39-C ) :   1.0193 B( 37-C , 38-C ) :   1.1178 B( 37-C , 93-H ) :   0.9511
B( 37-C , 94-H ) :   0.9238 B( 38-C , 95-H ) :   0.9677 B( 38-C , 96-H ) :   0.9678
B( 38-C , 97-H ) :   0.9611 B( 39-C , 40-O ) :   2.1488 B( 39-C , 41-C ) :   0.9668
B( 41-C , 42-C ) :   1.2251 B( 41-C , 48-C ) :   1.3693 B( 42-C , 43-C ) :   1.0017
B( 43-C , 44-O ) :   1.9914 B( 43-C , 45-N ) :   1.0678 B( 45-N , 46-C ) :   0.9237
B( 45-N , 48-C ) :   1.1915 B( 46-C , 47-C ) :   1.1197 B( 46-C , 98-H ) :   0.9314
B( 46-C , 99-H ) :   0.9463 B( 47-C ,100-H ) :   0.9631 B( 47-C ,101-H ) :   0.9585
B( 47-C ,102-H ) :   0.9656 B( 48-C , 49-C ) :   1.1432 B( 49-C , 50-C ) :   1.6991
B( 49-C ,103-H ) :   0.9434 B( 50-C , 51-C ) :   1.0511 B( 50-C ,104-H ) :   0.9409
B( 51-C , 52-C ) :   1.5698 B( 51-C , 61-C ) :   1.2156 B( 52-C , 53-C ) :   0.9385
B( 52-C , 57-S ) :   1.1330 B( 52-C , 58-C ) :   0.1175 B( 53-C , 54-F ) :   1.1725
B( 53-C , 55-F ) :   1.1717 B( 53-C , 56-F ) :   1.1622 B( 57-S , 58-C ) :   1.1630
B( 58-C , 59-C ) :   1.2541 B( 58-C , 61-C ) :   1.4712 B( 59-C , 60-N ) :   2.9738
B( 61-C , 62-C ) :   1.0662 B( 62-C , 63-C ) :   1.7680 B( 62-C ,105-H ) :   0.9448
B( 63-C , 64-C ) :   1.1129 B( 63-C ,106-H ) :   0.9407 B( 64-C , 65-C ) :   1.7310
B( 64-C ,107-H ) :   0.9200 B( 65-C , 66-C ) :   0.9183 B( 65-C , 80-C ) :   1.0321
B( 66-C , 67-O ) :   2.2843 B( 66-C , 68-C ) :   0.9139 B( 68-C , 69-C ) :   1.4775
B( 68-C , 79-C ) :   1.2202 B( 69-C , 70-C ) :   1.1913 B( 69-C ,108-H ) :   1.0161
B( 70-C , 71-C ) :   1.2552 B( 70-C , 75-C ) :   1.1942 B( 71-C , 72-C ) :   1.1860
B( 71-C , 78-C ) :   1.2160 B( 72-C , 73-C ) :   1.4415 B( 72-C , 75-C ) :   0.1085
B( 72-C ,109-H ) :   1.0076 B( 73-C , 74-C ) :   1.1913 B( 73-C , 77-F ) :   1.1379
B( 74-C , 75-C ) :   1.4412 B( 74-C , 76-F ) :   1.1363 B( 75-C ,110-H ) :   1.0072
B( 78-C , 79-C ) :   1.4457 B( 78-C ,111-H ) :   0.9955 B( 79-C , 80-C ) :   1.0073
B( 80-C , 81-C ) :   1.6391 B( 81-C , 82-C ) :   1.1846 B( 81-C , 84-C ) :   1.1419
B( 82-C , 83-N ) :   2.9115 B( 84-C , 85-N ) :   2.9724

-----------------------------------------------------------------------------
         ABSORPTION SPECTRUM VIA TRANSITION ELECTRIC DIPOLE MOMENTS
-----------------------------------------------------------------------------
State   Energy  Wavelength   fosc         T2         TX        TY        TZ
        (cm-1)    (nm)                  (au**2)     (au)      (au)      (au)
-----------------------------------------------------------------------------
   0   16428.1    608.7   0.110181548   2.20799  -0.69008  -1.19443   0.55236
   1   17489.0    571.8   0.239003876   4.49899  -1.27410   1.36949  -1.00007
   2   18283.3    546.9   0.447866253   8.06433   1.74929  -1.66576   1.49317
   3   24165.1    413.8   0.198975009   2.71073   0.55616  -0.82710   1.31046
   4   25049.0    399.2   0.019471838   0.25591   0.46729   0.04586   0.18829
   5   25675.2    389.5   0.030862130   0.39572   0.48926   0.39539   0.00323
   6   25905.2    386.0   0.005444365   0.06919  -0.08418   0.19935  -0.14954
   7   27201.9    367.6   0.066764432   0.80802   0.61190  -0.38087   0.53716
   8   27292.1    366.4   0.044419209   0.53581  -0.66418  -0.16039   0.26258
   9   27335.7    365.8   0.057783635   0.69591   0.72096   0.26807   0.32290
  10   27841.2    359.2   0.048270848   0.57079  -0.46155  -0.38801  -0.45520
  11   28500.1    350.9   0.085826150   0.99140   0.92320  -0.24899   0.27766
  12   28736.8    348.0   0.052264443   0.59875   0.67662   0.28175   0.24810
  13   29244.9    341.9   0.007164558   0.08065   0.12032   0.05825   0.25056
  14   29434.3    339.7   0.003114627   0.03484  -0.02360   0.16826   0.07725
  15   29547.1    338.4   0.091845339   1.02334  -0.90980   0.00443  -0.44224
  16   30104.5    332.2   0.023374492   0.25561   0.48293   0.10115   0.11026
  17   30237.0    330.7   0.037461960   0.40788   0.37086  -0.45197   0.25703
  18   31308.3    319.4   0.206051721   2.16667  -0.03114   1.26011  -0.76015
  19   31924.8    313.2   0.016900925   0.17428  -0.05803   0.24108  -0.33585
  20   32136.7    311.2   0.064266347   0.65835   0.77690  -0.18891   0.13815
  21   32407.4    308.6   0.091218236   0.92664  -0.86883   0.21549  -0.35405
  22   32527.4    307.4   0.047884390   0.48464  -0.64964  -0.05318  -0.24450
  23   32569.7    307.0   0.035570197   0.35954  -0.58561   0.10159  -0.07927
  24   32785.0    305.0   0.025768908   0.25876  -0.27764  -0.22369  -0.36282
  25   32887.0    304.1   0.030960454   0.30993   0.06006  -0.48368  -0.26902
  26   33274.9    300.5   0.218502172   2.16180   1.27287  -0.44988   0.58242
  27   33354.9    299.8   0.006468393   0.06384   0.07694  -0.16769   0.17264
  28   33531.5    298.2   0.009726147   0.09549  -0.24387  -0.18832  -0.02363
  29   33730.4    296.5   0.039372820   0.38428   0.38816  -0.12257   0.46753
  30   33772.3    296.1   0.350808424   3.41968  -1.07420   0.44057  -1.43933
  31   34310.7    291.5   0.833737544   7.99974   2.02991   1.32769   1.45480
  32   34593.4    289.1   0.044766747   0.42603  -0.02807   0.63254  -0.15852
  33   34731.6    287.9   0.762546646   7.22799   0.76420   2.57753   0.01744
  34   34944.9    286.2   0.015776518   0.14863   0.35823  -0.14207  -0.01065
  35   35518.6    281.5   0.055682306   0.51610  -0.65238  -0.01307  -0.30055
  36   35651.4    280.5   0.232023567   2.14255  -0.50255   0.61616  -1.22896
  37   36072.5    277.2   0.015900628   0.14512  -0.24543  -0.23161  -0.17674
  38   36416.6    274.6   0.125764825   1.13694  -0.76104   0.69681  -0.26872
  39   36982.9    270.4   0.046238069   0.41160   0.42814  -0.21021   0.42908
  40   37138.9    269.3   0.012543221   0.11119  -0.20448   0.08996  -0.24756
  41   37432.1    267.2   0.012932787   0.11374   0.02951  -0.31687   0.11164
  42   37620.2    265.8   0.001647076   0.01441  -0.10020  -0.01700  -0.06391
  43   37663.4    265.5   0.000448211   0.00392  -0.01151   0.05845  -0.01921
  44   37999.9    263.2   0.043428570   0.37624   0.52811   0.23868   0.20095
  45   38214.8    261.7   0.063038955   0.54307   0.39317  -0.36970   0.50181
  46   38382.0    260.5   0.016445758   0.14106   0.06520  -0.09411  -0.35770
  47   38618.2    258.9   0.029479018   0.25130  -0.19828   0.44189   0.12932
  48   38722.8    258.2   0.184875060   1.57176  -0.11124   0.27633  -1.21780
  49   38753.5    258.0   0.067393903   0.57251   0.24122  -0.71616  -0.03788
  50   39034.9    256.2   0.112098101   0.94541  -0.33085  -0.22450  -0.88631
  51   39259.3    254.7   0.013261221   0.11120   0.20662  -0.07173   0.25172
  52   39303.8    254.4   0.243496310   2.03954  -0.89498   0.16374  -1.10079
  53   40043.8    249.7   0.015534181   0.12771  -0.07791   0.07989  -0.33950

FINAL SINGLE POINT ENERGY     -4906.678692699224

DIPOLE MOMENT
-------------
                                X             Y             Z
Electronic contribution:    -24.01388      -5.71939      22.67386
Nuclear contribution   :     24.01858       4.78775     -23.04553
                        -----------------------------------------
Total Dipole Moment    :      0.00469      -0.93164      -0.37167
                        -----------------------------------------
Magnitude (a.u.)       :      1.00306
Magnitude (Debye)      :      2.54956

Rotational constants in cm-1:     0.001147     0.000281     0.000246
Rotational constants in MHz :    34.399935     8.429497     7.376842

                             ****ORCA TERMINATED NORMALLY****
TOTAL RUN TIME: 0 days 0 hours 13 minutes 13 seconds 218 msec
