                         Program Version 4.2.0 -  RELEASE  -
|  1> # ORCA input file
|  2> # SCF done       -212.534809727816          0.000850567144
|  3> ! CAM-B3LYP def2-SVP def2/J RIJCOSX Grid4 TightSCF
|  4> %maxcore 5000
|  5> %tddft
|  6>     Mode sTDDFT
|  7>     Ethresh 5.0
|  8>     maxcore 5000
|  9> end
| 10>
| 11> %pal
| 12>   nprocs 6
| 13>   end
| 14> * xyz 0 1
| 15>    C      -10.21771        -0.29256       -10.93512
| 16>    C      -11.19136        -0.12781       -11.87955
| 17>    F      -10.98046         0.67304       -12.93138
| 18>    C      -12.42780        -0.79542       -11.76017
| 19>    F      -13.36297        -0.61344       -12.70087
| 20>    C      -12.67307        -1.61813       -10.69680
| 21>    C      -11.69026        -1.80785        -9.70558
| 22>    C      -10.43914        -1.13398        -9.82562
| 23>    C       -9.43787        -1.31007        -8.84486
| 24>    C       -9.68027        -2.13566        -7.77743
| 25>    C      -10.93265        -2.80617        -7.66639
| 26>    C      -11.91956        -2.65157        -8.59664
| 27>    C      -10.94032        -3.62520        -6.44284
| 28>    O      -11.88381        -4.14288        -5.89495
| 29>    C       -9.53114        -3.57186        -5.93744
| 30>    C       -8.83996        -2.50641        -6.64533
| 31>    C       -7.64613        -1.93936        -6.29554
| 32>    C       -6.92885        -2.28386        -5.12962
| 33>    N       -6.33379        -2.51998        -4.17699
| 34>    C       -7.01896        -0.90454        -7.02251
| 35>    N       -6.46806        -0.06331        -7.57464
| 36>    C       -9.02474        -4.46000        -5.05631
| 37>    C       -9.72285        -5.62449        -4.58878
| 38>    C      -10.38472        -6.59285        -5.31615
| 39>    N      -10.59139        -6.67088        -6.70962
| 40>    O      -11.20179        -7.63518        -7.12558
| 41>    O      -10.13706        -5.79163        -7.42723
| 42>    C      -10.80664        -7.65554        -4.42996
| 43>    C      -10.37601        -7.37366        -3.18056
| 44>    C       -9.68168        -6.10681        -3.20158
| 45>    C       -9.20708        -5.38984        -2.12725
| 46>    C       -9.07081        -3.96496        -2.06993
| 47>    C       -8.92254        -3.58736        -0.77076
| 48>    C       -8.87740        -4.75995         0.05204
| 49>    N       -8.68509        -4.69938         1.44536
| 50>    O       -8.61468        -5.74486         2.07355
| 51>    O       -8.61294        -3.59438         1.94984
| 52>    C       -8.99090        -5.89410        -0.75194
| 53>    C       -8.79551        -7.22649        -0.34471
| 54>    C       -8.36966        -8.24555        -1.15324
| 55>    C       -8.19823        -9.57661        -0.72106
| 56>    C       -7.70031       -10.61449        -1.48810
| 57>    C       -7.72190       -11.81603        -0.72674
| 58>    C       -8.27631       -11.44957         0.59554
| 59>    C       -8.54317       -10.12018         0.59064
| 60>    C       -8.47460       -12.30070         1.69110
| 61>    N       -8.65950       -12.96744         2.60771
| 62>    C       -7.29843       -13.06442        -1.11061
| 63>    C       -7.38412       -14.27140        -0.33977
| 64>    C       -6.80395       -15.28992        -1.04249
| 65>    C       -6.32382       -14.75929        -2.30824
| 66>    C       -6.61957       -13.43203        -2.36029
| 67>    C       -6.28952       -12.56422        -3.40769
| 68>    N       -6.01402       -11.85478        -4.26767
| 69>    C       -6.69950       -16.65878        -0.59097
| 70>    C       -6.40110       -16.98324         0.74101
| 71>    C       -6.01065       -16.09978         1.87037
| 72>    O       -5.78221       -14.92065         1.88915
| 73>    N       -5.88591       -16.93969         2.98785
| 74>    C       -6.06344       -18.28272         2.66499
| 75>    O       -5.98553       -19.21817         3.41480
| 76>    C       -6.36857       -18.29987         1.20729
| 77>    C       -6.60170       -19.39395         0.39157
| 78>    C       -6.87473       -19.08377        -0.93198
| 79>    C       -6.92814       -17.77518        -1.41140
| 80>    C       -7.33594       -17.85417        -2.83658
| 81>    O       -7.55933       -16.98950        -3.62395
| 82>    O       -7.45572       -19.18832        -3.15249
| 83>    C       -7.19748       -19.98818        -2.06600
| 84>    O       -7.24405       -21.17531        -2.10289
| 85>    C       -5.62817       -16.39138         4.24212
| 86>    C       -5.49782       -17.08191         5.37813
| 87>    C       -5.27359       -16.47754         6.66998
| 88>    C       -5.08686       -17.25561         7.84210
| 89>    C       -4.90542       -16.50146         8.96480
| 90>    S       -4.64592       -17.12521        10.57007
| 91>    C       -4.54652       -15.59387        11.53654
| 92>    S       -4.96077       -14.79792         8.60037
| 93>    C       -5.22791       -15.13098         6.94529
| 94>    H       -9.27767         0.22591       -11.04206
| 95>    H      -13.62346        -2.12267       -10.62039
| 96>    H       -8.49832        -0.79477        -8.96606
| 97>    H      -12.85833        -3.17345        -8.49221
| 98>    H       -8.01457        -4.34331        -4.68241
| 99>    H      -11.37353        -8.50442        -4.76068
|100>    H      -10.59046        -7.93272        -2.29147
|101>    H       -9.19542        -3.30609        -2.90622
|102>    H       -8.84747        -2.58840        -0.38440
|103>    H       -8.89905        -7.40712         0.71734
|104>    H       -8.10549        -8.04119        -2.18264
|105>    H       -7.36252       -10.53893        -2.50321
|106>    H       -8.94019        -9.55421         1.41241
|107>    H       -7.86929       -14.34755         0.61184
|108>    H       -5.80219       -15.32273        -3.05732
|109>    H       -6.57733       -20.40695         0.75800
|110>    H       -5.55984       -15.31334         4.19528
|111>    H       -5.56413       -18.15897         5.37154
|112>    H       -5.08800       -18.32985         7.85272
|113>    H       -4.39402       -15.89321        12.56839
|114>    H       -5.47632       -15.04114        11.43869
|115>    H       -3.70719       -14.99802        11.18983
|116>    H       -5.34572       -14.30710         6.27112
|117> *
|118>
|119>                          ****END OF INPUT****

CARTESIAN COORDINATES (ANGSTROEM)
---------------------------------
  C    -10.217710   -0.292560  -10.935120
  C    -11.191360   -0.127810  -11.879550
  F    -10.980460    0.673040  -12.931380
  C    -12.427800   -0.795420  -11.760170
  F    -13.362970   -0.613440  -12.700870
  C    -12.673070   -1.618130  -10.696800
  C    -11.690260   -1.807850   -9.705580
  C    -10.439140   -1.133980   -9.825620
  C     -9.437870   -1.310070   -8.844860
  C     -9.680270   -2.135660   -7.777430
  C    -10.932650   -2.806170   -7.666390
  C    -11.919560   -2.651570   -8.596640
  C    -10.940320   -3.625200   -6.442840
  O    -11.883810   -4.142880   -5.894950
  C     -9.531140   -3.571860   -5.937440
  C     -8.839960   -2.506410   -6.645330
  C     -7.646130   -1.939360   -6.295540
  C     -6.928850   -2.283860   -5.129620
  N     -6.333790   -2.519980   -4.176990
  C     -7.018960   -0.904540   -7.022510
  N     -6.468060   -0.063310   -7.574640
  C     -9.024740   -4.460000   -5.056310
  C     -9.722850   -5.624490   -4.588780
  C    -10.384720   -6.592850   -5.316150
  N    -10.591390   -6.670880   -6.709620
  O    -11.201790   -7.635180   -7.125580
  O    -10.137060   -5.791630   -7.427230
  C    -10.806640   -7.655540   -4.429960
  C    -10.376010   -7.373660   -3.180560
  C     -9.681680   -6.106810   -3.201580
  C     -9.207080   -5.389840   -2.127250
  C     -9.070810   -3.964960   -2.069930
  C     -8.922540   -3.587360   -0.770760
  C     -8.877400   -4.759950    0.052040
  N     -8.685090   -4.699380    1.445360
  O     -8.614680   -5.744860    2.073550
  O     -8.612940   -3.594380    1.949840
  C     -8.990900   -5.894100   -0.751940
  C     -8.795510   -7.226490   -0.344710
  C     -8.369660   -8.245550   -1.153240
  C     -8.198230   -9.576610   -0.721060
  C     -7.700310  -10.614490   -1.488100
  C     -7.721900  -11.816030   -0.726740
  C     -8.276310  -11.449570    0.595540
  C     -8.543170  -10.120180    0.590640
  C     -8.474600  -12.300700    1.691100
  N     -8.659500  -12.967440    2.607710
  C     -7.298430  -13.064420   -1.110610
  C     -7.384120  -14.271400   -0.339770
  C     -6.803950  -15.289920   -1.042490
  C     -6.323820  -14.759290   -2.308240
  C     -6.619570  -13.432030   -2.360290
  C     -6.289520  -12.564220   -3.407690
  N     -6.014020  -11.854780   -4.267670
  C     -6.699500  -16.658780   -0.590970
  C     -6.401100  -16.983240    0.741010
  C     -6.010650  -16.099780    1.870370
  O     -5.782210  -14.920650    1.889150
  N     -5.885910  -16.939690    2.987850
  C     -6.063440  -18.282720    2.664990
  O     -5.985530  -19.218170    3.414800
  C     -6.368570  -18.299870    1.207290
  C     -6.601700  -19.393950    0.391570
  C     -6.874730  -19.083770   -0.931980
  C     -6.928140  -17.775180   -1.411400
  C     -7.335940  -17.854170   -2.836580
  O     -7.559330  -16.989500   -3.623950
  O     -7.455720  -19.188320   -3.152490
  C     -7.197480  -19.988180   -2.066000
  O     -7.244050  -21.175310   -2.102890
  C     -5.628170  -16.391380    4.242120
  C     -5.497820  -17.081910    5.378130
  C     -5.273590  -16.477540    6.669980
  C     -5.086860  -17.255610    7.842100
  C     -4.905420  -16.501460    8.964800
  S     -4.645920  -17.125210   10.570070
  C     -4.546520  -15.593870   11.536540
  S     -4.960770  -14.797920    8.600370
  C     -5.227910  -15.130980    6.945290
  H     -9.277670    0.225910  -11.042060
  H    -13.623460   -2.122670  -10.620390
  H     -8.498320   -0.794770   -8.966060
  H    -12.858330   -3.173450   -8.492210
  H     -8.014570   -4.343310   -4.682410
  H    -11.373530   -8.504420   -4.760680
  H    -10.590460   -7.932720   -2.291470
  H     -9.195420   -3.306090   -2.906220
  H     -8.847470   -2.588400   -0.384400
  H     -8.899050   -7.407120    0.717340
  H     -8.105490   -8.041190   -2.182640
  H     -7.362520  -10.538930   -2.503210
  H     -8.940190   -9.554210    1.412410
  H     -7.869290  -14.347550    0.611840
  H     -5.802190  -15.322730   -3.057320
  H     -6.577330  -20.406950    0.758000
  H     -5.559840  -15.313340    4.195280
  H     -5.564130  -18.158970    5.371540
  H     -5.088000  -18.329850    7.852720
  H     -4.394020  -15.893210   12.568390
  H     -5.476320  -15.041140   11.438690
  H     -3.707190  -14.998020   11.189830
  H     -5.345720  -14.307100    6.271120

 Total Charge           Charge          ....    0
 Multiplicity           Mult            ....    1
 Number of Electrons    NEL             ....  550
 Basis Dimension        Dim             .... 1229

ORBITAL ENERGIES
----------------

  NO   OCC          E(Eh)            E(eV)
   0   2.0000     -88.956045     -2420.6170
   1   2.0000     -88.929212     -2419.8869
   2   2.0000     -24.804628      -674.9682
   3   2.0000     -24.803806      -674.9459
   4   2.0000     -19.306012      -525.3433
   5   2.0000     -19.260079      -524.0934
   6   2.0000     -19.256139      -523.9862
   7   2.0000     -19.255895      -523.9795
   8   2.0000     -19.252234      -523.8799
   9   2.0000     -19.250223      -523.8252
  10   2.0000     -19.248844      -523.7877
  11   2.0000     -19.243820      -523.6510
  12   2.0000     -19.242197      -523.6068
  13   2.0000     -19.228490      -523.2338
  14   2.0000     -14.665491      -399.0683
  15   2.0000     -14.659054      -398.8931
  16   2.0000     -14.491462      -394.3327
  17   2.0000     -14.432848      -392.7377
  18   2.0000     -14.429508      -392.6469
  19   2.0000     -14.423583      -392.4857
  20   2.0000     -14.416171      -392.2839
  21   2.0000     -10.450093      -284.3615
  22   2.0000     -10.445350      -284.2324
  23   2.0000     -10.424489      -283.6648
  24   2.0000     -10.422041      -283.5981
  25   2.0000     -10.388889      -282.6960
  26   2.0000     -10.388151      -282.6759
  27   2.0000     -10.382748      -282.5289
  28   2.0000     -10.360235      -281.9163
  29   2.0000     -10.357394      -281.8390
  30   2.0000     -10.356534      -281.8156
  31   2.0000     -10.353863      -281.7429
  32   2.0000     -10.348349      -281.5929
  33   2.0000     -10.345836      -281.5245
  34   2.0000     -10.345083      -281.5040
  35   2.0000     -10.343647      -281.4650
  36   2.0000     -10.343025      -281.4480
  37   2.0000     -10.342882      -281.4441
  38   2.0000     -10.341071      -281.3948
  39   2.0000     -10.340037      -281.3667
  40   2.0000     -10.339897      -281.3629
  41   2.0000     -10.339506      -281.3523
  42   2.0000     -10.339252      -281.3454
  43   2.0000     -10.337098      -281.2867
  44   2.0000     -10.335045      -281.2309
  45   2.0000     -10.334672      -281.2207
  46   2.0000     -10.333326      -281.1841
  47   2.0000     -10.331298      -281.1289
  48   2.0000     -10.326878      -281.0086
  49   2.0000     -10.325008      -280.9577
  50   2.0000     -10.324163      -280.9348
  51   2.0000     -10.323696      -280.9221
  52   2.0000     -10.323533      -280.9176
  53   2.0000     -10.323392      -280.9138
  54   2.0000     -10.321308      -280.8571
  55   2.0000     -10.320516      -280.8355
  56   2.0000     -10.319215      -280.8001
  57   2.0000     -10.318893      -280.7913
  58   2.0000     -10.318774      -280.7881
  59   2.0000     -10.318588      -280.7831
  60   2.0000     -10.317861      -280.7633
  61   2.0000     -10.316052      -280.7140
  62   2.0000     -10.315434      -280.6972
  63   2.0000     -10.312528      -280.6181
  64   2.0000     -10.311696      -280.5955
  65   2.0000     -10.311005      -280.5767
  66   2.0000     -10.310462      -280.5619
  67   2.0000     -10.308463      -280.5075
  68   2.0000     -10.307890      -280.4919
  69   2.0000     -10.307713      -280.4871
  70   2.0000     -10.307502      -280.4814
  71   2.0000     -10.304315      -280.3947
  72   2.0000     -10.303195      -280.3642
  73   2.0000     -10.301516      -280.3185
  74   2.0000     -10.296112      -280.1715
  75   2.0000     -10.282983      -279.8142
  76   2.0000     -10.277169      -279.6560
  77   2.0000     -10.276483      -279.6373
  78   2.0000     -10.263049      -279.2718
  79   2.0000      -8.051524      -219.0931
  80   2.0000      -8.024981      -218.3708
  81   2.0000      -6.021040      -163.8408
  82   2.0000      -6.016455      -163.7161
  83   2.0000      -6.013705      -163.6412
  84   2.0000      -5.995505      -163.1460
  85   2.0000      -5.991380      -163.0337
  86   2.0000      -5.984455      -162.8453
  87   2.0000      -1.337030       -36.3824
  88   2.0000      -1.329075       -36.1660
  89   2.0000      -1.327415       -36.1208
  90   2.0000      -1.312467       -35.7140
  91   2.0000      -1.255233       -34.1566
  92   2.0000      -1.190354       -32.3912
  93   2.0000      -1.182554       -32.1789
  94   2.0000      -1.166838       -31.7513
  95   2.0000      -1.155984       -31.4559
  96   2.0000      -1.146392       -31.1949
  97   2.0000      -1.144570       -31.1453
  98   2.0000      -1.144491       -31.1432
  99   2.0000      -1.082016       -29.4431
 100   2.0000      -1.036668       -28.2092
 101   2.0000      -1.034756       -28.1571
 102   2.0000      -1.032940       -28.1077
 103   2.0000      -1.024944       -27.8902
 104   2.0000      -1.015959       -27.6457
 105   2.0000      -1.014327       -27.6012
 106   2.0000      -1.011699       -27.5297
 107   2.0000      -1.009203       -27.4618
 108   2.0000      -0.999759       -27.2048
 109   2.0000      -0.993281       -27.0286
 110   2.0000      -0.992083       -26.9959
 111   2.0000      -0.981173       -26.6991
 112   2.0000      -0.945714       -25.7342
 113   2.0000      -0.943591       -25.6764
 114   2.0000      -0.936860       -25.4933
 115   2.0000      -0.927974       -25.2514
 116   2.0000      -0.924735       -25.1633
 117   2.0000      -0.921139       -25.0655
 118   2.0000      -0.902270       -24.5520
 119   2.0000      -0.900595       -24.5064
 120   2.0000      -0.898263       -24.4430
 121   2.0000      -0.891400       -24.2562
 122   2.0000      -0.882662       -24.0184
 123   2.0000      -0.878190       -23.8968
 124   2.0000      -0.872255       -23.7353
 125   2.0000      -0.857811       -23.3422
 126   2.0000      -0.850173       -23.1344
 127   2.0000      -0.848516       -23.0893
 128   2.0000      -0.838432       -22.8149
 129   2.0000      -0.831796       -22.6343
 130   2.0000      -0.818493       -22.2723
 131   2.0000      -0.814029       -22.1508
 132   2.0000      -0.810715       -22.0607
 133   2.0000      -0.792304       -21.5597
 134   2.0000      -0.789618       -21.4866
 135   2.0000      -0.781474       -21.2650
 136   2.0000      -0.779036       -21.1986
 137   2.0000      -0.774917       -21.0866
 138   2.0000      -0.750655       -20.4264
 139   2.0000      -0.748161       -20.3585
 140   2.0000      -0.746885       -20.3238
 141   2.0000      -0.744282       -20.2529
 142   2.0000      -0.732788       -19.9402
 143   2.0000      -0.728973       -19.8364
 144   2.0000      -0.727688       -19.8014
 145   2.0000      -0.724608       -19.7176
 146   2.0000      -0.714683       -19.4475
 147   2.0000      -0.709771       -19.3138
 148   2.0000      -0.698090       -18.9960
 149   2.0000      -0.690683       -18.7944
 150   2.0000      -0.688220       -18.7274
 151   2.0000      -0.679846       -18.4996
 152   2.0000      -0.673331       -18.3223
 153   2.0000      -0.670871       -18.2553
 154   2.0000      -0.663005       -18.0413
 155   2.0000      -0.660812       -17.9816
 156   2.0000      -0.658220       -17.9111
 157   2.0000      -0.652616       -17.7586
 158   2.0000      -0.651650       -17.7323
 159   2.0000      -0.649746       -17.6805
 160   2.0000      -0.647156       -17.6100
 161   2.0000      -0.640594       -17.4315
 162   2.0000      -0.640158       -17.4196
 163   2.0000      -0.635598       -17.2955
 164   2.0000      -0.633140       -17.2286
 165   2.0000      -0.630733       -17.1631
 166   2.0000      -0.625057       -17.0087
 167   2.0000      -0.621698       -16.9173
 168   2.0000      -0.619091       -16.8463
 169   2.0000      -0.616270       -16.7696
 170   2.0000      -0.605124       -16.4663
 171   2.0000      -0.603368       -16.4185
 172   2.0000      -0.601980       -16.3807
 173   2.0000      -0.597358       -16.2549
 174   2.0000      -0.595665       -16.2089
 175   2.0000      -0.591821       -16.1043
 176   2.0000      -0.590210       -16.0604
 177   2.0000      -0.587025       -15.9738
 178   2.0000      -0.583670       -15.8825
 179   2.0000      -0.578928       -15.7534
 180   2.0000      -0.576163       -15.6782
 181   2.0000      -0.567556       -15.4440
 182   2.0000      -0.564447       -15.3594
 183   2.0000      -0.561413       -15.2768
 184   2.0000      -0.560918       -15.2633
 185   2.0000      -0.560676       -15.2568
 186   2.0000      -0.558704       -15.2031
 187   2.0000      -0.555845       -15.1253
 188   2.0000      -0.553244       -15.0545
 189   2.0000      -0.552584       -15.0366
 190   2.0000      -0.549752       -14.9595
 191   2.0000      -0.547897       -14.9090
 192   2.0000      -0.546236       -14.8638
 193   2.0000      -0.543091       -14.7783
 194   2.0000      -0.540979       -14.7208
 195   2.0000      -0.539567       -14.6824
 196   2.0000      -0.536715       -14.6047
 197   2.0000      -0.534979       -14.5575
 198   2.0000      -0.529970       -14.4212
 199   2.0000      -0.527130       -14.3439
 200   2.0000      -0.526397       -14.3240
 201   2.0000      -0.522192       -14.2096
 202   2.0000      -0.520917       -14.1749
 203   2.0000      -0.519555       -14.1378
 204   2.0000      -0.518233       -14.1018
 205   2.0000      -0.516792       -14.0626
 206   2.0000      -0.514325       -13.9955
 207   2.0000      -0.511497       -13.9185
 208   2.0000      -0.509316       -13.8592
 209   2.0000      -0.508782       -13.8447
 210   2.0000      -0.507684       -13.8148
 211   2.0000      -0.506155       -13.7732
 212   2.0000      -0.504118       -13.7177
 213   2.0000      -0.502637       -13.6774
 214   2.0000      -0.499677       -13.5969
 215   2.0000      -0.498948       -13.5771
 216   2.0000      -0.497117       -13.5273
 217   2.0000      -0.493101       -13.4180
 218   2.0000      -0.491876       -13.3846
 219   2.0000      -0.487309       -13.2603
 220   2.0000      -0.482898       -13.1403
 221   2.0000      -0.481023       -13.0893
 222   2.0000      -0.480650       -13.0792
 223   2.0000      -0.476452       -12.9649
 224   2.0000      -0.472358       -12.8535
 225   2.0000      -0.471037       -12.8176
 226   2.0000      -0.464800       -12.6479
 227   2.0000      -0.463962       -12.6250
 228   2.0000      -0.463768       -12.6198
 229   2.0000      -0.458008       -12.4630
 230   2.0000      -0.455193       -12.3864
 231   2.0000      -0.452825       -12.3220
 232   2.0000      -0.452079       -12.3017
 233   2.0000      -0.447442       -12.1755
 234   2.0000      -0.446574       -12.1519
 235   2.0000      -0.443653       -12.0724
 236   2.0000      -0.443026       -12.0554
 237   2.0000      -0.440666       -11.9911
 238   2.0000      -0.438138       -11.9223
 239   2.0000      -0.433096       -11.7851
 240   2.0000      -0.428095       -11.6490
 241   2.0000      -0.427273       -11.6267
 242   2.0000      -0.425368       -11.5748
 243   2.0000      -0.424460       -11.5501
 244   2.0000      -0.417140       -11.3509
 245   2.0000      -0.415238       -11.2992
 246   2.0000      -0.412762       -11.2318
 247   2.0000      -0.408312       -11.1107
 248   2.0000      -0.401013       -10.9121
 249   2.0000      -0.396280       -10.7833
 250   2.0000      -0.395850       -10.7716
 251   2.0000      -0.391955       -10.6656
 252   2.0000      -0.391109       -10.6426
 253   2.0000      -0.390277       -10.6200
 254   2.0000      -0.389240       -10.5917
 255   2.0000      -0.387056       -10.5323
 256   2.0000      -0.386551       -10.5186
 257   2.0000      -0.385233       -10.4827
 258   2.0000      -0.382532       -10.4092
 259   2.0000      -0.375918       -10.2293
 260   2.0000      -0.372207       -10.1283
 261   2.0000      -0.369665       -10.0591
 262   2.0000      -0.365958        -9.9582
 263   2.0000      -0.358730        -9.7615
 264   2.0000      -0.348947        -9.4953
 265   2.0000      -0.346423        -9.4266
 266   2.0000      -0.343658        -9.3514
 267   2.0000      -0.337480        -9.1833
 268   2.0000      -0.326535        -8.8855
 269   2.0000      -0.315285        -8.5793
 270   2.0000      -0.313982        -8.5439
 271   2.0000      -0.307944        -8.3796
 272   2.0000      -0.286936        -7.8079
 273   2.0000      -0.285135        -7.7589
 274   2.0000      -0.253683        -6.9031
 275   0.0000      -0.156151        -4.2491
 276   0.0000      -0.130738        -3.5576
 277   0.0000      -0.102833        -2.7982
 278   0.0000      -0.102052        -2.7770
 279   0.0000      -0.072626        -1.9763

MULLIKEN ATOMIC CHARGES
-----------------------
   0 C :   -0.103671
   1 C :    0.243038
   2 F :   -0.168247
   3 C :    0.240566
   4 F :   -0.168851
   5 C :   -0.099873
   6 C :    0.111051
   7 C :    0.113719
   8 C :   -0.085222
   9 C :    0.060186
  10 C :    0.014326
  11 C :   -0.069552
  12 C :    0.132025
  13 O :   -0.139010
  14 C :   -0.018185
  15 C :    0.299265
  16 C :   -0.337453
  17 C :   -0.195722
  18 N :    0.163121
  19 C :   -0.178535
  20 N :    0.159546
  21 C :   -0.107809
  22 C :    0.049875
  23 C :    0.108934
  24 N :    0.277347
  25 O :   -0.220563
  26 O :   -0.251588
  27 C :    0.021172
  28 C :    0.001303
  29 C :    0.031355
  30 C :    0.029213
  31 C :    0.010863
  32 C :    0.034122
  33 C :    0.091480
  34 N :    0.273404
  35 O :   -0.252984
  36 O :   -0.235782
  37 C :    0.051294
  38 C :   -0.049074
  39 C :    0.000860
  40 C :    0.091424
  41 C :   -0.086085
  42 C :    0.118425
  43 C :   -0.089233
  44 C :    0.001111
  45 C :   -0.168930
  46 N :    0.140175
  47 C :    0.084288
  48 C :   -0.034987
  49 C :   -0.007947
  50 C :    0.057872
  51 C :   -0.110264
  52 C :   -0.185366
  53 N :    0.138200
  54 C :    0.106219
  55 C :   -0.032209
  56 C :    0.182801
  57 O :   -0.131187
  58 N :   -0.224683
  59 C :    0.213504
  60 O :   -0.133713
  61 C :   -0.008747
  62 C :   -0.066508
  63 C :   -0.029889
  64 C :   -0.088404
  65 C :    0.236161
  66 O :   -0.097387
  67 O :   -0.229428
  68 C :    0.236447
  69 O :   -0.090304
  70 C :    0.078318
  71 C :    0.007218
  72 C :    0.089304
  73 C :    0.012404
  74 C :   -0.153595
  75 S :   -0.003952
  76 C :   -0.096130
  77 S :    0.102433
  78 C :   -0.132095
  79 H :    0.008525
  80 H :    0.002118
  81 H :   -0.002360
  82 H :   -0.006315
  83 H :    0.049344
  84 H :    0.009917
  85 H :    0.010685
  86 H :    0.007659
  87 H :    0.016105
  88 H :    0.029154
  89 H :    0.021320
  90 H :    0.009580
  91 H :    0.015473
  92 H :    0.009146
  93 H :    0.006283
  94 H :    0.025934
  95 H :    0.028691
  96 H :    0.013662
  97 H :   -0.015906
  98 H :    0.066403
  99 H :    0.069989
 100 H :    0.070169
 101 H :    0.023213
Sum of atomic charges:   -0.0000000

LOEWDIN ATOMIC CHARGES
----------------------
   0 C :   -0.028447
   1 C :    0.069197
   2 F :   -0.046263
   3 C :    0.070646
   4 F :   -0.046310
   5 C :   -0.031011
   6 C :   -0.005079
   7 C :   -0.004191
   8 C :    0.020755
   9 C :   -0.020068
  10 C :   -0.046735
  11 C :    0.037695
  12 C :    0.079042
  13 O :   -0.139362
  14 C :   -0.051026
  15 C :    0.077512
  16 C :   -0.128216
  17 C :   -0.019490
  18 N :   -0.045070
  19 C :   -0.018836
  20 N :   -0.040901
  21 C :    0.043136
  22 C :    0.003401
  23 C :   -0.008351
  24 N :    0.290572
  25 O :   -0.183293
  26 O :   -0.202330
  27 C :    0.009142
  28 C :   -0.028196
  29 C :    0.037824
  30 C :    0.050141
  31 C :   -0.033363
  32 C :    0.036337
  33 C :   -0.040682
  34 N :    0.285530
  35 O :   -0.217228
  36 O :   -0.200780
  37 C :    0.014887
  38 C :   -0.009317
  39 C :    0.017224
  40 C :   -0.016288
  41 C :   -0.002064
  42 C :    0.042414
  43 C :   -0.071620
  44 C :    0.058152
  45 C :   -0.028132
  46 N :   -0.053963
  47 C :    0.044269
  48 C :    0.025318
  49 C :   -0.030847
  50 C :    0.074757
  51 C :   -0.093279
  52 C :   -0.029381
  53 N :   -0.062636
  54 C :    0.030660
  55 C :   -0.028289
  56 C :    0.100093
  57 O :   -0.121733
  58 N :   -0.006929
  59 C :    0.096729
  60 O :   -0.124756
  61 C :   -0.020305
  62 C :    0.041811
  63 C :   -0.040535
  64 C :   -0.051980
  65 C :    0.108036
  66 O :   -0.091652
  67 O :   -0.055449
  68 C :    0.103503
  69 O :   -0.088156
  70 C :    0.020160
  71 C :   -0.027143
  72 C :   -0.061620
  73 C :   -0.093064
  74 C :   -0.319866
  75 S :    0.289257
  76 C :   -0.161963
  77 S :    0.432328
  78 C :   -0.204321
  79 H :    0.048355
  80 H :    0.046315
  81 H :    0.040831
  82 H :    0.042619
  83 H :    0.049474
  84 H :    0.041176
  85 H :    0.034165
  86 H :    0.033556
  87 H :    0.044220
  88 H :    0.038430
  89 H :    0.040464
  90 H :    0.039065
  91 H :    0.042207
  92 H :    0.034775
  93 H :    0.038587
  94 H :    0.055429
  95 H :    0.033069
  96 H :    0.034927
  97 H :    0.028622
  98 H :    0.035393
  99 H :    0.024013
 100 H :    0.023471
 101 H :    0.020828

  Mayer bond orders larger than 0.100000
B(  0-C ,  1-C ) :   1.4456 B(  0-C ,  5-C ) :   0.1081 B(  0-C ,  7-C ) :   1.1845
B(  0-C , 79-H ) :   1.0061 B(  1-C ,  2-F ) :   1.1378 B(  1-C ,  3-C ) :   1.1883
B(  3-C ,  4-F ) :   1.1360 B(  3-C ,  5-C ) :   1.4455 B(  5-C ,  6-C ) :   1.1914
B(  5-C , 80-H ) :   1.0063 B(  6-C ,  7-C ) :   1.2511 B(  6-C , 11-C ) :   1.1995
B(  7-C ,  8-C ) :   1.2289 B(  8-C ,  9-C ) :   1.4370 B(  8-C , 81-H ) :   0.9903
B(  9-C , 10-C ) :   1.2203 B(  9-C , 15-C ) :   1.0032 B( 10-C , 11-C ) :   1.4715
B( 10-C , 12-C ) :   0.9350 B( 11-C , 82-H ) :   1.0152 B( 12-C , 13-O ) :   2.2598
B( 12-C , 14-C ) :   0.8904 B( 14-C , 15-C ) :   1.0370 B( 14-C , 21-C ) :   1.7489
B( 15-C , 16-C ) :   1.6635 B( 16-C , 17-C ) :   1.1514 B( 16-C , 19-C ) :   1.1328
B( 17-C , 18-N ) :   2.9711 B( 19-C , 20-N ) :   2.9744 B( 21-C , 22-C ) :   1.0261
B( 21-C , 83-H ) :   0.9255 B( 22-C , 23-C ) :   1.6025 B( 22-C , 29-C ) :   1.0616
B( 23-C , 24-N ) :   0.9304 B( 23-C , 27-C ) :   1.1170 B( 24-N , 25-O ) :   1.5545
B( 24-N , 26-O ) :   1.4884 B( 25-O , 26-O ) :   0.2639 B( 27-C , 28-C ) :   1.6102
B( 27-C , 84-H ) :   1.0104 B( 28-C , 29-C ) :   1.0941 B( 28-C , 85-H ) :   0.9961
B( 29-C , 30-C ) :   1.5149 B( 30-C , 31-C ) :   1.1453 B( 30-C , 37-C ) :   0.9863
B( 31-C , 32-C ) :   1.5539 B( 31-C , 86-H ) :   0.9963 B( 32-C , 33-C ) :   1.1322
B( 32-C , 87-H ) :   1.0133 B( 33-C , 34-N ) :   0.9471 B( 33-C , 37-C ) :   1.5077
B( 34-N , 35-O ) :   1.4903 B( 34-N , 36-O ) :   1.5426 B( 35-O , 36-O ) :   0.2631
B( 37-C , 38-C ) :   1.1958 B( 38-C , 39-C ) :   1.5313 B( 38-C , 88-H ) :   0.9470
B( 39-C , 40-C ) :   1.1536 B( 39-C , 89-H ) :   0.9703 B( 40-C , 41-C ) :   1.5041
B( 40-C , 44-C ) :   1.0385 B( 41-C , 42-C ) :   1.1100 B( 41-C , 90-H ) :   1.0095
B( 42-C , 43-C ) :   1.0967 B( 42-C , 47-C ) :   1.4313 B( 43-C , 44-C ) :   1.6961
B( 43-C , 45-C ) :   1.0914 B( 44-C , 91-H ) :   1.0146 B( 45-C , 46-N ) :   2.9656
B( 47-C , 48-C ) :   1.1016 B( 47-C , 51-C ) :   1.1236 B( 48-C , 49-C ) :   1.6302
B( 48-C , 92-H ) :   0.9891 B( 49-C , 50-C ) :   1.0701 B( 49-C , 54-C ) :   0.9550
B( 50-C , 51-C ) :   1.6576 B( 50-C , 93-H ) :   1.0095 B( 51-C , 52-C ) :   1.0889
B( 52-C , 53-N ) :   2.9684 B( 54-C , 55-C ) :   1.4148 B( 54-C , 64-C ) :   1.3588
B( 55-C , 56-C ) :   0.8824 B( 55-C , 61-C ) :   1.3813 B( 56-C , 57-O ) :   2.1880
B( 56-C , 58-N ) :   1.0439 B( 58-N , 59-C ) :   1.0440 B( 58-N , 70-C ) :   0.9959
B( 59-C , 60-O ) :   2.2076 B( 59-C , 61-C ) :   0.8727 B( 61-C , 62-C ) :   1.3500
B( 62-C , 63-C ) :   1.3165 B( 62-C , 94-H ) :   1.0286 B( 63-C , 64-C ) :   1.3686
B( 63-C , 68-C ) :   0.8832 B( 64-C , 65-C ) :   0.9060 B( 65-C , 66-O ) :   2.2497
B( 65-C , 67-O ) :   1.0609 B( 67-O , 68-C ) :   1.0397 B( 68-C , 69-O ) :   2.3109
B( 70-C , 71-C ) :   1.7491 B( 70-C , 95-H ) :   0.9672 B( 71-C , 72-C ) :   1.0697
B( 71-C , 96-H ) :   0.9713 B( 72-C , 73-C ) :   1.2430 B( 72-C , 78-C ) :   1.5540
B( 73-C , 74-C ) :   1.5628 B( 73-C , 97-H ) :   0.9995 B( 74-C , 75-S ) :   1.0150
B( 74-C , 77-S ) :   1.1342 B( 75-S , 76-C ) :   1.0149 B( 76-C , 98-H ) :   0.9734
B( 76-C , 99-H ) :   0.9654 B( 76-C ,100-H ) :   0.9651 B( 77-S , 78-C ) :   1.1418
B( 78-C ,101-H ) :   0.9602

-----------------------------------------------------------------------------
         ABSORPTION SPECTRUM VIA TRANSITION ELECTRIC DIPOLE MOMENTS
-----------------------------------------------------------------------------
State   Energy  Wavelength   fosc         T2         TX        TY        TZ
        (cm-1)    (nm)                  (au**2)     (au)      (au)      (au)
-----------------------------------------------------------------------------
   0   11131.8    898.3   0.315427141   9.32843  -0.81872   2.74351  -1.06363
   1   12163.0    822.2   0.005621270   0.15215   0.04962   0.19203   0.33587
   2   15188.0    658.4   0.013746359   0.29796  -0.42904   0.12981   0.31151
   3   16462.8    607.4   0.167115166   3.34185   0.52989  -1.69251  -0.44328
   4   17330.1    577.0   0.041604934   0.79035  -0.23830   0.83664   0.18328
   5   17589.5    568.5   0.013596570   0.25448   0.04587   0.03005   0.50147
   6   18588.2    538.0   0.003939510   0.06977   0.07329   0.20138   0.15442
   7   18789.4    532.2   0.004999121   0.08759   0.07870  -0.21478   0.18779
   8   19666.4    508.5   0.002015942   0.03375   0.17149   0.05170  -0.04082
   9   21507.0    465.0   0.016561825   0.25351  -0.33192   0.35129  -0.14123
  10   22008.9    454.4   0.028866853   0.43179   0.18460  -0.61288   0.14863
  11   23410.3    427.2   0.020175730   0.28372  -0.38384  -0.36848   0.02474
  12   24059.6    415.6   0.144554676   1.97797  -0.04088   0.40625  -1.34583
  13   24317.1    411.2   0.005383425   0.07288   0.06684   0.01049   0.26135
  14   24860.6    402.2   0.105245927   1.39370   0.45720  -1.08833   0.01444
  15   24976.6    400.4   0.001019098   0.01343   0.00512   0.08925  -0.07376
  16   25317.5    395.0   0.485496472   6.31306   0.47698  -2.42802   0.43620
  17   25481.2    392.4   0.008123324   0.10495   0.03630  -0.04558   0.31868
  18   25610.4    390.5   0.101680577   1.30707   0.39722  -0.95361   0.48980
  19   25850.5    386.8   0.068056197   0.86671  -0.12220   0.89508   0.22496
  20   26356.8    379.4   0.084284279   1.05276  -0.09423   0.65464  -0.78443
  21   26690.8    374.7   0.123579424   1.52426   0.33182  -0.99259  -0.65492
  22   26956.8    371.0   0.053760924   0.65656   0.01584  -0.51597  -0.62457
  23   27360.6    365.5   0.070366635   0.84667  -0.45721   0.28513  -0.74588
  24   27931.5    358.0   0.011141690   0.13132   0.36226  -0.00400  -0.00849
  25   28033.1    356.7   0.243631969   2.86114   0.33936   0.70073   1.50165
  26   28181.4    354.8   0.015309923   0.17885  -0.04915  -0.40426   0.11403
  27   28676.8    348.7   0.000332438   0.00382   0.01647   0.05644  -0.01898
  28   28909.0    345.9   0.163723482   1.86446  -0.32958  -0.87541  -0.99473
  29   29410.7    340.0   0.007142181   0.07995  -0.24749  -0.04770   0.12813
  30   30608.5    326.7   0.124598008   1.34012   0.17074  -1.13512  -0.14990
  31   30766.2    325.0   0.213215095   2.28150   0.73566   0.98668   0.87564
  32   31014.8    322.4   0.030359939   0.32226   0.24367   0.37687  -0.34764
  33   31412.4    318.3   0.241237528   2.52825  -0.70113   0.22566  -1.40917
  34   31709.2    315.4   0.104744759   1.08748  -0.06469   0.68735   0.78157
  35   31839.6    314.1   0.089603904   0.92648  -0.13075   0.50669   0.80787
  36   31878.2    313.7   0.024033260   0.24820   0.08563  -0.07764  -0.48460
  37   32068.3    311.8   0.127773317   1.31172  -0.17130   1.11646   0.18945
  38   32395.9    308.7   0.048956058   0.49750  -0.36665  -0.52974  -0.28712
  39   32862.5    304.3   0.104056580   1.04242  -0.38192   0.29490  -0.89978
  40   33064.3    302.4   0.031774666   0.31637  -0.21052   0.37354  -0.36403
  41   33137.7    301.8   0.032853835   0.32639  -0.09992   0.55507   0.09114
  42   33181.5    301.4   0.006204942   0.06156   0.06105   0.03956   0.23721
  43   33325.5    300.1   0.156784690   1.54882  -0.26601   0.30617  -1.17657
  44   33602.5    297.6   0.020440634   0.20026  -0.10101  -0.10156  -0.42396
  45   33878.3    295.2   0.072429035   0.70383   0.15778  -0.56698   0.59789
  46   34038.4    293.8   0.039350888   0.38059   0.45617  -0.40763  -0.07961
  47   34094.4    293.3   0.068988119   0.66614  -0.20689   0.73627  -0.28503
  48   34279.9    291.7   0.204168944   1.96077  -0.34423   1.28770   0.42908
  49   34795.4    287.4   0.417975648   3.95462  -1.51681  -0.16280  -1.27569
  50   34932.1    286.3   0.132865743   1.25217   0.36406   0.78786   0.70633
  51   35022.2    285.5   0.013734867   0.12911   0.02593   0.08556   0.34802
  52   35558.0    281.2   0.033864828   0.31354  -0.04040  -0.16272  -0.53425
  53   35830.6    279.1   0.083032636   0.76291  -0.43090   0.27394  -0.70865
  54   35835.1    279.1   0.001947434   0.01789   0.08280  -0.09801  -0.03781
  55   35893.5    278.6   0.025947759   0.23799  -0.13114  -0.19194  -0.42890
  56   36007.8    277.7   0.077220995   0.70602   0.10689  -0.29305  -0.78020
  57   36130.3    276.8   0.107250347   0.97724  -0.55804   0.30559  -0.75660
  58   36211.2    276.2   0.082327432   0.74847  -0.42338   0.04855  -0.75291
  59   36417.9    274.6   0.028626054   0.25877  -0.11513  -0.46876   0.16058
  60   36610.6    273.1   0.012463383   0.11207   0.18116   0.23663  -0.15251
  61   36766.8    272.0   0.000530525   0.00475  -0.01333   0.06167  -0.02774
  62   36884.1    271.1   0.020319395   0.18136   0.04304  -0.01935   0.42324
  63   37054.3    269.9   0.007578315   0.06733   0.08463  -0.12301   0.21222
  64   37178.6    269.0   0.002470882   0.02188   0.04423   0.07521   0.11944
  65   37246.0    268.5   0.008676862   0.07669   0.02499   0.26763   0.06665
  66   37288.6    268.2   0.028917168   0.25530   0.07261   0.47932   0.14244
  67   37609.3    265.9   0.100848215   0.88277  -0.35280  -0.59634  -0.63458
  68   37755.2    264.9   0.063809434   0.55640   0.17622   0.34356   0.63821
  69   37942.0    263.6   0.007666346   0.06652   0.05246   0.11795   0.22328
  70   38432.7    260.2   0.042235569   0.36179  -0.13223  -0.09495  -0.57904
  71   38456.2    260.0   0.018168140   0.15553  -0.01210   0.04890  -0.39115
  72   38797.7    257.7   0.007694479   0.06529  -0.17597  -0.06077  -0.17502
  73   38893.8    257.1   0.004284271   0.03626   0.08901   0.04307   0.16275
  74   39034.9    256.2   0.063088624   0.53208  -0.53416  -0.36132  -0.34088
  75   39142.2    255.5   0.131610277   1.10693   0.40729   0.63131  -0.73654
  76   39226.7    254.9   0.008900288   0.07470   0.00704   0.02607   0.27197
  77   39467.4    253.4   0.009816342   0.08188  -0.17306  -0.08519   0.21137
  78   39526.7    253.0   0.004160991   0.03466   0.08556   0.16470   0.01453
  79   39699.3    251.9   0.290037800   2.40518  -0.45527   0.09364  -1.47957
  80   39803.9    251.2   0.013473741   0.11144  -0.04669   0.23715  -0.23026
  81   40087.8    249.5   0.039767934   0.32659   0.01512  -0.57006   0.03732
  82   40288.5    248.2   0.054290127   0.44362  -0.00169   0.30581   0.59169

FINAL SINGLE POINT ENERGY     -4350.628580707449

DIPOLE MOMENT
-------------
                                X             Y             Z
Electronic contribution:    -13.49129      23.29883     -58.47210
Nuclear contribution   :     12.53626     -23.37612      59.13250
                        -----------------------------------------
Total Dipole Moment    :     -0.95503      -0.07729       0.66040
                        -----------------------------------------
Magnitude (a.u.)       :      1.16369
Magnitude (Debye)      :      2.95787

Rotational constants in cm-1:     0.001274     0.000219     0.000193
Rotational constants in MHz :    38.199072     6.551318     5.775041

                             ****ORCA TERMINATED NORMALLY****
TOTAL RUN TIME: 0 days 0 hours 13 minutes 45 seconds 72 msec
