                         Program Version 4.2.0 -  RELEASE  -
|  1> # ORCA input file
|  2> # SCF done       -193.742706890744          0.000504192302
|  3> ! CAM-B3LYP def2-SVP def2/J RIJCOSX Grid4 TightSCF
|  4> %maxcore 5000
|  5> %tddft
|  6>     Mode sTDDFT
|  7>     Ethresh 5.0
|  8>     maxcore 5000
|  9> end
| 10>
| 11> %pal
| 12>   nprocs 6
| 13>   end
| 14> * xyz 0 1
| 15>    C       -2.94859        -5.30963        -0.08032
| 16>    C       -4.30031        -5.21962        -0.19036
| 17>    S       -4.79364        -5.20558        -1.84641
| 18>    C       -3.13993        -5.32408        -2.40209
| 19>   Cl       -2.77098        -5.36347        -4.05705
| 20>    C       -2.28383        -5.36918        -1.34468
| 21>    C       -0.83556        -5.46554        -1.14034
| 22>    O       -0.00078        -5.56429        -2.02202
| 23>    C       -0.64468        -5.45866         0.32857
| 24>    C       -1.94701        -5.35754         0.96933
| 25>    C       -2.25322        -5.28011         2.30578
| 26>    C       -3.59162        -5.17934         2.73908
| 27>    N       -4.67287        -5.10072         3.11642
| 28>    C       -1.35540        -5.27283         3.39050
| 29>    N       -0.69743        -5.24951         4.33267
| 30>    C        0.51378        -5.59702         1.06553
| 31>    C        1.87894        -5.63099         0.72617
| 32>    C        2.43937        -5.36780        -0.51263
| 33>    C        3.79147        -5.39023        -0.79789
| 34>    C        4.79682        -5.56693         0.25938
| 35>    C        4.49203        -5.84662         1.54791
| 36>    S        2.89326        -6.02124         2.12970
| 37>    C        6.05136        -5.36371        -0.37229
| 38>    C        5.85698        -5.08979        -1.73227
| 39>    C        7.07887        -4.88483        -2.41380
| 40>    C        8.14031        -5.00043        -1.57658
| 41>    S        7.71057        -5.36646         0.06441
| 42>    C        4.45752        -5.13767        -2.02833
| 43>    C        3.91479        -4.97915        -3.32390
| 44>    C        2.68443        -5.41396        -3.71399
| 45>    C        2.09796        -5.20068        -4.98013
| 46>    C        2.56484        -4.49285        -6.08160
| 47>    C        1.65693        -4.50474        -7.13368
| 48>    C        0.48061        -5.22687        -6.83761
| 49>    S        0.50256        -5.88164        -5.26323
| 50>    C       -0.36658        -5.18241        -7.96730
| 51>    C        0.26383        -4.43314        -8.97942
| 52>    C        1.55611        -3.98419        -8.48773
| 53>    C        2.48161        -3.23934        -9.15969
| 54>    C        3.71277        -2.87426        -8.57737
| 55>    N        4.71436        -2.58177        -8.10147
| 56>    C        2.26097        -2.79673       -10.48037
| 57>    N        2.06989        -2.44290       -11.55430
| 58>    C       -0.49271        -4.34385       -10.14461
| 59>    C       -1.69746        -5.02117       -10.04012
| 60>    S       -1.89051        -5.77459        -8.45879
| 61>    C       -2.71376        -5.17446       -11.02713
| 62>    C       -2.68991        -4.52138       -12.24166
| 63>    C       -3.64756        -4.67203       -13.23895
| 64>    C       -4.78914        -5.57145       -13.06900
| 65>    C       -5.02656        -6.29587       -11.95261
| 66>    S       -4.00513        -6.27587       -10.57852
| 67>    C       -5.52380        -5.48478       -14.28189
| 68>    C       -4.90407        -4.59156       -15.15955
| 69>    C       -5.59905        -4.51049       -16.38696
| 70>    C       -6.69406        -5.31518       -16.40155
| 71>    S       -6.93689        -6.20292       -14.93902
| 72>    C       -3.72686        -4.05555       -14.51396
| 73>    C       -2.81385        -3.10451       -14.99546
| 74>    C       -2.88499        -2.43364       -16.18849
| 75>    C       -1.92388        -1.48241       -16.55202
| 76>    C       -1.83253        -0.74253       -17.70623
| 77>    C       -0.96941         0.47180       -17.68918
| 78>    O       -0.18321         0.78644       -16.82504
| 79>    C       -1.32695         1.20167       -18.91423
| 80>    C       -1.01202         2.38431       -19.50806
| 81>    S       -1.89520         2.57440       -21.00673
| 82>    C       -2.67261         1.04311       -20.81120
| 83>    C       -2.27775         0.43427       -19.66283
| 84>    C       -2.51736        -0.82442       -18.97278
| 85>    C       -3.14002        -1.89812       -19.56452
| 86>    C       -3.74888        -1.78467       -20.83039
| 87>    N       -4.27527        -1.71664       -21.84878
| 88>    C       -3.17851        -3.21557       -19.07628
| 89>    N       -3.22898        -4.32111       -18.76616
| 90>   Cl        0.06629         3.57565       -18.96739
| 91>    H       -5.04714        -5.16193         0.57593
| 92>    H        0.35094        -5.71280         2.13151
| 93>    H        1.74798        -5.09839        -1.29430
| 94>    H        5.24944        -5.98888         2.30301
| 95>    H        7.17007        -4.66160        -3.46105
| 96>    H        9.18035        -4.89418        -1.81570
| 97>    H        4.56512        -4.51226        -4.05216
| 98>    H        2.08138        -5.99138        -3.03178
| 99>    H        3.51841        -3.99840        -6.10089
|100>    H       -0.17558        -3.82520       -11.02984
|101>    H       -1.86319        -3.85011       -12.42043
|102>    H       -5.88222        -6.94390       -11.84922
|103>    H       -5.31121        -3.92483       -17.23858
|104>    H       -7.39322        -5.45104       -17.20321
|105>    H       -1.96769        -2.88308       -14.35640
|106>    H       -3.71743        -2.61253       -16.84618
|107>    H       -1.18511        -1.21771       -15.80100
|108>    H       -3.36815         0.71237       -21.55643
|109> *
|110>
|111>                          ****END OF INPUT****

CARTESIAN COORDINATES (ANGSTROEM)
---------------------------------
  C     -2.948590   -5.309630   -0.080320
  C     -4.300310   -5.219620   -0.190360
  S     -4.793640   -5.205580   -1.846410
  C     -3.139930   -5.324080   -2.402090
  Cl    -2.770980   -5.363470   -4.057050
  C     -2.283830   -5.369180   -1.344680
  C     -0.835560   -5.465540   -1.140340
  O     -0.000780   -5.564290   -2.022020
  C     -0.644680   -5.458660    0.328570
  C     -1.947010   -5.357540    0.969330
  C     -2.253220   -5.280110    2.305780
  C     -3.591620   -5.179340    2.739080
  N     -4.672870   -5.100720    3.116420
  C     -1.355400   -5.272830    3.390500
  N     -0.697430   -5.249510    4.332670
  C      0.513780   -5.597020    1.065530
  C      1.878940   -5.630990    0.726170
  C      2.439370   -5.367800   -0.512630
  C      3.791470   -5.390230   -0.797890
  C      4.796820   -5.566930    0.259380
  C      4.492030   -5.846620    1.547910
  S      2.893260   -6.021240    2.129700
  C      6.051360   -5.363710   -0.372290
  C      5.856980   -5.089790   -1.732270
  C      7.078870   -4.884830   -2.413800
  C      8.140310   -5.000430   -1.576580
  S      7.710570   -5.366460    0.064410
  C      4.457520   -5.137670   -2.028330
  C      3.914790   -4.979150   -3.323900
  C      2.684430   -5.413960   -3.713990
  C      2.097960   -5.200680   -4.980130
  C      2.564840   -4.492850   -6.081600
  C      1.656930   -4.504740   -7.133680
  C      0.480610   -5.226870   -6.837610
  S      0.502560   -5.881640   -5.263230
  C     -0.366580   -5.182410   -7.967300
  C      0.263830   -4.433140   -8.979420
  C      1.556110   -3.984190   -8.487730
  C      2.481610   -3.239340   -9.159690
  C      3.712770   -2.874260   -8.577370
  N      4.714360   -2.581770   -8.101470
  C      2.260970   -2.796730  -10.480370
  N      2.069890   -2.442900  -11.554300
  C     -0.492710   -4.343850  -10.144610
  C     -1.697460   -5.021170  -10.040120
  S     -1.890510   -5.774590   -8.458790
  C     -2.713760   -5.174460  -11.027130
  C     -2.689910   -4.521380  -12.241660
  C     -3.647560   -4.672030  -13.238950
  C     -4.789140   -5.571450  -13.069000
  C     -5.026560   -6.295870  -11.952610
  S     -4.005130   -6.275870  -10.578520
  C     -5.523800   -5.484780  -14.281890
  C     -4.904070   -4.591560  -15.159550
  C     -5.599050   -4.510490  -16.386960
  C     -6.694060   -5.315180  -16.401550
  S     -6.936890   -6.202920  -14.939020
  C     -3.726860   -4.055550  -14.513960
  C     -2.813850   -3.104510  -14.995460
  C     -2.884990   -2.433640  -16.188490
  C     -1.923880   -1.482410  -16.552020
  C     -1.832530   -0.742530  -17.706230
  C     -0.969410    0.471800  -17.689180
  O     -0.183210    0.786440  -16.825040
  C     -1.326950    1.201670  -18.914230
  C     -1.012020    2.384310  -19.508060
  S     -1.895200    2.574400  -21.006730
  C     -2.672610    1.043110  -20.811200
  C     -2.277750    0.434270  -19.662830
  C     -2.517360   -0.824420  -18.972780
  C     -3.140020   -1.898120  -19.564520
  C     -3.748880   -1.784670  -20.830390
  N     -4.275270   -1.716640  -21.848780
  C     -3.178510   -3.215570  -19.076280
  N     -3.228980   -4.321110  -18.766160
  Cl     0.066290    3.575650  -18.967390
  H     -5.047140   -5.161930    0.575930
  H      0.350940   -5.712800    2.131510
  H      1.747980   -5.098390   -1.294300
  H      5.249440   -5.988880    2.303010
  H      7.170070   -4.661600   -3.461050
  H      9.180350   -4.894180   -1.815700
  H      4.565120   -4.512260   -4.052160
  H      2.081380   -5.991380   -3.031780
  H      3.518410   -3.998400   -6.100890
  H     -0.175580   -3.825200  -11.029840
  H     -1.863190   -3.850110  -12.420430
  H     -5.882220   -6.943900  -11.849220
  H     -5.311210   -3.924830  -17.238580
  H     -7.393220   -5.451040  -17.203210
  H     -1.967690   -2.883080  -14.356400
  H     -3.717430   -2.612530  -16.846180
  H     -1.185110   -1.217710  -15.801000
  H     -3.368150    0.712370  -21.556430

 Total Charge           Charge          ....    0
 Multiplicity           Mult            ....    1
 Number of Electrons    NEL             ....  586
 Basis Dimension        Dim             .... 1194

ORBITAL ENERGIES
----------------

  NO   OCC          E(Eh)            E(eV)
   0   2.0000    -101.626279     -2765.3916
   1   2.0000    -101.602440     -2764.7430
   2   2.0000     -89.001235     -2421.8467
   3   2.0000     -88.996841     -2421.7272
   4   2.0000     -88.995727     -2421.6969
   5   2.0000     -88.991171     -2421.5729
   6   2.0000     -88.982888     -2421.3475
   7   2.0000     -88.975843     -2421.1558
   8   2.0000     -88.972522     -2421.0654
   9   2.0000     -88.961517     -2420.7660
  10   2.0000     -19.230393      -523.2856
  11   2.0000     -19.197915      -522.4018
  12   2.0000     -14.436854      -392.8468
  13   2.0000     -14.436791      -392.8451
  14   2.0000     -14.420663      -392.4062
  15   2.0000     -14.417436      -392.3184
  16   2.0000     -14.404303      -391.9610
  17   2.0000     -14.403775      -391.9467
  18   2.0000     -10.386580      -282.6332
  19   2.0000     -10.380581      -282.4700
  20   2.0000     -10.371161      -282.2136
  21   2.0000     -10.359076      -281.8848
  22   2.0000     -10.358926      -281.8807
  23   2.0000     -10.354586      -281.7626
  24   2.0000     -10.350289      -281.6457
  25   2.0000     -10.348834      -281.6061
  26   2.0000     -10.344448      -281.4867
  27   2.0000     -10.343250      -281.4542
  28   2.0000     -10.342960      -281.4463
  29   2.0000     -10.342248      -281.4269
  30   2.0000     -10.339222      -281.3445
  31   2.0000     -10.337128      -281.2875
  32   2.0000     -10.337045      -281.2853
  33   2.0000     -10.334990      -281.2294
  34   2.0000     -10.332496      -281.1615
  35   2.0000     -10.331757      -281.1414
  36   2.0000     -10.331585      -281.1367
  37   2.0000     -10.330690      -281.1124
  38   2.0000     -10.327901      -281.0365
  39   2.0000     -10.326235      -280.9911
  40   2.0000     -10.323490      -280.9164
  41   2.0000     -10.320503      -280.8352
  42   2.0000     -10.314349      -280.6677
  43   2.0000     -10.314146      -280.6622
  44   2.0000     -10.313745      -280.6513
  45   2.0000     -10.313471      -280.6438
  46   2.0000     -10.312374      -280.6140
  47   2.0000     -10.312069      -280.6057
  48   2.0000     -10.311982      -280.6033
  49   2.0000     -10.311526      -280.5909
  50   2.0000     -10.310493      -280.5628
  51   2.0000     -10.309908      -280.5469
  52   2.0000     -10.309481      -280.5352
  53   2.0000     -10.309084      -280.5244
  54   2.0000     -10.308902      -280.5195
  55   2.0000     -10.308021      -280.4955
  56   2.0000     -10.307187      -280.4728
  57   2.0000     -10.305383      -280.4237
  58   2.0000     -10.303884      -280.3829
  59   2.0000     -10.303780      -280.3801
  60   2.0000     -10.301105      -280.3073
  61   2.0000     -10.300637      -280.2946
  62   2.0000     -10.299718      -280.2696
  63   2.0000     -10.299302      -280.2583
  64   2.0000     -10.298411      -280.2340
  65   2.0000     -10.295582      -280.1570
  66   2.0000     -10.295543      -280.1560
  67   2.0000     -10.294552      -280.1290
  68   2.0000     -10.290914      -280.0300
  69   2.0000     -10.290358      -280.0149
  70   2.0000     -10.287951      -279.9494
  71   2.0000     -10.283152      -279.8188
  72   2.0000     -10.282445      -279.7996
  73   2.0000     -10.279517      -279.7199
  74   2.0000     -10.276397      -279.6350
  75   2.0000     -10.274827      -279.5923
  76   2.0000      -9.580962      -260.7112
  77   2.0000      -9.557224      -260.0653
  78   2.0000      -8.095850      -220.2993
  79   2.0000      -8.092329      -220.2035
  80   2.0000      -8.091593      -220.1834
  81   2.0000      -8.085655      -220.0218
  82   2.0000      -8.078359      -219.8233
  83   2.0000      -8.071672      -219.6414
  84   2.0000      -8.068067      -219.5433
  85   2.0000      -8.057113      -219.2452
  86   2.0000      -7.351533      -200.0454
  87   2.0000      -7.341021      -199.7593
  88   2.0000      -7.340522      -199.7457
  89   2.0000      -7.327844      -199.4008
  90   2.0000      -7.317258      -199.1127
  91   2.0000      -7.316762      -199.0992
  92   2.0000      -6.065181      -165.0420
  93   2.0000      -6.061885      -164.9523
  94   2.0000      -6.061062      -164.9299
  95   2.0000      -6.060930      -164.9263
  96   2.0000      -6.058127      -164.8500
  97   2.0000      -6.057257      -164.8264
  98   2.0000      -6.056402      -164.8031
  99   2.0000      -6.054806      -164.7596
 100   2.0000      -6.054307      -164.7461
 101   2.0000      -6.053677      -164.7289
 102   2.0000      -6.050533      -164.6434
 103   2.0000      -6.048228      -164.5807
 104   2.0000      -6.047869      -164.5709
 105   2.0000      -6.043407      -164.4495
 106   2.0000      -6.041097      -164.3866
 107   2.0000      -6.040179      -164.3616
 108   2.0000      -6.037550      -164.2901
 109   2.0000      -6.036544      -164.2627
 110   2.0000      -6.033780      -164.1875
 111   2.0000      -6.033208      -164.1719
 112   2.0000      -6.030035      -164.0856
 113   2.0000      -6.026528      -163.9902
 114   2.0000      -6.022266      -163.8742
 115   2.0000      -6.019160      -163.7897
 116   2.0000      -1.145390       -31.1677
 117   2.0000      -1.114617       -30.3303
 118   2.0000      -1.052173       -28.6311
 119   2.0000      -1.041906       -28.3517
 120   2.0000      -1.029096       -28.0031
 121   2.0000      -1.022490       -27.8234
 122   2.0000      -1.020878       -27.7795
 123   2.0000      -1.020669       -27.7738
 124   2.0000      -1.018064       -27.7029
 125   2.0000      -1.014458       -27.6048
 126   2.0000      -1.006567       -27.3901
 127   2.0000      -1.001620       -27.2555
 128   2.0000      -0.997980       -27.1564
 129   2.0000      -0.993214       -27.0267
 130   2.0000      -0.985172       -26.8079
 131   2.0000      -0.984137       -26.7797
 132   2.0000      -0.983113       -26.7519
 133   2.0000      -0.970944       -26.4207
 134   2.0000      -0.964532       -26.2462
 135   2.0000      -0.958348       -26.0780
 136   2.0000      -0.944753       -25.7080
 137   2.0000      -0.941826       -25.6284
 138   2.0000      -0.936615       -25.4866
 139   2.0000      -0.927238       -25.2314
 140   2.0000      -0.918002       -24.9801
 141   2.0000      -0.908878       -24.7318
 142   2.0000      -0.905651       -24.6440
 143   2.0000      -0.901573       -24.5331
 144   2.0000      -0.889924       -24.2161
 145   2.0000      -0.887196       -24.1418
 146   2.0000      -0.873146       -23.7595
 147   2.0000      -0.868019       -23.6200
 148   2.0000      -0.864070       -23.5126
 149   2.0000      -0.858796       -23.3690
 150   2.0000      -0.857126       -23.3236
 151   2.0000      -0.837170       -22.7806
 152   2.0000      -0.835994       -22.7486
 153   2.0000      -0.827523       -22.5180
 154   2.0000      -0.826651       -22.4943
 155   2.0000      -0.815843       -22.2002
 156   2.0000      -0.812306       -22.1040
 157   2.0000      -0.800632       -21.7863
 158   2.0000      -0.788812       -21.4647
 159   2.0000      -0.783912       -21.3313
 160   2.0000      -0.775120       -21.0921
 161   2.0000      -0.761715       -20.7273
 162   2.0000      -0.758854       -20.6495
 163   2.0000      -0.749910       -20.4061
 164   2.0000      -0.740095       -20.1390
 165   2.0000      -0.733959       -19.9720
 166   2.0000      -0.729590       -19.8532
 167   2.0000      -0.717348       -19.5200
 168   2.0000      -0.707327       -19.2473
 169   2.0000      -0.695686       -18.9306
 170   2.0000      -0.688314       -18.7300
 171   2.0000      -0.681945       -18.5567
 172   2.0000      -0.680053       -18.5052
 173   2.0000      -0.677962       -18.4483
 174   2.0000      -0.674339       -18.3497
 175   2.0000      -0.672969       -18.3124
 176   2.0000      -0.668014       -18.1776
 177   2.0000      -0.661619       -18.0036
 178   2.0000      -0.658754       -17.9256
 179   2.0000      -0.657660       -17.8958
 180   2.0000      -0.640399       -17.4261
 181   2.0000      -0.639268       -17.3954
 182   2.0000      -0.632346       -17.2070
 183   2.0000      -0.628276       -17.0963
 184   2.0000      -0.626539       -17.0490
 185   2.0000      -0.621297       -16.9064
 186   2.0000      -0.616317       -16.7708
 187   2.0000      -0.613753       -16.7011
 188   2.0000      -0.606146       -16.4941
 189   2.0000      -0.601802       -16.3759
 190   2.0000      -0.596123       -16.2213
 191   2.0000      -0.590546       -16.0696
 192   2.0000      -0.587540       -15.9878
 193   2.0000      -0.584678       -15.9099
 194   2.0000      -0.579958       -15.7815
 195   2.0000      -0.576315       -15.6823
 196   2.0000      -0.572117       -15.5681
 197   2.0000      -0.569642       -15.5008
 198   2.0000      -0.555300       -15.1105
 199   2.0000      -0.554450       -15.0873
 200   2.0000      -0.553026       -15.0486
 201   2.0000      -0.547208       -14.8903
 202   2.0000      -0.545909       -14.8549
 203   2.0000      -0.543607       -14.7923
 204   2.0000      -0.535628       -14.5752
 205   2.0000      -0.531455       -14.4616
 206   2.0000      -0.529860       -14.4182
 207   2.0000      -0.529471       -14.4076
 208   2.0000      -0.527644       -14.3579
 209   2.0000      -0.526719       -14.3328
 210   2.0000      -0.524095       -14.2613
 211   2.0000      -0.522372       -14.2145
 212   2.0000      -0.519402       -14.1337
 213   2.0000      -0.516427       -14.0527
 214   2.0000      -0.513293       -13.9674
 215   2.0000      -0.511739       -13.9251
 216   2.0000      -0.511368       -13.9150
 217   2.0000      -0.509603       -13.8670
 218   2.0000      -0.507015       -13.7966
 219   2.0000      -0.505647       -13.7594
 220   2.0000      -0.502977       -13.6867
 221   2.0000      -0.502471       -13.6729
 222   2.0000      -0.498208       -13.5569
 223   2.0000      -0.495946       -13.4954
 224   2.0000      -0.494854       -13.4657
 225   2.0000      -0.489238       -13.3128
 226   2.0000      -0.484689       -13.1891
 227   2.0000      -0.480871       -13.0852
 228   2.0000      -0.478916       -13.0320
 229   2.0000      -0.477922       -13.0049
 230   2.0000      -0.474814       -12.9204
 231   2.0000      -0.471931       -12.8419
 232   2.0000      -0.470560       -12.8046
 233   2.0000      -0.467885       -12.7318
 234   2.0000      -0.467158       -12.7120
 235   2.0000      -0.464380       -12.6364
 236   2.0000      -0.463794       -12.6205
 237   2.0000      -0.461170       -12.5491
 238   2.0000      -0.457188       -12.4407
 239   2.0000      -0.456111       -12.4114
 240   2.0000      -0.452285       -12.3073
 241   2.0000      -0.451067       -12.2742
 242   2.0000      -0.448131       -12.1943
 243   2.0000      -0.447287       -12.1713
 244   2.0000      -0.447069       -12.1654
 245   2.0000      -0.447007       -12.1637
 246   2.0000      -0.445518       -12.1232
 247   2.0000      -0.443668       -12.0728
 248   2.0000      -0.442535       -12.0420
 249   2.0000      -0.441603       -12.0166
 250   2.0000      -0.439984       -11.9726
 251   2.0000      -0.437136       -11.8951
 252   2.0000      -0.436389       -11.8747
 253   2.0000      -0.435842       -11.8599
 254   2.0000      -0.433849       -11.8056
 255   2.0000      -0.433049       -11.7839
 256   2.0000      -0.431392       -11.7388
 257   2.0000      -0.430893       -11.7252
 258   2.0000      -0.430507       -11.7147
 259   2.0000      -0.427716       -11.6387
 260   2.0000      -0.427319       -11.6279
 261   2.0000      -0.422577       -11.4989
 262   2.0000      -0.422052       -11.4846
 263   2.0000      -0.419606       -11.4181
 264   2.0000      -0.418925       -11.3995
 265   2.0000      -0.413812       -11.2604
 266   2.0000      -0.413610       -11.2549
 267   2.0000      -0.409647       -11.1471
 268   2.0000      -0.407476       -11.0880
 269   2.0000      -0.405018       -11.0211
 270   2.0000      -0.402099       -10.9417
 271   2.0000      -0.397123       -10.8063
 272   2.0000      -0.390414       -10.6237
 273   2.0000      -0.388544       -10.5728
 274   2.0000      -0.378228       -10.2921
 275   2.0000      -0.361248        -9.8301
 276   2.0000      -0.356952        -9.7131
 277   2.0000      -0.353220        -9.6116
 278   2.0000      -0.348040        -9.4706
 279   2.0000      -0.345625        -9.4049
 280   2.0000      -0.339668        -9.2428
 281   2.0000      -0.337675        -9.1886
 282   2.0000      -0.327922        -8.9232
 283   2.0000      -0.325057        -8.8453
 284   2.0000      -0.321427        -8.7465
 285   2.0000      -0.313759        -8.5378
 286   2.0000      -0.310603        -8.4519
 287   2.0000      -0.302777        -8.2390
 288   2.0000      -0.294230        -8.0064
 289   2.0000      -0.289755        -7.8846
 290   2.0000      -0.277213        -7.5434
 291   2.0000      -0.247532        -6.7357
 292   2.0000      -0.231344        -6.2952
 293   0.0000      -0.119446        -3.2503
 294   0.0000      -0.105130        -2.8607
 295   0.0000      -0.093094        -2.5332
 296   0.0000      -0.063814        -1.7365
 297   0.0000      -0.056648        -1.5415

MULLIKEN ATOMIC CHARGES
-----------------------
   0 C :    0.028182
   1 C :   -0.129890
   2 S :    0.179200
   3 C :   -0.174426
   4 Cl:   -0.018925
   5 C :    0.094787
   6 C :    0.161107
   7 O :   -0.183175
   8 C :   -0.101078
   9 C :    0.294793
  10 C :   -0.347211
  11 C :   -0.195708
  12 N :    0.148312
  13 C :   -0.186410
  14 N :    0.154835
  15 C :    0.041368
  16 C :   -0.125093
  17 C :   -0.005581
  18 C :    0.019662
  19 C :    0.057000
  20 C :   -0.117201
  21 S :    0.149062
  22 C :   -0.091805
  23 C :    0.039897
  24 C :    0.021009
  25 C :   -0.068180
  26 S :    0.142542
  27 C :    0.105660
  28 C :   -0.039289
  29 C :    0.055531
  30 C :   -0.094505
  31 C :   -0.028052
  32 C :    0.005868
  33 C :   -0.111078
  34 S :    0.226689
  35 C :   -0.096087
  36 C :    0.009381
  37 C :    0.306188
  38 C :   -0.297521
  39 C :   -0.181805
  40 N :    0.170736
  41 C :   -0.182066
  42 N :    0.171218
  43 C :   -0.039794
  44 C :   -0.068805
  45 S :    0.180798
  46 C :   -0.016815
  47 C :   -0.068624
  48 C :    0.079965
  49 C :    0.063822
  50 C :   -0.122112
  51 S :    0.136963
  52 C :   -0.118271
  53 C :    0.060775
  54 C :    0.023931
  55 C :   -0.064524
  56 S :    0.131810
  57 C :    0.100515
  58 C :   -0.021086
  59 C :    0.023122
  60 C :    0.015388
  61 C :   -0.136758
  62 C :    0.134623
  63 O :   -0.141752
  64 C :    0.093811
  65 C :   -0.178356
  66 S :    0.168441
  67 C :   -0.136680
  68 C :    0.014458
  69 C :    0.304376
  70 C :   -0.351300
  71 C :   -0.189938
  72 N :    0.138639
  73 C :   -0.208232
  74 N :    0.158506
  75 Cl:   -0.011985
  76 H :    0.055950
  77 H :    0.010495
  78 H :    0.007835
  79 H :    0.043075
  80 H :   -0.006329
  81 H :    0.035367
  82 H :   -0.011900
  83 H :    0.005653
  84 H :    0.005486
  85 H :    0.010972
  86 H :   -0.013369
  87 H :    0.043113
  88 H :   -0.007985
  89 H :    0.032127
  90 H :   -0.016261
  91 H :   -0.021438
  92 H :    0.014749
  93 H :    0.049607
Sum of atomic charges:   -0.0000000

LOEWDIN ATOMIC CHARGES
----------------------
   0 C :   -0.057693
   1 C :   -0.146864
   2 S :    0.468007
   3 C :   -0.275510
   4 Cl:    0.177464
   5 C :   -0.113077
   6 C :    0.087620
   7 O :   -0.165424
   8 C :   -0.106982
   9 C :    0.074863
  10 C :   -0.147778
  11 C :   -0.014720
  12 N :   -0.058862
  13 C :   -0.028274
  14 N :   -0.050565
  15 C :    0.042541
  16 C :   -0.190770
  17 C :    0.035235
  18 C :   -0.035484
  19 C :   -0.060352
  20 C :   -0.129321
  21 S :    0.462380
  22 C :   -0.180553
  23 C :   -0.045506
  24 C :   -0.056896
  25 C :   -0.156116
  26 S :    0.432216
  27 C :   -0.006743
  28 C :   -0.020172
  29 C :   -0.025706
  30 C :   -0.157742
  31 C :   -0.024167
  32 C :   -0.064676
  33 C :   -0.193327
  34 S :    0.507156
  35 C :   -0.172463
  36 C :   -0.070254
  37 C :    0.082145
  38 C :   -0.101271
  39 C :   -0.015048
  40 N :   -0.032768
  41 C :   -0.016055
  42 N :   -0.030944
  43 C :   -0.019132
  44 C :   -0.189934
  45 S :    0.463484
  46 C :   -0.170063
  47 C :   -0.021031
  48 C :    0.010445
  49 C :   -0.043552
  50 C :   -0.140923
  51 S :    0.457746
  52 C :   -0.204466
  53 C :   -0.027948
  54 C :   -0.052049
  55 C :   -0.156990
  56 S :    0.427418
  57 C :   -0.057391
  58 C :    0.042719
  59 C :   -0.048314
  60 C :    0.069591
  61 C :   -0.112442
  62 C :    0.076398
  63 O :   -0.147534
  64 C :   -0.115274
  65 C :   -0.275652
  66 S :    0.457229
  67 C :   -0.155688
  68 C :   -0.056130
  69 C :    0.072309
  70 C :   -0.156524
  71 C :   -0.016513
  72 N :   -0.066745
  73 C :   -0.024170
  74 N :   -0.059444
  75 Cl:    0.182256
  76 H :    0.037892
  77 H :    0.040987
  78 H :    0.038918
  79 H :    0.039760
  80 H :    0.034839
  81 H :    0.027152
  82 H :    0.031848
  83 H :    0.032171
  84 H :    0.039053
  85 H :    0.040324
  86 H :    0.040023
  87 H :    0.039743
  88 H :    0.031978
  89 H :    0.027139
  90 H :    0.032560
  91 H :    0.027791
  92 H :    0.043227
  93 H :    0.035366

  Mayer bond orders larger than 0.100000
B(  0-C ,  1-C ) :   1.5593 B(  0-C ,  5-C ) :   1.2207 B(  0-C ,  9-C ) :   0.9818
B(  1-C ,  2-S ) :   1.1526 B(  1-C , 76-H ) :   0.9528 B(  2-S ,  3-C ) :   1.1425
B(  3-C ,  4-Cl) :   1.1096 B(  3-C ,  5-C ) :   1.4793 B(  5-C ,  6-C ) :   0.9687
B(  6-C ,  7-O ) :   2.0952 B(  6-C ,  8-C ) :   0.9702 B(  8-C ,  9-C ) :   1.1151
B(  8-C , 15-C ) :   1.5223 B(  9-C , 10-C ) :   1.6147 B( 10-C , 11-C ) :   1.1597
B( 10-C , 13-C ) :   1.1354 B( 11-C , 12-N ) :   2.9832 B( 13-C , 14-N ) :   2.9671
B( 15-C , 16-C ) :   1.2777 B( 15-C , 77-H ) :   0.9089 B( 16-C , 17-C ) :   1.4136
B( 16-C , 21-S ) :   1.0352 B( 17-C , 18-C ) :   1.3360 B( 17-C , 78-H ) :   0.9411
B( 18-C , 19-C ) :   1.0371 B( 18-C , 27-C ) :   1.2958 B( 19-C , 20-C ) :   1.5811
B( 19-C , 22-C ) :   1.2030 B( 20-C , 21-S ) :   1.1677 B( 20-C , 79-H ) :   0.9435
B( 22-C , 23-C ) :   1.3972 B( 22-C , 26-S ) :   1.0922 B( 23-C , 24-C ) :   1.2074
B( 23-C , 27-C ) :   1.1456 B( 24-C , 25-C ) :   1.6045 B( 24-C , 80-H ) :   0.9985
B( 25-C , 26-S ) :   1.1393 B( 25-C , 81-H ) :   0.9665 B( 27-C , 28-C ) :   1.1866
B( 28-C , 29-C ) :   1.6212 B( 28-C , 82-H ) :   0.9602 B( 29-C , 30-C ) :   1.1534
B( 29-C , 83-H ) :   0.9497 B( 30-C , 31-C ) :   1.4209 B( 30-C , 34-S ) :   1.1240
B( 31-C , 32-C ) :   1.3243 B( 31-C , 84-H ) :   0.9894 B( 32-C , 33-C ) :   1.4084
B( 32-C , 37-C ) :   0.9998 B( 33-C , 34-S ) :   1.1290 B( 33-C , 35-C ) :   1.2085
B( 35-C , 36-C ) :   1.4264 B( 35-C , 45-S ) :   1.1264 B( 36-C , 37-C ) :   1.0017
B( 36-C , 43-C ) :   1.3067 B( 37-C , 38-C ) :   1.7082 B( 38-C , 39-C ) :   1.1347
B( 38-C , 41-C ) :   1.1353 B( 39-C , 40-N ) :   2.9873 B( 41-C , 42-N ) :   2.9805
B( 43-C , 44-C ) :   1.4794 B( 43-C , 85-H ) :   0.9836 B( 44-C , 45-S ) :   1.0913
B( 44-C , 46-C ) :   1.1220 B( 46-C , 47-C ) :   1.5267 B( 46-C , 51-S ) :   1.0628
B( 47-C , 48-C ) :   1.2712 B( 47-C , 86-H ) :   0.9674 B( 48-C , 49-C ) :   1.0603
B( 48-C , 57-C ) :   1.3156 B( 49-C , 50-C ) :   1.5960 B( 49-C , 52-C ) :   1.1780
B( 50-C , 51-S ) :   1.1441 B( 50-C , 87-H ) :   0.9397 B( 52-C , 53-C ) :   1.4513
B( 52-C , 56-S ) :   1.0835 B( 53-C , 54-C ) :   1.2261 B( 53-C , 57-C ) :   1.0681
B( 54-C , 55-C ) :   1.5877 B( 54-C , 88-H ) :   0.9934 B( 55-C , 56-S ) :   1.1526
B( 55-C , 89-H ) :   0.9632 B( 57-C , 58-C ) :   1.2008 B( 58-C , 59-C ) :   1.5224
B( 58-C , 90-H ) :   0.9715 B( 59-C , 60-C ) :   1.2129 B( 59-C , 91-H ) :   0.9685
B( 60-C , 61-C ) :   1.5097 B( 60-C , 92-H ) :   0.9532 B( 61-C , 62-C ) :   0.9573
B( 61-C , 69-C ) :   1.0842 B( 62-C , 63-O ) :   2.2561 B( 62-C , 64-C ) :   0.9248
B( 64-C , 65-C ) :   1.4946 B( 64-C , 68-C ) :   1.2227 B( 65-C , 66-S ) :   1.1405
B( 65-C , 75-Cl) :   1.1180 B( 66-S , 67-C ) :   1.1508 B( 67-C , 68-C ) :   1.5574
B( 67-C , 93-H ) :   0.9541 B( 68-C , 69-C ) :   0.9997 B( 69-C , 70-C ) :   1.6031
B( 70-C , 71-C ) :   1.1380 B( 70-C , 73-C ) :   1.1743 B( 71-C , 72-N ) :   2.9895
B( 73-C , 74-N ) :   2.9687

-----------------------------------------------------------------------------
         ABSORPTION SPECTRUM VIA TRANSITION ELECTRIC DIPOLE MOMENTS
-----------------------------------------------------------------------------
State   Energy  Wavelength   fosc         T2         TX        TY        TZ
        (cm-1)    (nm)                  (au**2)     (au)      (au)      (au)
-----------------------------------------------------------------------------
   0    9478.7   1055.0   0.529475465  18.38965   0.63337  -0.67244   4.18764
   1   12840.9    778.8   0.450654638  11.55379   1.69468   0.35596  -2.92492
   2   14955.8    668.6   0.616198193  13.56393  -1.21144   1.50431  -3.13583
   3   16122.4    620.3   0.375633689   7.67026  -0.73412   1.04890  -2.45583
   4   19844.7    503.9   0.283198154   4.69808  -2.15724  -0.08423  -0.19311
   5   20562.1    486.3   0.039414036   0.63104  -0.50529   0.10394  -0.60409
   6   21524.3    464.6   0.231084675   3.53441  -1.65192  -0.73947  -0.50867
   7   22294.0    448.6   0.022294497   0.32922  -0.04235   0.56235   0.10576
   8   22529.3    443.9   0.353428129   5.16451  -1.82994  -0.75037   1.11928
   9   22827.5    438.1   0.010375002   0.14963   0.08672   0.17106  -0.33592
  10   22979.7    435.2   0.311287510   4.45957  -1.81591   0.28997  -1.03824
  11   24369.1    410.4   0.026895114   0.36334  -0.35521  -0.28828   0.39250
  12   25219.3    396.5   0.111261145   1.45240   0.81930  -0.14025   0.87263
  13   25920.1    385.8   0.249975491   3.17495   1.10134  -0.22865   1.38193
  14   26588.3    376.1   0.070929451   0.87824   0.50757  -0.38650   0.68646
  15   26773.9    373.5   0.064697539   0.79552  -0.67963   0.34202  -0.46545
  16   27476.5    363.9   0.029319120   0.35129  -0.30696  -0.13862  -0.48770
  17   27652.9    361.6   0.363652381   4.32933  -1.14090  -0.01285  -1.73997
  18   28208.2    354.5   0.038141344   0.44514   0.61656   0.11004   0.22998
  19   28381.0    352.3   0.145702852   1.69011   1.18487   0.23693   0.47964
  20   28778.3    347.5   0.003330907   0.03810  -0.15937  -0.10610   0.03808
  21   28985.8    345.0   0.055242181   0.62742  -0.27303  -0.72168   0.17903
  22   29852.9    335.0   0.019913957   0.21961   0.11828   0.45036   0.05283
  23   30133.8    331.9   0.232686492   2.54210  -0.51204  -1.05118   1.08394
  24   30282.1    330.2   0.118075885   1.28366   0.71983   0.56177  -0.67076
  25   30595.9    326.8   0.060327635   0.64912   0.56637   0.39848   0.41178
  26   30700.8    325.7   0.362028423   3.88212   1.48236   1.13463  -0.63035
  27   31002.8    322.6   0.111694436   1.18606  -0.25178  -0.10692  -1.05415
  28   31141.8    321.1   0.010858750   0.11479   0.05628   0.30407  -0.13844
  29   31701.7    315.4   0.120829803   1.25478   0.51484   0.28690  -0.95258
  30   31785.0    314.6   0.006287748   0.06513  -0.08449   0.09554  -0.22104
  31   32343.4    309.2   0.024293651   0.24728  -0.47827   0.03338  -0.13199
  32   32628.7    306.5   0.012209340   0.12319   0.22287  -0.13622  -0.23444
  33   32760.4    305.2   0.240511524   2.41692  -1.15851  -0.98095   0.33543
  34   32857.2    304.3   0.117213843   1.17442   0.29616  -0.73843   0.73582
  35   33079.3    302.3   0.187207000   1.86312  -0.54288  -0.14488  -1.24395
  36   33567.8    297.9   0.153660944   1.50701   1.21631   0.05887  -0.15538
  37   33917.5    294.8   0.050654006   0.49166   0.44977  -0.05075   0.53553
  38   34206.4    292.3   0.069603226   0.66988  -0.76751  -0.26852  -0.09331
  39   34271.9    291.8   0.114182263   1.09682   0.71258   0.67948  -0.35687
  40   34532.4    289.6   0.222052852   2.11693   0.69076  -0.28693   1.24798
  41   34601.6    289.0   0.016885865   0.16066  -0.26212  -0.30307  -0.00993
  42   34695.1    288.2   0.122338921   1.16084  -0.77768  -0.67403  -0.31897
  43   35081.3    285.1   0.008043291   0.07548   0.12553  -0.23542  -0.06560
  44   35435.0    282.2   0.167607472   1.55717  -1.08803  -0.36476  -0.49022
  45   35588.7    281.0   0.003266571   0.03022  -0.14987   0.00032  -0.08807
  46   35664.0    280.4   0.052066539   0.48062  -0.56833  -0.25483   0.30444
  47   35738.7    279.8   0.163109498   1.50251  -0.00062  -0.65479   1.03622
  48   35982.6    277.9   0.004442286   0.04064  -0.06624   0.06776   0.17794
  49   36024.3    277.6   0.107142047   0.97913   0.82716  -0.26589   0.47353
  50   36107.2    277.0   0.146243420   1.33339  -0.85105   0.19123  -0.75666
  51   36373.9    274.9   0.011958741   0.10824   0.10636  -0.17367   0.25838
  52   36585.8    273.3   0.003770536   0.03393   0.11072  -0.10493  -0.10324
  53   36767.5    272.0   0.337125590   3.01858   0.51279  -0.25359   1.64052
  54   37126.2    269.4   0.111771154   0.99112  -0.59228  -0.79313  -0.10614
  55   37254.0    268.4   0.060736137   0.53672  -0.53313  -0.40901   0.29191
  56   37323.8    267.9   0.185748031   1.63838   0.66143   0.18358   1.08036
  57   37538.6    266.4   0.043808776   0.38420   0.41162   0.44370   0.13380
  58   37659.1    265.5   0.584315206   5.10802   1.12486   1.94785  -0.22042
  59   37820.2    264.4   0.003266515   0.02843  -0.11548  -0.05825  -0.10819
  60   37978.0    263.3   0.017385152   0.15070  -0.26310  -0.26661   0.10198
  61   38209.6    261.7   0.014436797   0.12439   0.30994   0.12205  -0.11589
  62   38620.1    258.9   0.055009390   0.46892   0.47764   0.30452   0.38477
  63   38708.7    258.3   0.165068057   1.40388   0.17676   0.27021   1.14001
  64   39036.8    256.2   0.003853733   0.03250  -0.06047  -0.10625  -0.13249
  65   39304.2    254.4   0.045044518   0.37729   0.59508  -0.14289   0.05253
  66   39375.4    254.0   0.043165826   0.36090  -0.08390   0.53999  -0.24954
  67   39538.0    252.9   0.011363406   0.09462   0.11951   0.01441  -0.28307
  68   40108.8    249.3   0.107393231   0.88148  -0.50439  -0.11721   0.78316
  69   40135.7    249.2   0.053758375   0.44095   0.62624   0.21679  -0.04213
  70   40271.2    248.3   0.120132293   0.98207  -0.59513  -0.18639   0.77016
  71   40317.4    248.0   0.093528133   0.76370   0.56744   0.02873  -0.66400

FINAL SINGLE POINT ENERGY     -6800.972214718799

DIPOLE MOMENT
-------------
                                X             Y             Z
Electronic contribution:    -11.08879      11.23199      -4.22625
Nuclear contribution   :     11.56041     -12.87461       6.84741
                        -----------------------------------------
Total Dipole Moment    :      0.47162      -1.64262       2.62115
                        -----------------------------------------
Magnitude (a.u.)       :      3.12907
Magnitude (Debye)      :      7.95347

Rotational constants in cm-1:     0.001086     0.000213     0.000189
Rotational constants in MHz :    32.560813     6.372011     5.665957

                             ****ORCA TERMINATED NORMALLY****
TOTAL RUN TIME: 0 days 0 hours 13 minutes 55 seconds 857 msec
