                         Program Version 4.2.0 -  RELEASE  -
|  1> # ORCA input file
|  2> # SCF done       -208.699077132089          0.000894590062
|  3> ! CAM-B3LYP def2-SVP def2/J RIJCOSX Grid4 TightSCF
|  4> %maxcore 5000
|  5> %tddft
|  6>     Mode sTDDFT
|  7>     Ethresh 5.0
|  8>     maxcore 5000
|  9> end
| 10>
| 11> %pal
| 12>   nprocs 6
| 13>   end
| 14> * xyz 0 1
| 15>    C       -3.53251         3.36031         1.10437
| 16>    C       -2.80313         4.00707         0.11759
| 17>    C       -2.69531         3.47552        -1.15980
| 18>    C       -3.32500         2.28539        -1.49230
| 19>    C       -4.05997         1.63403        -0.51611
| 20>    C       -4.15903         2.16464         0.78987
| 21>    C       -4.95387         1.25735         1.60734
| 22>    C       -5.38627         1.49917         2.88390
| 23>    C       -5.11901         2.68827         3.59596
| 24>    N       -4.94200         3.62653         4.23274
| 25>    C       -6.19164         0.63552         3.65575
| 26>    N       -6.84656        -0.01411         4.33982
| 27>    C       -5.19127         0.06398         0.80089
| 28>    C       -4.83590         0.40488        -0.57246
| 29>    C       -5.35833        -0.14128        -1.71415
| 30>    C       -6.31683        -1.17425        -1.73687
| 31>    N       -7.12343        -1.98786        -1.81278
| 32>    C       -5.07684         0.33339        -3.01335
| 33>    N       -4.89212         0.67473        -4.09284
| 34>    C       -5.57261        -1.14401         1.31967
| 35>    C       -5.44551        -2.41811         0.73117
| 36>    C       -4.62096        -2.84051        -0.30478
| 37>    C       -4.76665        -4.19159        -0.57580
| 38>    C       -5.70547        -4.82639         0.26888
| 39>    S       -6.38390        -3.75345         1.40031
| 40>    C       -5.79713        -6.18393        -0.11219
| 41>    C       -4.93116        -6.41063        -1.19876
| 42>    C       -4.25510        -5.16373        -1.52410
| 43>    C       -3.35139        -4.93857        -2.52047
| 44>    C       -2.92243        -5.96099        -3.39256
| 45>    N       -2.56655        -6.79440        -4.09463
| 46>    C       -2.79164        -3.65961        -2.72552
| 47>    N       -2.34471        -2.61391        -2.87275
| 48>    C       -4.96335        -7.72374        -1.65756
| 49>    C       -5.84106        -8.50810        -0.92505
| 50>    S       -6.64127        -7.59873         0.34754
| 51>    C       -6.12141        -9.88205        -1.10897
| 52>    C       -6.93338       -10.69527        -0.33041
| 53>    C       -6.97659       -11.99796        -0.80117
| 54>    C       -6.20240       -12.18341        -1.94997
| 55>    S       -5.40439       -10.75211        -2.45275
| 56>    C       -6.30635       -13.52874        -2.36270
| 57>    C       -7.13960       -14.21487        -1.47476
| 58>    C       -7.64521       -13.28977        -0.39245
| 59>    C       -9.17089       -13.16646        -0.43382
| 60>    C       -7.17548       -13.74386         0.99258
| 61>    C       -7.29233       -15.55148        -1.80732
| 62>    C       -6.58617       -15.89174        -2.95289
| 63>    S       -5.71275       -14.52647        -3.62382
| 64>    C       -6.51604       -17.15582        -3.58319
| 65>    C       -5.87524       -17.46781        -4.77238
| 66>    C       -6.01038       -18.81341        -5.09931
| 67>    C       -6.75462       -19.54030        -4.15071
| 68>    S       -7.29464       -18.55545        -2.86086
| 69>    C       -6.83557       -20.88747        -4.56909
| 70>    C       -6.14267       -21.01299        -5.79473
| 71>    C       -5.61075       -19.71554        -6.16887
| 72>    C       -4.91470       -19.41145        -7.30168
| 73>    C       -4.62673       -20.39591        -8.27074
| 74>    N       -4.40324       -21.21043        -9.04644
| 75>    C       -4.44597       -18.10843        -7.57086
| 76>    N       -4.06049       -17.04996        -7.78327
| 77>    C       -6.18064       -22.29939        -6.30815
| 78>    C       -6.89533       -23.17088        -5.49473
| 79>    S       -7.49946       -22.36409        -4.04860
| 80>    C       -7.11547       -24.55462        -5.64899
| 81>    C       -7.03580       -25.28156        -6.80666
| 82>    C       -6.81884       -26.72337        -6.85808
| 83>    C       -6.96412       -27.62444        -5.83680
| 84>    C       -7.39933       -27.32231        -4.52948
| 85>    N       -7.74807       -27.15217        -3.44851
| 86>    C       -6.72820       -29.01006        -5.96559
| 87>    N       -6.55686       -30.14435        -5.99657
| 88>    C       -6.39489       -27.03622        -8.21678
| 89>    C       -6.49898       -25.87009        -9.00823
| 90>    C       -6.12434       -25.88183       -10.34134
| 91>    C       -5.65269       -27.06773       -10.88393
| 92>    C       -5.56310       -28.21845       -10.11343
| 93>    C       -5.93028       -28.21646        -8.77581
| 94>    C       -7.04395       -24.80268        -8.18462
| 95>    C       -7.69457       -23.69655        -8.66280
| 96>    C       -7.78433       -23.36598       -10.03196
| 97>    N       -7.89785       -23.04334       -11.12696
| 98>    C       -8.44167       -22.80229        -7.86998
| 99>    N       -9.09693       -22.06360        -7.28391
|100>    H       -3.59686         3.78419         2.09289
|101>    H       -2.30706         4.93625         0.35284
|102>    H       -2.11188         3.99205        -1.90636
|103>    H       -3.22561         1.87442        -2.48380
|104>    H       -5.96463        -1.15041         2.32800
|105>    H       -3.92143        -2.19221        -0.80042
|106>    H       -4.38521        -8.11096        -2.47730
|107>    H       -7.45282       -10.32653         0.53604
|108>    H       -9.49845       -12.84416        -1.41947
|109>    H       -9.50587       -12.43857         0.30059
|110>    H       -9.62860       -14.12671        -0.21062
|111>    H       -6.09146       -13.82889         1.01600
|112>    H       -7.60684       -14.71204         1.23331
|113>    H       -7.48557       -13.02421         1.74581
|114>    H       -7.88580       -16.26622        -1.26563
|115>    H       -5.34682       -16.73550        -5.35603
|116>    H       -5.68080       -22.61321        -7.20670
|117>    H       -7.30301       -25.09213        -4.72924
|118>    H       -6.17898       -24.99024       -10.94454
|119>    H       -5.34972       -27.09235       -11.91937
|120>    H       -5.19616       -29.13110       -10.55752
|121>    H       -5.84519       -29.11822        -8.19232
|122> *
|123>
|124>                          ****END OF INPUT****

CARTESIAN COORDINATES (ANGSTROEM)
---------------------------------
  C     -3.532510    3.360310    1.104370
  C     -2.803130    4.007070    0.117590
  C     -2.695310    3.475520   -1.159800
  C     -3.325000    2.285390   -1.492300
  C     -4.059970    1.634030   -0.516110
  C     -4.159030    2.164640    0.789870
  C     -4.953870    1.257350    1.607340
  C     -5.386270    1.499170    2.883900
  C     -5.119010    2.688270    3.595960
  N     -4.942000    3.626530    4.232740
  C     -6.191640    0.635520    3.655750
  N     -6.846560   -0.014110    4.339820
  C     -5.191270    0.063980    0.800890
  C     -4.835900    0.404880   -0.572460
  C     -5.358330   -0.141280   -1.714150
  C     -6.316830   -1.174250   -1.736870
  N     -7.123430   -1.987860   -1.812780
  C     -5.076840    0.333390   -3.013350
  N     -4.892120    0.674730   -4.092840
  C     -5.572610   -1.144010    1.319670
  C     -5.445510   -2.418110    0.731170
  C     -4.620960   -2.840510   -0.304780
  C     -4.766650   -4.191590   -0.575800
  C     -5.705470   -4.826390    0.268880
  S     -6.383900   -3.753450    1.400310
  C     -5.797130   -6.183930   -0.112190
  C     -4.931160   -6.410630   -1.198760
  C     -4.255100   -5.163730   -1.524100
  C     -3.351390   -4.938570   -2.520470
  C     -2.922430   -5.960990   -3.392560
  N     -2.566550   -6.794400   -4.094630
  C     -2.791640   -3.659610   -2.725520
  N     -2.344710   -2.613910   -2.872750
  C     -4.963350   -7.723740   -1.657560
  C     -5.841060   -8.508100   -0.925050
  S     -6.641270   -7.598730    0.347540
  C     -6.121410   -9.882050   -1.108970
  C     -6.933380  -10.695270   -0.330410
  C     -6.976590  -11.997960   -0.801170
  C     -6.202400  -12.183410   -1.949970
  S     -5.404390  -10.752110   -2.452750
  C     -6.306350  -13.528740   -2.362700
  C     -7.139600  -14.214870   -1.474760
  C     -7.645210  -13.289770   -0.392450
  C     -9.170890  -13.166460   -0.433820
  C     -7.175480  -13.743860    0.992580
  C     -7.292330  -15.551480   -1.807320
  C     -6.586170  -15.891740   -2.952890
  S     -5.712750  -14.526470   -3.623820
  C     -6.516040  -17.155820   -3.583190
  C     -5.875240  -17.467810   -4.772380
  C     -6.010380  -18.813410   -5.099310
  C     -6.754620  -19.540300   -4.150710
  S     -7.294640  -18.555450   -2.860860
  C     -6.835570  -20.887470   -4.569090
  C     -6.142670  -21.012990   -5.794730
  C     -5.610750  -19.715540   -6.168870
  C     -4.914700  -19.411450   -7.301680
  C     -4.626730  -20.395910   -8.270740
  N     -4.403240  -21.210430   -9.046440
  C     -4.445970  -18.108430   -7.570860
  N     -4.060490  -17.049960   -7.783270
  C     -6.180640  -22.299390   -6.308150
  C     -6.895330  -23.170880   -5.494730
  S     -7.499460  -22.364090   -4.048600
  C     -7.115470  -24.554620   -5.648990
  C     -7.035800  -25.281560   -6.806660
  C     -6.818840  -26.723370   -6.858080
  C     -6.964120  -27.624440   -5.836800
  C     -7.399330  -27.322310   -4.529480
  N     -7.748070  -27.152170   -3.448510
  C     -6.728200  -29.010060   -5.965590
  N     -6.556860  -30.144350   -5.996570
  C     -6.394890  -27.036220   -8.216780
  C     -6.498980  -25.870090   -9.008230
  C     -6.124340  -25.881830  -10.341340
  C     -5.652690  -27.067730  -10.883930
  C     -5.563100  -28.218450  -10.113430
  C     -5.930280  -28.216460   -8.775810
  C     -7.043950  -24.802680   -8.184620
  C     -7.694570  -23.696550   -8.662800
  C     -7.784330  -23.365980  -10.031960
  N     -7.897850  -23.043340  -11.126960
  C     -8.441670  -22.802290   -7.869980
  N     -9.096930  -22.063600   -7.283910
  H     -3.596860    3.784190    2.092890
  H     -2.307060    4.936250    0.352840
  H     -2.111880    3.992050   -1.906360
  H     -3.225610    1.874420   -2.483800
  H     -5.964630   -1.150410    2.328000
  H     -3.921430   -2.192210   -0.800420
  H     -4.385210   -8.110960   -2.477300
  H     -7.452820  -10.326530    0.536040
  H     -9.498450  -12.844160   -1.419470
  H     -9.505870  -12.438570    0.300590
  H     -9.628600  -14.126710   -0.210620
  H     -6.091460  -13.828890    1.016000
  H     -7.606840  -14.712040    1.233310
  H     -7.485570  -13.024210    1.745810
  H     -7.885800  -16.266220   -1.265630
  H     -5.346820  -16.735500   -5.356030
  H     -5.680800  -22.613210   -7.206700
  H     -7.303010  -25.092130   -4.729240
  H     -6.178980  -24.990240  -10.944540
  H     -5.349720  -27.092350  -11.919370
  H     -5.196160  -29.131100  -10.557520
  H     -5.845190  -29.118220   -8.192320

 Total Charge           Charge          ....    0
 Multiplicity           Mult            ....    1
 Number of Electrons    NEL             ....  604
 Basis Dimension        Dim             .... 1324

ORBITAL ENERGIES
----------------

  NO   OCC          E(Eh)            E(eV)
   0   2.0000     -89.004091     -2421.9244
   1   2.0000     -89.003776     -2421.9159
   2   2.0000     -89.002297     -2421.8756
   3   2.0000     -89.002200     -2421.8730
   4   2.0000     -88.986184     -2421.4372
   5   2.0000     -88.986119     -2421.4354
   6   2.0000     -14.441390      -392.9702
   7   2.0000     -14.441309      -392.9680
   8   2.0000     -14.439650      -392.9229
   9   2.0000     -14.439647      -392.9228
  10   2.0000     -14.426698      -392.5704
  11   2.0000     -14.426503      -392.5651
  12   2.0000     -14.426053      -392.5529
  13   2.0000     -14.425641      -392.5417
  14   2.0000     -14.421523      -392.4296
  15   2.0000     -14.421501      -392.4290
  16   2.0000     -14.421148      -392.4194
  17   2.0000     -14.421095      -392.4179
  18   2.0000     -10.376285      -282.3531
  19   2.0000     -10.376198      -282.3507
  20   2.0000     -10.363124      -281.9949
  21   2.0000     -10.362971      -281.9908
  22   2.0000     -10.354326      -281.7555
  23   2.0000     -10.353927      -281.7447
  24   2.0000     -10.353629      -281.7366
  25   2.0000     -10.353477      -281.7324
  26   2.0000     -10.352504      -281.7060
  27   2.0000     -10.352456      -281.7046
  28   2.0000     -10.351697      -281.6840
  29   2.0000     -10.351688      -281.6837
  30   2.0000     -10.351066      -281.6668
  31   2.0000     -10.350866      -281.6614
  32   2.0000     -10.344925      -281.4997
  33   2.0000     -10.344792      -281.4961
  34   2.0000     -10.341566      -281.4083
  35   2.0000     -10.341499      -281.4065
  36   2.0000     -10.341432      -281.4047
  37   2.0000     -10.341360      -281.4027
  38   2.0000     -10.339511      -281.3524
  39   2.0000     -10.339508      -281.3523
  40   2.0000     -10.336613      -281.2735
  41   2.0000     -10.336479      -281.2699
  42   2.0000     -10.335765      -281.2505
  43   2.0000     -10.335746      -281.2499
  44   2.0000     -10.332260      -281.1551
  45   2.0000     -10.332133      -281.1516
  46   2.0000     -10.328951      -281.0650
  47   2.0000     -10.328741      -281.0593
  48   2.0000     -10.327331      -281.0210
  49   2.0000     -10.327252      -281.0188
  50   2.0000     -10.325988      -280.9844
  51   2.0000     -10.325741      -280.9777
  52   2.0000     -10.324302      -280.9385
  53   2.0000     -10.324251      -280.9372
  54   2.0000     -10.323562      -280.9184
  55   2.0000     -10.323556      -280.9182
  56   2.0000     -10.323275      -280.9106
  57   2.0000     -10.323149      -280.9072
  58   2.0000     -10.321605      -280.8651
  59   2.0000     -10.321538      -280.8633
  60   2.0000     -10.320416      -280.8328
  61   2.0000     -10.320351      -280.8310
  62   2.0000     -10.315632      -280.7026
  63   2.0000     -10.315458      -280.6979
  64   2.0000     -10.314967      -280.6845
  65   2.0000     -10.314925      -280.6834
  66   2.0000     -10.314801      -280.6800
  67   2.0000     -10.314514      -280.6722
  68   2.0000     -10.314402      -280.6691
  69   2.0000     -10.312195      -280.6091
  70   2.0000     -10.312148      -280.6078
  71   2.0000     -10.304192      -280.3913
  72   2.0000     -10.304165      -280.3906
  73   2.0000     -10.302594      -280.3478
  74   2.0000     -10.302543      -280.3464
  75   2.0000     -10.302237      -280.3381
  76   2.0000     -10.302174      -280.3364
  77   2.0000     -10.301321      -280.3132
  78   2.0000     -10.301154      -280.3086
  79   2.0000     -10.300671      -280.2955
  80   2.0000     -10.300605      -280.2937
  81   2.0000     -10.296822      -280.1908
  82   2.0000     -10.296775      -280.1895
  83   2.0000     -10.283311      -279.8231
  84   2.0000     -10.282823      -279.8098
  85   2.0000      -8.098630      -220.3749
  86   2.0000      -8.098426      -220.3694
  87   2.0000      -8.096834      -220.3260
  88   2.0000      -8.096771      -220.3243
  89   2.0000      -8.080983      -219.8947
  90   2.0000      -8.080927      -219.8932
  91   2.0000      -6.067806      -165.1134
  92   2.0000      -6.067582      -165.1073
  93   2.0000      -6.066159      -165.0686
  94   2.0000      -6.066106      -165.0671
  95   2.0000      -6.063629      -164.9997
  96   2.0000      -6.063430      -164.9943
  97   2.0000      -6.061982      -164.9549
  98   2.0000      -6.061916      -164.9531
  99   2.0000      -6.061117      -164.9314
 100   2.0000      -6.060887      -164.9251
 101   2.0000      -6.059030      -164.8746
 102   2.0000      -6.058955      -164.8726
 103   2.0000      -6.050370      -164.6389
 104   2.0000      -6.050351      -164.6384
 105   2.0000      -6.046272      -164.5274
 106   2.0000      -6.046249      -164.5268
 107   2.0000      -6.042873      -164.4349
 108   2.0000      -6.042863      -164.4347
 109   2.0000      -1.058682       -28.8082
 110   2.0000      -1.058546       -28.8045
 111   2.0000      -1.039790       -28.2941
 112   2.0000      -1.039682       -28.2912
 113   2.0000      -1.036489       -28.2043
 114   2.0000      -1.032472       -28.0950
 115   2.0000      -1.031858       -28.0783
 116   2.0000      -1.021893       -27.8071
 117   2.0000      -1.021638       -27.8002
 118   2.0000      -1.018293       -27.7092
 119   2.0000      -1.018010       -27.7015
 120   2.0000      -1.015865       -27.6431
 121   2.0000      -1.011403       -27.5217
 122   2.0000      -1.010894       -27.5078
 123   2.0000      -1.010447       -27.4957
 124   2.0000      -1.002204       -27.2714
 125   2.0000      -1.002104       -27.2686
 126   2.0000      -1.001290       -27.2465
 127   2.0000      -1.000641       -27.2288
 128   2.0000      -0.994145       -27.0521
 129   2.0000      -0.974617       -26.5207
 130   2.0000      -0.969937       -26.3933
 131   2.0000      -0.960593       -26.1391
 132   2.0000      -0.960501       -26.1366
 133   2.0000      -0.946584       -25.7579
 134   2.0000      -0.943331       -25.6693
 135   2.0000      -0.943258       -25.6674
 136   2.0000      -0.929104       -25.2822
 137   2.0000      -0.927080       -25.2271
 138   2.0000      -0.901933       -24.5429
 139   2.0000      -0.900294       -24.4982
 140   2.0000      -0.895250       -24.3610
 141   2.0000      -0.893450       -24.3120
 142   2.0000      -0.889492       -24.2043
 143   2.0000      -0.881836       -23.9960
 144   2.0000      -0.874094       -23.7853
 145   2.0000      -0.871645       -23.7187
 146   2.0000      -0.870312       -23.6824
 147   2.0000      -0.868081       -23.6217
 148   2.0000      -0.867943       -23.6179
 149   2.0000      -0.851574       -23.1725
 150   2.0000      -0.844516       -22.9804
 151   2.0000      -0.844267       -22.9737
 152   2.0000      -0.827034       -22.5047
 153   2.0000      -0.814961       -22.1762
 154   2.0000      -0.799425       -21.7535
 155   2.0000      -0.794799       -21.6276
 156   2.0000      -0.794594       -21.6220
 157   2.0000      -0.794312       -21.6143
 158   2.0000      -0.787561       -21.4306
 159   2.0000      -0.786733       -21.4081
 160   2.0000      -0.765927       -20.8419
 161   2.0000      -0.748537       -20.3687
 162   2.0000      -0.728560       -19.8251
 163   2.0000      -0.725177       -19.7331
 164   2.0000      -0.722288       -19.6545
 165   2.0000      -0.718594       -19.5539
 166   2.0000      -0.717097       -19.5132
 167   2.0000      -0.716700       -19.5024
 168   2.0000      -0.716613       -19.5000
 169   2.0000      -0.711713       -19.3667
 170   2.0000      -0.701615       -19.0919
 171   2.0000      -0.695190       -18.9171
 172   2.0000      -0.692171       -18.8349
 173   2.0000      -0.687717       -18.7137
 174   2.0000      -0.672433       -18.2978
 175   2.0000      -0.669944       -18.2301
 176   2.0000      -0.669068       -18.2063
 177   2.0000      -0.668480       -18.1903
 178   2.0000      -0.660218       -17.9655
 179   2.0000      -0.658011       -17.9054
 180   2.0000      -0.655541       -17.8382
 181   2.0000      -0.647666       -17.6239
 182   2.0000      -0.643464       -17.5096
 183   2.0000      -0.642748       -17.4901
 184   2.0000      -0.639779       -17.4093
 185   2.0000      -0.630622       -17.1601
 186   2.0000      -0.629470       -17.1287
 187   2.0000      -0.628168       -17.0933
 188   2.0000      -0.619410       -16.8550
 189   2.0000      -0.617377       -16.7997
 190   2.0000      -0.595666       -16.2089
 191   2.0000      -0.592831       -16.1318
 192   2.0000      -0.588965       -16.0266
 193   2.0000      -0.588788       -16.0217
 194   2.0000      -0.587280       -15.9807
 195   2.0000      -0.582201       -15.8425
 196   2.0000      -0.570468       -15.5232
 197   2.0000      -0.570042       -15.5116
 198   2.0000      -0.561114       -15.2687
 199   2.0000      -0.560537       -15.2530
 200   2.0000      -0.554063       -15.0768
 201   2.0000      -0.552997       -15.0478
 202   2.0000      -0.551211       -14.9992
 203   2.0000      -0.548439       -14.9238
 204   2.0000      -0.547306       -14.8929
 205   2.0000      -0.544035       -14.8040
 206   2.0000      -0.541798       -14.7431
 207   2.0000      -0.540364       -14.7041
 208   2.0000      -0.537645       -14.6301
 209   2.0000      -0.537358       -14.6223
 210   2.0000      -0.533493       -14.5171
 211   2.0000      -0.528286       -14.3754
 212   2.0000      -0.521826       -14.1996
 213   2.0000      -0.519248       -14.1294
 214   2.0000      -0.517813       -14.0904
 215   2.0000      -0.517527       -14.0826
 216   2.0000      -0.517344       -14.0777
 217   2.0000      -0.515497       -14.0274
 218   2.0000      -0.514252       -13.9935
 219   2.0000      -0.513238       -13.9659
 220   2.0000      -0.511908       -13.9297
 221   2.0000      -0.511417       -13.9164
 222   2.0000      -0.504453       -13.7269
 223   2.0000      -0.504247       -13.7212
 224   2.0000      -0.501141       -13.6367
 225   2.0000      -0.499914       -13.6034
 226   2.0000      -0.497597       -13.5403
 227   2.0000      -0.493949       -13.4410
 228   2.0000      -0.492401       -13.3989
 229   2.0000      -0.489355       -13.3160
 230   2.0000      -0.486584       -13.2406
 231   2.0000      -0.485106       -13.2004
 232   2.0000      -0.482604       -13.1323
 233   2.0000      -0.479090       -13.0367
 234   2.0000      -0.475975       -12.9519
 235   2.0000      -0.471829       -12.8391
 236   2.0000      -0.471061       -12.8182
 237   2.0000      -0.470539       -12.8040
 238   2.0000      -0.468214       -12.7407
 239   2.0000      -0.468128       -12.7384
 240   2.0000      -0.467030       -12.7085
 241   2.0000      -0.465825       -12.6757
 242   2.0000      -0.462106       -12.5746
 243   2.0000      -0.461214       -12.5503
 244   2.0000      -0.461108       -12.5474
 245   2.0000      -0.458145       -12.4668
 246   2.0000      -0.457824       -12.4580
 247   2.0000      -0.457450       -12.4479
 248   2.0000      -0.457139       -12.4394
 249   2.0000      -0.456758       -12.4290
 250   2.0000      -0.455216       -12.3871
 251   2.0000      -0.451811       -12.2944
 252   2.0000      -0.450675       -12.2635
 253   2.0000      -0.450240       -12.2517
 254   2.0000      -0.450109       -12.2481
 255   2.0000      -0.449591       -12.2340
 256   2.0000      -0.449151       -12.2220
 257   2.0000      -0.449049       -12.2193
 258   2.0000      -0.448785       -12.2120
 259   2.0000      -0.448721       -12.2103
 260   2.0000      -0.447151       -12.1676
 261   2.0000      -0.446575       -12.1519
 262   2.0000      -0.444443       -12.0939
 263   2.0000      -0.442411       -12.0386
 264   2.0000      -0.437078       -11.8935
 265   2.0000      -0.436269       -11.8715
 266   2.0000      -0.436227       -11.8703
 267   2.0000      -0.436070       -11.8661
 268   2.0000      -0.435382       -11.8474
 269   2.0000      -0.434803       -11.8316
 270   2.0000      -0.433891       -11.8068
 271   2.0000      -0.433845       -11.8055
 272   2.0000      -0.430935       -11.7263
 273   2.0000      -0.430265       -11.7081
 274   2.0000      -0.424364       -11.5475
 275   2.0000      -0.423713       -11.5298
 276   2.0000      -0.420839       -11.4516
 277   2.0000      -0.419035       -11.4025
 278   2.0000      -0.417736       -11.3672
 279   2.0000      -0.417225       -11.3533
 280   2.0000      -0.414076       -11.2676
 281   2.0000      -0.413975       -11.2648
 282   2.0000      -0.403651       -10.9839
 283   2.0000      -0.393466       -10.7067
 284   2.0000      -0.387937       -10.5563
 285   2.0000      -0.387668       -10.5490
 286   2.0000      -0.379864       -10.3366
 287   2.0000      -0.362463        -9.8631
 288   2.0000      -0.361593        -9.8394
 289   2.0000      -0.359712        -9.7883
 290   2.0000      -0.348798        -9.4913
 291   2.0000      -0.345243        -9.3945
 292   2.0000      -0.338550        -9.2124
 293   2.0000      -0.336538        -9.1577
 294   2.0000      -0.336075        -9.1451
 295   2.0000      -0.333707        -9.0806
 296   2.0000      -0.332285        -9.0419
 297   2.0000      -0.321562        -8.7501
 298   2.0000      -0.312141        -8.4938
 299   2.0000      -0.294192        -8.0054
 300   2.0000      -0.271898        -7.3987
 301   2.0000      -0.241959        -6.5840
 302   0.0000      -0.124791        -3.3957
 303   0.0000      -0.118765        -3.2318
 304   0.0000      -0.099370        -2.7040
 305   0.0000      -0.098319        -2.6754
 306   0.0000      -0.090316        -2.4576

MULLIKEN ATOMIC CHARGES
-----------------------
   0 C :   -0.032698
   1 C :    0.047546
   2 C :    0.046638
   3 C :   -0.026948
   4 C :   -0.001227
   5 C :    0.011748
   6 C :    0.294835
   7 C :   -0.348360
   8 C :   -0.189683
   9 N :    0.161522
  10 C :   -0.176518
  11 N :    0.152553
  12 C :   -0.075253
  13 C :    0.226967
  14 C :   -0.341101
  15 C :   -0.197721
  16 N :    0.182038
  17 C :   -0.181667
  18 N :    0.175714
  19 C :    0.093699
  20 C :   -0.144681
  21 C :   -0.000175
  22 C :   -0.011720
  23 C :   -0.058197
  24 S :    0.227140
  25 C :   -0.111566
  26 C :    0.031414
  27 C :    0.304472
  28 C :   -0.283232
  29 C :   -0.188460
  30 N :    0.178799
  31 C :   -0.182799
  32 N :    0.171517
  33 C :   -0.070511
  34 C :   -0.036658
  35 S :    0.191948
  36 C :   -0.062124
  37 C :   -0.067713
  38 C :    0.020018
  39 C :   -0.079039
  40 S :    0.171126
  41 C :   -0.080697
  42 C :    0.018849
  43 C :   -0.112493
  44 C :    0.103527
  45 C :    0.105880
  46 C :   -0.064710
  47 C :   -0.063703
  48 S :    0.170851
  49 C :   -0.038883
  50 C :   -0.068268
  51 C :    0.029276
  52 C :   -0.111532
  53 S :    0.192099
  54 C :   -0.056806
  55 C :   -0.009475
  56 C :    0.303513
  57 C :   -0.286949
  58 C :   -0.181683
  59 N :    0.169021
  60 C :   -0.188063
  61 N :    0.182772
  62 C :    0.000996
  63 C :   -0.147827
  64 S :    0.230998
  65 C :    0.088905
  66 C :   -0.075884
  67 C :    0.298017
  68 C :   -0.347529
  69 C :   -0.177204
  70 N :    0.153232
  71 C :   -0.188803
  72 N :    0.157874
  73 C :    0.015094
  74 C :   -0.000211
  75 C :   -0.029798
  76 C :    0.049423
  77 C :    0.048301
  78 C :   -0.034984
  79 C :    0.228363
  80 C :   -0.341388
  81 C :   -0.181058
  82 N :    0.171126
  83 C :   -0.193228
  84 N :    0.176555
  85 H :    0.006544
  86 H :    0.004595
  87 H :    0.007361
  88 H :    0.013908
  89 H :    0.010213
  90 H :    0.031243
  91 H :    0.016520
  92 H :   -0.013325
  93 H :    0.026082
  94 H :    0.014008
  95 H :    0.014235
  96 H :    0.025556
  97 H :    0.013717
  98 H :    0.014093
  99 H :   -0.012836
 100 H :    0.016848
 101 H :    0.030465
 102 H :    0.014354
 103 H :    0.014254
 104 H :    0.007013
 105 H :    0.004413
 106 H :    0.005602
Sum of atomic charges:   -0.0000000

LOEWDIN ATOMIC CHARGES
----------------------
   0 C :    0.005142
   1 C :    0.002615
   2 C :    0.006150
   3 C :    0.005266
   4 C :   -0.009961
   5 C :   -0.013941
   6 C :    0.079450
   7 C :   -0.136569
   8 C :   -0.019610
   9 N :   -0.046504
  10 C :   -0.021129
  11 N :   -0.048133
  12 C :   -0.060322
  13 C :    0.066357
  14 C :   -0.130182
  15 C :   -0.017520
  16 N :   -0.042284
  17 C :   -0.020734
  18 N :   -0.038579
  19 C :    0.035183
  20 C :   -0.185234
  21 C :    0.010123
  22 C :   -0.069745
  23 C :   -0.149385
  24 S :    0.508785
  25 C :   -0.194543
  26 C :   -0.048095
  27 C :    0.081120
  28 C :   -0.094798
  29 C :   -0.017392
  30 N :   -0.025237
  31 C :   -0.012641
  32 N :   -0.029953
  33 C :   -0.042361
  34 C :   -0.159993
  35 S :    0.479868
  36 C :   -0.186457
  37 C :   -0.052448
  38 C :   -0.033120
  39 C :   -0.189416
  40 S :    0.459024
  41 C :   -0.189445
  42 C :   -0.033166
  43 C :   -0.034636
  44 C :   -0.022604
  45 C :   -0.022998
  46 C :   -0.052339
  47 C :   -0.186468
  48 S :    0.458965
  49 C :   -0.159893
  50 C :   -0.042395
  51 C :   -0.048263
  52 C :   -0.194330
  53 S :    0.480244
  54 C :   -0.148406
  55 C :   -0.069989
  56 C :    0.080974
  57 C :   -0.095040
  58 C :   -0.012754
  59 N :   -0.030203
  60 C :   -0.017531
  61 N :   -0.025066
  62 C :    0.009380
  63 C :   -0.185729
  64 S :    0.510568
  65 C :    0.036399
  66 C :   -0.060235
  67 C :    0.078900
  68 C :   -0.136250
  69 C :   -0.020954
  70 N :   -0.047913
  71 C :   -0.019352
  72 N :   -0.046605
  73 C :   -0.013895
  74 C :   -0.010158
  75 C :    0.005341
  76 C :    0.006352
  77 C :    0.002779
  78 C :    0.005116
  79 C :    0.066332
  80 C :   -0.130248
  81 C :   -0.020578
  82 N :   -0.039862
  83 C :   -0.017193
  84 N :   -0.044986
  85 H :    0.041663
  86 H :    0.037968
  87 H :    0.038657
  88 H :    0.043516
  89 H :    0.045160
  90 H :    0.042958
  91 H :    0.037608
  92 H :    0.027575
  93 H :    0.032027
  94 H :    0.025247
  95 H :    0.025343
  96 H :    0.031587
  97 H :    0.025131
  98 H :    0.025287
  99 H :    0.027688
 100 H :    0.037610
 101 H :    0.043126
 102 H :    0.045434
 103 H :    0.043559
 104 H :    0.038702
 105 H :    0.037924
 106 H :    0.041565

  Mayer bond orders larger than 0.100000
B(  0-C ,  1-C ) :   1.3694 B(  0-C ,  5-C ) :   1.3829 B(  0-C , 85-H ) :   0.9842
B(  1-C ,  2-C ) :   1.3773 B(  1-C , 86-H ) :   0.9864 B(  2-C ,  3-C ) :   1.3643
B(  2-C , 87-H ) :   0.9870 B(  3-C ,  4-C ) :   1.3838 B(  3-C , 88-H ) :   0.9874
B(  4-C ,  5-C ) :   1.3114 B(  4-C , 13-C ) :   1.0074 B(  5-C ,  6-C ) :   0.9966
B(  6-C ,  7-C ) :   1.6350 B(  6-C , 12-C ) :   1.0664 B(  7-C ,  8-C ) :   1.1476
B(  7-C , 10-C ) :   1.1353 B(  8-C ,  9-N ) :   2.9792 B( 10-C , 11-N ) :   2.9671
B( 12-C , 13-C ) :   1.0177 B( 12-C , 19-C ) :   1.6118 B( 13-C , 14-C ) :   1.6564
B( 14-C , 15-C ) :   1.1637 B( 14-C , 17-C ) :   1.1388 B( 15-C , 16-N ) :   3.0064
B( 17-C , 18-N ) :   3.0017 B( 19-C , 20-C ) :   1.1972 B( 19-C , 89-H ) :   0.9095
B( 20-C , 21-C ) :   1.3703 B( 20-C , 24-S ) :   1.0875 B( 21-C , 22-C ) :   1.3765
B( 21-C , 90-H ) :   0.9806 B( 22-C , 23-C ) :   1.3848 B( 22-C , 27-C ) :   1.0008
B( 23-C , 24-S ) :   1.1621 B( 23-C , 25-C ) :   1.2139 B( 25-C , 26-C ) :   1.4310
B( 25-C , 35-S ) :   1.0991 B( 26-C , 27-C ) :   0.9887 B( 26-C , 33-C ) :   1.3146
B( 27-C , 28-C ) :   1.7203 B( 28-C , 29-C ) :   1.1315 B( 28-C , 31-C ) :   1.1350
B( 29-C , 30-N ) :   2.9913 B( 31-C , 32-N ) :   2.9775 B( 33-C , 34-C ) :   1.4324
B( 33-C , 91-H ) :   0.9892 B( 34-C , 35-S ) :   1.1211 B( 34-C , 36-C ) :   1.1832
B( 36-C , 37-C ) :   1.4360 B( 36-C , 40-S ) :   1.1131 B( 37-C , 38-C ) :   1.3333
B( 37-C , 92-H ) :   0.9969 B( 38-C , 39-C ) :   1.5176 B( 38-C , 43-C ) :   0.9386
B( 39-C , 40-S ) :   1.0887 B( 39-C , 41-C ) :   1.1781 B( 41-C , 42-C ) :   1.5178
B( 41-C , 48-S ) :   1.0884 B( 42-C , 43-C ) :   0.9384 B( 42-C , 46-C ) :   1.3336
B( 43-C , 44-C ) :   1.0318 B( 43-C , 45-C ) :   1.0360 B( 44-C , 93-H ) :   0.9648
B( 44-C , 94-H ) :   0.9650 B( 44-C , 95-H ) :   0.9649 B( 45-C , 96-H ) :   0.9640
B( 45-C , 97-H ) :   0.9642 B( 45-C , 98-H ) :   0.9642 B( 46-C , 47-C ) :   1.4353
B( 46-C , 99-H ) :   0.9968 B( 47-C , 48-S ) :   1.1135 B( 47-C , 49-C ) :   1.1848
B( 49-C , 50-C ) :   1.4322 B( 49-C , 53-S ) :   1.1217 B( 50-C , 51-C ) :   1.3165
B( 50-C ,100-H ) :   0.9882 B( 51-C , 52-C ) :   1.4313 B( 51-C , 56-C ) :   0.9883
B( 52-C , 53-S ) :   1.0991 B( 52-C , 54-C ) :   1.2147 B( 54-C , 55-C ) :   1.3859
B( 54-C , 64-S ) :   1.1632 B( 55-C , 56-C ) :   0.9993 B( 55-C , 62-C ) :   1.3733
B( 56-C , 57-C ) :   1.7222 B( 57-C , 58-C ) :   1.1338 B( 57-C , 60-C ) :   1.1318
B( 58-C , 59-N ) :   2.9785 B( 60-C , 61-N ) :   2.9934 B( 62-C , 63-C ) :   1.3736
B( 62-C ,101-H ) :   0.9838 B( 63-C , 64-S ) :   1.0875 B( 63-C , 65-C ) :   1.1874
B( 65-C , 66-C ) :   1.6075 B( 65-C ,102-H ) :   0.9131 B( 66-C , 67-C ) :   1.0695
B( 66-C , 79-C ) :   1.0207 B( 67-C , 68-C ) :   1.6318 B( 67-C , 73-C ) :   0.9966
B( 68-C , 69-C ) :   1.1363 B( 68-C , 71-C ) :   1.1479 B( 69-C , 70-N ) :   2.9634
B( 71-C , 72-N ) :   2.9765 B( 73-C , 74-C ) :   1.3115 B( 73-C , 78-C ) :   1.3819
B( 74-C , 75-C ) :   1.3817 B( 74-C , 79-C ) :   1.0072 B( 75-C , 76-C ) :   1.3664
B( 75-C ,103-H ) :   0.9871 B( 76-C , 77-C ) :   1.3767 B( 76-C ,104-H ) :   0.9863
B( 77-C , 78-C ) :   1.3703 B( 77-C ,105-H ) :   0.9860 B( 78-C ,106-H ) :   0.9844
B( 79-C , 80-C ) :   1.6532 B( 80-C , 81-C ) :   1.1403 B( 80-C , 83-C ) :   1.1609
B( 81-C , 82-N ) :   2.9981 B( 83-C , 84-N ) :   3.0052

-----------------------------------------------------------------------------
         ABSORPTION SPECTRUM VIA TRANSITION ELECTRIC DIPOLE MOMENTS
-----------------------------------------------------------------------------
State   Energy  Wavelength   fosc         T2         TX        TY        TZ
        (cm-1)    (nm)                  (au**2)     (au)      (au)      (au)
-----------------------------------------------------------------------------
   0   10529.2    949.7   1.001820457  31.32345   0.40041   5.34315   1.61674
   1   11573.4    864.1   0.003966225   0.11282   0.03721   0.19951  -0.26764
   2   16546.3    604.4   1.679427266  33.41460   0.46132   5.51026   1.68489
   3   17814.5    561.3   0.052979032   0.97905  -0.31832   0.64463  -0.67984
   4   19351.5    516.8   0.011380188   0.19360   0.18304  -0.14536   0.37278
   5   20070.4    498.2   0.001652581   0.02711  -0.04990  -0.14945   0.04776
   6   21244.1    470.7   0.366884693   5.68548   0.02876  -2.35906  -0.34565
   7   21402.4    467.2   0.115008949   1.76907   0.06293   0.44058   1.25339
   8   23929.3    417.9   0.224942063   3.09469  -0.18651  -1.64716  -0.58887
   9   24890.0    401.8   0.016241451   0.21482   0.41974   0.13991   0.13809
  10   25071.8    398.9   0.004137455   0.05433  -0.01143   0.23070  -0.03124
  11   25502.1    392.1   0.017957762   0.23182   0.45680  -0.11463  -0.10007
  12   25976.5    385.0   0.207924928   2.63513   0.14145   1.54698   0.47113
  13   27986.1    357.3   0.033361075   0.39244   0.13130   0.52032   0.32321
  14   28268.9    353.7   0.093814650   1.09254  -0.15401   0.54010  -0.88154
  15   28609.2    349.5   0.183430443   2.11077  -0.09665   1.39858   0.38132
  16   28773.9    347.5   0.045539775   0.52104  -0.18277  -0.08151  -0.69353
  17   29522.7    338.7   0.090915462   1.01381   0.55191  -0.23274  -0.80935
  18   29689.5    336.8   0.132122902   1.46504  -0.29912  -1.16804  -0.10607
  19   30359.8    329.4   0.418727705   4.54055  -1.20800  -0.36046   1.71795
  20   30384.3    329.1   0.234256707   2.53815   1.14196   0.27881  -1.07534
  21   31227.3    320.2   0.107201950   1.13017   0.51340   0.11457  -0.92383
  22   31384.7    318.6   0.037966223   0.39825  -0.40598  -0.36897   0.31192
  23   31629.2    316.2   0.039078062   0.40674  -0.55404  -0.03567   0.31387
  24   32184.2    310.7   0.019660961   0.20111   0.05471   0.05453  -0.44175
  25   32536.2    307.4   0.361588954   3.65868  -0.05307  -1.82150  -0.58138
  26   32894.6    304.0   0.036496104   0.36526  -0.31481   0.50583  -0.10145
  27   32941.7    303.6   0.028276055   0.28258   0.04718   0.50896   0.14601
  28   33153.8    301.6   0.535580828   5.31823   0.30524  -0.99151   2.05960
  29   33247.6    300.8   0.102365675   1.01361   0.36948  -0.71389   0.60617
  30   33281.9    300.5   0.187820118   1.85784  -0.00643  -0.80098  -1.10283
  31   33499.0    298.5   0.097556021   0.95873   0.09383  -0.92937  -0.29360
  32   33872.1    295.2   0.401020231   3.89762  -0.74726  -0.40005   1.78303
  33   34438.1    290.4   0.239775064   2.29214  -0.92210  -0.30251   1.16205
  34   34850.7    286.9   0.029573520   0.27936  -0.07554  -0.46592  -0.23785
  35   34940.6    286.2   0.127265591   1.19910   0.04679  -1.08305  -0.15464
  36   35107.5    284.8   0.049100509   0.46043  -0.26226  -0.09328   0.61883
  37   35495.5    281.7   0.302111662   2.80201  -1.16294   0.72671   0.95993
  38   35567.8    281.2   0.358189067   3.31536  -0.85202  -1.57552  -0.32737
  39   36057.4    277.3   0.000514037   0.00469   0.00985  -0.05102  -0.04464
  40   36153.9    276.6   0.009236314   0.08410  -0.18095  -0.21851   0.06011
  41   36217.0    276.1   0.237377979   2.15776  -0.29810   0.61480   1.30035
  42   36303.6    275.5   0.324776615   2.94517   0.96648   0.87059  -1.11945
  43   36755.0    272.1   0.005629722   0.05042  -0.00282  -0.18886  -0.12145
  44   37164.3    269.1   0.009356929   0.08289  -0.03910  -0.27388  -0.07968
  45   37263.6    268.4   0.004833579   0.04270   0.05420   0.02491  -0.19785
  46   37349.1    267.7   0.015182115   0.13382   0.27411   0.04833  -0.23738
  47   37922.1    263.7   0.002627477   0.02281   0.06338  -0.13707  -0.00240
  48   38355.1    260.7   0.003126325   0.02683  -0.06395  -0.08137   0.12698
  49   38482.7    259.9   0.000161436   0.00138   0.00351  -0.03664   0.00515
  50   38743.0    258.1   0.000308450   0.00262  -0.01998   0.01657   0.04413
  51   38787.8    257.8   0.032914566   0.27936  -0.02344  -0.51830  -0.10087
  52   38864.2    257.3   0.232321906   1.96796  -0.07246  -1.32401  -0.45795
  53   39279.5    254.6   0.000871073   0.00730  -0.04232   0.06016  -0.04348
  54   39410.4    253.7   0.204409679   1.70752   0.67481   0.25179  -1.09030
  55   39655.5    252.2   0.044476805   0.36924   0.06869   0.51464   0.31570
  56   39724.9    251.7   0.049981319   0.41421   0.28707   0.51068  -0.26647
  57   39867.1    250.8   0.001371358   0.01132  -0.07581   0.06190  -0.04178

FINAL SINGLE POINT ENERGY     -5607.360527578269

DIPOLE MOMENT
-------------
                                X             Y             Z
Electronic contribution:      2.49756       1.52586      -6.16074
Nuclear contribution   :     -1.73132      -2.17018       8.24937
                        -----------------------------------------
Total Dipole Moment    :      0.76624      -0.64432       2.08863
                        -----------------------------------------
Magnitude (a.u.)       :      2.31617
Magnitude (Debye)      :      5.88724

Rotational constants in cm-1:     0.002469     0.000124     0.000119
Rotational constants in MHz :    74.031451     3.705656     3.580528

                             ****ORCA TERMINATED NORMALLY****
TOTAL RUN TIME: 0 days 0 hours 17 minutes 19 seconds 31 msec
