                         Program Version 4.2.0 -  RELEASE  -
|  1> # ORCA input file
|  2> # SCF done       -160.839498566567          0.000828704380
|  3> ! CAM-B3LYP def2-SVP def2/J RIJCOSX Grid4 TightSCF
|  4> %maxcore 5000
|  5> %tddft
|  6>     Mode sTDDFT
|  7>     Ethresh 5.0
|  8>     maxcore 5000
|  9> end
| 10>
| 11> %pal
| 12>   nprocs 6
| 13>   end
| 14> * xyz 0 1
| 15>    C       -4.05762         2.78134         3.49969
| 16>    C       -3.88967         2.92913         4.86856
| 17>    C       -3.49517         1.86148         5.66282
| 18>    C       -3.24578         0.61463         5.10917
| 19>    C       -3.40654         0.45702         3.74284
| 20>    C       -3.82145         1.53852         2.93320
| 21>    C       -3.94068         1.07700         1.55648
| 22>    C       -4.16739         1.86628         0.46172
| 23>    C       -4.32447         3.26811         0.51887
| 24>    N       -4.46025         4.40729         0.49179
| 25>    C       -4.22851         1.41598        -0.87431
| 26>    N       -4.28681         1.12149        -1.98266
| 27>    C       -3.76704        -0.37348         1.58426
| 28>    C       -3.20621        -0.70462         2.89092
| 29>    C       -2.40066        -1.77003         3.18846
| 30>    C       -2.02300        -2.76211         2.26077
| 31>    N       -1.66081        -3.57550         1.53619
| 32>    C       -1.76792        -1.95181         4.43736
| 33>    N       -1.21865        -2.14485         5.42568
| 34>    C       -4.18694        -1.20946         0.58715
| 35>    C       -4.44958        -2.59373         0.66846
| 36>    C       -4.69812        -3.38261         1.78545
| 37>    C       -4.97409        -4.69787         1.44679
| 38>    C       -4.95200        -4.92642         0.05410
| 39>    S       -4.60065        -3.51453        -0.82531
| 40>    C       -5.24680        -6.29259        -0.18042
| 41>    C       -5.44595        -6.92567         1.06574
| 42>    C       -5.26912        -5.94938         2.12497
| 43>    C       -5.33303        -6.14895         3.47348
| 44>    C       -5.61594        -7.40867         4.04190
| 45>    N       -5.85867        -8.42795         4.50708
| 46>    C       -5.11347        -5.08972         4.37915
| 47>    N       -4.93722        -4.21378         5.09827
| 48>    C       -5.75917        -8.27689         0.93849
| 49>    C       -5.80094        -8.65981        -0.38882
| 50>    S       -5.44386        -7.35743        -1.49951
| 51>    C       -6.11311        -9.94266        -0.92878
| 52>    N       -6.09340       -10.06640        -2.24836
| 53>    N       -6.42549       -11.15899        -2.86183
| 54>    C       -6.77861       -12.26381        -2.22820
| 55>    C       -6.76842       -12.28962        -0.80607
| 56>    C       -6.44481       -11.06911        -0.12615
| 57>    N       -6.49040       -11.20217         1.19595
| 58>    S       -6.88564       -12.72503         1.54097
| 59>    N       -7.02166       -13.27959         0.04304
| 60>    C       -7.16849       -13.40632        -3.02861
| 61>    C       -6.83863       -13.48941        -4.39460
| 62>    N       -7.30414       -14.44893        -5.15278
| 63>    C       -8.04178       -15.40723        -4.58195
| 64>    C       -8.23874       -15.40069        -3.18699
| 65>    N       -7.84663       -14.39660        -2.44374
| 66>    C       -8.60954       -16.42896        -5.41376
| 67>    C       -8.40266       -16.66473        -6.78046
| 68>    C       -9.19661       -17.80175        -7.11220
| 69>    C       -9.82869       -18.17203        -5.89080
| 70>    N       -9.46829       -17.35215        -4.89640
| 71>    O      -10.66145       -19.17696        -5.73530
| 72>    C      -11.17802       -19.36468        -4.42726
| 73>    C       -8.99031       -18.03184        -8.47365
| 74>    N       -8.14031       -17.13550        -8.99769
| 75>    C       -7.76711       -16.29951        -8.00478
| 76>    O       -6.93830       -15.30592        -8.17233
| 77>    C       -6.42572       -15.11759        -9.48145
| 78>    H       -4.37389         3.61956         2.90102
| 79>    H       -4.07630         3.89086         5.32132
| 80>    H       -3.38307         1.99990         6.72715
| 81>    H       -2.95195        -0.21186         5.73562
| 82>    H       -4.42016        -0.76335        -0.37053
| 83>    H       -4.72134        -2.99445         2.78734
| 84>    H       -5.95456        -8.96269         1.74319
| 85>    H       -6.20612       -12.74537        -4.85599
| 86>    H       -8.75536       -16.21488        -2.70133
| 87>    H      -11.86861       -20.20259        -4.49154
| 88>    H      -11.69412       -18.46394        -4.09017
| 89>    H      -10.36950       -19.58637        -3.72812
| 90>    H       -9.41118       -18.79592        -9.10176
| 91>    H       -5.75379       -14.26421        -9.42337
| 92>    H       -7.23840       -14.92114       -10.18328
| 93>    H       -5.89050       -16.00950        -9.81275
| 94> *
| 95>
| 96>                          ****END OF INPUT****

CARTESIAN COORDINATES (ANGSTROEM)
---------------------------------
  C     -4.057620    2.781340    3.499690
  C     -3.889670    2.929130    4.868560
  C     -3.495170    1.861480    5.662820
  C     -3.245780    0.614630    5.109170
  C     -3.406540    0.457020    3.742840
  C     -3.821450    1.538520    2.933200
  C     -3.940680    1.077000    1.556480
  C     -4.167390    1.866280    0.461720
  C     -4.324470    3.268110    0.518870
  N     -4.460250    4.407290    0.491790
  C     -4.228510    1.415980   -0.874310
  N     -4.286810    1.121490   -1.982660
  C     -3.767040   -0.373480    1.584260
  C     -3.206210   -0.704620    2.890920
  C     -2.400660   -1.770030    3.188460
  C     -2.023000   -2.762110    2.260770
  N     -1.660810   -3.575500    1.536190
  C     -1.767920   -1.951810    4.437360
  N     -1.218650   -2.144850    5.425680
  C     -4.186940   -1.209460    0.587150
  C     -4.449580   -2.593730    0.668460
  C     -4.698120   -3.382610    1.785450
  C     -4.974090   -4.697870    1.446790
  C     -4.952000   -4.926420    0.054100
  S     -4.600650   -3.514530   -0.825310
  C     -5.246800   -6.292590   -0.180420
  C     -5.445950   -6.925670    1.065740
  C     -5.269120   -5.949380    2.124970
  C     -5.333030   -6.148950    3.473480
  C     -5.615940   -7.408670    4.041900
  N     -5.858670   -8.427950    4.507080
  C     -5.113470   -5.089720    4.379150
  N     -4.937220   -4.213780    5.098270
  C     -5.759170   -8.276890    0.938490
  C     -5.800940   -8.659810   -0.388820
  S     -5.443860   -7.357430   -1.499510
  C     -6.113110   -9.942660   -0.928780
  N     -6.093400  -10.066400   -2.248360
  N     -6.425490  -11.158990   -2.861830
  C     -6.778610  -12.263810   -2.228200
  C     -6.768420  -12.289620   -0.806070
  C     -6.444810  -11.069110   -0.126150
  N     -6.490400  -11.202170    1.195950
  S     -6.885640  -12.725030    1.540970
  N     -7.021660  -13.279590    0.043040
  C     -7.168490  -13.406320   -3.028610
  C     -6.838630  -13.489410   -4.394600
  N     -7.304140  -14.448930   -5.152780
  C     -8.041780  -15.407230   -4.581950
  C     -8.238740  -15.400690   -3.186990
  N     -7.846630  -14.396600   -2.443740
  C     -8.609540  -16.428960   -5.413760
  C     -8.402660  -16.664730   -6.780460
  C     -9.196610  -17.801750   -7.112200
  C     -9.828690  -18.172030   -5.890800
  N     -9.468290  -17.352150   -4.896400
  O    -10.661450  -19.176960   -5.735300
  C    -11.178020  -19.364680   -4.427260
  C     -8.990310  -18.031840   -8.473650
  N     -8.140310  -17.135500   -8.997690
  C     -7.767110  -16.299510   -8.004780
  O     -6.938300  -15.305920   -8.172330
  C     -6.425720  -15.117590   -9.481450
  H     -4.373890    3.619560    2.901020
  H     -4.076300    3.890860    5.321320
  H     -3.383070    1.999900    6.727150
  H     -2.951950   -0.211860    5.735620
  H     -4.420160   -0.763350   -0.370530
  H     -4.721340   -2.994450    2.787340
  H     -5.954560   -8.962690    1.743190
  H     -6.206120  -12.745370   -4.855990
  H     -8.755360  -16.214880   -2.701330
  H    -11.868610  -20.202590   -4.491540
  H    -11.694120  -18.463940   -4.090170
  H    -10.369500  -19.586370   -3.728120
  H     -9.411180  -18.795920   -9.101760
  H     -5.753790  -14.264210   -9.423370
  H     -7.238400  -14.921140  -10.183280
  H     -5.890500  -16.009500   -9.812750

 Total Charge           Charge          ....    0
 Multiplicity           Mult            ....    1
 Number of Electrons    NEL             ....  442
 Basis Dimension        Dim             ....  974

ORBITAL ENERGIES
----------------

  NO   OCC          E(Eh)            E(eV)
   0   2.0000     -89.050788     -2423.1951
   1   2.0000     -89.005166     -2421.9537
   2   2.0000     -88.998010     -2421.7590
   3   2.0000     -19.271723      -524.4103
   4   2.0000     -19.269033      -524.3370
   5   2.0000     -14.465667      -393.6308
   6   2.0000     -14.462038      -393.5320
   7   2.0000     -14.457212      -393.4007
   8   2.0000     -14.456376      -393.3780
   9   2.0000     -14.439839      -392.9280
  10   2.0000     -14.436740      -392.8437
  11   2.0000     -14.428027      -392.6066
  12   2.0000     -14.427629      -392.5957
  13   2.0000     -14.424286      -392.5048
  14   2.0000     -14.423404      -392.4808
  15   2.0000     -14.423350      -392.4793
  16   2.0000     -14.422832      -392.4652
  17   2.0000     -14.383144      -391.3852
  18   2.0000     -14.379106      -391.2754
  19   2.0000     -10.375831      -282.3407
  20   2.0000     -10.373694      -282.2826
  21   2.0000     -10.373470      -282.2765
  22   2.0000     -10.361241      -281.9437
  23   2.0000     -10.356977      -281.8277
  24   2.0000     -10.355097      -281.7765
  25   2.0000     -10.354340      -281.7559
  26   2.0000     -10.353932      -281.7448
  27   2.0000     -10.352848      -281.7153
  28   2.0000     -10.351767      -281.6859
  29   2.0000     -10.351290      -281.6729
  30   2.0000     -10.348387      -281.5939
  31   2.0000     -10.343231      -281.4536
  32   2.0000     -10.342535      -281.4347
  33   2.0000     -10.340160      -281.3700
  34   2.0000     -10.338810      -281.3333
  35   2.0000     -10.338427      -281.3229
  36   2.0000     -10.336535      -281.2714
  37   2.0000     -10.331791      -281.1423
  38   2.0000     -10.330032      -281.0945
  39   2.0000     -10.328495      -281.0526
  40   2.0000     -10.327612      -281.0286
  41   2.0000     -10.327217      -281.0178
  42   2.0000     -10.325939      -280.9831
  43   2.0000     -10.324599      -280.9466
  44   2.0000     -10.323388      -280.9137
  45   2.0000     -10.322626      -280.8929
  46   2.0000     -10.322113      -280.8790
  47   2.0000     -10.321695      -280.8676
  48   2.0000     -10.320606      -280.8380
  49   2.0000     -10.318598      -280.7833
  50   2.0000     -10.317445      -280.7520
  51   2.0000     -10.316874      -280.7364
  52   2.0000     -10.316372      -280.7228
  53   2.0000     -10.316143      -280.7165
  54   2.0000     -10.314871      -280.6819
  55   2.0000     -10.314559      -280.6734
  56   2.0000     -10.310462      -280.5619
  57   2.0000     -10.304264      -280.3933
  58   2.0000     -10.303850      -280.3820
  59   2.0000     -10.302875      -280.3555
  60   2.0000     -10.302268      -280.3390
  61   2.0000     -10.249890      -278.9137
  62   2.0000     -10.245542      -278.7954
  63   2.0000      -8.142364      -221.5650
  64   2.0000      -8.099706      -220.4042
  65   2.0000      -8.091780      -220.1885
  66   2.0000      -6.113450      -166.3554
  67   2.0000      -6.105508      -166.1393
  68   2.0000      -6.105177      -166.1303
  69   2.0000      -6.068841      -165.1415
  70   2.0000      -6.064658      -165.0277
  71   2.0000      -6.062258      -164.9624
  72   2.0000      -6.061039      -164.9293
  73   2.0000      -6.056658      -164.8100
  74   2.0000      -6.054360      -164.7475
  75   2.0000      -1.185668       -32.2637
  76   2.0000      -1.182094       -32.1664
  77   2.0000      -1.155863       -31.4526
  78   2.0000      -1.132712       -30.8227
  79   2.0000      -1.084037       -29.4982
  80   2.0000      -1.057373       -28.7726
  81   2.0000      -1.049295       -28.5528
  82   2.0000      -1.041556       -28.3422
  83   2.0000      -1.030531       -28.0422
  84   2.0000      -1.023144       -27.8412
  85   2.0000      -1.021736       -27.8029
  86   2.0000      -1.016575       -27.6624
  87   2.0000      -1.014793       -27.6139
  88   2.0000      -1.012441       -27.5499
  89   2.0000      -1.006658       -27.3926
  90   2.0000      -1.003731       -27.3129
  91   2.0000      -1.002108       -27.2687
  92   2.0000      -0.998234       -27.1633
  93   2.0000      -0.974565       -26.5192
  94   2.0000      -0.962126       -26.1808
  95   2.0000      -0.950517       -25.8649
  96   2.0000      -0.945341       -25.7240
  97   2.0000      -0.932289       -25.3689
  98   2.0000      -0.922201       -25.0944
  99   2.0000      -0.900878       -24.5141
 100   2.0000      -0.893729       -24.3196
 101   2.0000      -0.885438       -24.0940
 102   2.0000      -0.876265       -23.8444
 103   2.0000      -0.869829       -23.6693
 104   2.0000      -0.866936       -23.5905
 105   2.0000      -0.847303       -23.0563
 106   2.0000      -0.845422       -23.0051
 107   2.0000      -0.831653       -22.6304
 108   2.0000      -0.821446       -22.3527
 109   2.0000      -0.814368       -22.1601
 110   2.0000      -0.796304       -21.6685
 111   2.0000      -0.789277       -21.4773
 112   2.0000      -0.787501       -21.4290
 113   2.0000      -0.776876       -21.1399
 114   2.0000      -0.761832       -20.7305
 115   2.0000      -0.759816       -20.6756
 116   2.0000      -0.741236       -20.1700
 117   2.0000      -0.736401       -20.0385
 118   2.0000      -0.724427       -19.7127
 119   2.0000      -0.719255       -19.5719
 120   2.0000      -0.718173       -19.5425
 121   2.0000      -0.713270       -19.4091
 122   2.0000      -0.699351       -19.0303
 123   2.0000      -0.692023       -18.8309
 124   2.0000      -0.679831       -18.4991
 125   2.0000      -0.674707       -18.3597
 126   2.0000      -0.671170       -18.2635
 127   2.0000      -0.668147       -18.1812
 128   2.0000      -0.661038       -17.9877
 129   2.0000      -0.654564       -17.8116
 130   2.0000      -0.648898       -17.6574
 131   2.0000      -0.645088       -17.5537
 132   2.0000      -0.641783       -17.4638
 133   2.0000      -0.629594       -17.1321
 134   2.0000      -0.626983       -17.0611
 135   2.0000      -0.622859       -16.9488
 136   2.0000      -0.617181       -16.7943
 137   2.0000      -0.608021       -16.5451
 138   2.0000      -0.596325       -16.2268
 139   2.0000      -0.590696       -16.0737
 140   2.0000      -0.589311       -16.0360
 141   2.0000      -0.583345       -15.8736
 142   2.0000      -0.581164       -15.8143
 143   2.0000      -0.575357       -15.6563
 144   2.0000      -0.571612       -15.5543
 145   2.0000      -0.567208       -15.4345
 146   2.0000      -0.565793       -15.3960
 147   2.0000      -0.564257       -15.3542
 148   2.0000      -0.558759       -15.2046
 149   2.0000      -0.552822       -15.0430
 150   2.0000      -0.544875       -14.8268
 151   2.0000      -0.541457       -14.7338
 152   2.0000      -0.537556       -14.6276
 153   2.0000      -0.534540       -14.5456
 154   2.0000      -0.532440       -14.4884
 155   2.0000      -0.529738       -14.4149
 156   2.0000      -0.525073       -14.2880
 157   2.0000      -0.522042       -14.2055
 158   2.0000      -0.517129       -14.0718
 159   2.0000      -0.513775       -13.9805
 160   2.0000      -0.512670       -13.9505
 161   2.0000      -0.512104       -13.9351
 162   2.0000      -0.506361       -13.7788
 163   2.0000      -0.503442       -13.6994
 164   2.0000      -0.500216       -13.6116
 165   2.0000      -0.498901       -13.5758
 166   2.0000      -0.495817       -13.4919
 167   2.0000      -0.494097       -13.4451
 168   2.0000      -0.489414       -13.3176
 169   2.0000      -0.485698       -13.2165
 170   2.0000      -0.483405       -13.1541
 171   2.0000      -0.469832       -12.7848
 172   2.0000      -0.468941       -12.7605
 173   2.0000      -0.466489       -12.6938
 174   2.0000      -0.462787       -12.5931
 175   2.0000      -0.462687       -12.5904
 176   2.0000      -0.459966       -12.5163
 177   2.0000      -0.458341       -12.4721
 178   2.0000      -0.458000       -12.4628
 179   2.0000      -0.454135       -12.3577
 180   2.0000      -0.453459       -12.3393
 181   2.0000      -0.451478       -12.2854
 182   2.0000      -0.450143       -12.2490
 183   2.0000      -0.448138       -12.1944
 184   2.0000      -0.447625       -12.1805
 185   2.0000      -0.442936       -12.0529
 186   2.0000      -0.441785       -12.0216
 187   2.0000      -0.440216       -11.9789
 188   2.0000      -0.437121       -11.8947
 189   2.0000      -0.435473       -11.8498
 190   2.0000      -0.435017       -11.8374
 191   2.0000      -0.434574       -11.8254
 192   2.0000      -0.434428       -11.8214
 193   2.0000      -0.431159       -11.7324
 194   2.0000      -0.420066       -11.4306
 195   2.0000      -0.419228       -11.4078
 196   2.0000      -0.417268       -11.3544
 197   2.0000      -0.416970       -11.3463
 198   2.0000      -0.415700       -11.3118
 199   2.0000      -0.407765       -11.0958
 200   2.0000      -0.403766       -10.9870
 201   2.0000      -0.399717       -10.8768
 202   2.0000      -0.396432       -10.7875
 203   2.0000      -0.394157       -10.7255
 204   2.0000      -0.389165       -10.5897
 205   2.0000      -0.380964       -10.3666
 206   2.0000      -0.376758       -10.2521
 207   2.0000      -0.373397       -10.1607
 208   2.0000      -0.367808       -10.0086
 209   2.0000      -0.358097        -9.7443
 210   2.0000      -0.349771        -9.5177
 211   2.0000      -0.338154        -9.2016
 212   2.0000      -0.331752        -9.0274
 213   2.0000      -0.329112        -8.9556
 214   2.0000      -0.326114        -8.8740
 215   2.0000      -0.320979        -8.7343
 216   2.0000      -0.313182        -8.5221
 217   2.0000      -0.308317        -8.3897
 218   2.0000      -0.286263        -7.7896
 219   2.0000      -0.275146        -7.4871
 220   2.0000      -0.262703        -7.1485
 221   0.0000      -0.124505        -3.3879
 222   0.0000      -0.102527        -2.7899
 223   0.0000      -0.095967        -2.6114
 224   0.0000      -0.091244        -2.4829
 225   0.0000      -0.075480        -2.0539

MULLIKEN ATOMIC CHARGES
-----------------------
   0 C :   -0.033231
   1 C :    0.049097
   2 C :    0.045404
   3 C :   -0.025265
   4 C :   -0.000695
   5 C :    0.015639
   6 C :    0.289797
   7 C :   -0.340944
   8 C :   -0.188661
   9 N :    0.162854
  10 C :   -0.179982
  11 N :    0.155545
  12 C :   -0.069378
  13 C :    0.223935
  14 C :   -0.332140
  15 C :   -0.196511
  16 N :    0.180259
  17 C :   -0.174013
  18 N :    0.172714
  19 C :    0.087124
  20 C :   -0.139301
  21 C :   -0.002998
  22 C :   -0.001951
  23 C :   -0.073063
  24 S :    0.237965
  25 C :   -0.092927
  26 C :    0.016415
  27 C :    0.308206
  28 C :   -0.288566
  29 C :   -0.186409
  30 N :    0.181223
  31 C :   -0.184354
  32 N :    0.166491
  33 C :   -0.049119
  34 C :   -0.124487
  35 S :    0.260968
  36 C :    0.017544
  37 N :   -0.064859
  38 N :   -0.042651
  39 C :    0.002022
  40 C :    0.047420
  41 C :    0.017841
  42 N :   -0.258012
  43 S :    0.552699
  44 N :   -0.211557
  45 C :   -0.101476
  46 C :    0.036463
  47 N :    0.002082
  48 C :   -0.081905
  49 C :    0.017049
  50 N :   -0.003041
  51 C :    0.089626
  52 C :   -0.000565
  53 C :   -0.009318
  54 C :    0.140218
  55 N :   -0.200734
  56 O :   -0.248307
  57 C :    0.200627
  58 C :    0.040362
  59 N :   -0.219158
  60 C :    0.089865
  61 O :   -0.215427
  62 C :    0.198654
  63 H :    0.007092
  64 H :    0.005177
  65 H :    0.008445
  66 H :    0.014890
  67 H :    0.013728
  68 H :    0.030679
  69 H :    0.022515
  70 H :    0.013631
  71 H :    0.010548
  72 H :    0.035840
  73 H :    0.032972
  74 H :    0.030917
  75 H :    0.000320
  76 H :    0.038192
  77 H :    0.035105
  78 H :    0.034846
Sum of atomic charges:   -0.0000000

LOEWDIN ATOMIC CHARGES
----------------------
   0 C :    0.005506
   1 C :    0.003369
   2 C :    0.006865
   3 C :    0.005881
   4 C :   -0.009902
   5 C :   -0.013778
   6 C :    0.079147
   7 C :   -0.133277
   8 C :   -0.019434
   9 N :   -0.044019
  10 C :   -0.022036
  11 N :   -0.044188
  12 C :   -0.053870
  13 C :    0.065063
  14 C :   -0.126001
  15 C :   -0.018052
  16 N :   -0.038590
  17 C :   -0.019931
  18 N :   -0.036035
  19 C :    0.034680
  20 C :   -0.180136
  21 C :    0.006786
  22 C :   -0.061627
  23 C :   -0.156786
  24 S :    0.518135
  25 C :   -0.176492
  26 C :   -0.063268
  27 C :    0.080150
  28 C :   -0.097227
  29 C :   -0.018260
  30 N :   -0.024773
  31 C :   -0.012293
  32 N :   -0.033939
  33 C :   -0.008021
  34 C :   -0.172446
  35 S :    0.531567
  36 C :   -0.020875
  37 N :   -0.068027
  38 N :   -0.038500
  39 C :   -0.012311
  40 C :   -0.053734
  41 C :   -0.058428
  42 N :   -0.271973
  43 S :    0.685906
  44 N :   -0.241990
  45 C :   -0.023230
  46 C :    0.033617
  47 N :   -0.026284
  48 C :   -0.017697
  49 C :    0.033596
  50 N :   -0.029631
  51 C :    0.063012
  52 C :   -0.128405
  53 C :   -0.157411
  54 C :    0.108098
  55 N :   -0.194199
  56 O :   -0.050829
  57 C :    0.086398
  58 C :    0.105928
  59 N :   -0.194672
  60 C :    0.119528
  61 O :   -0.019863
  62 C :    0.087447
  63 H :    0.041838
  64 H :    0.038244
  65 H :    0.039059
  66 H :    0.043922
  67 H :    0.045921
  68 H :    0.042469
  69 H :    0.043007
  70 H :    0.030024
  71 H :    0.029203
  72 H :    0.025629
  73 H :    0.024342
  74 H :    0.023899
  75 H :    0.024826
  76 H :    0.026600
  77 H :    0.026595
  78 H :    0.026182

  Mayer bond orders larger than 0.100000
B(  0-C ,  1-C ) :   1.3724 B(  0-C ,  5-C ) :   1.3811 B(  0-C , 63-H ) :   0.9833
B(  1-C ,  2-C ) :   1.3770 B(  1-C , 64-H ) :   0.9857 B(  2-C ,  3-C ) :   1.3654
B(  2-C , 65-H ) :   0.9869 B(  3-C ,  4-C ) :   1.3853 B(  3-C , 66-H ) :   0.9868
B(  4-C ,  5-C ) :   1.3121 B(  4-C , 13-C ) :   1.0059 B(  5-C ,  6-C ) :   0.9998
B(  6-C ,  7-C ) :   1.6402 B(  6-C , 12-C ) :   1.0575 B(  7-C ,  8-C ) :   1.1469
B(  7-C , 10-C ) :   1.1333 B(  8-C ,  9-N ) :   2.9794 B( 10-C , 11-N ) :   2.9711
B( 12-C , 13-C ) :   1.0129 B( 12-C , 19-C ) :   1.6315 B( 13-C , 14-C ) :   1.6658
B( 14-C , 15-C ) :   1.1595 B( 14-C , 17-C ) :   1.1350 B( 15-C , 16-N ) :   3.0055
B( 17-C , 18-N ) :   2.9999 B( 19-C , 20-C ) :   1.1808 B( 19-C , 67-H ) :   0.9117
B( 20-C , 21-C ) :   1.3769 B( 20-C , 24-S ) :   1.1010 B( 21-C , 22-C ) :   1.3697
B( 21-C , 68-H ) :   0.9800 B( 22-C , 23-C ) :   1.4047 B( 22-C , 27-C ) :   0.9928
B( 23-C , 24-S ) :   1.1607 B( 23-C , 25-C ) :   1.1999 B( 25-C , 26-C ) :   1.4228
B( 25-C , 35-S ) :   1.1248 B( 26-C , 27-C ) :   0.9977 B( 26-C , 33-C ) :   1.2669
B( 27-C , 28-C ) :   1.7158 B( 28-C , 29-C ) :   1.1352 B( 28-C , 31-C ) :   1.1352
B( 29-C , 30-N ) :   2.9919 B( 31-C , 32-N ) :   2.9756 B( 33-C , 34-C ) :   1.4865
B( 33-C , 69-H ) :   0.9823 B( 34-C , 35-S ) :   1.0954 B( 34-C , 36-C ) :   1.1569
B( 36-C , 37-N ) :   1.7080 B( 36-C , 39-C ) :   0.1222 B( 36-C , 41-C ) :   1.1306
B( 37-N , 38-N ) :   1.2195 B( 38-N , 39-C ) :   1.7415 B( 39-C , 40-C ) :   1.0969
B( 39-C , 45-C ) :   1.0072 B( 40-C , 41-C ) :   1.1901 B( 40-C , 44-N ) :   1.5483
B( 41-C , 42-N ) :   1.5534 B( 42-N , 43-S ) :   1.2666 B( 42-N , 44-N ) :   0.1447
B( 43-S , 44-N ) :   1.2986 B( 45-C , 46-C ) :   1.3143 B( 45-C , 50-N ) :   1.5728
B( 46-C , 47-N ) :   1.5788 B( 46-C , 70-H ) :   0.9702 B( 47-N , 48-C ) :   1.5650
B( 48-C , 49-C ) :   1.2989 B( 48-C , 51-C ) :   1.0253 B( 49-C , 50-N ) :   1.5650
B( 49-C , 71-H ) :   0.9716 B( 51-C , 52-C ) :   1.2195 B( 51-C , 55-N ) :   1.4809
B( 52-C , 53-C ) :   1.2307 B( 52-C , 60-C ) :   1.0727 B( 53-C , 54-C ) :   1.0977
B( 53-C , 58-C ) :   1.2501 B( 54-C , 55-N ) :   1.4250 B( 54-C , 56-O ) :   1.3181
B( 56-O , 57-C ) :   0.9162 B( 57-C , 72-H ) :   0.9796 B( 57-C , 73-H ) :   0.9725
B( 57-C , 74-H ) :   0.9741 B( 58-C , 59-N ) :   1.4658 B( 58-C , 75-H ) :   1.0085
B( 59-N , 60-C ) :   1.4205 B( 60-C , 61-O ) :   1.3657 B( 61-O , 62-C ) :   0.9116
B( 62-C , 76-H ) :   0.9795 B( 62-C , 77-H ) :   0.9729 B( 62-C , 78-H ) :   0.9722

-----------------------------------------------------------------------------
         ABSORPTION SPECTRUM VIA TRANSITION ELECTRIC DIPOLE MOMENTS
-----------------------------------------------------------------------------
State   Energy  Wavelength   fosc         T2         TX        TY        TZ
        (cm-1)    (nm)                  (au**2)     (au)      (au)      (au)
-----------------------------------------------------------------------------
   0   14249.7    701.8   0.503142794  11.62412  -0.88135  -3.10683  -1.09313
   1   16819.2    594.6   0.058312030   1.14137   0.17941   0.70864   0.77911
   2   18617.6    537.1   1.092234564  19.31383   1.11788   3.69424   2.10160
   3   19834.7    504.2   0.027804319   0.46149  -0.21643  -0.54881  -0.33683
   4   20485.9    488.1   0.134796051   2.16620   0.62747   0.68245  -1.14312
   5   22496.2    444.5   0.170476940   2.49478  -0.03996   1.56734   0.19138
   6   23234.8    430.4   0.004173343   0.05913   0.04591   0.19263  -0.14113
   7   23473.8    426.0   0.187546625   2.63027   0.14607  -1.11868   1.16512
   8   24624.4    406.1   0.061887827   0.82740  -0.36748  -0.52368   0.64662
   9   25539.6    391.5   0.108628963   1.40026  -0.27067   0.57494   0.99822
  10   25708.6    389.0   0.017115924   0.21918  -0.06473   0.31357   0.34156
  11   26849.3    372.4   0.000744377   0.00913   0.06802   0.05082  -0.04379
  12   26951.2    371.0   0.079611378   0.97246  -0.21027  -0.05448   0.96191
  13   27762.6    360.2   0.006560085   0.07779   0.14293  -0.23949  -0.00257
  14   28321.5    353.1   0.027667354   0.32161   0.04523  -0.41207   0.38699
  15   29240.6    342.0   0.116486951   1.31149  -0.16658   0.15650   1.12216
  16   29454.1    339.5   0.035112428   0.39246   0.09353   0.42535   0.45031
  17   29578.6    338.1   0.079179169   0.88127   0.04980  -0.37618  -0.85865
  18   30409.6    328.8   0.083425044   0.90315  -0.12000  -0.89429  -0.29833
  19   30598.4    326.8   0.245401376   2.64031   0.60110   0.77235   1.29710
  20   31052.0    322.0   0.000968853   0.01027   0.04524   0.03171   0.08497
  21   31543.2    317.0   0.270717097   2.82543   0.40791   1.62631   0.11893
  22   31988.9    312.6   0.057176937   0.58843   0.56099  -0.41888   0.31347
  23   32237.3    310.2   0.074549840   0.76131   0.35850  -0.56109   0.56388
  24   32642.4    306.4   0.072094439   0.72710  -0.32459   0.31500   0.72285
  25   32860.2    304.3   0.438796944   4.39611  -0.84485   1.50118  -1.19533
  26   33261.1    300.7   0.042758325   0.42321  -0.06349   0.15355  -0.62897
  27   33499.3    298.5   0.279810613   2.74982  -0.06414  -0.50238   1.57902
  28   34386.2    290.8   0.013386599   0.12816   0.08617   0.18399  -0.29477
  29   34477.3    290.0   0.010374127   0.09906   0.13113   0.28263  -0.04454
  30   34636.8    288.7   0.136692875   1.29922   0.33299  -1.08847  -0.05989
  31   34959.1    286.0   0.012408268   0.11685   0.10439   0.28286   0.16106
  32   35002.7    285.7   0.003448190   0.03243   0.01585   0.13382   0.11947
  33   35358.9    282.8   0.303900205   2.82949  -0.09752  -0.83714  -1.45574
  34   35656.0    280.5   0.010757220   0.09932   0.10177   0.09787  -0.28175
  35   35779.3    279.5   0.107273267   0.98704  -0.10057   0.42489   0.89241
  36   36231.4    276.0   0.002803474   0.02547  -0.12300   0.10153   0.00587
  37   36339.8    275.2   0.000715025   0.00648  -0.04681   0.06441  -0.01175
  38   36614.7    273.1   0.003966679   0.03567   0.09121  -0.14430  -0.08076
  39   36997.6    270.3   0.110319745   0.98165  -0.05699  -0.08710  -0.98530
  40   37078.7    269.7   0.018789060   0.16682  -0.13519   0.09738   0.37291
  41   37287.9    268.2   0.000054802   0.00048   0.00534   0.02032  -0.00650
  42   37359.4    267.7   0.320789055   2.82680  -0.81606  -1.44262   0.28232
  43   37560.1    266.2   0.120573303   1.05682   0.15012   1.01700  -0.00043
  44   37961.7    263.4   0.018253981   0.15830  -0.00743   0.05605  -0.39383
  45   38345.7    260.8   0.227150754   1.95017   0.21555   1.16815   0.73426
  46   38517.8    259.6   0.010424102   0.08909  -0.11601  -0.27088  -0.04758
  47   38838.9    257.5   0.002475760   0.02099  -0.06622  -0.01021   0.12844
  48   38920.6    256.9   0.101230601   0.85626   0.02898   0.83778   0.39186
  49   39397.8    253.8   0.126739838   1.05905  -0.58031  -0.69213  -0.49319
  50   39649.0    252.2   0.003165773   0.02629   0.03710   0.08135   0.13525
  51   39860.3    250.9   0.000774892   0.00640   0.05140  -0.04091  -0.04566
  52   40169.1    248.9   0.014589513   0.11957  -0.02456   0.16122  -0.30492
  53   40249.3    248.5   0.003740302   0.03059  -0.03441  -0.01747   0.17060

FINAL SINGLE POINT ENERGY     -3793.963011361533

DIPOLE MOMENT
-------------
                                X             Y             Z
Electronic contribution:     12.39911      26.39471      22.01765
Nuclear contribution   :    -13.87794     -27.86296     -21.64116
                        -----------------------------------------
Total Dipole Moment    :     -1.47883      -1.46825       0.37649
                        -----------------------------------------
Magnitude (a.u.)       :      2.11765
Magnitude (Debye)      :      5.38264

Rotational constants in cm-1:     0.003073     0.000313     0.000292
Rotational constants in MHz :    92.131239     9.397386     8.746882

                             ****ORCA TERMINATED NORMALLY****
TOTAL RUN TIME: 0 days 0 hours 7 minutes 7 seconds 952 msec
