                         Program Version 4.2.0 -  RELEASE  -
|  1> # ORCA input file
|  2> # SCF done       -207.342023690934          0.000819376020
|  3> ! CAM-B3LYP def2-SVP def2/J RIJCOSX Grid4 TightSCF
|  4> %maxcore 5000
|  5> %tddft
|  6>     Mode sTDDFT
|  7>     Ethresh 5.0
|  8>     maxcore 5000
|  9> end
| 10>
| 11> %pal
| 12>   nprocs 6
| 13>   end
| 14> * xyz 0 1
| 15>    C      -15.70067         6.96229        -7.46972
| 16>    C      -15.86679         8.30403        -7.31444
| 17>    C      -14.84488         8.85941        -6.51950
| 18>    C      -13.92047         7.90006        -6.09131
| 19>    S      -14.30194         6.33576        -6.65743
| 20>    C      -12.92944         8.54610        -5.29839
| 21>    C      -13.23406         9.91001        -5.22841
| 22>    C      -14.44964        10.15427        -5.99822
| 23>    C      -15.07418        11.35180        -6.18914
| 24>    C      -14.58784        12.55365        -5.63284
| 25>    N      -14.20224        13.53535        -5.18299
| 26>    C      -16.24925        11.47102        -6.96042
| 27>    N      -17.20220        11.57440        -7.58998
| 28>    C      -12.31579        10.63692        -4.46678
| 29>    C      -11.31313         9.83369        -3.96008
| 30>    S      -11.51094         8.15168        -4.43155
| 31>    C      -10.21215        10.22206        -3.15240
| 32>    C       -9.19301         9.41783        -2.68709
| 33>    C       -8.27510        10.14487        -1.92472
| 34>    C       -8.60208        11.51373        -1.80351
| 35>    S      -10.05408        11.90066        -2.64760
| 36>    C       -7.60322        12.09737        -1.02460
| 37>    C       -6.69375        11.06556        -0.69687
| 38>    N       -7.10772         9.88583        -1.25772
| 39>    C       -6.48135         8.60227        -1.10915
| 40>    C       -5.62539        11.50064         0.08565
| 41>    C       -5.71612        12.85152         0.36670
| 42>    S       -7.13501        13.60996        -0.34546
| 43>    C       -4.78049        13.59597         1.13366
| 44>    C       -4.85306        14.90463         1.58899
| 45>    C       -5.97938        15.71815         1.39295
| 46>    N       -6.91629        16.36729         1.26154
| 47>    C       -3.70096        15.29076         2.33450
| 48>    C       -2.78951        14.24838         2.42975
| 49>    S       -3.28757        12.81202         1.62217
| 50>    S       -1.36507        14.58595         3.35832
| 51>    C       -2.00113        16.17558         3.63538
| 52>    C       -3.22771        16.43757         3.03959
| 53>    C       -3.65623        17.76985         3.31532
| 54>    C       -4.78206        18.37793         2.73282
| 55>    N       -5.66387        18.90244         2.22096
| 56>    C       -2.76987        18.45939         4.12204
| 57>    S       -1.36646        17.49912         4.53011
| 58>    C       -2.88761        19.79770         4.65869
| 59>    C       -1.73065        20.52456         4.97206
| 60>    C       -1.85037        21.78355         5.50623
| 61>    C       -3.11993        22.33686         5.74850
| 62>    C       -4.26894        21.62127         5.44663
| 63>    C       -4.14671        20.35698         4.90610
| 64>    C       -2.94521        23.64932         6.33045
| 65>    C       -1.56762        23.91003         6.44275
| 66>    C       -0.76090        22.74845         5.90995
| 67>    C        0.08652        23.16958         4.69360
| 68>    C       -0.74686        23.77321         3.56947
| 69>    C        0.15384        22.14834         6.99328
| 70>    C       -0.61167        21.70093         8.23269
| 71>    C       -1.12680        25.09251         6.98077
| 72>    C       -2.05827        26.04693         7.43008
| 73>    C       -3.42993        25.77069         7.30376
| 74>    C       -3.87663        24.58622         6.75857
| 75>    C       -1.56600        27.26666         8.00790
| 76>    C       -2.31138        28.26460         8.54498
| 77>    C       -1.71288        29.41871         9.10112
| 78>    C       -2.39752        30.45478         9.67202
| 79>    C       -1.82759        31.65176        10.26175
| 80>    C       -0.49845        31.98148        10.34397
| 81>    C       -0.01121        33.16689        10.93291
| 82>    N        0.45857        34.10720        11.39554
| 83>    C        0.57657        31.20662         9.86261
| 84>    N        1.51015        30.64206         9.50205
| 85>    C       -2.92819        32.46827        10.76386
| 86>    C       -4.15444        31.80038        10.48636
| 87>    C       -3.87543        30.52845         9.79716
| 88>    O       -4.69881        29.71977         9.41861
| 89>    C       -5.36186        32.32764        10.84213
| 90>    C       -5.40077        33.57323        11.50765
| 91>    C       -4.17879        34.24837        11.79081
| 92>    C       -2.94328        33.67717        11.40837
| 93>    C       -4.22812        35.48998        12.45684
| 94>    C       -5.42560        36.03949        12.82596
| 95>    C       -6.62832        35.37376        12.54614
| 96>    C       -6.61609        34.16694        11.90092
| 97>    H      -16.31920         6.28135        -8.01905
| 98>    H      -16.67841         8.85914        -7.74793
| 99>    H      -12.35822        11.69514        -4.28198
|100>    H       -9.13766         8.36541        -2.89974
|101>    H       -5.41586         8.73885        -0.93121
|102>    H       -6.61788         8.02176        -2.02126
|103>    H       -6.91194         8.04710        -0.27008
|104>    H       -4.82228        10.88444         0.44877
|105>    H       -0.75993        20.08919         4.78039
|106>    H       -5.24639        22.03644         5.63679
|107>    H       -5.03385        19.78375         4.68966
|108>    H        0.61887        22.29255         4.31953
|109>    H        0.83132        23.89682         5.02327
|110>    H       -1.48311        23.05884         3.20760
|111>    H       -0.10400        24.05431         2.73869
|112>    H       -1.27212        24.66163         3.91299
|113>    H        0.89717        22.89624         7.27650
|114>    H        0.68555        21.29465         6.56790
|115>    H       -1.13572        22.53975         8.68545
|116>    H        0.07580        21.28808         8.96716
|117>    H       -1.34313        20.93690         7.97853
|118>    H       -0.07023        25.30102         7.07173
|119>    H       -4.15059        26.49971         7.63796
|120>    H       -4.93416        24.38992         6.66820
|121>    H       -0.48684        27.37790         8.01555
|122>    H       -3.38781        28.20690         8.57193
|123>    H       -0.63165        29.46429         9.06699
|124>    H       -6.27712        31.79953        10.61882
|125>    H       -2.03727        34.21485        11.63813
|126>    H       -3.29938        35.99880        12.66992
|127>    H       -5.45276        36.99085        13.33596
|128>    H       -7.56440        35.82189        12.84445
|129>    H       -7.53897        33.64949        11.68270
|130> *
|131>
|132>                          ****END OF INPUT****

CARTESIAN COORDINATES (ANGSTROEM)
---------------------------------
  C    -15.700670    6.962290   -7.469720
  C    -15.866790    8.304030   -7.314440
  C    -14.844880    8.859410   -6.519500
  C    -13.920470    7.900060   -6.091310
  S    -14.301940    6.335760   -6.657430
  C    -12.929440    8.546100   -5.298390
  C    -13.234060    9.910010   -5.228410
  C    -14.449640   10.154270   -5.998220
  C    -15.074180   11.351800   -6.189140
  C    -14.587840   12.553650   -5.632840
  N    -14.202240   13.535350   -5.182990
  C    -16.249250   11.471020   -6.960420
  N    -17.202200   11.574400   -7.589980
  C    -12.315790   10.636920   -4.466780
  C    -11.313130    9.833690   -3.960080
  S    -11.510940    8.151680   -4.431550
  C    -10.212150   10.222060   -3.152400
  C     -9.193010    9.417830   -2.687090
  C     -8.275100   10.144870   -1.924720
  C     -8.602080   11.513730   -1.803510
  S    -10.054080   11.900660   -2.647600
  C     -7.603220   12.097370   -1.024600
  C     -6.693750   11.065560   -0.696870
  N     -7.107720    9.885830   -1.257720
  C     -6.481350    8.602270   -1.109150
  C     -5.625390   11.500640    0.085650
  C     -5.716120   12.851520    0.366700
  S     -7.135010   13.609960   -0.345460
  C     -4.780490   13.595970    1.133660
  C     -4.853060   14.904630    1.588990
  C     -5.979380   15.718150    1.392950
  N     -6.916290   16.367290    1.261540
  C     -3.700960   15.290760    2.334500
  C     -2.789510   14.248380    2.429750
  S     -3.287570   12.812020    1.622170
  S     -1.365070   14.585950    3.358320
  C     -2.001130   16.175580    3.635380
  C     -3.227710   16.437570    3.039590
  C     -3.656230   17.769850    3.315320
  C     -4.782060   18.377930    2.732820
  N     -5.663870   18.902440    2.220960
  C     -2.769870   18.459390    4.122040
  S     -1.366460   17.499120    4.530110
  C     -2.887610   19.797700    4.658690
  C     -1.730650   20.524560    4.972060
  C     -1.850370   21.783550    5.506230
  C     -3.119930   22.336860    5.748500
  C     -4.268940   21.621270    5.446630
  C     -4.146710   20.356980    4.906100
  C     -2.945210   23.649320    6.330450
  C     -1.567620   23.910030    6.442750
  C     -0.760900   22.748450    5.909950
  C      0.086520   23.169580    4.693600
  C     -0.746860   23.773210    3.569470
  C      0.153840   22.148340    6.993280
  C     -0.611670   21.700930    8.232690
  C     -1.126800   25.092510    6.980770
  C     -2.058270   26.046930    7.430080
  C     -3.429930   25.770690    7.303760
  C     -3.876630   24.586220    6.758570
  C     -1.566000   27.266660    8.007900
  C     -2.311380   28.264600    8.544980
  C     -1.712880   29.418710    9.101120
  C     -2.397520   30.454780    9.672020
  C     -1.827590   31.651760   10.261750
  C     -0.498450   31.981480   10.343970
  C     -0.011210   33.166890   10.932910
  N      0.458570   34.107200   11.395540
  C      0.576570   31.206620    9.862610
  N      1.510150   30.642060    9.502050
  C     -2.928190   32.468270   10.763860
  C     -4.154440   31.800380   10.486360
  C     -3.875430   30.528450    9.797160
  O     -4.698810   29.719770    9.418610
  C     -5.361860   32.327640   10.842130
  C     -5.400770   33.573230   11.507650
  C     -4.178790   34.248370   11.790810
  C     -2.943280   33.677170   11.408370
  C     -4.228120   35.489980   12.456840
  C     -5.425600   36.039490   12.825960
  C     -6.628320   35.373760   12.546140
  C     -6.616090   34.166940   11.900920
  H    -16.319200    6.281350   -8.019050
  H    -16.678410    8.859140   -7.747930
  H    -12.358220   11.695140   -4.281980
  H     -9.137660    8.365410   -2.899740
  H     -5.415860    8.738850   -0.931210
  H     -6.617880    8.021760   -2.021260
  H     -6.911940    8.047100   -0.270080
  H     -4.822280   10.884440    0.448770
  H     -0.759930   20.089190    4.780390
  H     -5.246390   22.036440    5.636790
  H     -5.033850   19.783750    4.689660
  H      0.618870   22.292550    4.319530
  H      0.831320   23.896820    5.023270
  H     -1.483110   23.058840    3.207600
  H     -0.104000   24.054310    2.738690
  H     -1.272120   24.661630    3.912990
  H      0.897170   22.896240    7.276500
  H      0.685550   21.294650    6.567900
  H     -1.135720   22.539750    8.685450
  H      0.075800   21.288080    8.967160
  H     -1.343130   20.936900    7.978530
  H     -0.070230   25.301020    7.071730
  H     -4.150590   26.499710    7.637960
  H     -4.934160   24.389920    6.668200
  H     -0.486840   27.377900    8.015550
  H     -3.387810   28.206900    8.571930
  H     -0.631650   29.464290    9.066990
  H     -6.277120   31.799530   10.618820
  H     -2.037270   34.214850   11.638130
  H     -3.299380   35.998800   12.669920
  H     -5.452760   36.990850   13.335960
  H     -7.564400   35.821890   12.844450
  H     -7.538970   33.649490   11.682700

 Total Charge           Charge          ....    0
 Multiplicity           Mult            ....    1
 Number of Electrons    NEL             ....  604
 Basis Dimension        Dim             .... 1341

ORBITAL ENERGIES
----------------

  NO   OCC          E(Eh)            E(eV)
   0   2.0000     -88.985289     -2421.4128
   1   2.0000     -88.984005     -2421.3779
   2   2.0000     -88.983296     -2421.3586
   3   2.0000     -88.982731     -2421.3432
   4   2.0000     -88.982478     -2421.3363
   5   2.0000     -88.960465     -2420.7373
   6   2.0000     -88.959882     -2420.7215
   7   2.0000     -19.209938      -522.7290
   8   2.0000     -14.471830      -393.7985
   9   2.0000     -14.423759      -392.4904
  10   2.0000     -14.423078      -392.4719
  11   2.0000     -14.410952      -392.1419
  12   2.0000     -14.408084      -392.0639
  13   2.0000     -14.398837      -391.8123
  14   2.0000     -14.398356      -391.7992
  15   2.0000     -10.360650      -281.9276
  16   2.0000     -10.357375      -281.8385
  17   2.0000     -10.344929      -281.4998
  18   2.0000     -10.337281      -281.2917
  19   2.0000     -10.334574      -281.2180
  20   2.0000     -10.334331      -281.2115
  21   2.0000     -10.333992      -281.2022
  22   2.0000     -10.333846      -281.1983
  23   2.0000     -10.331379      -281.1311
  24   2.0000     -10.328727      -281.0589
  25   2.0000     -10.324600      -280.9467
  26   2.0000     -10.324225      -280.9365
  27   2.0000     -10.323439      -280.9151
  28   2.0000     -10.323415      -280.9144
  29   2.0000     -10.321593      -280.8648
  30   2.0000     -10.318812      -280.7891
  31   2.0000     -10.317174      -280.7446
  32   2.0000     -10.315982      -280.7121
  33   2.0000     -10.315665      -280.7035
  34   2.0000     -10.314189      -280.6633
  35   2.0000     -10.313526      -280.6453
  36   2.0000     -10.312397      -280.6146
  37   2.0000     -10.311462      -280.5891
  38   2.0000     -10.308804      -280.5168
  39   2.0000     -10.307438      -280.4797
  40   2.0000     -10.307065      -280.4695
  41   2.0000     -10.306326      -280.4494
  42   2.0000     -10.300054      -280.2787
  43   2.0000     -10.298578      -280.2386
  44   2.0000     -10.298002      -280.2229
  45   2.0000     -10.297781      -280.2169
  46   2.0000     -10.297767      -280.2165
  47   2.0000     -10.297028      -280.1964
  48   2.0000     -10.296975      -280.1949
  49   2.0000     -10.296056      -280.1699
  50   2.0000     -10.293196      -280.0921
  51   2.0000     -10.292994      -280.0866
  52   2.0000     -10.292809      -280.0816
  53   2.0000     -10.292497      -280.0731
  54   2.0000     -10.292467      -280.0723
  55   2.0000     -10.292125      -280.0630
  56   2.0000     -10.291186      -280.0374
  57   2.0000     -10.290968      -280.0315
  58   2.0000     -10.289726      -279.9977
  59   2.0000     -10.288857      -279.9740
  60   2.0000     -10.288676      -279.9691
  61   2.0000     -10.285776      -279.8902
  62   2.0000     -10.283682      -279.8332
  63   2.0000     -10.283628      -279.8318
  64   2.0000     -10.282837      -279.8102
  65   2.0000     -10.282524      -279.8017
  66   2.0000     -10.282380      -279.7978
  67   2.0000     -10.281854      -279.7835
  68   2.0000     -10.281506      -279.7740
  69   2.0000     -10.281323      -279.7690
  70   2.0000     -10.281221      -279.7662
  71   2.0000     -10.281005      -279.7604
  72   2.0000     -10.280582      -279.7488
  73   2.0000     -10.280182      -279.7380
  74   2.0000     -10.279368      -279.7158
  75   2.0000     -10.279065      -279.7076
  76   2.0000     -10.277729      -279.6712
  77   2.0000     -10.277059      -279.6530
  78   2.0000     -10.269704      -279.4528
  79   2.0000     -10.268757      -279.4271
  80   2.0000     -10.252130      -278.9746
  81   2.0000     -10.249727      -278.9093
  82   2.0000      -8.080394      -219.8787
  83   2.0000      -8.078540      -219.8283
  84   2.0000      -8.078535      -219.8281
  85   2.0000      -8.077692      -219.8052
  86   2.0000      -8.077675      -219.8047
  87   2.0000      -8.055000      -219.1877
  88   2.0000      -8.053912      -219.1581
  89   2.0000      -6.050409      -164.6400
  90   2.0000      -6.048072      -164.5764
  91   2.0000      -6.047824      -164.5697
  92   2.0000      -6.047361      -164.5571
  93   2.0000      -6.046969      -164.5464
  94   2.0000      -6.046140      -164.5238
  95   2.0000      -6.043858      -164.4617
  96   2.0000      -6.043716      -164.4579
  97   2.0000      -6.043166      -164.4429
  98   2.0000      -6.042519      -164.4253
  99   2.0000      -6.041192      -164.3892
 100   2.0000      -6.040796      -164.3784
 101   2.0000      -6.040302      -164.3650
 102   2.0000      -6.040221      -164.3628
 103   2.0000      -6.039052      -164.3309
 104   2.0000      -6.024754      -163.9419
 105   2.0000      -6.023695      -163.9131
 106   2.0000      -6.020648      -163.8301
 107   2.0000      -6.019386      -163.7958
 108   2.0000      -6.016269      -163.7110
 109   2.0000      -6.015268      -163.6838
 110   2.0000      -1.124000       -30.5856
 111   2.0000      -1.098765       -29.8989
 112   2.0000      -1.039048       -28.2739
 113   2.0000      -1.036856       -28.2143
 114   2.0000      -1.015127       -27.6230
 115   2.0000      -1.012012       -27.5382
 116   2.0000      -1.009592       -27.4724
 117   2.0000      -1.001058       -27.2402
 118   2.0000      -0.997454       -27.1421
 119   2.0000      -0.994416       -27.0594
 120   2.0000      -0.992940       -27.0193
 121   2.0000      -0.987754       -26.8781
 122   2.0000      -0.987331       -26.8666
 123   2.0000      -0.978144       -26.6166
 124   2.0000      -0.975420       -26.5425
 125   2.0000      -0.973688       -26.4954
 126   2.0000      -0.966094       -26.2888
 127   2.0000      -0.958456       -26.0809
 128   2.0000      -0.948848       -25.8195
 129   2.0000      -0.943228       -25.6665
 130   2.0000      -0.927176       -25.2297
 131   2.0000      -0.919727       -25.0271
 132   2.0000      -0.908654       -24.7257
 133   2.0000      -0.906529       -24.6679
 134   2.0000      -0.894653       -24.3447
 135   2.0000      -0.891532       -24.2598
 136   2.0000      -0.886502       -24.1229
 137   2.0000      -0.878449       -23.9038
 138   2.0000      -0.875156       -23.8142
 139   2.0000      -0.868162       -23.6239
 140   2.0000      -0.861174       -23.4337
 141   2.0000      -0.853186       -23.2164
 142   2.0000      -0.849085       -23.1048
 143   2.0000      -0.844407       -22.9775
 144   2.0000      -0.842719       -22.9315
 145   2.0000      -0.841928       -22.9100
 146   2.0000      -0.841186       -22.8898
 147   2.0000      -0.839681       -22.8489
 148   2.0000      -0.831580       -22.6285
 149   2.0000      -0.825407       -22.4605
 150   2.0000      -0.823109       -22.3979
 151   2.0000      -0.813436       -22.1347
 152   2.0000      -0.800191       -21.7743
 153   2.0000      -0.781647       -21.2697
 154   2.0000      -0.771950       -21.0058
 155   2.0000      -0.769678       -20.9440
 156   2.0000      -0.768430       -20.9100
 157   2.0000      -0.763460       -20.7748
 158   2.0000      -0.755804       -20.5665
 159   2.0000      -0.743324       -20.2269
 160   2.0000      -0.732429       -19.9304
 161   2.0000      -0.724578       -19.7168
 162   2.0000      -0.713021       -19.4023
 163   2.0000      -0.706763       -19.2320
 164   2.0000      -0.699131       -19.0243
 165   2.0000      -0.697136       -18.9700
 166   2.0000      -0.696256       -18.9461
 167   2.0000      -0.690149       -18.7799
 168   2.0000      -0.687821       -18.7166
 169   2.0000      -0.681767       -18.5518
 170   2.0000      -0.679595       -18.4927
 171   2.0000      -0.674373       -18.3506
 172   2.0000      -0.672438       -18.2980
 173   2.0000      -0.670091       -18.2341
 174   2.0000      -0.663221       -18.0472
 175   2.0000      -0.657465       -17.8905
 176   2.0000      -0.652356       -17.7515
 177   2.0000      -0.647061       -17.6074
 178   2.0000      -0.645450       -17.5636
 179   2.0000      -0.636726       -17.3262
 180   2.0000      -0.635220       -17.2852
 181   2.0000      -0.627668       -17.0797
 182   2.0000      -0.622519       -16.9396
 183   2.0000      -0.616066       -16.7640
 184   2.0000      -0.611818       -16.6484
 185   2.0000      -0.610342       -16.6083
 186   2.0000      -0.606997       -16.5172
 187   2.0000      -0.601976       -16.3806
 188   2.0000      -0.601431       -16.3658
 189   2.0000      -0.593893       -16.1607
 190   2.0000      -0.588944       -16.0260
 191   2.0000      -0.581431       -15.8215
 192   2.0000      -0.572090       -15.5674
 193   2.0000      -0.571751       -15.5581
 194   2.0000      -0.566933       -15.4270
 195   2.0000      -0.565303       -15.3827
 196   2.0000      -0.552192       -15.0259
 197   2.0000      -0.550530       -14.9807
 198   2.0000      -0.549643       -14.9566
 199   2.0000      -0.544396       -14.8138
 200   2.0000      -0.541554       -14.7364
 201   2.0000      -0.540862       -14.7176
 202   2.0000      -0.539363       -14.6768
 203   2.0000      -0.538169       -14.6443
 204   2.0000      -0.532133       -14.4801
 205   2.0000      -0.530875       -14.4458
 206   2.0000      -0.530710       -14.4414
 207   2.0000      -0.530147       -14.4260
 208   2.0000      -0.528083       -14.3699
 209   2.0000      -0.523991       -14.2585
 210   2.0000      -0.523236       -14.2380
 211   2.0000      -0.518092       -14.0980
 212   2.0000      -0.516143       -14.0450
 213   2.0000      -0.515069       -14.0157
 214   2.0000      -0.512877       -13.9561
 215   2.0000      -0.510691       -13.8966
 216   2.0000      -0.508676       -13.8418
 217   2.0000      -0.508032       -13.8243
 218   2.0000      -0.505522       -13.7560
 219   2.0000      -0.500396       -13.6165
 220   2.0000      -0.497956       -13.5501
 221   2.0000      -0.496783       -13.5182
 222   2.0000      -0.495819       -13.4919
 223   2.0000      -0.493511       -13.4291
 224   2.0000      -0.491387       -13.3713
 225   2.0000      -0.491126       -13.3642
 226   2.0000      -0.488696       -13.2981
 227   2.0000      -0.484695       -13.1892
 228   2.0000      -0.481591       -13.1047
 229   2.0000      -0.481486       -13.1019
 230   2.0000      -0.480656       -13.0793
 231   2.0000      -0.479977       -13.0608
 232   2.0000      -0.475921       -12.9505
 233   2.0000      -0.475793       -12.9470
 234   2.0000      -0.474251       -12.9050
 235   2.0000      -0.470791       -12.8109
 236   2.0000      -0.466793       -12.7021
 237   2.0000      -0.465787       -12.6747
 238   2.0000      -0.463805       -12.6208
 239   2.0000      -0.461835       -12.5672
 240   2.0000      -0.459267       -12.4973
 241   2.0000      -0.455149       -12.3852
 242   2.0000      -0.454817       -12.3762
 243   2.0000      -0.454442       -12.3660
 244   2.0000      -0.451110       -12.2753
 245   2.0000      -0.450873       -12.2689
 246   2.0000      -0.450078       -12.2472
 247   2.0000      -0.447520       -12.1776
 248   2.0000      -0.445551       -12.1241
 249   2.0000      -0.443722       -12.0743
 250   2.0000      -0.440743       -11.9932
 251   2.0000      -0.439267       -11.9531
 252   2.0000      -0.437924       -11.9165
 253   2.0000      -0.434863       -11.8332
 254   2.0000      -0.433776       -11.8037
 255   2.0000      -0.433614       -11.7992
 256   2.0000      -0.432612       -11.7720
 257   2.0000      -0.432357       -11.7650
 258   2.0000      -0.431409       -11.7392
 259   2.0000      -0.429914       -11.6986
 260   2.0000      -0.429129       -11.6772
 261   2.0000      -0.427357       -11.6290
 262   2.0000      -0.427124       -11.6226
 263   2.0000      -0.426269       -11.5994
 264   2.0000      -0.425965       -11.5911
 265   2.0000      -0.422515       -11.4972
 266   2.0000      -0.421746       -11.4763
 267   2.0000      -0.419342       -11.4109
 268   2.0000      -0.419313       -11.4101
 269   2.0000      -0.416687       -11.3386
 270   2.0000      -0.414050       -11.2669
 271   2.0000      -0.412260       -11.2182
 272   2.0000      -0.405584       -11.0365
 273   2.0000      -0.403451       -10.9785
 274   2.0000      -0.401675       -10.9301
 275   2.0000      -0.400201       -10.8900
 276   2.0000      -0.397842       -10.8258
 277   2.0000      -0.395166       -10.7530
 278   2.0000      -0.390445       -10.6245
 279   2.0000      -0.388410       -10.5692
 280   2.0000      -0.377807       -10.2806
 281   2.0000      -0.375889       -10.2285
 282   2.0000      -0.373417       -10.1612
 283   2.0000      -0.370379       -10.0785
 284   2.0000      -0.362294        -9.8585
 285   2.0000      -0.351496        -9.5647
 286   2.0000      -0.342033        -9.3072
 287   2.0000      -0.333342        -9.0707
 288   2.0000      -0.332268        -9.0415
 289   2.0000      -0.329422        -8.9640
 290   2.0000      -0.328857        -8.9487
 291   2.0000      -0.323731        -8.8092
 292   2.0000      -0.318678        -8.6717
 293   2.0000      -0.315233        -8.5779
 294   2.0000      -0.311014        -8.4631
 295   2.0000      -0.306661        -8.3447
 296   2.0000      -0.292927        -7.9709
 297   2.0000      -0.284517        -7.7421
 298   2.0000      -0.280517        -7.6333
 299   2.0000      -0.272850        -7.4246
 300   2.0000      -0.259563        -7.0631
 301   2.0000      -0.230822        -6.2810
 302   0.0000      -0.096456        -2.6247
 303   0.0000      -0.092711        -2.5228
 304   0.0000      -0.055362        -1.5065
 305   0.0000      -0.054038        -1.4704
 306   0.0000      -0.041881        -1.1396

MULLIKEN ATOMIC CHARGES
-----------------------
   0 C :   -0.082680
   1 C :    0.035947
   2 C :   -0.032326
   3 C :   -0.114357
   4 S :    0.173407
   5 C :   -0.103882
   6 C :    0.014003
   7 C :    0.294646
   8 C :   -0.299980
   9 C :   -0.190216
  10 N :    0.179271
  11 C :   -0.191127
  12 N :    0.172015
  13 C :   -0.063038
  14 C :   -0.047815
  15 S :    0.166663
  16 C :   -0.049678
  17 C :   -0.116770
  18 C :    0.158033
  19 C :   -0.118478
  20 S :    0.155002
  21 C :   -0.108382
  22 C :    0.173349
  23 N :   -0.165581
  24 C :    0.127013
  25 C :   -0.123849
  26 C :   -0.099824
  27 S :    0.181411
  28 C :   -0.059056
  29 C :   -0.003555
  30 C :   -0.366150
  31 N :    0.221382
  32 C :    0.139258
  33 C :   -0.227798
  34 S :    0.145650
  35 S :    0.182294
  36 C :   -0.235525
  37 C :    0.131422
  38 C :   -0.005853
  39 C :   -0.333079
  40 N :    0.215949
  41 C :   -0.094712
  42 S :    0.160074
  43 C :    0.086058
  44 C :   -0.116822
  45 C :    0.023726
  46 C :    0.106550
  47 C :   -0.052458
  48 C :   -0.004669
  49 C :    0.121218
  50 C :    0.014524
  51 C :   -0.137312
  52 C :    0.068524
  53 C :    0.023374
  54 C :    0.066636
  55 C :    0.024718
  56 C :   -0.101420
  57 C :    0.116545
  58 C :    0.000793
  59 C :   -0.046441
  60 C :    0.026369
  61 C :    0.002413
  62 C :   -0.037973
  63 C :   -0.080145
  64 C :    0.343553
  65 C :   -0.359137
  66 C :   -0.184295
  67 N :    0.145378
  68 C :   -0.192350
  69 N :    0.141013
  70 C :    0.047455
  71 C :    0.000483
  72 C :    0.151742
  73 O :   -0.157363
  74 C :   -0.083207
  75 C :    0.098673
  76 C :    0.097463
  77 C :   -0.086331
  78 C :   -0.020247
  79 C :    0.037293
  80 C :    0.036509
  81 C :   -0.017658
  82 H :    0.034217
  83 H :    0.011149
  84 H :    0.015386
  85 H :   -0.021933
  86 H :    0.039256
  87 H :    0.039548
  88 H :    0.043535
  89 H :   -0.016102
  90 H :   -0.028007
  91 H :   -0.024310
  92 H :    0.001757
  93 H :   -0.001261
  94 H :    0.000904
  95 H :    0.025965
  96 H :    0.012617
  97 H :    0.021827
  98 H :    0.000728
  99 H :   -0.002500
 100 H :    0.022241
 101 H :    0.012182
 102 H :    0.020512
 103 H :   -0.031471
 104 H :   -0.011695
 105 H :   -0.025944
 106 H :   -0.001128
 107 H :    0.028472
 108 H :    0.006910
 109 H :   -0.016075
 110 H :   -0.010471
 111 H :   -0.010424
 112 H :   -0.006242
 113 H :   -0.006884
 114 H :   -0.019015
Sum of atomic charges:   -0.0000000

LOEWDIN ATOMIC CHARGES
----------------------
   0 C :   -0.181087
   1 C :   -0.034100
   2 C :   -0.079942
   3 C :   -0.181911
   4 S :    0.471025
   5 C :   -0.186064
   6 C :   -0.067940
   7 C :    0.083670
   8 C :   -0.103563
   9 C :   -0.017991
  10 N :   -0.031844
  11 C :   -0.016239
  12 N :   -0.035099
  13 C :   -0.039390
  14 C :   -0.174452
  15 S :    0.465954
  16 C :   -0.173700
  17 C :   -0.086507
  18 C :   -0.013592
  19 C :   -0.221927
  20 S :    0.431539
  21 C :   -0.215333
  22 C :   -0.019693
  23 N :    0.026129
  24 C :    0.040337
  25 C :   -0.075505
  26 C :   -0.191304
  27 S :    0.463963
  28 C :   -0.131813
  29 C :   -0.112623
  30 C :   -0.058984
  31 N :   -0.029379
  32 C :   -0.060264
  33 C :   -0.337271
  34 S :    0.437956
  35 S :    0.418016
  36 C :   -0.337248
  37 C :   -0.061163
  38 C :   -0.101330
  39 C :   -0.041639
  40 N :   -0.033835
  41 C :   -0.117919
  42 S :    0.451192
  43 C :   -0.043285
  44 C :   -0.026772
  45 C :    0.008201
  46 C :   -0.013546
  47 C :   -0.007420
  48 C :    0.000979
  49 C :   -0.003258
  50 C :    0.001779
  51 C :   -0.035722
  52 C :   -0.010768
  53 C :   -0.057170
  54 C :   -0.011878
  55 C :   -0.057701
  56 C :   -0.007115
  57 C :   -0.035596
  58 C :    0.005094
  59 C :   -0.013903
  60 C :    0.043648
  61 C :   -0.036684
  62 C :    0.073242
  63 C :   -0.099611
  64 C :    0.077247
  65 C :   -0.144150
  66 C :   -0.017199
  67 N :   -0.058628
  68 C :   -0.019502
  69 N :   -0.058774
  70 C :   -0.025318
  71 C :   -0.054494
  72 C :    0.085348
  73 O :   -0.151059
  74 C :    0.030177
  75 C :   -0.008518
  76 C :   -0.006847
  77 C :    0.018471
  78 C :   -0.005592
  79 C :   -0.014928
  80 C :   -0.013278
  81 C :   -0.010379
  82 H :    0.026572
  83 H :    0.042184
  84 H :    0.036995
  85 H :    0.024080
  86 H :    0.034693
  87 H :    0.033937
  88 H :    0.029420
  89 H :    0.023573
  90 H :    0.018704
  91 H :    0.032231
  92 H :    0.038230
  93 H :    0.020413
  94 H :    0.021057
  95 H :    0.026832
  96 H :    0.026040
  97 H :    0.025568
  98 H :    0.021250
  99 H :    0.020038
 100 H :    0.025790
 101 H :    0.025436
 102 H :    0.024853
 103 H :    0.027458
 104 H :    0.034953
 105 H :    0.031238
 106 H :    0.034835
 107 H :    0.031213
 108 H :    0.041230
 109 H :    0.037939
 110 H :    0.038572
 111 H :    0.034365
 112 H :    0.032645
 113 H :    0.032106
 114 H :    0.031328

  Mayer bond orders larger than 0.100000
B(  0-C ,  1-C ) :   1.5534 B(  0-C ,  4-S ) :   1.1433 B(  0-C , 82-H ) :   0.9642
B(  1-C ,  2-C ) :   1.2750 B(  1-C , 83-H ) :   0.9956 B(  2-C ,  3-C ) :   1.4589
B(  2-C ,  7-C ) :   1.0172 B(  3-C ,  4-S ) :   1.1357 B(  3-C ,  5-C ) :   1.1801
B(  5-C ,  6-C ) :   1.4723 B(  5-C , 15-S ) :   1.1125 B(  6-C ,  7-C ) :   0.9895
B(  6-C , 13-C ) :   1.2857 B(  7-C ,  8-C ) :   1.7132 B(  8-C ,  9-C ) :   1.1328
B(  8-C , 11-C ) :   1.1311 B(  9-C , 10-N ) :   2.9954 B( 11-C , 12-N ) :   3.0021
B( 13-C , 14-C ) :   1.4698 B( 13-C , 84-H ) :   0.9899 B( 14-C , 15-S ) :   1.1067
B( 14-C , 16-C ) :   1.1702 B( 16-C , 17-C ) :   1.4795 B( 16-C , 20-S ) :   1.1048
B( 17-C , 18-C ) :   1.2308 B( 17-C , 85-H ) :   1.0019 B( 18-C , 19-C ) :   1.3983
B( 18-C , 23-N ) :   1.1506 B( 19-C , 20-S ) :   1.0287 B( 19-C , 21-C ) :   1.3852
B( 21-C , 22-C ) :   1.3837 B( 21-C , 27-S ) :   1.0389 B( 22-C , 23-N ) :   1.1423
B( 22-C , 25-C ) :   1.2509 B( 23-N , 24-C ) :   0.9699 B( 24-C , 86-H ) :   0.9722
B( 24-C , 87-H ) :   0.9719 B( 24-C , 88-H ) :   0.9735 B( 25-C , 26-C ) :   1.4465
B( 25-C , 89-H ) :   0.9994 B( 26-C , 27-S ) :   1.1002 B( 26-C , 28-C ) :   1.2010
B( 28-C , 29-C ) :   1.4971 B( 28-C , 34-S ) :   1.1340 B( 29-C , 30-C ) :   1.1596
B( 29-C , 32-C ) :   1.2387 B( 30-C , 31-N ) :   2.9724 B( 32-C , 33-C ) :   1.4368
B( 32-C , 37-C ) :   1.0777 B( 33-C , 34-S ) :   1.0717 B( 33-C , 35-S ) :   1.0796
B( 35-S , 36-C ) :   1.0826 B( 36-C , 37-C ) :   1.4243 B( 36-C , 42-S ) :   1.0830
B( 37-C , 38-C ) :   1.2344 B( 38-C , 39-C ) :   1.1691 B( 38-C , 41-C ) :   1.5321
B( 39-C , 40-N ) :   2.9864 B( 41-C , 42-S ) :   1.1449 B( 41-C , 43-C ) :   1.0476
B( 43-C , 44-C ) :   1.2795 B( 43-C , 48-C ) :   1.3654 B( 44-C , 45-C ) :   1.4021
B( 44-C , 90-H ) :   0.9961 B( 45-C , 46-C ) :   1.3628 B( 45-C , 51-C ) :   0.9152
B( 46-C , 47-C ) :   1.3348 B( 46-C , 49-C ) :   0.9982 B( 47-C , 48-C ) :   1.3957
B( 47-C , 91-H ) :   0.9951 B( 48-C , 92-H ) :   0.9814 B( 49-C , 50-C ) :   1.3659
B( 49-C , 59-C ) :   1.3205 B( 50-C , 51-C ) :   0.9116 B( 50-C , 56-C ) :   1.3810
B( 51-C , 52-C ) :   1.0333 B( 51-C , 54-C ) :   1.0400 B( 52-C , 53-C ) :   1.1009
B( 52-C , 93-H ) :   0.9399 B( 52-C , 94-H ) :   0.9401 B( 53-C , 95-H ) :   0.9646
B( 53-C , 96-H ) :   0.9637 B( 53-C , 97-H ) :   0.9645 B( 54-C , 55-C ) :   1.1000
B( 54-C , 98-H ) :   0.9392 B( 54-C , 99-H ) :   0.9389 B( 55-C ,100-H ) :   0.9646
B( 55-C ,101-H ) :   0.9643 B( 55-C ,102-H ) :   0.9643 B( 56-C , 57-C ) :   1.2701
B( 56-C ,103-H ) :   1.0157 B( 57-C , 58-C ) :   1.3315 B( 57-C , 60-C ) :   1.0679
B( 58-C , 59-C ) :   1.4064 B( 58-C ,104-H ) :   0.9875 B( 59-C ,105-H ) :   0.9932
B( 60-C , 61-C ) :   1.5720 B( 60-C ,106-H ) :   0.9939 B( 61-C , 62-C ) :   1.1610
B( 61-C ,107-H ) :   0.9712 B( 62-C , 63-C ) :   1.5282 B( 62-C ,108-H ) :   0.9637
B( 63-C , 64-C ) :   1.0640 B( 63-C , 72-C ) :   0.9451 B( 64-C , 65-C ) :   1.6190
B( 64-C , 70-C ) :   0.9858 B( 65-C , 66-C ) :   1.1476 B( 65-C , 68-C ) :   1.1494
B( 66-C , 67-N ) :   2.9610 B( 68-C , 69-N ) :   2.9583 B( 70-C , 71-C ) :   1.2182
B( 70-C , 77-C ) :   1.4480 B( 71-C , 72-C ) :   0.9462 B( 71-C , 74-C ) :   1.4701
B( 72-C , 73-O ) :   2.1905 B( 74-C , 75-C ) :   1.1762 B( 74-C ,109-H ) :   1.0166
B( 75-C , 76-C ) :   1.2599 B( 75-C , 81-C ) :   1.2423 B( 76-C , 77-C ) :   1.2038
B( 76-C , 78-C ) :   1.2391 B( 77-C ,110-H ) :   0.9891 B( 78-C , 79-C ) :   1.4884
B( 78-C ,111-H ) :   0.9974 B( 79-C , 80-C ) :   1.2603 B( 79-C ,112-H ) :   0.9882
B( 80-C , 81-C ) :   1.4886 B( 80-C ,113-H ) :   0.9888 B( 81-C ,114-H ) :   0.9979

-----------------------------------------------------------------------------
         ABSORPTION SPECTRUM VIA TRANSITION ELECTRIC DIPOLE MOMENTS
-----------------------------------------------------------------------------
State   Energy  Wavelength   fosc         T2         TX        TY        TZ
        (cm-1)    (nm)                  (au**2)     (au)      (au)      (au)
-----------------------------------------------------------------------------
   0   12612.7    792.8   0.148568990   3.87788  -1.38495  -0.84017  -1.11978
   1   21442.9    466.4   2.720378473  41.76584  -1.58394  -5.35713  -3.24933
   2   22425.5    445.9   0.727802554  10.68432   2.79013   0.36108   1.66407
   3   23643.4    423.0   0.459093925   6.39244   1.90822   0.84828   1.42532
   4   24480.4    408.5   0.013677383   0.18393  -0.27294  -0.22478  -0.24272
   5   25837.6    387.0   0.003972084   0.05061  -0.07733  -0.18658  -0.09909
   6   26812.3    373.0   0.126211017   1.54967  -0.62659   0.96153   0.48220
   7   27841.6    359.2   0.000012515   0.00015   0.00500  -0.00691  -0.00868
   8   28900.9    346.0   0.077064475   0.87785   0.46191  -0.74346  -0.33429
   9   29628.0    337.5   0.209657540   2.32961  -0.95080   1.10499   0.45229
  10   29979.8    333.6   0.001755251   0.01927   0.13688  -0.01997  -0.01182
  11   30362.3    329.4   0.003491575   0.03786   0.18162  -0.05129  -0.04737
  12   30568.8    327.1   0.005645758   0.06080   0.24383  -0.03645   0.00448
  13   31290.5    319.6   0.403028776   4.24033   1.41269  -1.30469   0.73650
  14   31531.8    317.1   0.155612528   1.62469   1.04975  -0.61699  -0.37688
  15   32039.7    312.1   0.528055503   5.42584   0.45982  -2.28171  -0.09073
  16   32556.0    307.2   0.548844073   5.55001   0.08719   2.19254   0.85742
  17   32993.3    303.1   0.000187529   0.00187   0.02804  -0.01894  -0.02694
  18   33277.8    300.5   0.062700348   0.62028  -0.35697  -0.58842  -0.38291
  19   33333.0    300.0   0.100689690   0.99446  -0.71323  -0.42475  -0.55258
  20   33589.6    297.7   0.010352115   0.10146  -0.29261  -0.01911  -0.12441
  21   33688.4    296.8   0.000608047   0.00594   0.03468  -0.02823   0.06279
  22   33984.4    294.3   0.361779090   3.50461  -1.61019   0.75346   0.58667
  23   34200.2    292.4   0.507711183   4.88724  -1.76085   1.17122   0.64411
  24   34377.1    290.9   0.005385097   0.05157   0.21288  -0.07896   0.00427
  25   34461.9    290.2   0.103655736   0.99022   0.77748  -0.40192   0.47351
  26   35465.5    282.0   0.006280468   0.05830  -0.20350   0.11779  -0.05489
  27   35752.2    279.7   0.004006753   0.03689  -0.10430   0.15993  -0.02094
  28   36738.1    272.2   0.016656517   0.14926  -0.09052   0.33980   0.16001
  29   37909.3    263.8   0.081572068   0.70839   0.83919  -0.06379   0.00889
  30   38039.7    262.9   0.014066910   0.12174   0.31954   0.06431  -0.12450
  31   38322.1    260.9   0.035672346   0.30645   0.55189   0.00607  -0.04278
  32   38342.8    260.8   0.028218478   0.24228  -0.21848   0.42166   0.12942
  33   38801.2    257.7   0.006964920   0.05909  -0.10871   0.20239   0.07945
  34   39145.1    255.5   0.052812144   0.44415   0.56838   0.20144   0.28376
  35   39273.2    254.6   0.131029012   1.09836  -0.80923  -0.63393  -0.20409
  36   39495.9    253.2   0.030995378   0.25836  -0.11798  -0.44972  -0.20539
  37   39678.7    252.0   0.006709763   0.05567  -0.19506  -0.03851  -0.12703
  38   39904.1    250.6   0.001602908   0.01322   0.04219  -0.10688   0.00461
  39   40098.3    249.4   0.147606971   1.21187   0.67748   0.79041   0.35796

FINAL SINGLE POINT ENERGY     -5814.007462916816

DIPOLE MOMENT
-------------
                                X             Y             Z
Electronic contribution:    -53.43456    -102.39587     -71.03179
Nuclear contribution   :     54.56583      97.40796      71.61743
                        -----------------------------------------
Total Dipole Moment    :      1.13127      -4.98792       0.58564
                        -----------------------------------------
Magnitude (a.u.)       :      5.14802
Magnitude (Debye)      :     13.08522

Rotational constants in cm-1:     0.001119     0.000114     0.000104
Rotational constants in MHz :    33.539522     3.406504     3.124252

                             ****ORCA TERMINATED NORMALLY****
TOTAL RUN TIME: 0 days 0 hours 12 minutes 28 seconds 663 msec
