                         Program Version 4.2.0 -  RELEASE  -
|  1> # ORCA input file
|  2> # SCF done       -216.176009024792          0.000427942322
|  3> ! CAM-B3LYP def2-SVP def2/J RIJCOSX Grid4 TightSCF
|  4> %maxcore 5000
|  5> %tddft
|  6>     Mode sTDDFT
|  7>     Ethresh 5.0
|  8>     maxcore 5000
|  9> end
| 10>
| 11> %pal
| 12>   nprocs 6
| 13>   end
| 14> * xyz 0 1
| 15>    C        0.96786         0.88061        -1.16676
| 16>    C       -0.33188         0.98414        -1.59027
| 17>    C       -0.90389         0.15051        -2.57466
| 18>    N       -1.41907        -0.50348        -3.36410
| 19>    C       -1.27359         1.86723        -1.02921
| 20>    N       -2.07549         2.55870        -0.58464
| 21>    C        1.89329        -0.17449        -1.56685
| 22>    C        2.92243        -0.27399        -0.58495
| 23>    C        3.91458        -1.20725        -0.67792
| 24>    C        3.92990        -2.08811        -1.78272
| 25>    C        2.91696        -1.97788        -2.77937
| 26>    C        1.89655        -1.00723        -2.65300
| 27>    C        2.95149        -2.85477        -3.88244
| 28>    C        3.93546        -3.79901        -3.99538
| 29>    C        4.93055        -3.90867        -3.01258
| 30>    C        4.92780        -3.07164        -1.92982
| 31>    C        2.71913         0.76388         0.43815
| 32>    O        3.35140         0.95784         1.45034
| 33>    C        1.58326         1.59486        -0.06695
| 34>    C        1.39075         2.82458         0.48118
| 35>    C        0.66938         3.92602        -0.03333
| 36>    C        0.26650         4.17553        -1.33685
| 37>    C       -0.40083         5.38798        -1.45701
| 38>    C       -0.50264         6.08141        -0.23584
| 39>    S        0.23630         5.24462         1.04739
| 40>    C       -1.21107         7.28849        -0.46826
| 41>    C       -1.56191         7.35307        -1.82762
| 42>    C       -1.07350         6.15525        -2.49222
| 43>    C       -1.23230         5.79912        -3.79855
| 44>    C       -1.91544         6.61472        -4.72553
| 45>    N       -2.46453         7.28094        -5.47944
| 46>    C       -0.71352         4.58471        -4.29683
| 47>    N       -0.28075         3.59792        -4.68868
| 48>    C       -2.26123         8.51623        -2.15286
| 49>    C       -2.43956         9.33443        -1.05512
| 50>    S       -1.73941         8.65513         0.40560
| 51>    C       -3.08108        10.60360        -1.01401
| 52>    C       -3.22971        11.41887         0.07393
| 53>    C       -3.88732        12.63470        -0.22217
| 54>    C       -4.23001        13.71454         0.61273
| 55>    C       -4.88188        14.79937        -0.00109
| 56>    C       -5.20222        14.70710        -1.38055
| 57>    N       -4.91223        13.69022        -2.16112
| 58>    C       -4.26174        12.69873        -1.59363
| 59>    S       -3.77324        11.29023        -2.47468
| 60>    S       -6.01323        16.12277        -1.98860
| 61>    C       -5.86629        16.86170        -0.41950
| 62>    C       -5.26421        16.07723         0.50898
| 63>    F       -5.00745        16.49992         1.75569
| 64>    F       -6.31376        18.09539        -0.23013
| 65>    C       -3.95462        13.71040         2.03309
| 66>    C       -4.81419        14.09004         3.03797
| 67>    C       -4.22489        13.98368         4.30125
| 68>    C       -2.90342        13.51655         4.24575
| 69>    S       -2.39414        13.19648         2.64917
| 70>    C       -2.38560        13.45820         5.56543
| 71>    C       -3.38399        13.90485         6.45540
| 72>    C       -4.57925        14.22846         5.69013
| 73>    C       -5.78477        14.64718         6.16768
| 74>    C       -6.04891        14.81380         7.54508
| 75>    N       -6.29845        14.93609         8.65681
| 76>    C       -6.87603        14.90668         5.30977
| 77>    N       -7.76668        15.10502         4.61589
| 78>    C       -2.96662        13.91940         7.78083
| 79>    C       -1.65749        13.48016         7.92070
| 80>    S       -0.95144        13.02395         6.36557
| 81>    C       -0.84993        13.27833         9.06100
| 82>    C       -0.99402        13.77401        10.32526
| 83>    C       -0.15721        13.39817        11.45271
| 84>    C        0.64111        12.28672        11.53700
| 85>    C        1.41222        11.95478        12.67078
| 86>    N        2.06623        11.63270        13.55750
| 87>    C        0.77530        11.30339        10.53458
| 88>    N        0.91779        10.45533         9.77308
| 89>    C       -0.39040        14.35805        12.52314
| 90>    C       -1.40892        15.26053        12.10484
| 91>    C       -1.85213        14.91474        10.74445
| 92>    O       -2.69655        15.49372        10.09565
| 93>    C       -1.85003        16.27444        12.90544
| 94>    C       -1.27990        16.43535        14.18794
| 95>    C       -0.25552        15.54015        14.61260
| 96>    C        0.18049        14.49970        13.76046
| 97>    C        0.30892        15.71292        15.89282
| 98>    C       -0.11732        16.71982        16.71564
| 99>    C       -1.12589        17.60032        16.29653
|100>    C       -1.69530        17.46080        15.05980
|101>    H        4.68006        -1.27210         0.08097
|102>    H        1.14887        -0.93619        -3.42744
|103>    H        2.18142        -2.76851        -4.63472
|104>    H        3.95217        -4.46746        -4.84304
|105>    H        5.69964        -4.65912        -3.11783
|106>    H        5.69171        -3.15098        -1.17026
|107>    H        1.92423         2.99550         1.41172
|108>    H        0.49410         3.51922        -2.15669
|109>    H       -2.62542         8.77134        -3.13174
|110>    H       -2.87432        11.14259         1.05022
|111>    H       -5.82593        14.40507         2.86050
|112>    H       -3.56851        14.23290         8.61308
|113>    H        0.01714        12.65468         8.87449
|114>    H       -2.62602        16.94334        12.56410
|115>    H        0.96270        13.84353        14.10779
|116>    H        1.08406        15.03164        16.21175
|117>    H        0.32055        16.84317        17.69480
|118>    H       -1.44934        18.38968        16.95837
|119>    H       -2.47241        18.13535        14.73153
|120> *
|121>
|122>                          ****END OF INPUT****

CARTESIAN COORDINATES (ANGSTROEM)
---------------------------------
  C      0.967860    0.880610   -1.166760
  C     -0.331880    0.984140   -1.590270
  C     -0.903890    0.150510   -2.574660
  N     -1.419070   -0.503480   -3.364100
  C     -1.273590    1.867230   -1.029210
  N     -2.075490    2.558700   -0.584640
  C      1.893290   -0.174490   -1.566850
  C      2.922430   -0.273990   -0.584950
  C      3.914580   -1.207250   -0.677920
  C      3.929900   -2.088110   -1.782720
  C      2.916960   -1.977880   -2.779370
  C      1.896550   -1.007230   -2.653000
  C      2.951490   -2.854770   -3.882440
  C      3.935460   -3.799010   -3.995380
  C      4.930550   -3.908670   -3.012580
  C      4.927800   -3.071640   -1.929820
  C      2.719130    0.763880    0.438150
  O      3.351400    0.957840    1.450340
  C      1.583260    1.594860   -0.066950
  C      1.390750    2.824580    0.481180
  C      0.669380    3.926020   -0.033330
  C      0.266500    4.175530   -1.336850
  C     -0.400830    5.387980   -1.457010
  C     -0.502640    6.081410   -0.235840
  S      0.236300    5.244620    1.047390
  C     -1.211070    7.288490   -0.468260
  C     -1.561910    7.353070   -1.827620
  C     -1.073500    6.155250   -2.492220
  C     -1.232300    5.799120   -3.798550
  C     -1.915440    6.614720   -4.725530
  N     -2.464530    7.280940   -5.479440
  C     -0.713520    4.584710   -4.296830
  N     -0.280750    3.597920   -4.688680
  C     -2.261230    8.516230   -2.152860
  C     -2.439560    9.334430   -1.055120
  S     -1.739410    8.655130    0.405600
  C     -3.081080   10.603600   -1.014010
  C     -3.229710   11.418870    0.073930
  C     -3.887320   12.634700   -0.222170
  C     -4.230010   13.714540    0.612730
  C     -4.881880   14.799370   -0.001090
  C     -5.202220   14.707100   -1.380550
  N     -4.912230   13.690220   -2.161120
  C     -4.261740   12.698730   -1.593630
  S     -3.773240   11.290230   -2.474680
  S     -6.013230   16.122770   -1.988600
  C     -5.866290   16.861700   -0.419500
  C     -5.264210   16.077230    0.508980
  F     -5.007450   16.499920    1.755690
  F     -6.313760   18.095390   -0.230130
  C     -3.954620   13.710400    2.033090
  C     -4.814190   14.090040    3.037970
  C     -4.224890   13.983680    4.301250
  C     -2.903420   13.516550    4.245750
  S     -2.394140   13.196480    2.649170
  C     -2.385600   13.458200    5.565430
  C     -3.383990   13.904850    6.455400
  C     -4.579250   14.228460    5.690130
  C     -5.784770   14.647180    6.167680
  C     -6.048910   14.813800    7.545080
  N     -6.298450   14.936090    8.656810
  C     -6.876030   14.906680    5.309770
  N     -7.766680   15.105020    4.615890
  C     -2.966620   13.919400    7.780830
  C     -1.657490   13.480160    7.920700
  S     -0.951440   13.023950    6.365570
  C     -0.849930   13.278330    9.061000
  C     -0.994020   13.774010   10.325260
  C     -0.157210   13.398170   11.452710
  C      0.641110   12.286720   11.537000
  C      1.412220   11.954780   12.670780
  N      2.066230   11.632700   13.557500
  C      0.775300   11.303390   10.534580
  N      0.917790   10.455330    9.773080
  C     -0.390400   14.358050   12.523140
  C     -1.408920   15.260530   12.104840
  C     -1.852130   14.914740   10.744450
  O     -2.696550   15.493720   10.095650
  C     -1.850030   16.274440   12.905440
  C     -1.279900   16.435350   14.187940
  C     -0.255520   15.540150   14.612600
  C      0.180490   14.499700   13.760460
  C      0.308920   15.712920   15.892820
  C     -0.117320   16.719820   16.715640
  C     -1.125890   17.600320   16.296530
  C     -1.695300   17.460800   15.059800
  H      4.680060   -1.272100    0.080970
  H      1.148870   -0.936190   -3.427440
  H      2.181420   -2.768510   -4.634720
  H      3.952170   -4.467460   -4.843040
  H      5.699640   -4.659120   -3.117830
  H      5.691710   -3.150980   -1.170260
  H      1.924230    2.995500    1.411720
  H      0.494100    3.519220   -2.156690
  H     -2.625420    8.771340   -3.131740
  H     -2.874320   11.142590    1.050220
  H     -5.825930   14.405070    2.860500
  H     -3.568510   14.232900    8.613080
  H      0.017140   12.654680    8.874490
  H     -2.626020   16.943340   12.564100
  H      0.962700   13.843530   14.107790
  H      1.084060   15.031640   16.211750
  H      0.320550   16.843170   17.694800
  H     -1.449340   18.389680   16.958370
  H     -2.472410   18.135350   14.731530

 Total Charge           Charge          ....    0
 Multiplicity           Mult            ....    1
 Number of Electrons    NEL             ....  614
 Basis Dimension        Dim             .... 1323

ORBITAL ENERGIES
----------------

  NO   OCC          E(Eh)            E(eV)
   0   2.0000     -89.004700     -2421.9410
   1   2.0000     -89.002836     -2421.8903
   2   2.0000     -89.001455     -2421.8527
   3   2.0000     -89.000639     -2421.8305
   4   2.0000     -88.978579     -2421.2302
   5   2.0000     -88.973362     -2421.0883
   6   2.0000     -24.817580      -675.3207
   7   2.0000     -24.806025      -675.0063
   8   2.0000     -19.220103      -523.0056
   9   2.0000     -19.216484      -522.9071
  10   2.0000     -14.439104      -392.9080
  11   2.0000     -14.437516      -392.8648
  12   2.0000     -14.436712      -392.8429
  13   2.0000     -14.436396      -392.8343
  14   2.0000     -14.433795      -392.7635
  15   2.0000     -14.419853      -392.3841
  16   2.0000     -14.418999      -392.3609
  17   2.0000     -14.416293      -392.2873
  18   2.0000     -14.414477      -392.2379
  19   2.0000     -10.398983      -282.9707
  20   2.0000     -10.377630      -282.3897
  21   2.0000     -10.373207      -282.2693
  22   2.0000     -10.373187      -282.2688
  23   2.0000     -10.371909      -282.2340
  24   2.0000     -10.367829      -282.1230
  25   2.0000     -10.360496      -281.9234
  26   2.0000     -10.359987      -281.9096
  27   2.0000     -10.359307      -281.8911
  28   2.0000     -10.355685      -281.7925
  29   2.0000     -10.350915      -281.6627
  30   2.0000     -10.347442      -281.5682
  31   2.0000     -10.345478      -281.5148
  32   2.0000     -10.344765      -281.4954
  33   2.0000     -10.344217      -281.4805
  34   2.0000     -10.344125      -281.4779
  35   2.0000     -10.344112      -281.4776
  36   2.0000     -10.343128      -281.4508
  37   2.0000     -10.341066      -281.3947
  38   2.0000     -10.338706      -281.3305
  39   2.0000     -10.338556      -281.3264
  40   2.0000     -10.337495      -281.2975
  41   2.0000     -10.336510      -281.2707
  42   2.0000     -10.336161      -281.2612
  43   2.0000     -10.334768      -281.2233
  44   2.0000     -10.333149      -281.1793
  45   2.0000     -10.332924      -281.1732
  46   2.0000     -10.332166      -281.1525
  47   2.0000     -10.331706      -281.1400
  48   2.0000     -10.327357      -281.0217
  49   2.0000     -10.322113      -280.8790
  50   2.0000     -10.321023      -280.8493
  51   2.0000     -10.320359      -280.8313
  52   2.0000     -10.319202      -280.7998
  53   2.0000     -10.317064      -280.7416
  54   2.0000     -10.316855      -280.7359
  55   2.0000     -10.316853      -280.7358
  56   2.0000     -10.316276      -280.7201
  57   2.0000     -10.314310      -280.6666
  58   2.0000     -10.314250      -280.6650
  59   2.0000     -10.313795      -280.6526
  60   2.0000     -10.312654      -280.6216
  61   2.0000     -10.312617      -280.6206
  62   2.0000     -10.312567      -280.6192
  63   2.0000     -10.305126      -280.4167
  64   2.0000     -10.304415      -280.3974
  65   2.0000     -10.304227      -280.3923
  66   2.0000     -10.303303      -280.3671
  67   2.0000     -10.302614      -280.3484
  68   2.0000     -10.299170      -280.2547
  69   2.0000     -10.298935      -280.2483
  70   2.0000     -10.298522      -280.2370
  71   2.0000     -10.298307      -280.2312
  72   2.0000     -10.298207      -280.2285
  73   2.0000     -10.298008      -280.2230
  74   2.0000     -10.297904      -280.2202
  75   2.0000     -10.297226      -280.2018
  76   2.0000     -10.290448      -280.0173
  77   2.0000     -10.290251      -280.0120
  78   2.0000     -10.287792      -279.9450
  79   2.0000     -10.287311      -279.9320
  80   2.0000     -10.287116      -279.9267
  81   2.0000     -10.286841      -279.9192
  82   2.0000     -10.286712      -279.9157
  83   2.0000     -10.286366      -279.9062
  84   2.0000     -10.285988      -279.8960
  85   2.0000     -10.285369      -279.8791
  86   2.0000      -8.098891      -220.3820
  87   2.0000      -8.097342      -220.3399
  88   2.0000      -8.096259      -220.3104
  89   2.0000      -8.095345      -220.2855
  90   2.0000      -8.075791      -219.7534
  91   2.0000      -8.069741      -219.5888
  92   2.0000      -6.068115      -165.1218
  93   2.0000      -6.066609      -165.0808
  94   2.0000      -6.065359      -165.0468
  95   2.0000      -6.064494      -165.0233
  96   2.0000      -6.063945      -165.0083
  97   2.0000      -6.062454      -164.9677
  98   2.0000      -6.061385      -164.9387
  99   2.0000      -6.061240      -164.9347
 100   2.0000      -6.060326      -164.9099
 101   2.0000      -6.059650      -164.8915
 102   2.0000      -6.058812      -164.8686
 103   2.0000      -6.057857      -164.8427
 104   2.0000      -6.045327      -164.5017
 105   2.0000      -6.041515      -164.3980
 106   2.0000      -6.039234      -164.3359
 107   2.0000      -6.036532      -164.2624
 108   2.0000      -6.035203      -164.2262
 109   2.0000      -6.031003      -164.1119
 110   2.0000      -1.336377       -36.3647
 111   2.0000      -1.316921       -35.8352
 112   2.0000      -1.135831       -30.9075
 113   2.0000      -1.132095       -30.8059
 114   2.0000      -1.087227       -29.5850
 115   2.0000      -1.056414       -28.7465
 116   2.0000      -1.056204       -28.7408
 117   2.0000      -1.029509       -28.0144
 118   2.0000      -1.027927       -27.9713
 119   2.0000      -1.021883       -27.8069
 120   2.0000      -1.021092       -27.7853
 121   2.0000      -1.015566       -27.6350
 122   2.0000      -1.014071       -27.5943
 123   2.0000      -1.013109       -27.5681
 124   2.0000      -1.010821       -27.5058
 125   2.0000      -1.002346       -27.2752
 126   2.0000      -1.000770       -27.2323
 127   2.0000      -1.000344       -27.2207
 128   2.0000      -0.995985       -27.1021
 129   2.0000      -0.994272       -27.0555
 130   2.0000      -0.983943       -26.7744
 131   2.0000      -0.975154       -26.5353
 132   2.0000      -0.972858       -26.4728
 133   2.0000      -0.969446       -26.3800
 134   2.0000      -0.964639       -26.2492
 135   2.0000      -0.940967       -25.6050
 136   2.0000      -0.930688       -25.3253
 137   2.0000      -0.928204       -25.2577
 138   2.0000      -0.921417       -25.0730
 139   2.0000      -0.917127       -24.9563
 140   2.0000      -0.902070       -24.5466
 141   2.0000      -0.899476       -24.4760
 142   2.0000      -0.883821       -24.0500
 143   2.0000      -0.883203       -24.0332
 144   2.0000      -0.882056       -24.0020
 145   2.0000      -0.881084       -23.9755
 146   2.0000      -0.874806       -23.8047
 147   2.0000      -0.871470       -23.7139
 148   2.0000      -0.869146       -23.6507
 149   2.0000      -0.866967       -23.5914
 150   2.0000      -0.861802       -23.4508
 151   2.0000      -0.848665       -23.0933
 152   2.0000      -0.832431       -22.6516
 153   2.0000      -0.829771       -22.5792
 154   2.0000      -0.829061       -22.5599
 155   2.0000      -0.820135       -22.3170
 156   2.0000      -0.816325       -22.2133
 157   2.0000      -0.800368       -21.7791
 158   2.0000      -0.787327       -21.4243
 159   2.0000      -0.784708       -21.3530
 160   2.0000      -0.782344       -21.2887
 161   2.0000      -0.763982       -20.7890
 162   2.0000      -0.763578       -20.7780
 163   2.0000      -0.754595       -20.5336
 164   2.0000      -0.741005       -20.1638
 165   2.0000      -0.728507       -19.8237
 166   2.0000      -0.724863       -19.7245
 167   2.0000      -0.717684       -19.5292
 168   2.0000      -0.709534       -19.3074
 169   2.0000      -0.706477       -19.2242
 170   2.0000      -0.705691       -19.2028
 171   2.0000      -0.702722       -19.1220
 172   2.0000      -0.701625       -19.0922
 173   2.0000      -0.697973       -18.9928
 174   2.0000      -0.692718       -18.8498
 175   2.0000      -0.690852       -18.7990
 176   2.0000      -0.686913       -18.6919
 177   2.0000      -0.681858       -18.5543
 178   2.0000      -0.677042       -18.4233
 179   2.0000      -0.672572       -18.3016
 180   2.0000      -0.665713       -18.1150
 181   2.0000      -0.660058       -17.9611
 182   2.0000      -0.651373       -17.7248
 183   2.0000      -0.643000       -17.4969
 184   2.0000      -0.641596       -17.4587
 185   2.0000      -0.637952       -17.3596
 186   2.0000      -0.634485       -17.2652
 187   2.0000      -0.633481       -17.2379
 188   2.0000      -0.627763       -17.0823
 189   2.0000      -0.626362       -17.0442
 190   2.0000      -0.622661       -16.9435
 191   2.0000      -0.617154       -16.7936
 192   2.0000      -0.610613       -16.6156
 193   2.0000      -0.608334       -16.5536
 194   2.0000      -0.607385       -16.5278
 195   2.0000      -0.603201       -16.4139
 196   2.0000      -0.601499       -16.3676
 197   2.0000      -0.598237       -16.2788
 198   2.0000      -0.591430       -16.0936
 199   2.0000      -0.588238       -16.0068
 200   2.0000      -0.574781       -15.6406
 201   2.0000      -0.568502       -15.4697
 202   2.0000      -0.565643       -15.3919
 203   2.0000      -0.562087       -15.2952
 204   2.0000      -0.558665       -15.2020
 205   2.0000      -0.558120       -15.1872
 206   2.0000      -0.557437       -15.1686
 207   2.0000      -0.555512       -15.1162
 208   2.0000      -0.548712       -14.9312
 209   2.0000      -0.548382       -14.9222
 210   2.0000      -0.547412       -14.8958
 211   2.0000      -0.545900       -14.8547
 212   2.0000      -0.543716       -14.7953
 213   2.0000      -0.542135       -14.7522
 214   2.0000      -0.539558       -14.6821
 215   2.0000      -0.537830       -14.6351
 216   2.0000      -0.531466       -14.4619
 217   2.0000      -0.529086       -14.3972
 218   2.0000      -0.527952       -14.3663
 219   2.0000      -0.525461       -14.2985
 220   2.0000      -0.523507       -14.2454
 221   2.0000      -0.519718       -14.1422
 222   2.0000      -0.518988       -14.1224
 223   2.0000      -0.514512       -14.0006
 224   2.0000      -0.514015       -13.9871
 225   2.0000      -0.512451       -13.9445
 226   2.0000      -0.511885       -13.9291
 227   2.0000      -0.511325       -13.9139
 228   2.0000      -0.511081       -13.9072
 229   2.0000      -0.508292       -13.8313
 230   2.0000      -0.507006       -13.7963
 231   2.0000      -0.506139       -13.7727
 232   2.0000      -0.503572       -13.7029
 233   2.0000      -0.499974       -13.6050
 234   2.0000      -0.497496       -13.5375
 235   2.0000      -0.495659       -13.4876
 236   2.0000      -0.494150       -13.4465
 237   2.0000      -0.492515       -13.4020
 238   2.0000      -0.488163       -13.2836
 239   2.0000      -0.486798       -13.2464
 240   2.0000      -0.485860       -13.2209
 241   2.0000      -0.483421       -13.1546
 242   2.0000      -0.480709       -13.0808
 243   2.0000      -0.475551       -12.9404
 244   2.0000      -0.472428       -12.8554
 245   2.0000      -0.467526       -12.7220
 246   2.0000      -0.467001       -12.7077
 247   2.0000      -0.465971       -12.6797
 248   2.0000      -0.465889       -12.6775
 249   2.0000      -0.464921       -12.6511
 250   2.0000      -0.463637       -12.6162
 251   2.0000      -0.461791       -12.5660
 252   2.0000      -0.460640       -12.5346
 253   2.0000      -0.453062       -12.3284
 254   2.0000      -0.452616       -12.3163
 255   2.0000      -0.452270       -12.3069
 256   2.0000      -0.451560       -12.2876
 257   2.0000      -0.449801       -12.2397
 258   2.0000      -0.447006       -12.1637
 259   2.0000      -0.446529       -12.1507
 260   2.0000      -0.446183       -12.1413
 261   2.0000      -0.445793       -12.1306
 262   2.0000      -0.444378       -12.0921
 263   2.0000      -0.444276       -12.0894
 264   2.0000      -0.441994       -12.0273
 265   2.0000      -0.441125       -12.0036
 266   2.0000      -0.440420       -11.9844
 267   2.0000      -0.439825       -11.9683
 268   2.0000      -0.435852       -11.8601
 269   2.0000      -0.434954       -11.8357
 270   2.0000      -0.433998       -11.8097
 271   2.0000      -0.433548       -11.7974
 272   2.0000      -0.432558       -11.7705
 273   2.0000      -0.431647       -11.7457
 274   2.0000      -0.430770       -11.7218
 275   2.0000      -0.428379       -11.6568
 276   2.0000      -0.427426       -11.6309
 277   2.0000      -0.422260       -11.4903
 278   2.0000      -0.421486       -11.4692
 279   2.0000      -0.417994       -11.3742
 280   2.0000      -0.412181       -11.2160
 281   2.0000      -0.411219       -11.1898
 282   2.0000      -0.408154       -11.1064
 283   2.0000      -0.406815       -11.0700
 284   2.0000      -0.404475       -11.0063
 285   2.0000      -0.385673       -10.4947
 286   2.0000      -0.382639       -10.4121
 287   2.0000      -0.374654       -10.1949
 288   2.0000      -0.372239       -10.1291
 289   2.0000      -0.366900        -9.9839
 290   2.0000      -0.359971        -9.7953
 291   2.0000      -0.358350        -9.7512
 292   2.0000      -0.353123        -9.6090
 293   2.0000      -0.346760        -9.4358
 294   2.0000      -0.346492        -9.4285
 295   2.0000      -0.337862        -9.1937
 296   2.0000      -0.336906        -9.1677
 297   2.0000      -0.331038        -9.0080
 298   2.0000      -0.329963        -8.9787
 299   2.0000      -0.318957        -8.6793
 300   2.0000      -0.318426        -8.6648
 301   2.0000      -0.310862        -8.4590
 302   2.0000      -0.300155        -8.1676
 303   2.0000      -0.295533        -8.0419
 304   2.0000      -0.293856        -7.9962
 305   2.0000      -0.275325        -7.4920
 306   2.0000      -0.263052        -7.1580
 307   0.0000      -0.119224        -3.2443
 308   0.0000      -0.116419        -3.1679
 309   0.0000      -0.093095        -2.5333
 310   0.0000      -0.091993        -2.5033
 311   0.0000      -0.065356        -1.7784

MULLIKEN ATOMIC CHARGES
-----------------------
   0 C :    0.265469
   1 C :   -0.326140
   2 C :   -0.170992
   3 N :    0.158997
   4 C :   -0.201433
   5 N :    0.165438
   6 C :    0.028916
   7 C :    0.016908
   8 C :   -0.081463
   9 C :    0.095113
  10 C :    0.092191
  11 C :   -0.077106
  12 C :   -0.017252
  13 C :    0.035434
  14 C :    0.034119
  15 C :   -0.016094
  16 C :    0.135271
  17 O :   -0.142603
  18 C :   -0.137794
  19 C :    0.083599
  20 C :   -0.110582
  21 C :   -0.000328
  22 C :   -0.003998
  23 C :   -0.072916
  24 S :    0.217831
  25 C :   -0.101263
  26 C :    0.022861
  27 C :    0.303789
  28 C :   -0.285630
  29 C :   -0.190774
  30 N :    0.181150
  31 C :   -0.185330
  32 N :    0.177025
  33 C :   -0.058206
  34 C :   -0.046281
  35 S :    0.192033
  36 C :   -0.026704
  37 C :   -0.085021
  38 C :    0.084048
  39 C :    0.132714
  40 C :    0.033007
  41 C :   -0.174005
  42 N :   -0.004109
  43 C :   -0.145760
  44 S :    0.157929
  45 S :    0.144794
  46 C :    0.068359
  47 C :    0.217897
  48 F :   -0.171877
  49 F :   -0.144290
  50 C :   -0.188511
  51 C :    0.027408
  52 C :    0.000264
  53 C :   -0.106470
  54 S :    0.203825
  55 C :   -0.084746
  56 C :   -0.017565
  57 C :    0.303553
  58 C :   -0.287884
  59 C :   -0.189526
  60 N :    0.191151
  61 C :   -0.191010
  62 N :    0.178176
  63 C :    0.028728
  64 C :   -0.112226
  65 S :    0.205744
  66 C :    0.026606
  67 C :   -0.092330
  68 C :    0.305320
  69 C :   -0.347999
  70 C :   -0.180809
  71 N :    0.146837
  72 C :   -0.201593
  73 N :    0.155555
  74 C :    0.052593
  75 C :   -0.010317
  76 C :    0.156468
  77 O :   -0.150464
  78 C :   -0.078308
  79 C :    0.098121
  80 C :    0.096721
  81 C :   -0.084488
  82 C :   -0.021169
  83 C :    0.039108
  84 C :    0.037138
  85 C :   -0.015719
  86 H :   -0.010070
  87 H :    0.001170
  88 H :   -0.007119
  89 H :   -0.003138
  90 H :   -0.003796
  91 H :   -0.016006
  92 H :    0.021667
  93 H :    0.026283
  94 H :    0.019721
  95 H :   -0.006985
  96 H :    0.015135
  97 H :    0.034900
  98 H :    0.021012
  99 H :   -0.009925
 100 H :   -0.007738
 101 H :   -0.009381
 102 H :   -0.004975
 103 H :   -0.004045
 104 H :   -0.015838
Sum of atomic charges:   -0.0000000

LOEWDIN ATOMIC CHARGES
----------------------
   0 C :    0.065720
   1 C :   -0.135995
   2 C :   -0.018539
   3 N :   -0.045406
   4 C :   -0.015598
   5 N :   -0.047440
   6 C :   -0.023159
   7 C :   -0.058245
   8 C :    0.033315
   9 C :   -0.009049
  10 C :   -0.004917
  11 C :    0.019194
  12 C :   -0.005265
  13 C :   -0.012268
  14 C :   -0.012584
  15 C :   -0.009347
  16 C :    0.083675
  17 O :   -0.143134
  18 C :   -0.086926
  19 C :    0.040624
  20 C :   -0.178868
  21 C :    0.008578
  22 C :   -0.064120
  23 C :   -0.163368
  24 S :    0.502587
  25 C :   -0.177947
  26 C :   -0.058669
  27 C :    0.081050
  28 C :   -0.093872
  29 C :   -0.017890
  30 N :   -0.025114
  31 C :   -0.013231
  32 N :   -0.028502
  33 C :   -0.027608
  34 C :   -0.174434
  35 S :    0.485462
  36 C :   -0.158503
  37 C :   -0.077114
  38 C :   -0.059356
  39 C :   -0.018266
  40 C :   -0.076354
  41 C :   -0.130513
  42 N :   -0.088849
  43 C :   -0.129921
  44 S :    0.434730
  45 S :    0.422748
  46 C :   -0.093464
  47 C :   -0.002367
  48 F :   -0.045686
  49 F :   -0.035185
  50 C :   -0.162050
  51 C :   -0.013243
  52 C :   -0.056680
  53 C :   -0.187970
  54 S :    0.494481
  55 C :   -0.162485
  56 C :   -0.072356
  57 C :    0.075536
  58 C :   -0.090143
  59 C :   -0.020572
  60 N :   -0.016017
  61 C :   -0.015789
  62 N :   -0.026174
  63 C :    0.022864
  64 C :   -0.176072
  65 S :    0.494092
  66 C :    0.042419
  67 C :   -0.091988
  68 C :    0.076462
  69 C :   -0.142000
  70 C :   -0.017572
  71 N :   -0.053245
  72 C :   -0.024580
  73 N :   -0.055507
  74 C :   -0.026699
  75 C :   -0.055769
  76 C :    0.085182
  77 O :   -0.138009
  78 C :    0.034327
  79 C :   -0.007986
  80 C :   -0.006095
  81 C :    0.019896
  82 C :   -0.005451
  83 C :   -0.012523
  84 C :   -0.011534
  85 C :   -0.008660
  86 H :    0.039730
  87 H :    0.040676
  88 H :    0.035418
  89 H :    0.033637
  90 H :    0.033091
  91 H :    0.032077
  92 H :    0.046035
  93 H :    0.042987
  94 H :    0.039796
  95 H :    0.013074
  96 H :    0.042486
  97 H :    0.045406
  98 H :    0.043644
  99 H :    0.040273
 100 H :    0.039075
 101 H :    0.034746
 102 H :    0.033352
 103 H :    0.033228
 104 H :    0.032564

  Mayer bond orders larger than 0.100000
B(  0-C ,  1-C ) :   1.6511 B(  0-C ,  6-C ) :   0.9989 B(  0-C , 18-C ) :   1.0329
B(  1-C ,  2-C ) :   1.1268 B(  1-C ,  4-C ) :   1.1716 B(  2-C ,  3-N ) :   2.9929
B(  4-C ,  5-N ) :   2.9944 B(  6-C ,  7-C ) :   1.2134 B(  6-C , 11-C ) :   1.4600
B(  7-C ,  8-C ) :   1.4737 B(  7-C , 16-C ) :   0.9242 B(  8-C ,  9-C ) :   1.1860
B(  8-C , 86-H ) :   1.0158 B(  9-C , 10-C ) :   1.2554 B(  9-C , 15-C ) :   1.2456
B( 10-C , 11-C ) :   1.2062 B( 10-C , 12-C ) :   1.2428 B( 11-C , 87-H ) :   0.9937
B( 12-C , 13-C ) :   1.4893 B( 12-C , 88-H ) :   0.9974 B( 13-C , 14-C ) :   1.2610
B( 13-C , 89-H ) :   0.9885 B( 14-C , 15-C ) :   1.4896 B( 14-C , 90-H ) :   0.9887
B( 15-C , 91-H ) :   0.9974 B( 16-C , 17-O ) :   2.2672 B( 16-C , 18-C ) :   0.9367
B( 18-C , 19-C ) :   1.6819 B( 19-C , 20-C ) :   1.1276 B( 19-C , 92-H ) :   0.9271
B( 20-C , 21-C ) :   1.4008 B( 20-C , 24-S ) :   1.0936 B( 21-C , 22-C ) :   1.3561
B( 21-C , 93-H ) :   0.9794 B( 22-C , 23-C ) :   1.4187 B( 22-C , 27-C ) :   0.9974
B( 23-C , 24-S ) :   1.1525 B( 23-C , 25-C ) :   1.1883 B( 25-C , 26-C ) :   1.4466
B( 25-C , 35-S ) :   1.1223 B( 26-C , 27-C ) :   0.9910 B( 26-C , 33-C ) :   1.2929
B( 27-C , 28-C ) :   1.7225 B( 28-C , 29-C ) :   1.1309 B( 28-C , 31-C ) :   1.1354
B( 29-C , 30-N ) :   2.9954 B( 31-C , 32-N ) :   2.9844 B( 33-C , 34-C ) :   1.4627
B( 33-C , 94-H ) :   0.9905 B( 34-C , 35-S ) :   1.1107 B( 34-C , 36-C ) :   1.1642
B( 36-C , 37-C ) :   1.5613 B( 36-C , 44-S ) :   1.0864 B( 37-C , 38-C ) :   1.1820
B( 37-C , 95-H ) :   0.9717 B( 38-C , 39-C ) :   1.3391 B( 38-C , 43-C ) :   1.1917
B( 39-C , 40-C ) :   1.3825 B( 39-C , 50-C ) :   0.9881 B( 40-C , 41-C ) :   1.1756
B( 40-C , 47-C ) :   1.0822 B( 41-C , 42-N ) :   1.5547 B( 41-C , 45-S ) :   1.0793
B( 42-N , 43-C ) :   1.5441 B( 43-C , 44-S ) :   1.0806 B( 45-S , 46-C ) :   1.0840
B( 46-C , 47-C ) :   1.5088 B( 46-C , 49-F ) :   1.1483 B( 47-C , 48-F ) :   1.1319
B( 50-C , 51-C ) :   1.5091 B( 50-C , 54-S ) :   1.1172 B( 51-C , 52-C ) :   1.2969
B( 51-C , 96-H ) :   0.9843 B( 52-C , 53-C ) :   1.4413 B( 52-C , 57-C ) :   0.9896
B( 53-C , 54-S ) :   1.1167 B( 53-C , 55-C ) :   1.1927 B( 55-C , 56-C ) :   1.3968
B( 55-C , 65-S ) :   1.1633 B( 56-C , 57-C ) :   0.9929 B( 56-C , 63-C ) :   1.3272
B( 57-C , 58-C ) :   1.7240 B( 58-C , 59-C ) :   1.1334 B( 58-C , 61-C ) :   1.1358
B( 59-C , 60-N ) :   2.9951 B( 61-C , 62-N ) :   2.9882 B( 63-C , 64-C ) :   1.4141
B( 63-C , 97-H ) :   0.9738 B( 64-C , 65-S ) :   1.0784 B( 64-C , 66-C ) :   1.1895
B( 66-C , 67-C ) :   1.6065 B( 66-C , 98-H ) :   0.9249 B( 67-C , 68-C ) :   1.0700
B( 67-C , 76-C ) :   0.9379 B( 68-C , 69-C ) :   1.6340 B( 68-C , 74-C ) :   0.9905
B( 69-C , 70-C ) :   1.1459 B( 69-C , 72-C ) :   1.1380 B( 70-C , 71-N ) :   2.9668
B( 72-C , 73-N ) :   2.9917 B( 74-C , 75-C ) :   1.2119 B( 74-C , 81-C ) :   1.4459
B( 75-C , 76-C ) :   0.9477 B( 75-C , 78-C ) :   1.4723 B( 76-C , 77-O ) :   2.1949
B( 78-C , 79-C ) :   1.1759 B( 78-C , 99-H ) :   1.0177 B( 79-C , 80-C ) :   1.2561
B( 79-C , 85-C ) :   1.2442 B( 80-C , 81-C ) :   1.2055 B( 80-C , 82-C ) :   1.2389
B( 81-C ,100-H ) :   0.9919 B( 82-C , 83-C ) :   1.4893 B( 82-C ,101-H ) :   0.9982
B( 83-C , 84-C ) :   1.2591 B( 83-C ,102-H ) :   0.9884 B( 84-C , 85-C ) :   1.4868
B( 84-C ,103-H ) :   0.9893 B( 85-C ,104-H ) :   0.9989

-----------------------------------------------------------------------------
         ABSORPTION SPECTRUM VIA TRANSITION ELECTRIC DIPOLE MOMENTS
-----------------------------------------------------------------------------
State   Energy  Wavelength   fosc         T2         TX        TY        TZ
        (cm-1)    (nm)                  (au**2)     (au)      (au)      (au)
-----------------------------------------------------------------------------
   0   13813.8    723.9   0.248892675   5.93164   0.80962  -2.22718  -0.56198
   1   15262.1    655.2   0.262107021   5.65378   0.77886   0.09195   2.24470
   2   20234.2    494.2   0.542738279   8.83040  -0.67752   2.68648   1.07434
   3   20874.7    479.0   0.385205082   6.07502   0.56745  -2.34698  -0.49469
   4   22057.3    453.4   0.977906249  14.59554   1.63084  -1.02448   3.29944
   5   22888.3    436.9   0.204390312   2.93984   0.80865   0.28379   1.48505
   6   23843.1    419.4   0.003079221   0.04252  -0.02050  -0.17225  -0.11147
   7   24809.6    403.1   0.011580216   0.15366   0.36675  -0.12960  -0.04863
   8   25446.1    393.0   0.089940713   1.16362   0.11154   0.51485   0.94133
   9   26499.5    377.4   0.048842901   0.60679   0.26580  -0.55038  -0.48293
  10   27152.6    368.3   0.153165590   1.85706  -0.65800   0.94963   0.72271
  11   27547.3    363.0   0.457039397   5.46198  -1.27437   1.91853   0.39650
  12   27638.1    361.8   0.047874230   0.57025  -0.37308   0.64839   0.10321
  13   27948.4    357.8   0.025648715   0.30212  -0.44064   0.31857   0.08043
  14   28593.6    349.7   0.129347062   1.48924  -0.71602   0.74259  -0.65202
  15   28612.2    349.5   0.048451714   0.55749  -0.44371   0.34994   0.48800
  16   28814.9    347.0   0.245650928   2.80658  -0.88125   1.23162   0.71631
  17   29262.7    341.7   0.011660779   0.13119   0.29133  -0.16256   0.14102
  18   29557.2    338.3   0.150869851   1.68041   0.09133  -0.23879  -1.27084
  19   29939.2    334.0   0.291083947   3.20076  -1.19954   1.11536  -0.71960
  20   30229.6    330.8   0.015334448   0.16700  -0.28585  -0.17115  -0.23663
  21   30448.4    328.4   0.345697759   3.73773  -0.14413  -1.43925  -1.28278
  22   30653.5    326.2   0.295567113   3.17433   1.11209  -0.35295  -1.34648
  23   30687.9    325.9   0.337185365   3.61724   1.11741  -0.50013   1.45551
  24   31002.4    322.6   0.036929408   0.39215  -0.60624   0.03160  -0.15370
  25   31507.8    317.4   0.176378808   1.84291  -0.84932   0.32478   1.00801
  26   31746.3    315.0   0.020906214   0.21680  -0.26054  -0.28082  -0.26469
  27   32064.4    311.9   0.085793115   0.88085   0.23786  -0.12684  -0.89899
  28   32469.0    308.0   0.212612732   2.15574   0.25916  -1.22179  -0.77189
  29   32609.3    306.7   0.378747873   3.82370   0.00873  -0.74680  -1.80719
  30   32743.7    305.4   0.205224332   2.06337   0.63021  -1.28701  -0.09907
  31   32829.6    304.6   0.062937530   0.63113  -0.57541   0.48668   0.25133
  32   32980.8    303.2   0.061389247   0.61278  -0.51945   0.58562   0.00150
  33   33538.9    298.2   0.077392693   0.75967  -0.26277   0.54432   0.62796
  34   33727.5    296.5   0.103591129   1.01115  -0.67818   0.18660   0.71861
  35   33785.2    296.0   0.173377531   1.68944   0.91444  -0.77200  -0.50721
  36   34321.2    291.4   0.383961829   3.68300   1.40783  -1.22397   0.45046
  37   34374.3    290.9   0.040149950   0.38453  -0.54058   0.03169  -0.30215
  38   34594.8    289.1   0.482505012   4.59162  -1.07489   1.85289   0.05525
  39   34734.1    287.9   0.090416389   0.85697   0.00291  -0.30053  -0.87558
  40   34819.0    287.2   0.206254697   1.95013   0.20793  -0.54258  -1.26984
  41   34826.5    287.1   0.048580500   0.45923   0.36259   0.43960   0.36676
  42   35138.6    284.6   0.020309561   0.19028  -0.01362  -0.39921  -0.17529
  43   35604.8    280.9   0.116815282   1.08011   0.92503  -0.44705  -0.15674
  44   35687.3    280.2   0.152771324   1.40930  -0.69128   0.77951   0.56904
  45   35978.5    277.9   0.199620793   1.82658   1.03088  -0.65462   0.57909
  46   36143.6    276.7   0.082811090   0.75428  -0.70491   0.20079   0.46590
  47   36387.9    274.8   0.006454281   0.05839   0.12052  -0.05269  -0.20271
  48   36832.9    271.5   0.027161292   0.24277  -0.01023   0.05635   0.48937
  49   36879.0    271.2   0.131199625   1.17119   0.51165  -0.39713   0.86701
  50   37057.6    269.9   0.004583723   0.04072   0.15051   0.11709   0.06601
  51   37068.0    269.8   0.013661570   0.12133  -0.25823   0.21211  -0.09828
  52   37215.6    268.7   0.004052831   0.03585  -0.12450   0.14025  -0.02615
  53   37484.4    266.8   0.010351142   0.09091   0.09120  -0.15059   0.24478
  54   37686.1    265.3   0.018096772   0.15809  -0.14884   0.36683  -0.03702
  55   38464.9    260.0   0.001944611   0.01664  -0.00272   0.00454   0.12890
  56   38613.0    259.0   0.030079456   0.25646   0.24421  -0.33050   0.29596
  57   38830.9    257.5   0.130168610   1.10358  -0.61855   0.81522  -0.23749
  58   39027.0    256.2   0.001957393   0.01651   0.00997  -0.06225   0.11197
  59   39093.0    255.8   0.123871790   1.04315  -0.78867   0.42152  -0.49344
  60   39229.0    254.9   0.017439200   0.14635   0.36408  -0.08726   0.07865
  61   39432.1    253.6   0.104181795   0.86980   0.74271  -0.30708   0.47316
  62   39539.6    252.9   0.095414653   0.79444  -0.61077   0.57769  -0.29608
  63   39684.6    252.0   0.029395033   0.24385  -0.21103  -0.41570  -0.16282
  64   40068.9    249.6   0.070199420   0.57677  -0.22071   0.68845   0.23258
  65   40319.9    248.0   0.006442531   0.05260   0.17580  -0.14729   0.00187

FINAL SINGLE POINT ENERGY     -5791.431227361189

DIPOLE MOMENT
-------------
                                X             Y             Z
Electronic contribution:    -38.76751      46.49765     -38.45978
Nuclear contribution   :     41.26459     -45.23147      39.07184
                        -----------------------------------------
Total Dipole Moment    :      2.49708       1.26617       0.61206
                        -----------------------------------------
Magnitude (a.u.)       :      2.86587
Magnitude (Debye)      :      7.28447

Rotational constants in cm-1:     0.000653     0.000221     0.000169
Rotational constants in MHz :    19.590545     6.629285     5.071192

                             ****ORCA TERMINATED NORMALLY****
TOTAL RUN TIME: 0 days 0 hours 13 minutes 1 seconds 32 msec
