                         Program Version 4.2.0 -  RELEASE  -
|  1> # ORCA input file
|  2> # SCF done       -187.243576242080          0.000977240043
|  3> ! CAM-B3LYP def2-SVP def2/J RIJCOSX Grid4 TightSCF
|  4> %maxcore 5000
|  5> %tddft
|  6>     Mode sTDDFT
|  7>     Ethresh 5.0
|  8>     maxcore 5000
|  9> end
| 10>
| 11> %pal
| 12>   nprocs 6
| 13>   end
| 14> * xyz 0 1
| 15>    C        0.11394         0.39903         0.26036
| 16>    C       -0.21556         1.02440         1.43613
| 17>    C        0.38795         0.72852         2.67573
| 18>    N        0.83903         0.51874         3.70997
| 19>    C       -1.26097         1.95900         1.55777
| 20>    N       -2.11801         2.71036         1.69836
| 21>    C        1.03325        -0.72935         0.14661
| 22>    C        0.74442        -1.42905        -1.06112
| 23>    C        1.43122        -2.55264        -1.41962
| 24>    C        2.46705        -3.02348        -0.58082
| 25>    C        2.77671        -2.31289         0.61472
| 26>    C        2.03958        -1.15862         0.96777
| 27>    C        3.82385        -2.78330         1.43239
| 28>    C        4.52968        -3.90464         1.09043
| 29>    C        4.22145        -4.60623        -0.08443
| 30>    C        3.21200        -4.17520        -0.90188
| 31>    C       -0.32641        -0.72216        -1.78567
| 32>    O       -0.87252        -1.04383        -2.81695
| 33>    C       -0.56119         0.53028        -1.01155
| 34>    C       -1.23223         1.55275        -1.61545
| 35>    C       -1.22774         2.92426        -1.29391
| 36>    C       -0.34394         3.63343        -0.49158
| 37>    C       -0.62504         4.99131        -0.46746
| 38>    C       -1.73549         5.33908        -1.26782
| 39>    S       -2.41610         3.98816        -2.04762
| 40>    C       -1.92055         6.73714        -1.18580
| 41>    C       -0.94001         7.27645        -0.33165
| 42>    C       -0.10408         6.19074         0.15978
| 43>    C        0.93941         6.26756         1.03569
| 44>    C        1.36572         7.48853         1.59795
| 45>    N        1.71798         8.48215         2.04867
| 46>    C        1.65908         5.11775         1.42303
| 47>    N        2.24269         4.17641         1.72107
| 48>    C       -1.01319         8.66196        -0.21978
| 49>    C       -2.03881         9.18961        -0.99068
| 50>    S       -2.93665         7.94493        -1.84383
| 51>    C       -2.35587        10.55721        -1.17992
| 52>    C       -1.71288        11.65718        -0.63843
| 53>    C       -2.24056        12.85732        -1.11185
| 54>    C       -3.30458        12.67169        -2.01988
| 55>    S       -3.65404        11.02021        -2.27727
| 56>    C       -3.73315        13.93368        -2.48171
| 57>    C       -2.93783        14.92386        -1.87508
| 58>    C       -1.98204        14.27801        -0.98602
| 59>    C       -1.03413        14.89306        -0.21851
| 60>    C       -0.87168        16.29333        -0.21723
| 61>    N       -0.73768        17.43283        -0.22565
| 62>    C       -0.15287        14.17127         0.61245
| 63>    N        0.56337        13.58971         1.29362
| 64>    C       -3.24557        16.21014        -2.29923
| 65>    C       -4.27487        16.22336        -3.23167
| 66>    S       -4.87472        14.60435        -3.56787
| 67>    C       -4.81129        17.34679        -3.91941
| 68>    C       -4.28159        18.61211        -3.79224
| 69>    C       -4.72574        19.73881        -4.47603
| 70>    C       -5.92493        19.67549        -5.32548
| 71>    C       -6.60451        18.54118        -5.59583
| 72>    S       -6.17102        16.99794        -4.98143
| 73>    C       -6.15501        21.01119        -5.75642
| 74>    C       -5.16753        21.84695        -5.23446
| 75>    C       -5.33514        23.18930        -5.64129
| 76>    C       -6.42323        23.33458        -6.44092
| 77>    S       -7.28274        21.85845        -6.73662
| 78>    C       -4.24494        21.06634        -4.45280
| 79>    C       -3.09400        21.62824        -3.85123
| 80>    C       -2.00127        20.96691        -3.38442
| 81>    C       -0.89562        21.62185        -2.79365
| 82>    C       -0.66976        22.97098        -2.56800
| 83>    C        0.59093        23.22298        -1.93629
| 84>    S        0.79513        24.93008        -1.70104
| 85>    C       -0.80765        25.15418        -2.46443
| 86>    N       -1.40022        24.08613        -2.83619
| 87>    C       -1.34734        26.52076        -2.61975
| 88>    C        1.31640        22.10260        -1.67849
| 89>    S        0.47009        20.69987        -2.20902
| 90>    H        1.19215        -3.07449        -2.33437
| 91>    H        2.30053        -0.63134         1.87213
| 92>    H        4.05500        -2.24119         2.33749
| 93>    H        5.32965        -4.25747         1.72401
| 94>    H        4.78833        -5.48922        -0.33936
| 95>    H        2.97099        -4.71085        -1.80857
| 96>    H       -1.77244         1.27332        -2.51501
| 97>    H        0.49396         3.17664         0.00208
| 98>    H       -0.35473         9.26558         0.37683
| 99>    H       -0.89572        11.57894         0.05452
|100>    H       -2.74729        17.09372        -1.94712
|101>    H       -3.46789        18.72805        -3.09520
|102>    H       -7.47243        18.52089        -6.23577
|103>    H       -4.69033        24.00155        -5.35945
|104>    H       -6.79249        24.23419        -6.89328
|105>    H       -3.07124        22.70903        -3.79987
|106>    H       -1.90633        19.89587        -3.47746
|107>    H       -0.66016        27.13304        -3.20240
|108>    H       -1.46722        26.99005        -1.64384
|109>    H       -2.31069        26.47745        -3.12047
|110>    H        2.27761        22.00825        -1.21659
|111> *
|112>
|113>                          ****END OF INPUT****

CARTESIAN COORDINATES (ANGSTROEM)
---------------------------------
  C      0.113940    0.399030    0.260360
  C     -0.215560    1.024400    1.436130
  C      0.387950    0.728520    2.675730
  N      0.839030    0.518740    3.709970
  C     -1.260970    1.959000    1.557770
  N     -2.118010    2.710360    1.698360
  C      1.033250   -0.729350    0.146610
  C      0.744420   -1.429050   -1.061120
  C      1.431220   -2.552640   -1.419620
  C      2.467050   -3.023480   -0.580820
  C      2.776710   -2.312890    0.614720
  C      2.039580   -1.158620    0.967770
  C      3.823850   -2.783300    1.432390
  C      4.529680   -3.904640    1.090430
  C      4.221450   -4.606230   -0.084430
  C      3.212000   -4.175200   -0.901880
  C     -0.326410   -0.722160   -1.785670
  O     -0.872520   -1.043830   -2.816950
  C     -0.561190    0.530280   -1.011550
  C     -1.232230    1.552750   -1.615450
  C     -1.227740    2.924260   -1.293910
  C     -0.343940    3.633430   -0.491580
  C     -0.625040    4.991310   -0.467460
  C     -1.735490    5.339080   -1.267820
  S     -2.416100    3.988160   -2.047620
  C     -1.920550    6.737140   -1.185800
  C     -0.940010    7.276450   -0.331650
  C     -0.104080    6.190740    0.159780
  C      0.939410    6.267560    1.035690
  C      1.365720    7.488530    1.597950
  N      1.717980    8.482150    2.048670
  C      1.659080    5.117750    1.423030
  N      2.242690    4.176410    1.721070
  C     -1.013190    8.661960   -0.219780
  C     -2.038810    9.189610   -0.990680
  S     -2.936650    7.944930   -1.843830
  C     -2.355870   10.557210   -1.179920
  C     -1.712880   11.657180   -0.638430
  C     -2.240560   12.857320   -1.111850
  C     -3.304580   12.671690   -2.019880
  S     -3.654040   11.020210   -2.277270
  C     -3.733150   13.933680   -2.481710
  C     -2.937830   14.923860   -1.875080
  C     -1.982040   14.278010   -0.986020
  C     -1.034130   14.893060   -0.218510
  C     -0.871680   16.293330   -0.217230
  N     -0.737680   17.432830   -0.225650
  C     -0.152870   14.171270    0.612450
  N      0.563370   13.589710    1.293620
  C     -3.245570   16.210140   -2.299230
  C     -4.274870   16.223360   -3.231670
  S     -4.874720   14.604350   -3.567870
  C     -4.811290   17.346790   -3.919410
  C     -4.281590   18.612110   -3.792240
  C     -4.725740   19.738810   -4.476030
  C     -5.924930   19.675490   -5.325480
  C     -6.604510   18.541180   -5.595830
  S     -6.171020   16.997940   -4.981430
  C     -6.155010   21.011190   -5.756420
  C     -5.167530   21.846950   -5.234460
  C     -5.335140   23.189300   -5.641290
  C     -6.423230   23.334580   -6.440920
  S     -7.282740   21.858450   -6.736620
  C     -4.244940   21.066340   -4.452800
  C     -3.094000   21.628240   -3.851230
  C     -2.001270   20.966910   -3.384420
  C     -0.895620   21.621850   -2.793650
  C     -0.669760   22.970980   -2.568000
  C      0.590930   23.222980   -1.936290
  S      0.795130   24.930080   -1.701040
  C     -0.807650   25.154180   -2.464430
  N     -1.400220   24.086130   -2.836190
  C     -1.347340   26.520760   -2.619750
  C      1.316400   22.102600   -1.678490
  S      0.470090   20.699870   -2.209020
  H      1.192150   -3.074490   -2.334370
  H      2.300530   -0.631340    1.872130
  H      4.055000   -2.241190    2.337490
  H      5.329650   -4.257470    1.724010
  H      4.788330   -5.489220   -0.339360
  H      2.970990   -4.710850   -1.808570
  H     -1.772440    1.273320   -2.515010
  H      0.493960    3.176640    0.002080
  H     -0.354730    9.265580    0.376830
  H     -0.895720   11.578940    0.054520
  H     -2.747290   17.093720   -1.947120
  H     -3.467890   18.728050   -3.095200
  H     -7.472430   18.520890   -6.235770
  H     -4.690330   24.001550   -5.359450
  H     -6.792490   24.234190   -6.893280
  H     -3.071240   22.709030   -3.799870
  H     -1.906330   19.895870   -3.477460
  H     -0.660160   27.133040   -3.202400
  H     -1.467220   26.990050   -1.643840
  H     -2.310690   26.477450   -3.120470
  H      2.277610   22.008250   -1.216590

 Total Charge           Charge          ....    0
 Multiplicity           Mult            ....    1
 Number of Electrons    NEL             ....  560
 Basis Dimension        Dim             .... 1187

ORBITAL ENERGIES
----------------

  NO   OCC          E(Eh)            E(eV)
   0   2.0000     -88.996380     -2421.7146
   1   2.0000     -88.994702     -2421.6690
   2   2.0000     -88.994250     -2421.6567
   3   2.0000     -88.990676     -2421.5594
   4   2.0000     -88.974849     -2421.1287
   5   2.0000     -88.954938     -2420.5869
   6   2.0000     -88.952608     -2420.5235
   7   2.0000     -88.947438     -2420.3828
   8   2.0000     -19.210006      -522.7308
   9   2.0000     -14.432368      -392.7247
  10   2.0000     -14.432232      -392.7210
  11   2.0000     -14.430707      -392.6795
  12   2.0000     -14.430399      -392.6711
  13   2.0000     -14.413303      -392.2059
  14   2.0000     -14.408063      -392.0633
  15   2.0000     -14.406867      -392.0308
  16   2.0000     -10.367416      -282.1117
  17   2.0000     -10.366086      -282.0755
  18   2.0000     -10.361742      -281.9573
  19   2.0000     -10.354089      -281.7491
  20   2.0000     -10.352951      -281.7181
  21   2.0000     -10.343383      -281.4578
  22   2.0000     -10.339698      -281.3575
  23   2.0000     -10.338591      -281.3274
  24   2.0000     -10.338230      -281.3175
  25   2.0000     -10.337815      -281.3062
  26   2.0000     -10.337354      -281.2937
  27   2.0000     -10.334435      -281.2143
  28   2.0000     -10.332483      -281.1612
  29   2.0000     -10.332310      -281.1564
  30   2.0000     -10.331438      -281.1327
  31   2.0000     -10.330741      -281.1138
  32   2.0000     -10.330372      -281.1037
  33   2.0000     -10.330200      -281.0990
  34   2.0000     -10.328122      -281.0425
  35   2.0000     -10.326338      -280.9940
  36   2.0000     -10.325819      -280.9798
  37   2.0000     -10.324739      -280.9504
  38   2.0000     -10.321577      -280.8644
  39   2.0000     -10.314439      -280.6702
  40   2.0000     -10.312021      -280.6044
  41   2.0000     -10.310879      -280.5733
  42   2.0000     -10.310702      -280.5685
  43   2.0000     -10.306575      -280.4562
  44   2.0000     -10.305615      -280.4300
  45   2.0000     -10.305429      -280.4250
  46   2.0000     -10.304894      -280.4104
  47   2.0000     -10.304281      -280.3938
  48   2.0000     -10.300565      -280.2926
  49   2.0000     -10.298430      -280.2345
  50   2.0000     -10.296784      -280.1897
  51   2.0000     -10.296766      -280.1893
  52   2.0000     -10.295735      -280.1612
  53   2.0000     -10.295318      -280.1498
  54   2.0000     -10.295245      -280.1479
  55   2.0000     -10.294625      -280.1310
  56   2.0000     -10.294156      -280.1182
  57   2.0000     -10.293286      -280.0946
  58   2.0000     -10.293080      -280.0889
  59   2.0000     -10.292784      -280.0809
  60   2.0000     -10.291724      -280.0520
  61   2.0000     -10.291714      -280.0518
  62   2.0000     -10.285229      -279.8753
  63   2.0000     -10.284966      -279.8681
  64   2.0000     -10.282464      -279.8001
  65   2.0000     -10.281975      -279.7868
  66   2.0000     -10.281555      -279.7753
  67   2.0000     -10.280924      -279.7582
  68   2.0000     -10.280921      -279.7581
  69   2.0000     -10.278656      -279.6965
  70   2.0000     -10.274741      -279.5899
  71   2.0000     -10.274327      -279.5787
  72   2.0000     -10.272121      -279.5186
  73   2.0000     -10.269946      -279.4594
  74   2.0000     -10.265626      -279.3419
  75   2.0000      -8.091134      -220.1709
  76   2.0000      -8.089412      -220.1241
  77   2.0000      -8.088930      -220.1110
  78   2.0000      -8.085074      -220.0060
  79   2.0000      -8.070417      -219.6072
  80   2.0000      -8.050303      -219.0599
  81   2.0000      -8.047920      -218.9950
  82   2.0000      -8.043869      -218.8848
  83   2.0000      -6.060443      -164.9130
  84   2.0000      -6.058728      -164.8664
  85   2.0000      -6.058114      -164.8497
  86   2.0000      -6.056290      -164.8000
  87   2.0000      -6.054570      -164.7532
  88   2.0000      -6.054454      -164.7501
  89   2.0000      -6.053950      -164.7364
  90   2.0000      -6.053336      -164.7196
  91   2.0000      -6.051631      -164.6732
  92   2.0000      -6.051384      -164.6665
  93   2.0000      -6.050164      -164.6333
  94   2.0000      -6.047337      -164.5564
  95   2.0000      -6.040119      -164.3600
  96   2.0000      -6.035570      -164.2362
  97   2.0000      -6.032048      -164.1404
  98   2.0000      -6.019789      -163.8068
  99   2.0000      -6.017281      -163.7385
 100   2.0000      -6.015496      -163.6900
 101   2.0000      -6.013469      -163.6348
 102   2.0000      -6.012983      -163.6216
 103   2.0000      -6.012314      -163.6034
 104   2.0000      -6.010106      -163.5433
 105   2.0000      -6.009551      -163.5282
 106   2.0000      -6.004933      -163.4025
 107   2.0000      -1.125151       -30.6169
 108   2.0000      -1.060773       -28.8651
 109   2.0000      -1.050375       -28.5822
 110   2.0000      -1.045764       -28.4567
 111   2.0000      -1.024055       -27.8659
 112   2.0000      -1.022881       -27.8340
 113   2.0000      -1.015335       -27.6287
 114   2.0000      -1.010348       -27.4930
 115   2.0000      -1.008756       -27.4497
 116   2.0000      -1.008096       -27.4317
 117   2.0000      -1.003475       -27.3059
 118   2.0000      -0.995216       -27.0812
 119   2.0000      -0.994449       -27.0603
 120   2.0000      -0.987904       -26.8822
 121   2.0000      -0.973751       -26.4971
 122   2.0000      -0.967516       -26.3275
 123   2.0000      -0.967345       -26.3228
 124   2.0000      -0.961379       -26.1604
 125   2.0000      -0.954624       -25.9766
 126   2.0000      -0.927675       -25.2433
 127   2.0000      -0.924779       -25.1645
 128   2.0000      -0.917879       -24.9768
 129   2.0000      -0.910771       -24.7833
 130   2.0000      -0.897561       -24.4239
 131   2.0000      -0.894628       -24.3441
 132   2.0000      -0.886932       -24.1346
 133   2.0000      -0.878787       -23.9130
 134   2.0000      -0.876996       -23.8643
 135   2.0000      -0.872776       -23.7494
 136   2.0000      -0.867991       -23.6192
 137   2.0000      -0.863937       -23.5089
 138   2.0000      -0.858691       -23.3662
 139   2.0000      -0.855680       -23.2842
 140   2.0000      -0.853824       -23.2337
 141   2.0000      -0.840510       -22.8714
 142   2.0000      -0.830917       -22.6104
 143   2.0000      -0.823930       -22.4203
 144   2.0000      -0.813228       -22.1291
 145   2.0000      -0.803537       -21.8654
 146   2.0000      -0.800186       -21.7742
 147   2.0000      -0.782720       -21.2989
 148   2.0000      -0.779769       -21.2186
 149   2.0000      -0.776818       -21.1383
 150   2.0000      -0.774701       -21.0807
 151   2.0000      -0.759824       -20.6759
 152   2.0000      -0.753116       -20.4933
 153   2.0000      -0.738900       -20.1065
 154   2.0000      -0.725928       -19.7535
 155   2.0000      -0.720738       -19.6123
 156   2.0000      -0.713343       -19.4110
 157   2.0000      -0.703864       -19.1531
 158   2.0000      -0.698692       -19.0124
 159   2.0000      -0.696747       -18.9595
 160   2.0000      -0.689551       -18.7636
 161   2.0000      -0.687438       -18.7061
 162   2.0000      -0.680836       -18.5265
 163   2.0000      -0.672805       -18.3080
 164   2.0000      -0.669947       -18.2302
 165   2.0000      -0.659842       -17.9552
 166   2.0000      -0.653815       -17.7912
 167   2.0000      -0.652755       -17.7624
 168   2.0000      -0.648568       -17.6484
 169   2.0000      -0.637796       -17.3553
 170   2.0000      -0.636371       -17.3165
 171   2.0000      -0.631917       -17.1953
 172   2.0000      -0.629970       -17.1424
 173   2.0000      -0.625149       -17.0112
 174   2.0000      -0.622922       -16.9506
 175   2.0000      -0.615261       -16.7421
 176   2.0000      -0.614341       -16.7171
 177   2.0000      -0.603685       -16.4271
 178   2.0000      -0.602345       -16.3906
 179   2.0000      -0.596161       -16.2224
 180   2.0000      -0.594893       -16.1879
 181   2.0000      -0.583850       -15.8874
 182   2.0000      -0.579391       -15.7660
 183   2.0000      -0.570533       -15.5250
 184   2.0000      -0.564359       -15.3570
 185   2.0000      -0.554298       -15.0832
 186   2.0000      -0.553752       -15.0683
 187   2.0000      -0.552249       -15.0275
 188   2.0000      -0.548216       -14.9177
 189   2.0000      -0.546182       -14.8624
 190   2.0000      -0.541843       -14.7443
 191   2.0000      -0.538561       -14.6550
 192   2.0000      -0.538076       -14.6418
 193   2.0000      -0.535199       -14.5635
 194   2.0000      -0.532664       -14.4945
 195   2.0000      -0.532203       -14.4820
 196   2.0000      -0.526372       -14.3233
 197   2.0000      -0.520243       -14.1565
 198   2.0000      -0.517613       -14.0850
 199   2.0000      -0.514646       -14.0042
 200   2.0000      -0.514207       -13.9923
 201   2.0000      -0.512013       -13.9326
 202   2.0000      -0.511246       -13.9117
 203   2.0000      -0.509391       -13.8612
 204   2.0000      -0.507541       -13.8109
 205   2.0000      -0.505139       -13.7455
 206   2.0000      -0.504891       -13.7388
 207   2.0000      -0.504554       -13.7296
 208   2.0000      -0.501867       -13.6565
 209   2.0000      -0.499755       -13.5990
 210   2.0000      -0.497998       -13.5512
 211   2.0000      -0.493998       -13.4424
 212   2.0000      -0.490891       -13.3578
 213   2.0000      -0.490005       -13.3337
 214   2.0000      -0.487731       -13.2718
 215   2.0000      -0.484283       -13.1780
 216   2.0000      -0.481608       -13.1052
 217   2.0000      -0.477385       -12.9903
 218   2.0000      -0.475149       -12.9295
 219   2.0000      -0.473757       -12.8916
 220   2.0000      -0.467462       -12.7203
 221   2.0000      -0.465529       -12.6677
 222   2.0000      -0.462395       -12.5824
 223   2.0000      -0.462107       -12.5746
 224   2.0000      -0.461552       -12.5595
 225   2.0000      -0.460652       -12.5350
 226   2.0000      -0.460083       -12.5195
 227   2.0000      -0.458663       -12.4809
 228   2.0000      -0.457516       -12.4496
 229   2.0000      -0.454389       -12.3645
 230   2.0000      -0.449009       -12.2182
 231   2.0000      -0.447526       -12.1778
 232   2.0000      -0.446242       -12.1429
 233   2.0000      -0.442726       -12.0472
 234   2.0000      -0.441513       -12.0142
 235   2.0000      -0.441177       -12.0050
 236   2.0000      -0.440286       -11.9808
 237   2.0000      -0.439903       -11.9704
 238   2.0000      -0.439403       -11.9568
 239   2.0000      -0.438932       -11.9440
 240   2.0000      -0.434843       -11.8327
 241   2.0000      -0.434507       -11.8235
 242   2.0000      -0.429241       -11.6802
 243   2.0000      -0.427969       -11.6456
 244   2.0000      -0.427402       -11.6302
 245   2.0000      -0.426937       -11.6175
 246   2.0000      -0.426287       -11.5999
 247   2.0000      -0.425018       -11.5653
 248   2.0000      -0.421215       -11.4618
 249   2.0000      -0.421077       -11.4581
 250   2.0000      -0.417683       -11.3657
 251   2.0000      -0.416751       -11.3404
 252   2.0000      -0.412972       -11.2375
 253   2.0000      -0.409771       -11.1504
 254   2.0000      -0.407750       -11.0954
 255   2.0000      -0.406306       -11.0562
 256   2.0000      -0.405037       -11.0216
 257   2.0000      -0.399651       -10.8750
 258   2.0000      -0.397507       -10.8167
 259   2.0000      -0.385515       -10.4904
 260   2.0000      -0.382991       -10.4217
 261   2.0000      -0.372573       -10.1382
 262   2.0000      -0.360653        -9.8139
 263   2.0000      -0.355822        -9.6824
 264   2.0000      -0.351539        -9.5659
 265   2.0000      -0.347808        -9.4643
 266   2.0000      -0.342637        -9.3236
 267   2.0000      -0.336922        -9.1681
 268   2.0000      -0.330457        -8.9922
 269   2.0000      -0.327803        -8.9200
 270   2.0000      -0.325892        -8.8680
 271   2.0000      -0.322230        -8.7683
 272   2.0000      -0.312397        -8.5008
 273   2.0000      -0.296669        -8.0728
 274   2.0000      -0.296205        -8.0602
 275   2.0000      -0.289759        -7.8847
 276   2.0000      -0.284625        -7.7450
 277   2.0000      -0.269460        -7.3324
 278   2.0000      -0.248279        -6.7560
 279   2.0000      -0.214854        -5.8465
 280   0.0000      -0.115912        -3.1541
 281   0.0000      -0.104088        -2.8324
 282   0.0000      -0.086538        -2.3548
 283   0.0000      -0.064228        -1.7477
 284   0.0000      -0.052374        -1.4252

MULLIKEN ATOMIC CHARGES
-----------------------
   0 C :    0.266578
   1 C :   -0.331552
   2 C :   -0.172853
   3 N :    0.160684
   4 C :   -0.203644
   5 N :    0.165779
   6 C :    0.029057
   7 C :    0.016356
   8 C :   -0.082367
   9 C :    0.093392
  10 C :    0.090158
  11 C :   -0.074994
  12 C :   -0.014145
  13 C :    0.033990
  14 C :    0.036081
  15 C :   -0.015119
  16 C :    0.136088
  17 O :   -0.147436
  18 C :   -0.144518
  19 C :    0.086018
  20 C :   -0.110962
  21 C :    0.002837
  22 C :   -0.010382
  23 C :   -0.068157
  24 S :    0.208832
  25 C :   -0.112958
  26 C :    0.025088
  27 C :    0.306154
  28 C :   -0.284077
  29 C :   -0.191039
  30 N :    0.184944
  31 C :   -0.184033
  32 N :    0.170816
  33 C :   -0.055472
  34 C :   -0.044355
  35 S :    0.185305
  36 C :   -0.061578
  37 C :   -0.047753
  38 C :    0.006929
  39 C :   -0.096567
  40 S :    0.179480
  41 C :   -0.106707
  42 C :    0.017732
  43 C :    0.305605
  44 C :   -0.295370
  45 C :   -0.182902
  46 N :    0.167099
  47 C :   -0.191166
  48 N :    0.183226
  49 C :   -0.052561
  50 C :   -0.054615
  51 S :    0.181996
  52 C :   -0.034111
  53 C :   -0.069180
  54 C :    0.043290
  55 C :    0.066629
  56 C :   -0.131429
  57 S :    0.109184
  58 C :   -0.108783
  59 C :    0.046822
  60 C :    0.013332
  61 C :   -0.067415
  62 S :    0.125290
  63 C :    0.101544
  64 C :   -0.037527
  65 C :    0.024932
  66 C :   -0.173806
  67 C :    0.079607
  68 C :    0.037883
  69 S :    0.070190
  70 C :   -0.197396
  71 N :   -0.027937
  72 C :    0.123558
  73 C :   -0.188286
  74 S :    0.145917
  75 H :   -0.013988
  76 H :   -0.000836
  77 H :   -0.010484
  78 H :   -0.005217
  79 H :   -0.006743
  80 H :   -0.019117
  81 H :    0.018234
  82 H :    0.025601
  83 H :    0.014462
  84 H :    0.015613
  85 H :    0.009510
  86 H :   -0.023178
  87 H :    0.035057
  88 H :   -0.011407
  89 H :    0.024928
  90 H :   -0.010731
  91 H :   -0.036918
  92 H :    0.038726
  93 H :    0.040962
  94 H :    0.035123
  95 H :    0.025151
Sum of atomic charges:   -0.0000000

LOEWDIN ATOMIC CHARGES
----------------------
   0 C :    0.065431
   1 C :   -0.139656
   2 C :   -0.018741
   3 N :   -0.048590
   4 C :   -0.016322
   5 N :   -0.048791
   6 C :   -0.022604
   7 C :   -0.057187
   8 C :    0.031488
   9 C :   -0.009621
  10 C :   -0.005506
  11 C :    0.018435
  12 C :   -0.005177
  13 C :   -0.013703
  14 C :   -0.013902
  15 C :   -0.010010
  16 C :    0.082992
  17 O :   -0.148532
  18 C :   -0.093780
  19 C :    0.041722
  20 C :   -0.182344
  21 C :    0.012757
  22 C :   -0.070390
  23 C :   -0.155360
  24 S :    0.493995
  25 C :   -0.193371
  26 C :   -0.050310
  27 C :    0.080969
  28 C :   -0.094311
  29 C :   -0.019306
  30 N :   -0.023109
  31 C :   -0.012713
  32 N :   -0.029537
  33 C :   -0.030180
  34 C :   -0.168034
  35 S :    0.466153
  36 C :   -0.191255
  37 C :   -0.017671
  38 C :   -0.075593
  39 C :   -0.168003
  40 S :    0.460730
  41 C :   -0.198459
  42 C :   -0.060097
  43 C :    0.082054
  44 C :   -0.099796
  45 C :   -0.014478
  46 N :   -0.033724
  47 C :   -0.019620
  48 N :   -0.025592
  49 C :   -0.033444
  50 C :   -0.171386
  51 S :    0.462849
  52 C :   -0.196001
  53 C :   -0.008712
  54 C :   -0.032139
  55 C :   -0.044698
  56 C :   -0.143482
  57 S :    0.423720
  58 C :   -0.201807
  59 C :   -0.037829
  60 C :   -0.059431
  61 C :   -0.165161
  62 S :    0.419006
  63 C :   -0.035298
  64 C :   -0.015631
  65 C :   -0.045481
  66 C :   -0.179792
  67 C :   -0.067603
  68 C :   -0.207041
  69 S :    0.341958
  70 C :   -0.094351
  71 N :   -0.096708
  72 C :   -0.067434
  73 C :   -0.215683
  74 S :    0.459825
  75 H :    0.038571
  76 H :    0.040340
  77 H :    0.034685
  78 H :    0.032877
  79 H :    0.032133
  80 H :    0.031169
  81 H :    0.044896
  82 H :    0.042875
  83 H :    0.043090
  84 H :    0.043424
  85 H :    0.038325
  86 H :    0.037122
  87 H :    0.035972
  88 H :    0.033210
  89 H :    0.022673
  90 H :    0.031370
  91 H :    0.020987
  92 H :    0.042824
  93 H :    0.044091
  94 H :    0.044396
  95 H :    0.025374

  Mayer bond orders larger than 0.100000
B(  0-C ,  1-C ) :   1.6453 B(  0-C ,  6-C ) :   0.9939 B(  0-C , 18-C ) :   1.0438
B(  1-C ,  2-C ) :   1.1315 B(  1-C ,  4-C ) :   1.1700 B(  2-C ,  3-N ) :   2.9940
B(  4-C ,  5-N ) :   2.9974 B(  6-C ,  7-C ) :   1.2140 B(  6-C , 11-C ) :   1.4649
B(  7-C ,  8-C ) :   1.4743 B(  7-C , 16-C ) :   0.9217 B(  8-C ,  9-C ) :   1.1853
B(  8-C , 75-H ) :   1.0159 B(  9-C , 10-C ) :   1.2582 B(  9-C , 15-C ) :   1.2432
B( 10-C , 11-C ) :   1.2010 B( 10-C , 12-C ) :   1.2448 B( 11-C , 76-H ) :   0.9945
B( 12-C , 13-C ) :   1.4875 B( 12-C , 77-H ) :   0.9976 B( 13-C , 14-C ) :   1.2604
B( 13-C , 78-H ) :   0.9894 B( 14-C , 15-C ) :   1.4891 B( 14-C , 79-H ) :   0.9892
B( 15-C , 80-H ) :   0.9978 B( 16-C , 17-O ) :   2.2640 B( 16-C , 18-C ) :   0.9442
B( 18-C , 19-C ) :   1.6505 B( 19-C , 20-C ) :   1.1559 B( 19-C , 81-H ) :   0.9284
B( 20-C , 21-C ) :   1.3884 B( 20-C , 24-S ) :   1.0788 B( 21-C , 22-C ) :   1.3683
B( 21-C , 82-H ) :   0.9767 B( 22-C , 23-C ) :   1.3955 B( 22-C , 27-C ) :   1.0029
B( 23-C , 24-S ) :   1.1573 B( 23-C , 25-C ) :   1.2124 B( 25-C , 26-C ) :   1.4344
B( 25-C , 35-S ) :   1.1028 B( 26-C , 27-C ) :   0.9875 B( 26-C , 33-C ) :   1.3042
B( 27-C , 28-C ) :   1.7184 B( 28-C , 29-C ) :   1.1330 B( 28-C , 31-C ) :   1.1350
B( 29-C , 30-N ) :   2.9924 B( 31-C , 32-N ) :   2.9808 B( 33-C , 34-C ) :   1.4696
B( 33-C , 83-H ) :   0.9930 B( 34-C , 35-S ) :   1.1113 B( 34-C , 36-C ) :   1.1348
B( 36-C , 37-C ) :   1.4847 B( 36-C , 40-S ) :   1.0811 B( 37-C , 38-C ) :   1.2917
B( 37-C , 84-H ) :   0.9926 B( 38-C , 39-C ) :   1.4225 B( 38-C , 43-C ) :   1.0025
B( 39-C , 40-S ) :   1.1283 B( 39-C , 41-C ) :   1.2173 B( 41-C , 42-C ) :   1.4284
B( 41-C , 51-S ) :   1.1001 B( 42-C , 43-C ) :   0.9983 B( 42-C , 49-C ) :   1.3142
B( 43-C , 44-C ) :   1.7074 B( 44-C , 45-C ) :   1.1363 B( 44-C , 47-C ) :   1.1347
B( 45-C , 46-N ) :   2.9786 B( 47-C , 48-N ) :   2.9931 B( 49-C , 50-C ) :   1.4627
B( 49-C , 85-H ) :   0.9843 B( 50-C , 51-S ) :   1.1103 B( 50-C , 52-C ) :   1.1341
B( 52-C , 53-C ) :   1.5381 B( 52-C , 57-S ) :   1.0282 B( 53-C , 54-C ) :   1.2435
B( 53-C , 86-H ) :   0.9670 B( 54-C , 55-C ) :   1.0428 B( 54-C , 63-C ) :   1.3733
B( 55-C , 56-C ) :   1.6261 B( 55-C , 58-C ) :   1.1733 B( 56-C , 57-S ) :   1.1244
B( 56-C , 87-H ) :   0.9401 B( 58-C , 59-C ) :   1.4383 B( 58-C , 62-S ) :   1.0763
B( 59-C , 60-C ) :   1.2215 B( 59-C , 63-C ) :   1.1052 B( 60-C , 61-C ) :   1.5861
B( 60-C , 88-H ) :   0.9976 B( 61-C , 62-S ) :   1.1495 B( 61-C , 89-H ) :   0.9663
B( 63-C , 64-C ) :   1.1531 B( 64-C , 65-C ) :   1.6291 B( 64-C , 90-H ) :   0.9500
B( 65-C , 66-C ) :   1.1525 B( 65-C , 91-H ) :   0.9511 B( 66-C , 67-C ) :   1.4269
B( 66-C , 74-S ) :   1.1417 B( 67-C , 68-C ) :   1.2310 B( 67-C , 71-N ) :   1.2625
B( 68-C , 69-S ) :   1.0182 B( 68-C , 73-C ) :   1.5361 B( 69-S , 70-C ) :   1.0482
B( 69-S , 71-N ) :   0.1019 B( 70-C , 71-N ) :   1.8111 B( 70-C , 72-C ) :   1.0690
B( 72-C , 92-H ) :   0.9450 B( 72-C , 93-H ) :   0.9447 B( 72-C , 94-H ) :   0.9494
B( 73-C , 74-S ) :   1.1602 B( 73-C , 95-H ) :   0.9783

-----------------------------------------------------------------------------
         ABSORPTION SPECTRUM VIA TRANSITION ELECTRIC DIPOLE MOMENTS
-----------------------------------------------------------------------------
State   Energy  Wavelength   fosc         T2         TX        TY        TZ
        (cm-1)    (nm)                  (au**2)     (au)      (au)      (au)
-----------------------------------------------------------------------------
   0    7829.9   1277.2   0.362913300  15.25887   0.49343  -3.77143   0.88978
   1   11330.7    882.6   0.254409980   7.39186   0.49848  -2.65992   0.26115
   2   14198.3    704.3   0.028203716   0.65395  -0.62436  -0.50611  -0.08935
   3   16162.4    618.7   0.156813790   3.19414   0.20640  -1.73664   0.36827
   4   17554.2    569.7   0.980884429  18.39555  -0.52427  -4.23811   0.39889
   5   18828.3    531.1   0.340878527   5.96024   1.16328  -2.05653   0.61458
   6   21102.3    473.9   0.025456560   0.39714  -0.44462  -0.42372  -0.14112
   7   21332.7    468.8   0.018109721   0.27947  -0.26526   0.34911  -0.29536
   8   22557.9    443.3   0.172205055   2.51317  -0.07969   1.57060  -0.20008
   9   23557.2    424.5   0.040726228   0.56915   0.25978  -0.46111   0.53763
  10   24983.1    400.3   0.130149954   1.71504   0.79618  -0.79431   0.67098
  11   25215.9    396.6   0.152287556   1.98823  -1.12574   0.65284  -0.54290
  12   25398.8    393.7   0.203854775   2.64231  -1.17525   0.99104  -0.52816
  13   26564.0    376.4   0.291895730   3.61751  -1.11834   1.51757  -0.25261
  14   26863.6    372.3   0.073787765   0.90426   0.49772  -0.79445   0.15937
  15   27510.8    363.5   0.001295096   0.01550  -0.07278  -0.08847   0.04872
  16   27947.5    357.8   0.154389644   1.81866   1.17081  -0.09981   0.66174
  17   28322.8    353.1   0.004898362   0.05694  -0.00821   0.23842  -0.00502
  18   28542.7    350.4   0.385305077   4.44411   1.28017   0.84065   1.44865
  19   28718.7    348.2   0.016420496   0.18823   0.24452  -0.31611  -0.16888
  20   29498.3    339.0   0.241852096   2.69916   0.75125   1.32435   0.61716
  21   29789.7    335.7   0.108340495   1.19729   0.95747   0.52704   0.05264
  22   29834.6    335.2   0.035169164   0.38808  -0.03179  -0.59471  -0.18271
  23   30199.6    331.1   0.135844178   1.48086  -0.06376   1.20252   0.17533
  24   30419.4    328.7   0.114768107   1.24207  -0.73626   0.68457  -0.48099
  25   30931.5    323.3   0.206055555   2.19310   1.01110   0.69404   0.83011
  26   31178.0    320.7   0.476971035   5.03638  -0.92021  -1.51018  -1.38165
  27   31540.9    317.0   0.283153195   2.95545   1.45393  -0.73364   0.55072
  28   31581.7    316.6   0.095930041   0.99999   0.81667   0.13451   0.56120
  29   32188.8    310.7   0.046094717   0.47144  -0.46161  -0.49300  -0.12369
  30   32267.7    309.9   0.322778392   3.29315  -1.24810   1.05597  -0.78760
  31   32873.8    304.2   0.209685190   2.09987   0.99332  -0.54448   0.90373
  32   33099.5    302.1   0.107577580   1.06998  -0.31412   0.96497  -0.20036
  33   33501.2    298.5   0.058702196   0.57686   0.33929  -0.67390  -0.08718
  34   33536.0    298.2   0.111571778   1.09526  -0.62077   0.16127  -0.82698
  35   33679.2    296.9   0.014271356   0.13950  -0.22708   0.29572   0.02205
  36   33712.4    296.6   0.007847765   0.07664  -0.11394   0.23226  -0.09854
  37   33933.9    294.7   0.183189647   1.77722   1.25366   0.00051  -0.45338
  38   34084.6    293.4   0.359566834   3.47294   0.61769  -1.75071  -0.16254
  39   34492.4    289.9   0.067218768   0.64157  -0.41250  -0.49082  -0.48012
  40   34701.9    288.2   0.226092454   2.14491  -0.30578   1.33827   0.51033
  41   34789.0    287.4   0.084020848   0.79510   0.45522   0.41770   0.64296
  42   35456.7    282.0   0.067993077   0.63131   0.73667  -0.08356  -0.28573
  43   35617.7    280.8   0.096590294   0.89278   0.28665  -0.90030   0.00778
  44   35644.1    280.6   0.028773709   0.26576   0.09976  -0.50041   0.07346
  45   35792.5    279.4   0.002170917   0.01997   0.05349   0.07983   0.10360
  46   35860.7    278.9   0.076141184   0.69900   0.01220   0.74082   0.38735
  47   35981.6    277.9   0.067922776   0.62146  -0.48220   0.60780  -0.13972
  48   36262.2    275.8   0.106932852   0.97081   0.69175   0.03628   0.70070
  49   36299.2    275.5   0.070379636   0.63830   0.38368   0.69479  -0.09140
  50   36827.9    271.5   0.011213756   0.10024  -0.09483  -0.17700  -0.24479
  51   37543.9    266.4   0.066632217   0.58428   0.47646  -0.40548   0.43914
  52   37827.1    264.4   0.026829689   0.23350  -0.30011   0.36301   0.10796
  53   38072.3    262.7   0.052038785   0.44998   0.40653  -0.36896   0.38546
  54   38457.2    260.0   0.062043115   0.53112  -0.16706   0.70478   0.08058
  55   38490.7    259.8   0.006197875   0.05301  -0.11017   0.18201  -0.08801
  56   38775.6    257.9   0.033657524   0.28576  -0.37773   0.26339  -0.27149
  57   39013.9    256.3   0.002421100   0.02043   0.04440   0.02711  -0.13313
  58   39155.8    255.4   0.054066694   0.45458  -0.49845   0.25673  -0.37446
  59   39252.7    254.8   0.022086701   0.18524  -0.00464  -0.25134  -0.34936
  60   39415.1    253.7   0.093408981   0.78019   0.26731  -0.39229   0.74488
  61   39779.2    251.4   0.007148627   0.05916   0.18685  -0.14155   0.06490
  62   40130.2    249.2   0.096227179   0.78941   0.64474  -0.54286   0.28110
  63   40186.7    248.8   0.051362650   0.42077   0.00456   0.64865  -0.00131
  64   40267.8    248.3   0.004177164   0.03415   0.15041  -0.06720   0.08374

FINAL SINGLE POINT ENERGY     -5900.313738202447

DIPOLE MOMENT
-------------
                                X             Y             Z
Electronic contribution:    -18.75270     -11.35974       1.20058
Nuclear contribution   :     17.66086      12.64876      -4.53361
                        -----------------------------------------
Total Dipole Moment    :     -1.09184       1.28902      -3.33303
                        -----------------------------------------
Magnitude (a.u.)       :      3.73667
Magnitude (Debye)      :      9.49787

Rotational constants in cm-1:     0.001908     0.000174     0.000163
Rotational constants in MHz :    57.204608     5.204541     4.881118

                             ****ORCA TERMINATED NORMALLY****
TOTAL RUN TIME: 0 days 0 hours 11 minutes 39 seconds 960 msec
