                         Program Version 4.2.0 -  RELEASE  -
|  1> # ORCA input file
|  2> # SCF done       -166.068010586797          0.000829556493
|  3> ! CAM-B3LYP def2-SVP def2/J RIJCOSX Grid4 TightSCF
|  4> %maxcore 5000
|  5> %tddft
|  6>     Mode sTDDFT
|  7>     Ethresh 5.0
|  8>     maxcore 5000
|  9> end
| 10>
| 11> %pal
| 12>   nprocs 6
| 13>   end
| 14> * xyz 0 1
| 15>    C       -4.69848         0.86402        -1.58319
| 16>    C       -4.32249         2.13157        -1.29901
| 17>    C       -5.22269         3.13574        -0.89265
| 18>    C       -6.65189         2.83853        -0.76096
| 19>    C       -7.21531         1.63376        -1.00503
| 20>    S       -6.31979         0.25952        -1.50706
| 21>    C       -7.24877         4.06013        -0.34508
| 22>    C       -6.27682         5.05384        -0.22839
| 23>    C       -6.83803         6.27572         0.20686
| 24>    C       -8.18084         6.17793         0.39431
| 25>    S       -8.82589         4.61062         0.05872
| 26>    C       -4.99361         4.48249        -0.57823
| 27>    C       -3.72793         5.11407        -0.62358
| 28>    C       -3.49198         6.44183        -0.46022
| 29>    C       -2.21337         7.04534        -0.52919
| 30>    C       -0.96407         6.46134        -0.69345
| 31>    C        0.05756         7.40477        -0.73138
| 32>    C       -0.40271         8.72665        -0.59693
| 33>    S       -2.10087         8.79768        -0.41398
| 34>    C        0.70580         9.60078        -0.66822
| 35>    C        1.87446         8.83300        -0.84045
| 36>    C        1.50718         7.43139        -0.88464
| 37>    C        2.33808         6.35942        -1.04311
| 38>    C        1.85413         5.03633        -1.08222
| 39>    N        1.45974         3.95954        -1.11594
| 40>    C        3.73347         6.50735        -1.17961
| 41>    N        4.86891         6.62567        -1.29043
| 42>    C        3.02798         9.61010        -0.94019
| 43>    C        2.75516        10.96339        -0.85192
| 44>    S        1.03173        11.27488        -0.63305
| 45>    C        3.64722        12.05820        -0.94148
| 46>    S        3.01656        13.67788        -1.02291
| 47>    C        4.60128        14.39428        -1.14100
| 48>    C        5.55727        13.40567        -1.12004
| 49>    C        5.03992        12.07763        -1.01325
| 50>    C        6.07776        11.11590        -1.02953
| 51>    C        7.30728        11.68401        -1.17721
| 52>    C        8.61036        11.02114        -1.24968
| 53>    O        9.65788        11.59611        -1.41651
| 54>    O        8.49636         9.69267        -1.10759
| 55>    C        9.71104         8.95978        -1.16430
| 56>    S        7.28303        13.42844        -1.29515
| 57>    C        4.76913        15.81306        -1.28764
| 58>    C        3.94318        16.61565        -2.05764
| 59>    C        2.83710        16.22025        -2.80585
| 60>    N        1.92926        15.90624        -3.43678
| 61>    S        4.46957        18.27353        -2.07893
| 62>    C        5.80644        17.91105        -1.03248
| 63>    C        5.81702        16.56332        -0.67986
| 64>    C        6.63133        16.00857         0.31839
| 65>    N        7.22808        15.54863         1.18541
| 66>    C        6.71751        18.94177        -0.65508
| 67>    C        7.93442        18.69668        -0.07151
| 68>    C        8.85225        19.68109         0.29563
| 69>    C        8.58261        21.10587         0.04561
| 70>    C        7.45684        21.57514        -0.53138
| 71>    S        6.16289        20.57417        -1.04515
| 72>    C        9.73235        21.78608         0.52246
| 73>    C       10.65536        20.86496         1.03362
| 74>    C       11.80432        21.51523         1.54298
| 75>    C       11.72844        22.86302         1.40020
| 76>    S       10.26761        23.41229         0.65002
| 77>    C       10.11346        19.54141         0.88984
| 78>    C       10.70135        18.28980         1.27438
| 79>    C       11.96458        18.09872         1.65604
| 80>    H       -3.99521         0.10935        -1.89111
| 81>    H       -3.27372         2.37566        -1.39155
| 82>    H       -8.27395         1.45738        -0.89982
| 83>    H       -6.30070         7.18806         0.38824
| 84>    H       -8.85348         6.94762         0.71882
| 85>    H       -2.88682         4.46618        -0.82793
| 86>    H       -4.31729         7.11545        -0.29156
| 87>    H       -0.81674         5.40084        -0.77766
| 88>    H        4.01363         9.21464        -1.09066
| 89>    H        5.95226        10.05379        -0.93859
| 90>    H        9.43834         7.91635        -1.03124
| 91>    H       10.38852         9.28661        -0.37260
| 92>    H       10.20028         9.11059        -2.12890
| 93>    H        8.20028        17.66417         0.09868
| 94>    H        7.28477        22.62504        -0.70938
| 95>    H       12.64479        21.02968         2.00263
| 96>    H       12.45429        23.59544         1.69533
| 97>    H       10.03723        17.43626         1.23246
| 98>    H       12.68473        18.89583         1.69526
| 99>    H       12.31980        17.11961         1.92557
|100> *
|101>
|102>                          ****END OF INPUT****

CARTESIAN COORDINATES (ANGSTROEM)
---------------------------------
  C     -4.698480    0.864020   -1.583190
  C     -4.322490    2.131570   -1.299010
  C     -5.222690    3.135740   -0.892650
  C     -6.651890    2.838530   -0.760960
  C     -7.215310    1.633760   -1.005030
  S     -6.319790    0.259520   -1.507060
  C     -7.248770    4.060130   -0.345080
  C     -6.276820    5.053840   -0.228390
  C     -6.838030    6.275720    0.206860
  C     -8.180840    6.177930    0.394310
  S     -8.825890    4.610620    0.058720
  C     -4.993610    4.482490   -0.578230
  C     -3.727930    5.114070   -0.623580
  C     -3.491980    6.441830   -0.460220
  C     -2.213370    7.045340   -0.529190
  C     -0.964070    6.461340   -0.693450
  C      0.057560    7.404770   -0.731380
  C     -0.402710    8.726650   -0.596930
  S     -2.100870    8.797680   -0.413980
  C      0.705800    9.600780   -0.668220
  C      1.874460    8.833000   -0.840450
  C      1.507180    7.431390   -0.884640
  C      2.338080    6.359420   -1.043110
  C      1.854130    5.036330   -1.082220
  N      1.459740    3.959540   -1.115940
  C      3.733470    6.507350   -1.179610
  N      4.868910    6.625670   -1.290430
  C      3.027980    9.610100   -0.940190
  C      2.755160   10.963390   -0.851920
  S      1.031730   11.274880   -0.633050
  C      3.647220   12.058200   -0.941480
  S      3.016560   13.677880   -1.022910
  C      4.601280   14.394280   -1.141000
  C      5.557270   13.405670   -1.120040
  C      5.039920   12.077630   -1.013250
  C      6.077760   11.115900   -1.029530
  C      7.307280   11.684010   -1.177210
  C      8.610360   11.021140   -1.249680
  O      9.657880   11.596110   -1.416510
  O      8.496360    9.692670   -1.107590
  C      9.711040    8.959780   -1.164300
  S      7.283030   13.428440   -1.295150
  C      4.769130   15.813060   -1.287640
  C      3.943180   16.615650   -2.057640
  C      2.837100   16.220250   -2.805850
  N      1.929260   15.906240   -3.436780
  S      4.469570   18.273530   -2.078930
  C      5.806440   17.911050   -1.032480
  C      5.817020   16.563320   -0.679860
  C      6.631330   16.008570    0.318390
  N      7.228080   15.548630    1.185410
  C      6.717510   18.941770   -0.655080
  C      7.934420   18.696680   -0.071510
  C      8.852250   19.681090    0.295630
  C      8.582610   21.105870    0.045610
  C      7.456840   21.575140   -0.531380
  S      6.162890   20.574170   -1.045150
  C      9.732350   21.786080    0.522460
  C     10.655360   20.864960    1.033620
  C     11.804320   21.515230    1.542980
  C     11.728440   22.863020    1.400200
  S     10.267610   23.412290    0.650020
  C     10.113460   19.541410    0.889840
  C     10.701350   18.289800    1.274380
  C     11.964580   18.098720    1.656040
  H     -3.995210    0.109350   -1.891110
  H     -3.273720    2.375660   -1.391550
  H     -8.273950    1.457380   -0.899820
  H     -6.300700    7.188060    0.388240
  H     -8.853480    6.947620    0.718820
  H     -2.886820    4.466180   -0.827930
  H     -4.317290    7.115450   -0.291560
  H     -0.816740    5.400840   -0.777660
  H      4.013630    9.214640   -1.090660
  H      5.952260   10.053790   -0.938590
  H      9.438340    7.916350   -1.031240
  H     10.388520    9.286610   -0.372600
  H     10.200280    9.110590   -2.128900
  H      8.200280   17.664170    0.098680
  H      7.284770   22.625040   -0.709380
  H     12.644790   21.029680    2.002630
  H     12.454290   23.595440    1.695330
  H     10.037230   17.436260    1.232460
  H     12.684730   18.895830    1.695260
  H     12.319800   17.119610    1.925570

 Total Charge           Charge          ....    0
 Multiplicity           Mult            ....    1
 Number of Electrons    NEL             ....  508
 Basis Dimension        Dim             .... 1046

ORBITAL ENERGIES
----------------

  NO   OCC          E(Eh)            E(eV)
   0   2.0000     -88.989827     -2421.5363
   1   2.0000     -88.983064     -2421.3523
   2   2.0000     -88.977800     -2421.2090
   3   2.0000     -88.976606     -2421.1765
   4   2.0000     -88.974780     -2421.1268
   5   2.0000     -88.971777     -2421.0451
   6   2.0000     -88.958537     -2420.6849
   7   2.0000     -88.955373     -2420.5988
   8   2.0000     -88.952631     -2420.5242
   9   2.0000     -19.253798      -523.9225
  10   2.0000     -19.198854      -522.4274
  11   2.0000     -14.426168      -392.5560
  12   2.0000     -14.425812      -392.5463
  13   2.0000     -14.411828      -392.1658
  14   2.0000     -14.410328      -392.1250
  15   2.0000     -10.398248      -282.9507
  16   2.0000     -10.357792      -281.8499
  17   2.0000     -10.349977      -281.6372
  18   2.0000     -10.346062      -281.5307
  19   2.0000     -10.336899      -281.2813
  20   2.0000     -10.331024      -281.1215
  21   2.0000     -10.329290      -281.0743
  22   2.0000     -10.329209      -281.0721
  23   2.0000     -10.327806      -281.0339
  24   2.0000     -10.326914      -281.0096
  25   2.0000     -10.326820      -281.0071
  26   2.0000     -10.326192      -280.9900
  27   2.0000     -10.324874      -280.9541
  28   2.0000     -10.324578      -280.9460
  29   2.0000     -10.321030      -280.8495
  30   2.0000     -10.317295      -280.7479
  31   2.0000     -10.314958      -280.6843
  32   2.0000     -10.314793      -280.6798
  33   2.0000     -10.314099      -280.6609
  34   2.0000     -10.313255      -280.6379
  35   2.0000     -10.312775      -280.6249
  36   2.0000     -10.312676      -280.6222
  37   2.0000     -10.310538      -280.5640
  38   2.0000     -10.305115      -280.4164
  39   2.0000     -10.303615      -280.3756
  40   2.0000     -10.298537      -280.2374
  41   2.0000     -10.297373      -280.2058
  42   2.0000     -10.296894      -280.1927
  43   2.0000     -10.296647      -280.1860
  44   2.0000     -10.295427      -280.1528
  45   2.0000     -10.294926      -280.1392
  46   2.0000     -10.294595      -280.1302
  47   2.0000     -10.293751      -280.1072
  48   2.0000     -10.290964      -280.0314
  49   2.0000     -10.290962      -280.0313
  50   2.0000     -10.288744      -279.9710
  51   2.0000     -10.287370      -279.9336
  52   2.0000     -10.284640      -279.8593
  53   2.0000     -10.284074      -279.8439
  54   2.0000     -10.283217      -279.8205
  55   2.0000     -10.281142      -279.7641
  56   2.0000     -10.280602      -279.7494
  57   2.0000     -10.277684      -279.6700
  58   2.0000     -10.276337      -279.6333
  59   2.0000     -10.275977      -279.6235
  60   2.0000     -10.274080      -279.5719
  61   2.0000     -10.273074      -279.5446
  62   2.0000     -10.272495      -279.5288
  63   2.0000     -10.270113      -279.4640
  64   2.0000     -10.260773      -279.2098
  65   2.0000      -8.085131      -220.0076
  66   2.0000      -8.077866      -219.8099
  67   2.0000      -8.072473      -219.6632
  68   2.0000      -8.072245      -219.6569
  69   2.0000      -8.070697      -219.6148
  70   2.0000      -8.066617      -219.5038
  71   2.0000      -8.054073      -219.1625
  72   2.0000      -8.050747      -219.0720
  73   2.0000      -8.047650      -218.9877
  74   2.0000      -6.054617      -164.7545
  75   2.0000      -6.050218      -164.6348
  76   2.0000      -6.047192      -164.5525
  77   2.0000      -6.046979      -164.5467
  78   2.0000      -6.042947      -164.4369
  79   2.0000      -6.041963      -164.4102
  80   2.0000      -6.041676      -164.4024
  81   2.0000      -6.040175      -164.3615
  82   2.0000      -6.040083      -164.3590
  83   2.0000      -6.037569      -164.2906
  84   2.0000      -6.037416      -164.2865
  85   2.0000      -6.036080      -164.2501
  86   2.0000      -6.035517      -164.2348
  87   2.0000      -6.034907      -164.2182
  88   2.0000      -6.033766      -164.1871
  89   2.0000      -6.032807      -164.1610
  90   2.0000      -6.031727      -164.1316
  91   2.0000      -6.028620      -164.0471
  92   2.0000      -6.023504      -163.9079
  93   2.0000      -6.020180      -163.8174
  94   2.0000      -6.019238      -163.7918
  95   2.0000      -6.017530      -163.7453
  96   2.0000      -6.016109      -163.7066
  97   2.0000      -6.015927      -163.7017
  98   2.0000      -6.013178      -163.6269
  99   2.0000      -6.012852      -163.6180
 100   2.0000      -6.008684      -163.5046
 101   2.0000      -1.185580       -32.2613
 102   2.0000      -1.092364       -29.7247
 103   2.0000      -1.037002       -28.2183
 104   2.0000      -1.033716       -28.1288
 105   2.0000      -1.017566       -27.6894
 106   2.0000      -1.011948       -27.5365
 107   2.0000      -1.006231       -27.3809
 108   2.0000      -1.003737       -27.3131
 109   2.0000      -1.003610       -27.3096
 110   2.0000      -0.996787       -27.1240
 111   2.0000      -0.988200       -26.8903
 112   2.0000      -0.986909       -26.8552
 113   2.0000      -0.971089       -26.4247
 114   2.0000      -0.967090       -26.3159
 115   2.0000      -0.956390       -26.0247
 116   2.0000      -0.946789       -25.7634
 117   2.0000      -0.929884       -25.3034
 118   2.0000      -0.925787       -25.1919
 119   2.0000      -0.913522       -24.8582
 120   2.0000      -0.905578       -24.6420
 121   2.0000      -0.895295       -24.3622
 122   2.0000      -0.884581       -24.0707
 123   2.0000      -0.874275       -23.7902
 124   2.0000      -0.871798       -23.7228
 125   2.0000      -0.863529       -23.4978
 126   2.0000      -0.859698       -23.3936
 127   2.0000      -0.852553       -23.1992
 128   2.0000      -0.846643       -23.0383
 129   2.0000      -0.840251       -22.8644
 130   2.0000      -0.836132       -22.7523
 131   2.0000      -0.832221       -22.6459
 132   2.0000      -0.816504       -22.2182
 133   2.0000      -0.806883       -21.9564
 134   2.0000      -0.803458       -21.8632
 135   2.0000      -0.798774       -21.7357
 136   2.0000      -0.788737       -21.4626
 137   2.0000      -0.782924       -21.3044
 138   2.0000      -0.769129       -20.9291
 139   2.0000      -0.765693       -20.8356
 140   2.0000      -0.744439       -20.2572
 141   2.0000      -0.735907       -20.0250
 142   2.0000      -0.727716       -19.8022
 143   2.0000      -0.721337       -19.6286
 144   2.0000      -0.714948       -19.4547
 145   2.0000      -0.709951       -19.3187
 146   2.0000      -0.703659       -19.1475
 147   2.0000      -0.689038       -18.7497
 148   2.0000      -0.680399       -18.5146
 149   2.0000      -0.670915       -18.2565
 150   2.0000      -0.665867       -18.1192
 151   2.0000      -0.659591       -17.9484
 152   2.0000      -0.655955       -17.8495
 153   2.0000      -0.651279       -17.7222
 154   2.0000      -0.647364       -17.6157
 155   2.0000      -0.635336       -17.2884
 156   2.0000      -0.632566       -17.2130
 157   2.0000      -0.628482       -17.1019
 158   2.0000      -0.625059       -17.0087
 159   2.0000      -0.620426       -16.8827
 160   2.0000      -0.615127       -16.7385
 161   2.0000      -0.607177       -16.5221
 162   2.0000      -0.601246       -16.3607
 163   2.0000      -0.588872       -16.0240
 164   2.0000      -0.585501       -15.9323
 165   2.0000      -0.581696       -15.8288
 166   2.0000      -0.576909       -15.6985
 167   2.0000      -0.572168       -15.5695
 168   2.0000      -0.564830       -15.3698
 169   2.0000      -0.564607       -15.3637
 170   2.0000      -0.561734       -15.2856
 171   2.0000      -0.555973       -15.1288
 172   2.0000      -0.555398       -15.1131
 173   2.0000      -0.551885       -15.0176
 174   2.0000      -0.547753       -14.9051
 175   2.0000      -0.543742       -14.7960
 176   2.0000      -0.540106       -14.6970
 177   2.0000      -0.538307       -14.6481
 178   2.0000      -0.531171       -14.4539
 179   2.0000      -0.526794       -14.3348
 180   2.0000      -0.524902       -14.2833
 181   2.0000      -0.518637       -14.1128
 182   2.0000      -0.517211       -14.0740
 183   2.0000      -0.510445       -13.8899
 184   2.0000      -0.509140       -13.8544
 185   2.0000      -0.508033       -13.8243
 186   2.0000      -0.507831       -13.8188
 187   2.0000      -0.505308       -13.7501
 188   2.0000      -0.502237       -13.6666
 189   2.0000      -0.497403       -13.5350
 190   2.0000      -0.496971       -13.5233
 191   2.0000      -0.493151       -13.4193
 192   2.0000      -0.488288       -13.2870
 193   2.0000      -0.485065       -13.1993
 194   2.0000      -0.481940       -13.1142
 195   2.0000      -0.480786       -13.0828
 196   2.0000      -0.473761       -12.8917
 197   2.0000      -0.472426       -12.8554
 198   2.0000      -0.470141       -12.7932
 199   2.0000      -0.467144       -12.7116
 200   2.0000      -0.466096       -12.6831
 201   2.0000      -0.462875       -12.5955
 202   2.0000      -0.459176       -12.4948
 203   2.0000      -0.458253       -12.4697
 204   2.0000      -0.458094       -12.4654
 205   2.0000      -0.454248       -12.3607
 206   2.0000      -0.453297       -12.3348
 207   2.0000      -0.449597       -12.2342
 208   2.0000      -0.445639       -12.1265
 209   2.0000      -0.443222       -12.0607
 210   2.0000      -0.441208       -12.0059
 211   2.0000      -0.439659       -11.9637
 212   2.0000      -0.439187       -11.9509
 213   2.0000      -0.436619       -11.8810
 214   2.0000      -0.435390       -11.8476
 215   2.0000      -0.433324       -11.7913
 216   2.0000      -0.431939       -11.7537
 217   2.0000      -0.430683       -11.7195
 218   2.0000      -0.430347       -11.7103
 219   2.0000      -0.429799       -11.6954
 220   2.0000      -0.427283       -11.6270
 221   2.0000      -0.426203       -11.5976
 222   2.0000      -0.423614       -11.5271
 223   2.0000      -0.420663       -11.4468
 224   2.0000      -0.420057       -11.4303
 225   2.0000      -0.416729       -11.3398
 226   2.0000      -0.414931       -11.2909
 227   2.0000      -0.413338       -11.2475
 228   2.0000      -0.412555       -11.2262
 229   2.0000      -0.410986       -11.1835
 230   2.0000      -0.406938       -11.0733
 231   2.0000      -0.405513       -11.0346
 232   2.0000      -0.399754       -10.8779
 233   2.0000      -0.392494       -10.6803
 234   2.0000      -0.386447       -10.5157
 235   2.0000      -0.382487       -10.4080
 236   2.0000      -0.373939       -10.1754
 237   2.0000      -0.371620       -10.1123
 238   2.0000      -0.358768        -9.7626
 239   2.0000      -0.352690        -9.5972
 240   2.0000      -0.346544        -9.4300
 241   2.0000      -0.340565        -9.2672
 242   2.0000      -0.333434        -9.0732
 243   2.0000      -0.326702        -8.8900
 244   2.0000      -0.324330        -8.8255
 245   2.0000      -0.321966        -8.7611
 246   2.0000      -0.315958        -8.5976
 247   2.0000      -0.309388        -8.4189
 248   2.0000      -0.291653        -7.9363
 249   2.0000      -0.280534        -7.6337
 250   2.0000      -0.278688        -7.5835
 251   2.0000      -0.251169        -6.8347
 252   2.0000      -0.239261        -6.5106
 253   2.0000      -0.219012        -5.9596
 254   0.0000      -0.099304        -2.7022
 255   0.0000      -0.074296        -2.0217
 256   0.0000      -0.061234        -1.6663
 257   0.0000      -0.046474        -1.2646
 258   0.0000      -0.036552        -0.9946

MULLIKEN ATOMIC CHARGES
-----------------------
   0 C :   -0.099323
   1 C :    0.035465
   2 C :    0.015162
   3 C :    0.073479
   4 C :   -0.145596
   5 S :    0.131753
   6 C :   -0.119383
   7 C :    0.058191
   8 C :   -0.009085
   9 C :   -0.067743
  10 S :    0.125544
  11 C :    0.084220
  12 C :   -0.010305
  13 C :    0.035982
  14 C :   -0.066733
  15 C :   -0.047662
  16 C :    0.010580
  17 C :   -0.111973
  18 S :    0.179420
  19 C :   -0.088842
  20 C :   -0.006037
  21 C :    0.308450
  22 C :   -0.300693
  23 C :   -0.180608
  24 N :    0.160329
  25 C :   -0.190430
  26 N :    0.166108
  27 C :   -0.041514
  28 C :   -0.060517
  29 S :    0.185970
  30 C :   -0.065876
  31 S :    0.181945
  32 C :   -0.285125
  33 C :    0.031007
  34 C :    0.085151
  35 C :   -0.005924
  36 C :   -0.150401
  37 C :    0.206995
  38 O :   -0.200970
  39 O :   -0.299864
  40 C :    0.189851
  41 S :    0.186106
  42 C :    0.303496
  43 C :   -0.341638
  44 C :   -0.208289
  45 N :    0.149061
  46 S :    0.217979
  47 C :   -0.018432
  48 C :   -0.105059
  49 C :   -0.279147
  50 N :    0.165969
  51 C :   -0.058036
  52 C :   -0.048117
  53 C :    0.034416
  54 C :    0.068725
  55 C :   -0.118127
  56 S :    0.114247
  57 C :   -0.108998
  58 C :    0.048862
  59 C :    0.003713
  60 C :   -0.068602
  61 S :    0.130902
  62 C :    0.068930
  63 C :   -0.029200
  64 C :   -0.017844
  65 H :    0.047224
  66 H :   -0.005549
  67 H :    0.035343
  68 H :   -0.015166
  69 H :    0.023774
  70 H :   -0.032701
  71 H :   -0.049464
  72 H :    0.002467
  73 H :   -0.010782
  74 H :    0.011919
  75 H :    0.041478
  76 H :    0.033245
  77 H :    0.031986
  78 H :    0.002363
  79 H :    0.037914
  80 H :   -0.012560
  81 H :    0.026888
  82 H :   -0.001774
  83 H :    0.004257
  84 H :    0.027221
Sum of atomic charges:   -0.0000000

LOEWDIN ATOMIC CHARGES
----------------------
   0 C :   -0.181169
   1 C :   -0.026414
   2 C :   -0.017343
   3 C :   -0.047011
   4 C :   -0.143849
   5 S :    0.455603
   6 C :   -0.204323
   7 C :   -0.037243
   8 C :   -0.068133
   9 C :   -0.167660
  10 S :    0.422363
  11 C :   -0.058240
  12 C :    0.001606
  13 C :   -0.071956
  14 C :   -0.148003
  15 C :   -0.040863
  16 C :   -0.061292
  17 C :   -0.201941
  18 S :    0.468561
  19 C :   -0.165776
  20 C :   -0.080673
  21 C :    0.087305
  22 C :   -0.108248
  23 C :   -0.013832
  24 N :   -0.041531
  25 C :   -0.014958
  26 N :   -0.039522
  27 C :   -0.023162
  28 C :   -0.186165
  29 S :    0.468856
  30 C :   -0.173025
  31 S :    0.477221
  32 C :   -0.218253
  33 C :   -0.163912
  34 C :   -0.078132
  35 C :   -0.019051
  36 C :   -0.193825
  37 C :    0.064630
  38 O :   -0.176999
  39 O :   -0.090166
  40 C :    0.083281
  41 S :    0.449307
  42 C :   -0.012112
  43 C :   -0.240344
  44 C :   -0.072639
  45 N :   -0.047507
  46 S :    0.486438
  47 C :   -0.130495
  48 C :   -0.119211
  49 C :   -0.046084
  50 N :   -0.049033
  51 C :   -0.206370
  52 C :    0.013560
  53 C :   -0.035540
  54 C :   -0.051297
  55 C :   -0.135388
  56 S :    0.425720
  57 C :   -0.192987
  58 C :   -0.038224
  59 C :   -0.060749
  60 C :   -0.164271
  61 S :    0.425099
  62 C :   -0.021610
  63 C :   -0.023034
  64 C :   -0.037389
  65 H :    0.032778
  66 H :    0.040552
  67 H :    0.035088
  68 H :    0.027182
  69 H :    0.023053
  70 H :    0.027623
  71 H :    0.023173
  72 H :    0.036134
  73 H :    0.037576
  74 H :    0.038632
  75 H :    0.028857
  76 H :    0.023777
  77 H :    0.023560
  78 H :    0.045726
  79 H :    0.037554
  80 H :    0.030671
  81 H :    0.024203
  82 H :    0.034885
  83 H :    0.018211
  84 H :    0.028168

  Mayer bond orders larger than 0.100000
B(  0-C ,  1-C ) :   1.6596 B(  0-C ,  5-S ) :   1.1032 B(  0-C , 65-H ) :   0.9378
B(  1-C ,  2-C ) :   1.2076 B(  1-C , 66-H ) :   0.9708 B(  2-C ,  3-C ) :   1.0567
B(  2-C , 11-C ) :   1.4127 B(  3-C ,  4-C ) :   1.6001 B(  3-C ,  6-C ) :   1.1829
B(  4-C ,  5-S ) :   1.1451 B(  4-C , 67-H ) :   0.9420 B(  6-C ,  7-C ) :   1.4629
B(  6-C , 10-S ) :   1.0757 B(  7-C ,  8-C ) :   1.2150 B(  7-C , 11-C ) :   1.0683
B(  8-C ,  9-C ) :   1.5846 B(  8-C , 68-H ) :   0.9996 B(  9-C , 10-S ) :   1.1602
B(  9-C , 69-H ) :   0.9644 B( 11-C , 12-C ) :   1.1816 B( 12-C , 13-C ) :   1.6397
B( 12-C , 70-H ) :   0.9593 B( 13-C , 14-C ) :   1.1277 B( 13-C , 71-H ) :   0.9618
B( 14-C , 15-C ) :   1.4373 B( 14-C , 18-S ) :   1.1151 B( 15-C , 16-C ) :   1.3097
B( 15-C , 72-H ) :   0.9897 B( 16-C , 17-C ) :   1.4334 B( 16-C , 21-C ) :   0.9942
B( 17-C , 18-S ) :   1.1024 B( 17-C , 19-C ) :   1.2047 B( 19-C , 20-C ) :   1.4231
B( 19-C , 29-S ) :   1.1332 B( 20-C , 21-C ) :   1.0068 B( 20-C , 27-C ) :   1.2940
B( 21-C , 22-C ) :   1.7008 B( 22-C , 23-C ) :   1.1353 B( 22-C , 25-C ) :   1.1334
B( 23-C , 24-N ) :   2.9821 B( 25-C , 26-N ) :   3.0001 B( 27-C , 28-C ) :   1.4723
B( 27-C , 73-H ) :   0.9926 B( 28-C , 29-S ) :   1.0794 B( 28-C , 30-C ) :   1.1509
B( 30-C , 31-S ) :   1.1433 B( 30-C , 32-C ) :   0.1312 B( 30-C , 34-C ) :   1.4212
B( 31-S , 32-C ) :   1.1327 B( 32-C , 33-C ) :   1.5257 B( 32-C , 42-C ) :   1.0346
B( 33-C , 34-C ) :   1.2326 B( 33-C , 41-S ) :   1.0620 B( 34-C , 35-C ) :   1.1265
B( 35-C , 36-C ) :   1.6212 B( 35-C , 74-H ) :   0.9984 B( 36-C , 37-C ) :   0.9627
B( 36-C , 41-S ) :   1.0760 B( 37-C , 38-O ) :   2.1391 B( 37-C , 39-O ) :   1.2385
B( 39-O , 40-C ) :   0.9197 B( 40-C , 75-H ) :   0.9810 B( 40-C , 76-H ) :   0.9759
B( 40-C , 77-H ) :   0.9764 B( 42-C , 43-C ) :   1.4895 B( 42-C , 48-C ) :   1.2792
B( 43-C , 44-C ) :   1.2328 B( 43-C , 46-S ) :   1.0993 B( 43-C , 47-C ) :   0.1078
B( 44-C , 45-N ) :   2.9910 B( 46-S , 47-C ) :   1.1503 B( 47-C , 48-C ) :   1.4809
B( 47-C , 51-C ) :   1.1443 B( 48-C , 49-C ) :   1.1275 B( 49-C , 50-N ) :   2.9866
B( 51-C , 52-C ) :   1.5493 B( 51-C , 56-S ) :   1.0148 B( 52-C , 53-C ) :   1.2472
B( 52-C , 78-H ) :   0.9555 B( 53-C , 54-C ) :   1.0298 B( 53-C , 62-C ) :   1.4197
B( 54-C , 55-C ) :   1.6213 B( 54-C , 57-C ) :   1.1847 B( 55-C , 56-S ) :   1.1324
B( 55-C , 79-H ) :   0.9410 B( 57-C , 58-C ) :   1.4362 B( 57-C , 61-S ) :   1.0844
B( 58-C , 59-C ) :   1.2071 B( 58-C , 62-C ) :   1.1020 B( 59-C , 60-C ) :   1.5945
B( 59-C , 80-H ) :   0.9994 B( 60-C , 61-S ) :   1.1488 B( 60-C , 81-H ) :   0.9648
B( 62-C , 63-C ) :   1.1335 B( 63-C , 64-C ) :   1.9109 B( 63-C , 82-H ) :   0.9526
B( 64-C , 83-H ) :   0.9582 B( 64-C , 84-H ) :   0.9429

-----------------------------------------------------------------------------
         ABSORPTION SPECTRUM VIA TRANSITION ELECTRIC DIPOLE MOMENTS
-----------------------------------------------------------------------------
State   Energy  Wavelength   fosc         T2         TX        TY        TZ
        (cm-1)    (nm)                  (au**2)     (au)      (au)      (au)
-----------------------------------------------------------------------------
   0    8977.1   1113.9   0.185382643   6.79840  -1.92529  -1.75792   0.03698
   1   17925.6    557.9   0.116361342   2.13703  -0.90898  -1.13952  -0.11084
   2   19200.9    520.8   2.041721488  35.00662  -3.93653  -4.40779  -0.28577
   3   20243.4    494.0   0.334214035   5.43522   1.94829   0.60565   1.12809
   4   20984.4    476.5   0.066119165   1.03731   0.45655   0.89752  -0.15276
   5   22028.0    454.0   0.042315496   0.63241  -0.65960  -0.31782   0.31037
   6   22481.9    444.8   0.053881672   0.78901   0.68006   0.44515  -0.35829
   7   23199.5    431.0   0.000807263   0.01146   0.10397   0.02252   0.01179
   8   25088.6    398.6   0.014393913   0.18888   0.36191   0.24047  -0.00847
   9   26332.8    379.8   0.145366004   1.81736  -1.32510  -0.02906  -0.24623
  10   27045.0    369.8   0.133304393   1.62268  -1.14393  -0.55650   0.06637
  11   27337.5    365.8   0.151402690   1.82327   0.75174   1.12074   0.04579
  12   27540.1    363.1   0.018582574   0.22213  -0.16865  -0.44010  -0.00134
  13   27908.0    358.3   0.188643684   2.22531   0.23881   1.47179  -0.04581
  14   28629.6    349.3   0.022302718   0.25646   0.50314  -0.04059   0.04077
  15   30156.4    331.6   0.059233297   0.64664   0.28985  -0.74735   0.06401
  16   30734.3    325.4   0.001838918   0.01970  -0.01363   0.12978   0.05167
  17   30857.2    324.1   0.090769201   0.96841   0.28932   0.92533   0.16871
  18   31442.0    318.0   0.401679416   4.20577   1.65857  -1.19402  -0.17099
  19   31549.5    317.0   0.213712694   2.23004   1.04973  -1.03327  -0.24590
  20   31812.7    314.3   0.016300503   0.16868  -0.21765  -0.34400   0.05456
  21   32993.3    303.1   0.463588504   4.62576  -0.65326  -2.03891  -0.20459
  22   33207.7    301.1   0.001118776   0.01109   0.07787  -0.07064   0.00614
  23   34118.1    293.1   0.025928810   0.25019   0.30547  -0.36222  -0.16024
  24   34256.0    291.9   0.061675532   0.59272  -0.70306  -0.27892  -0.14366
  25   34490.3    289.9   0.028013369   0.26739   0.09402   0.39462   0.32066
  26   34646.1    288.6   0.007002716   0.06654   0.11986   0.22748  -0.02063
  27   35084.2    285.0   0.056550505   0.53064  -0.70594   0.17206   0.05185
  28   35534.7    281.4   0.141617320   1.31202   1.04036   0.47446   0.06747
  29   35876.6    278.7   0.234166905   2.14877   1.19096   0.68448   0.51174
  30   35913.6    278.4   0.139098824   1.27509   0.81300   0.47745   0.62143
  31   36482.6    274.1   0.047133136   0.42532   0.49531   0.35874   0.22648
  32   36694.5    272.5   0.028056609   0.25172  -0.49274   0.09383  -0.01090
  33   36988.9    270.4   0.118708754   1.05654  -0.84278  -0.48875  -0.32770
  34   37138.2    269.3   0.016217343   0.14376   0.31606   0.20265   0.05290
  35   37282.9    268.2   0.076995721   0.67988   0.28509   0.75742   0.15785
  36   37487.0    266.8   0.021944279   0.19272  -0.35152  -0.24294  -0.10066
  37   37906.4    263.8   0.041380497   0.35938   0.49769   0.29064   0.16498
  38   38035.1    262.9   0.024750157   0.21422   0.28954  -0.35387  -0.07189
  39   38221.6    261.6   0.077591786   0.66832   0.74803  -0.32432  -0.05991
  40   38640.3    258.8   0.169072107   1.44048   0.79801  -0.88735  -0.12757
  41   38778.5    257.9   0.000777857   0.00660   0.03139   0.00672   0.07465
  42   38886.5    257.2   0.082239070   0.69623   0.02638   0.83302   0.04011
  43   39102.9    255.7   0.010846749   0.09132   0.24764  -0.16462   0.05383
  44   39293.4    254.5   0.020636545   0.17290   0.41192  -0.01125  -0.05562
  45   39371.7    254.0   0.006946399   0.05808   0.02315   0.23938  -0.01559
  46   39605.7    252.5   0.084325896   0.70094  -0.45467   0.70186  -0.04003
  47   39858.4    250.9   0.147505939   1.21833  -0.98182   0.48571   0.13583
  48   40045.7    249.7   0.066399639   0.54587   0.24376   0.58031   0.38689

FINAL SINGLE POINT ENERGY     -5866.384574113222

DIPOLE MOMENT
-------------
                                X             Y             Z
Electronic contribution:    -22.07213      16.52710      -9.47135
Nuclear contribution   :     20.51315     -16.26525       9.92884
                        -----------------------------------------
Total Dipole Moment    :     -1.55898       0.26184       0.45749
                        -----------------------------------------
Magnitude (a.u.)       :      1.64568
Magnitude (Debye)      :      4.18300

Rotational constants in cm-1:     0.002258     0.000240     0.000221
Rotational constants in MHz :    67.698121     7.185488     6.632699

                             ****ORCA TERMINATED NORMALLY****
TOTAL RUN TIME: 0 days 0 hours 7 minutes 47 seconds 485 msec
