                         Program Version 4.2.0 -  RELEASE  -
|  1> # ORCA input file
|  2> # SCF done       -212.567275872237          0.000944019110
|  3> ! CAM-B3LYP def2-SVP def2/J RIJCOSX Grid4 TightSCF
|  4> %maxcore 5000
|  5> %tddft
|  6>     Mode sTDDFT
|  7>     Ethresh 5.0
|  8>     maxcore 5000
|  9> end
| 10>
| 11> %pal
| 12>   nprocs 6
| 13>   end
| 14> * xyz 0 1
| 15>    C       -2.04664        -1.92154         4.78252
| 16>    C       -2.45603        -2.28315         6.06360
| 17>    C       -3.50220        -1.46855         6.75378
| 18>    C       -1.89641        -3.40014         6.70441
| 19>    C       -2.33620        -3.78319         8.08050
| 20>    C       -0.92729        -4.15314         6.05000
| 21>    C       -0.53011        -3.78877         4.77946
| 22>    C       -1.08086        -2.66981         4.13106
| 23>    C       -0.46766        -2.53490         2.81283
| 24>    C       -0.74336        -1.54280         1.90953
| 25>    C       -1.67796        -0.50918         2.13435
| 26>    N       -2.42289         0.35623         2.25048
| 27>    C       -0.14855        -1.39094         0.63897
| 28>    N        0.28709        -1.19324        -0.40512
| 29>    C        0.47399        -3.63250         2.66080
| 30>    C        0.45603        -4.42556         3.90009
| 31>    O        1.12368        -5.41547         4.14901
| 32>    C        1.23032        -3.90227         1.55241
| 33>    C        2.14050        -4.94553         1.30436
| 34>    C        2.79338        -5.07152         0.07147
| 35>    C        3.62661        -6.17242         0.02366
| 36>    C        3.62136        -6.89974         1.23961
| 37>    S        2.59379        -6.22982         2.42216
| 38>    C        4.48262        -8.01123         1.09459
| 39>    C        5.03058        -7.99232        -0.20729
| 40>    C        4.51537        -6.83453        -0.91905
| 41>    C        4.80396        -6.45832        -2.19776
| 42>    C        5.68625        -7.19502        -3.01655
| 43>    N        6.40060        -7.78534        -3.69177
| 44>    C        4.23960        -5.30900        -2.79111
| 45>    N        3.78464        -4.37818        -3.28168
| 46>    C        5.87803        -9.06346        -0.44924
| 47>    C        5.98673        -9.90180         0.65588
| 48>    S        5.02759        -9.34244         2.01582
| 49>    C        6.74487       -11.09958         0.74120
| 50>    C        6.79401       -11.86362         1.92836
| 51>    C        7.52187       -13.09463         2.02359
| 52>    N        7.51837       -13.77308         3.18802
| 53>    C        6.86544       -13.30684         4.20287
| 54>    C        6.14641       -12.08671         4.10919
| 55>    N        6.12417       -11.41088         3.00632
| 56>    F        5.47548       -11.60503         5.14976
| 57>    F        6.88663       -14.00589         5.33262
| 58>    C        8.24087       -13.63933         0.93705
| 59>    C        8.21643       -12.86869        -0.25041
| 60>    C        7.48611       -11.62419        -0.34538
| 61>    N        7.60687       -11.08166        -1.55795
| 62>    S        8.52930       -12.01511        -2.47565
| 63>    N        8.82839       -13.16213        -1.39869
| 64>    C        8.92019       -14.88185         1.04231
| 65>    C        9.62314       -15.53372         0.03370
| 66>    C       10.14548       -16.74460         0.46301
| 67>    C        9.84560       -17.01923         1.81470
| 68>    S        8.91712       -15.78527         2.54636
| 69>    C       10.41400       -18.26962         2.14632
| 70>    C       11.06235       -18.79647         1.00924
| 71>    C       10.91736       -17.85016        -0.08416
| 72>    C       11.39343       -17.97323        -1.35599
| 73>    C       12.11849       -19.10729        -1.78045
| 74>    N       12.69967       -20.03054        -2.13312
| 75>    C       11.18384       -16.98034        -2.33697
| 76>    N       11.01488       -16.18196        -3.14238
| 77>    C       11.62684       -20.04592         1.24223
| 78>    C       11.45637       -20.46390         2.55302
| 79>    S       10.52837       -19.29928         3.49615
| 80>    C       11.86116       -21.71267         3.08567
| 81>    C       12.02620       -22.08087         4.38209
| 82>    C       11.97799       -23.52844         4.75170
| 83>    O       12.05272       -24.46710         3.99392
| 84>    C       11.75563       -23.53751         6.20766
| 85>    C       11.82174       -22.22306         6.70574
| 86>    C       11.62173       -21.99146         8.05503
| 87>    C       11.36495       -23.06191         8.90698
| 88>    C       11.31061       -24.37344         8.40671
| 89>    C       11.50555       -24.60342         7.04854
| 90>    C       11.04440       -25.52160         9.32619
| 91>    C       11.15024       -22.80409        10.36364
| 92>    C       12.14760       -21.31954         5.60913
| 93>    C       12.73500       -20.08868         5.73921
| 94>    C       13.28852       -19.37776         4.65472
| 95>    N       13.78107       -18.79315         3.79804
| 96>    C       12.93635       -19.44499         6.97689
| 97>    N       13.11089       -18.87686         7.95878
| 98>    H       -2.49335        -1.05908         4.31497
| 99>    H       -3.82867        -0.64544         6.12440
|100>    H       -3.11562        -1.06135         7.68745
|101>    H       -4.36685        -2.08496         6.99781
|102>    H       -2.15120        -2.97007         8.78169
|103>    H       -1.80350        -4.66581         8.42347
|104>    H       -3.40522        -3.99308         8.09656
|105>    H       -0.48354        -5.01729         6.52144
|106>    H        1.12366        -3.23040         0.70914
|107>    H        2.63761        -4.37382        -0.73262
|108>    H        6.40221        -9.26000        -1.36619
|109>    H        9.72360       -15.11516        -0.95063
|110>    H       12.16527       -20.62848         0.51662
|111>    H       11.97922       -22.51070         2.35807
|112>    H       11.65096       -20.98992         8.45508
|113>    H       11.46778       -25.60462         6.64598
|114>    H       10.08469       -25.39654         9.82692
|115>    H       11.81179       -25.58039        10.09746
|116>    H       11.03067       -26.45955         8.77785
|117>    H       11.23258       -21.74327        10.58409
|118>    H       11.88847       -23.34095        10.95869
|119>    H       10.16425       -23.15015        10.67329
|120> *
|121>
|122>                          ****END OF INPUT****

CARTESIAN COORDINATES (ANGSTROEM)
---------------------------------
  C     -2.046640   -1.921540    4.782520
  C     -2.456030   -2.283150    6.063600
  C     -3.502200   -1.468550    6.753780
  C     -1.896410   -3.400140    6.704410
  C     -2.336200   -3.783190    8.080500
  C     -0.927290   -4.153140    6.050000
  C     -0.530110   -3.788770    4.779460
  C     -1.080860   -2.669810    4.131060
  C     -0.467660   -2.534900    2.812830
  C     -0.743360   -1.542800    1.909530
  C     -1.677960   -0.509180    2.134350
  N     -2.422890    0.356230    2.250480
  C     -0.148550   -1.390940    0.638970
  N      0.287090   -1.193240   -0.405120
  C      0.473990   -3.632500    2.660800
  C      0.456030   -4.425560    3.900090
  O      1.123680   -5.415470    4.149010
  C      1.230320   -3.902270    1.552410
  C      2.140500   -4.945530    1.304360
  C      2.793380   -5.071520    0.071470
  C      3.626610   -6.172420    0.023660
  C      3.621360   -6.899740    1.239610
  S      2.593790   -6.229820    2.422160
  C      4.482620   -8.011230    1.094590
  C      5.030580   -7.992320   -0.207290
  C      4.515370   -6.834530   -0.919050
  C      4.803960   -6.458320   -2.197760
  C      5.686250   -7.195020   -3.016550
  N      6.400600   -7.785340   -3.691770
  C      4.239600   -5.309000   -2.791110
  N      3.784640   -4.378180   -3.281680
  C      5.878030   -9.063460   -0.449240
  C      5.986730   -9.901800    0.655880
  S      5.027590   -9.342440    2.015820
  C      6.744870  -11.099580    0.741200
  C      6.794010  -11.863620    1.928360
  C      7.521870  -13.094630    2.023590
  N      7.518370  -13.773080    3.188020
  C      6.865440  -13.306840    4.202870
  C      6.146410  -12.086710    4.109190
  N      6.124170  -11.410880    3.006320
  F      5.475480  -11.605030    5.149760
  F      6.886630  -14.005890    5.332620
  C      8.240870  -13.639330    0.937050
  C      8.216430  -12.868690   -0.250410
  C      7.486110  -11.624190   -0.345380
  N      7.606870  -11.081660   -1.557950
  S      8.529300  -12.015110   -2.475650
  N      8.828390  -13.162130   -1.398690
  C      8.920190  -14.881850    1.042310
  C      9.623140  -15.533720    0.033700
  C     10.145480  -16.744600    0.463010
  C      9.845600  -17.019230    1.814700
  S      8.917120  -15.785270    2.546360
  C     10.414000  -18.269620    2.146320
  C     11.062350  -18.796470    1.009240
  C     10.917360  -17.850160   -0.084160
  C     11.393430  -17.973230   -1.355990
  C     12.118490  -19.107290   -1.780450
  N     12.699670  -20.030540   -2.133120
  C     11.183840  -16.980340   -2.336970
  N     11.014880  -16.181960   -3.142380
  C     11.626840  -20.045920    1.242230
  C     11.456370  -20.463900    2.553020
  S     10.528370  -19.299280    3.496150
  C     11.861160  -21.712670    3.085670
  C     12.026200  -22.080870    4.382090
  C     11.977990  -23.528440    4.751700
  O     12.052720  -24.467100    3.993920
  C     11.755630  -23.537510    6.207660
  C     11.821740  -22.223060    6.705740
  C     11.621730  -21.991460    8.055030
  C     11.364950  -23.061910    8.906980
  C     11.310610  -24.373440    8.406710
  C     11.505550  -24.603420    7.048540
  C     11.044400  -25.521600    9.326190
  C     11.150240  -22.804090   10.363640
  C     12.147600  -21.319540    5.609130
  C     12.735000  -20.088680    5.739210
  C     13.288520  -19.377760    4.654720
  N     13.781070  -18.793150    3.798040
  C     12.936350  -19.444990    6.976890
  N     13.110890  -18.876860    7.958780
  H     -2.493350   -1.059080    4.314970
  H     -3.828670   -0.645440    6.124400
  H     -3.115620   -1.061350    7.687450
  H     -4.366850   -2.084960    6.997810
  H     -2.151200   -2.970070    8.781690
  H     -1.803500   -4.665810    8.423470
  H     -3.405220   -3.993080    8.096560
  H     -0.483540   -5.017290    6.521440
  H      1.123660   -3.230400    0.709140
  H      2.637610   -4.373820   -0.732620
  H      6.402210   -9.260000   -1.366190
  H      9.723600  -15.115160   -0.950630
  H     12.165270  -20.628480    0.516620
  H     11.979220  -22.510700    2.358070
  H     11.650960  -20.989920    8.455080
  H     11.467780  -25.604620    6.645980
  H     10.084690  -25.396540    9.826920
  H     11.811790  -25.580390   10.097460
  H     11.030670  -26.459550    8.777850
  H     11.232580  -21.743270   10.584090
  H     11.888470  -23.340950   10.958690
  H     10.164250  -23.150150   10.673290

 Total Charge           Charge          ....    0
 Multiplicity           Mult            ....    1
 Number of Electrons    NEL             ....  592
 Basis Dimension        Dim             .... 1292

ORBITAL ENERGIES
----------------

  NO   OCC          E(Eh)            E(eV)
   0   2.0000     -89.052585     -2423.2440
   1   2.0000     -88.994983     -2421.6766
   2   2.0000     -88.989681     -2421.5323
   3   2.0000     -88.988272     -2421.4940
   4   2.0000     -88.988048     -2421.4879
   5   2.0000     -24.833586      -675.7562
   6   2.0000     -24.833269      -675.7476
   7   2.0000     -19.225589      -523.1549
   8   2.0000     -19.216292      -522.9019
   9   2.0000     -14.475657      -393.9027
  10   2.0000     -14.475347      -393.8942
  11   2.0000     -14.460734      -393.4966
  12   2.0000     -14.460591      -393.4927
  13   2.0000     -14.430663      -392.6783
  14   2.0000     -14.430373      -392.6704
  15   2.0000     -14.428672      -392.6241
  16   2.0000     -14.427932      -392.6040
  17   2.0000     -14.417934      -392.3319
  18   2.0000     -14.417397      -392.3173
  19   2.0000     -14.416641      -392.2968
  20   2.0000     -14.414089      -392.2273
  21   2.0000     -10.450943      -284.3846
  22   2.0000     -10.450614      -284.3757
  23   2.0000     -10.372827      -282.2590
  24   2.0000     -10.367647      -282.1180
  25   2.0000     -10.365775      -282.0671
  26   2.0000     -10.363188      -281.9967
  27   2.0000     -10.360766      -281.9308
  28   2.0000     -10.360470      -281.9227
  29   2.0000     -10.353364      -281.7294
  30   2.0000     -10.352806      -281.7142
  31   2.0000     -10.352564      -281.7076
  32   2.0000     -10.351689      -281.6838
  33   2.0000     -10.346042      -281.5301
  34   2.0000     -10.344545      -281.4894
  35   2.0000     -10.342980      -281.4468
  36   2.0000     -10.342236      -281.4266
  37   2.0000     -10.341942      -281.4186
  38   2.0000     -10.331476      -281.1338
  39   2.0000     -10.331205      -281.1264
  40   2.0000     -10.330932      -281.1190
  41   2.0000     -10.330764      -281.1144
  42   2.0000     -10.330737      -281.1137
  43   2.0000     -10.330588      -281.1096
  44   2.0000     -10.330500      -281.1072
  45   2.0000     -10.328999      -281.0663
  46   2.0000     -10.328803      -281.0610
  47   2.0000     -10.328507      -281.0530
  48   2.0000     -10.327892      -281.0362
  49   2.0000     -10.326825      -281.0072
  50   2.0000     -10.326674      -281.0031
  51   2.0000     -10.326070      -280.9867
  52   2.0000     -10.324010      -280.9306
  53   2.0000     -10.320572      -280.8371
  54   2.0000     -10.319821      -280.8166
  55   2.0000     -10.318603      -280.7835
  56   2.0000     -10.317286      -280.7476
  57   2.0000     -10.312366      -280.6138
  58   2.0000     -10.311733      -280.5965
  59   2.0000     -10.308151      -280.4990
  60   2.0000     -10.305520      -280.4275
  61   2.0000     -10.304993      -280.4131
  62   2.0000     -10.304838      -280.4089
  63   2.0000     -10.304801      -280.4079
  64   2.0000     -10.303221      -280.3649
  65   2.0000     -10.300498      -280.2908
  66   2.0000     -10.300291      -280.2852
  67   2.0000     -10.300227      -280.2834
  68   2.0000     -10.299757      -280.2706
  69   2.0000     -10.299647      -280.2676
  70   2.0000     -10.299614      -280.2667
  71   2.0000     -10.299311      -280.2585
  72   2.0000     -10.298890      -280.2470
  73   2.0000     -10.292371      -280.0697
  74   2.0000     -10.292254      -280.0665
  75   2.0000     -10.292080      -280.0617
  76   2.0000     -10.290564      -280.0205
  77   2.0000     -10.290495      -280.0186
  78   2.0000     -10.289524      -279.9922
  79   2.0000     -10.279940      -279.7314
  80   2.0000     -10.279796      -279.7275
  81   2.0000     -10.278736      -279.6986
  82   2.0000     -10.277131      -279.6550
  83   2.0000      -8.143502      -221.5960
  84   2.0000      -8.089157      -220.1172
  85   2.0000      -8.082482      -219.9355
  86   2.0000      -8.081025      -219.8959
  87   2.0000      -8.080580      -219.8838
  88   2.0000      -6.114573      -166.3860
  89   2.0000      -6.106649      -166.1704
  90   2.0000      -6.106471      -166.1655
  91   2.0000      -6.058392      -164.8572
  92   2.0000      -6.054175      -164.7425
  93   2.0000      -6.051949      -164.6819
  94   2.0000      -6.051621      -164.6730
  95   2.0000      -6.050456      -164.6413
  96   2.0000      -6.049993      -164.6287
  97   2.0000      -6.047238      -164.5537
  98   2.0000      -6.045763      -164.5136
  99   2.0000      -6.045224      -164.4989
 100   2.0000      -6.044976      -164.4921
 101   2.0000      -6.043523      -164.4526
 102   2.0000      -6.043163      -164.4428
 103   2.0000      -1.362167       -37.0665
 104   2.0000      -1.348130       -36.6845
 105   2.0000      -1.150578       -31.3088
 106   2.0000      -1.140936       -31.0464
 107   2.0000      -1.134216       -30.8636
 108   2.0000      -1.131525       -30.7903
 109   2.0000      -1.061760       -28.8920
 110   2.0000      -1.047348       -28.4998
 111   2.0000      -1.043831       -28.4041
 112   2.0000      -1.023259       -27.8443
 113   2.0000      -1.020552       -27.7706
 114   2.0000      -1.020337       -27.7648
 115   2.0000      -1.019041       -27.7295
 116   2.0000      -1.008983       -27.4558
 117   2.0000      -1.007623       -27.4188
 118   2.0000      -1.006173       -27.3794
 119   2.0000      -1.004686       -27.3389
 120   2.0000      -0.998583       -27.1728
 121   2.0000      -0.998343       -27.1663
 122   2.0000      -0.996613       -27.1192
 123   2.0000      -0.994192       -27.0533
 124   2.0000      -0.993213       -27.0267
 125   2.0000      -0.982780       -26.7428
 126   2.0000      -0.963163       -26.2090
 127   2.0000      -0.959489       -26.1090
 128   2.0000      -0.955953       -26.0128
 129   2.0000      -0.954018       -25.9602
 130   2.0000      -0.924897       -25.1677
 131   2.0000      -0.918611       -24.9967
 132   2.0000      -0.907681       -24.6993
 133   2.0000      -0.906700       -24.6725
 134   2.0000      -0.901381       -24.5278
 135   2.0000      -0.900631       -24.5074
 136   2.0000      -0.889094       -24.1935
 137   2.0000      -0.882182       -24.0054
 138   2.0000      -0.875070       -23.8119
 139   2.0000      -0.874019       -23.7833
 140   2.0000      -0.870511       -23.6878
 141   2.0000      -0.866249       -23.5718
 142   2.0000      -0.857303       -23.3284
 143   2.0000      -0.855138       -23.2695
 144   2.0000      -0.841833       -22.9074
 145   2.0000      -0.834102       -22.6971
 146   2.0000      -0.829233       -22.5646
 147   2.0000      -0.812168       -22.1002
 148   2.0000      -0.811545       -22.0833
 149   2.0000      -0.809155       -22.0182
 150   2.0000      -0.794580       -21.6216
 151   2.0000      -0.781837       -21.2749
 152   2.0000      -0.779260       -21.2048
 153   2.0000      -0.774228       -21.0678
 154   2.0000      -0.770922       -20.9778
 155   2.0000      -0.758730       -20.6461
 156   2.0000      -0.757094       -20.6016
 157   2.0000      -0.753014       -20.4906
 158   2.0000      -0.742475       -20.2038
 159   2.0000      -0.728004       -19.8100
 160   2.0000      -0.713411       -19.4129
 161   2.0000      -0.707836       -19.2612
 162   2.0000      -0.705874       -19.2078
 163   2.0000      -0.698873       -19.0173
 164   2.0000      -0.695899       -18.9364
 165   2.0000      -0.694845       -18.9077
 166   2.0000      -0.689938       -18.7742
 167   2.0000      -0.689389       -18.7592
 168   2.0000      -0.685819       -18.6621
 169   2.0000      -0.682860       -18.5816
 170   2.0000      -0.679424       -18.4881
 171   2.0000      -0.674244       -18.3471
 172   2.0000      -0.672235       -18.2924
 173   2.0000      -0.664890       -18.0926
 174   2.0000      -0.651930       -17.7399
 175   2.0000      -0.649754       -17.6807
 176   2.0000      -0.640927       -17.4405
 177   2.0000      -0.638172       -17.3656
 178   2.0000      -0.637300       -17.3418
 179   2.0000      -0.634162       -17.2564
 180   2.0000      -0.629733       -17.1359
 181   2.0000      -0.621403       -16.9092
 182   2.0000      -0.620282       -16.8787
 183   2.0000      -0.615604       -16.7514
 184   2.0000      -0.613457       -16.6930
 185   2.0000      -0.611418       -16.6375
 186   2.0000      -0.605830       -16.4855
 187   2.0000      -0.603101       -16.4112
 188   2.0000      -0.588865       -16.0238
 189   2.0000      -0.585810       -15.9407
 190   2.0000      -0.581311       -15.8183
 191   2.0000      -0.578037       -15.7292
 192   2.0000      -0.574323       -15.6281
 193   2.0000      -0.568565       -15.4714
 194   2.0000      -0.566257       -15.4086
 195   2.0000      -0.563488       -15.3333
 196   2.0000      -0.560010       -15.2386
 197   2.0000      -0.550443       -14.9783
 198   2.0000      -0.549053       -14.9405
 199   2.0000      -0.548813       -14.9340
 200   2.0000      -0.544189       -14.8081
 201   2.0000      -0.544134       -14.8066
 202   2.0000      -0.542535       -14.7631
 203   2.0000      -0.541251       -14.7282
 204   2.0000      -0.537801       -14.6343
 205   2.0000      -0.537148       -14.6165
 206   2.0000      -0.534817       -14.5531
 207   2.0000      -0.531349       -14.4587
 208   2.0000      -0.530378       -14.4323
 209   2.0000      -0.529259       -14.4019
 210   2.0000      -0.529119       -14.3981
 211   2.0000      -0.525744       -14.3062
 212   2.0000      -0.525265       -14.2932
 213   2.0000      -0.521072       -14.1791
 214   2.0000      -0.515737       -14.0339
 215   2.0000      -0.512092       -13.9347
 216   2.0000      -0.509407       -13.8617
 217   2.0000      -0.507128       -13.7997
 218   2.0000      -0.502516       -13.6742
 219   2.0000      -0.501901       -13.6574
 220   2.0000      -0.499836       -13.6012
 221   2.0000      -0.498734       -13.5712
 222   2.0000      -0.496264       -13.5040
 223   2.0000      -0.495266       -13.4769
 224   2.0000      -0.494618       -13.4592
 225   2.0000      -0.492366       -13.3980
 226   2.0000      -0.491799       -13.3825
 227   2.0000      -0.491363       -13.3707
 228   2.0000      -0.489743       -13.3266
 229   2.0000      -0.486637       -13.2421
 230   2.0000      -0.484490       -13.1836
 231   2.0000      -0.479800       -13.0560
 232   2.0000      -0.479620       -13.0511
 233   2.0000      -0.478644       -13.0246
 234   2.0000      -0.476556       -12.9678
 235   2.0000      -0.476360       -12.9624
 236   2.0000      -0.474490       -12.9115
 237   2.0000      -0.468384       -12.7454
 238   2.0000      -0.466838       -12.7033
 239   2.0000      -0.463433       -12.6107
 240   2.0000      -0.461556       -12.5596
 241   2.0000      -0.459452       -12.5023
 242   2.0000      -0.457145       -12.4395
 243   2.0000      -0.454006       -12.3541
 244   2.0000      -0.452984       -12.3263
 245   2.0000      -0.450530       -12.2595
 246   2.0000      -0.450089       -12.2475
 247   2.0000      -0.448707       -12.2099
 248   2.0000      -0.448300       -12.1989
 249   2.0000      -0.447301       -12.1717
 250   2.0000      -0.446777       -12.1574
 251   2.0000      -0.446278       -12.1438
 252   2.0000      -0.444519       -12.0960
 253   2.0000      -0.443519       -12.0688
 254   2.0000      -0.441808       -12.0222
 255   2.0000      -0.440536       -11.9876
 256   2.0000      -0.440068       -11.9749
 257   2.0000      -0.439477       -11.9588
 258   2.0000      -0.438513       -11.9325
 259   2.0000      -0.437489       -11.9047
 260   2.0000      -0.437007       -11.8916
 261   2.0000      -0.431428       -11.7397
 262   2.0000      -0.429472       -11.6865
 263   2.0000      -0.427854       -11.6425
 264   2.0000      -0.427566       -11.6347
 265   2.0000      -0.426055       -11.5935
 266   2.0000      -0.424934       -11.5630
 267   2.0000      -0.421298       -11.4641
 268   2.0000      -0.419502       -11.4152
 269   2.0000      -0.417038       -11.3482
 270   2.0000      -0.416241       -11.3265
 271   2.0000      -0.409300       -11.1376
 272   2.0000      -0.406407       -11.0589
 273   2.0000      -0.406068       -11.0497
 274   2.0000      -0.400955       -10.9105
 275   2.0000      -0.399642       -10.8748
 276   2.0000      -0.386140       -10.5074
 277   2.0000      -0.385995       -10.5035
 278   2.0000      -0.382293       -10.4027
 279   2.0000      -0.376182       -10.2364
 280   2.0000      -0.359681        -9.7874
 281   2.0000      -0.356559        -9.7025
 282   2.0000      -0.349220        -9.5028
 283   2.0000      -0.348099        -9.4723
 284   2.0000      -0.344552        -9.3757
 285   2.0000      -0.340652        -9.2696
 286   2.0000      -0.339167        -9.2292
 287   2.0000      -0.336816        -9.1652
 288   2.0000      -0.333063        -9.0631
 289   2.0000      -0.323594        -8.8054
 290   2.0000      -0.321024        -8.7355
 291   2.0000      -0.312834        -8.5126
 292   2.0000      -0.309949        -8.4341
 293   2.0000      -0.303635        -8.2623
 294   2.0000      -0.277153        -7.5417
 295   2.0000      -0.245441        -6.6788
 296   0.0000      -0.134410        -3.6575
 297   0.0000      -0.107010        -2.9119
 298   0.0000      -0.099244        -2.7006
 299   0.0000      -0.084870        -2.3094
 300   0.0000      -0.083452        -2.2709

MULLIKEN ATOMIC CHARGES
-----------------------
   0 C :   -0.076819
   1 C :   -0.079474
   2 C :    0.114565
   3 C :   -0.078838
   4 C :    0.117001
   5 C :   -0.076501
   6 C :   -0.008592
   7 C :    0.036824
   8 C :    0.327955
   9 C :   -0.353578
  10 C :   -0.181916
  11 N :    0.148033
  12 C :   -0.191911
  13 N :    0.153924
  14 C :   -0.093014
  15 C :    0.170918
  16 O :   -0.191116
  17 C :   -0.034706
  18 C :   -0.051831
  19 C :   -0.066937
  20 C :    0.050472
  21 C :   -0.076512
  22 S :    0.241982
  23 C :   -0.072313
  24 C :    0.042095
  25 C :    0.309837
  26 C :   -0.303288
  27 C :   -0.185906
  28 N :    0.171297
  29 C :   -0.200064
  30 N :    0.187336
  31 C :   -0.061314
  32 C :   -0.177830
  33 S :    0.209390
  34 C :    0.184078
  35 C :   -0.060616
  36 C :   -0.056619
  37 N :   -0.048688
  38 C :    0.152288
  39 C :    0.152354
  40 N :   -0.043756
  41 F :   -0.132802
  42 F :   -0.133155
  43 C :    0.182841
  44 C :   -0.011591
  45 C :   -0.010882
  46 N :   -0.286311
  47 S :    0.584709
  48 N :   -0.287584
  49 C :   -0.177488
  50 C :   -0.063140
  51 C :    0.043327
  52 C :   -0.065872
  53 S :    0.209018
  54 C :   -0.087185
  55 C :    0.023597
  56 C :    0.306751
  57 C :   -0.299737
  58 C :   -0.191018
  59 N :    0.177077
  60 C :   -0.185416
  61 N :    0.172982
  62 C :    0.007399
  63 C :   -0.093936
  64 S :    0.205280
  65 C :    0.040113
  66 C :   -0.134108
  67 C :    0.137768
  68 O :   -0.139087
  69 C :    0.006918
  70 C :    0.028894
  71 C :   -0.076309
  72 C :   -0.080185
  73 C :   -0.078275
  74 C :   -0.077790
  75 C :    0.115392
  76 C :    0.115103
  77 C :    0.243816
  78 C :   -0.324668
  79 C :   -0.207451
  80 N :    0.174577
  81 C :   -0.173654
  82 N :    0.151898
  83 H :   -0.014108
  84 H :    0.026958
  85 H :    0.027345
  86 H :    0.027426
  87 H :    0.029640
  88 H :    0.015988
  89 H :    0.028792
  90 H :   -0.020389
  91 H :    0.015742
  92 H :    0.028450
  93 H :    0.022063
  94 H :    0.022962
  95 H :    0.018129
  96 H :    0.034181
  97 H :   -0.010661
  98 H :   -0.015919
  99 H :    0.026778
 100 H :    0.030679
 101 H :    0.017645
 102 H :    0.023913
 103 H :    0.029539
 104 H :    0.026822
Sum of atomic charges:   -0.0000000

LOEWDIN ATOMIC CHARGES
----------------------
   0 C :   -0.004478
   1 C :   -0.002364
   2 C :   -0.041842
   3 C :   -0.007124
   4 C :   -0.042796
   5 C :    0.007549
   6 C :   -0.049265
   7 C :   -0.016597
   8 C :    0.077813
   9 C :   -0.139584
  10 C :   -0.017088
  11 N :   -0.053902
  12 C :   -0.023097
  13 N :   -0.047135
  14 C :   -0.108454
  15 C :    0.086726
  16 O :   -0.174810
  17 C :    0.052120
  18 C :   -0.182628
  19 C :    0.008793
  20 C :   -0.074902
  21 C :   -0.168884
  22 S :    0.546773
  23 C :   -0.186591
  24 C :   -0.062936
  25 C :    0.078208
  26 C :   -0.102616
  27 C :   -0.016298
  28 N :   -0.033476
  29 C :   -0.020632
  30 N :   -0.026459
  31 C :   -0.012800
  32 C :   -0.160341
  33 S :    0.513338
  34 C :   -0.042060
  35 C :   -0.016265
  36 C :   -0.016649
  37 N :   -0.055324
  38 C :    0.065050
  39 C :    0.064833
  40 N :   -0.054559
  41 F :   -0.022303
  42 F :   -0.022621
  43 C :   -0.041134
  44 C :   -0.037885
  45 C :   -0.037696
  46 N :   -0.272775
  47 S :    0.703417
  48 N :   -0.273165
  49 C :   -0.161518
  50 C :   -0.010984
  51 C :   -0.063216
  52 C :   -0.186643
  53 S :    0.513894
  54 C :   -0.154681
  55 C :   -0.068062
  56 C :    0.080352
  57 C :   -0.098989
  58 C :   -0.017249
  59 N :   -0.029749
  60 C :   -0.016120
  61 N :   -0.031257
  62 C :    0.010852
  63 C :   -0.175849
  64 S :    0.506961
  65 C :    0.045474
  66 C :   -0.096301
  67 C :    0.083831
  68 O :   -0.140036
  69 C :   -0.049429
  70 C :   -0.015778
  71 C :   -0.007794
  72 C :   -0.002276
  73 C :   -0.006759
  74 C :    0.008442
  75 C :   -0.042546
  76 C :   -0.041909
  77 C :    0.061960
  78 C :   -0.144773
  79 C :   -0.036119
  80 N :   -0.047977
  81 C :   -0.019713
  82 N :   -0.052162
  83 H :    0.036492
  84 H :    0.036552
  85 H :    0.038279
  86 H :    0.038302
  87 H :    0.039028
  88 H :    0.032739
  89 H :    0.038785
  90 H :    0.035268
  91 H :    0.053250
  92 H :    0.047825
  93 H :    0.038176
  94 H :    0.038473
  95 H :    0.047056
  96 H :    0.054823
  97 H :    0.035724
  98 H :    0.036737
  99 H :    0.038085
 100 H :    0.039250
 101 H :    0.033437
 102 H :    0.035614
 103 H :    0.039381
 104 H :    0.037762

  Mayer bond orders larger than 0.100000
B(  0-C ,  1-C ) :   1.3719 B(  0-C ,  7-C ) :   1.3512 B(  0-C , 83-H ) :   0.9844
B(  1-C ,  2-C ) :   1.0944 B(  1-C ,  3-C ) :   1.3793 B(  2-C , 84-H ) :   0.9505
B(  2-C , 85-H ) :   0.9397 B(  2-C , 86-H ) :   0.9400 B(  3-C ,  4-C ) :   1.0933
B(  3-C ,  5-C ) :   1.3474 B(  4-C , 87-H ) :   0.9402 B(  4-C , 88-H ) :   0.9513
B(  4-C , 89-H ) :   0.9400 B(  5-C ,  6-C ) :   1.3537 B(  5-C , 90-H ) :   1.0115
B(  6-C ,  7-C ) :   1.3368 B(  6-C , 15-C ) :   0.9676 B(  7-C ,  8-C ) :   0.9817
B(  8-C ,  9-C ) :   1.6284 B(  8-C , 14-C ) :   1.0722 B(  9-C , 10-C ) :   1.1472
B(  9-C , 12-C ) :   1.1417 B( 10-C , 11-N ) :   2.9647 B( 12-C , 13-N ) :   2.9616
B( 14-C , 15-C ) :   0.9730 B( 14-C , 17-C ) :   1.5099 B( 15-C , 16-O ) :   2.1090
B( 17-C , 18-C ) :   1.2562 B( 17-C , 91-H ) :   0.9392 B( 18-C , 19-C ) :   1.3322
B( 18-C , 22-S ) :   1.0739 B( 19-C , 20-C ) :   1.3274 B( 19-C , 92-H ) :   1.0087
B( 20-C , 21-C ) :   1.3517 B( 20-C , 25-C ) :   0.9833 B( 21-C , 22-S ) :   1.1191
B( 21-C , 23-C ) :   1.2104 B( 23-C , 24-C ) :   1.3968 B( 23-C , 33-S ) :   1.0876
B( 24-C , 25-C ) :   0.9934 B( 24-C , 31-C ) :   1.2767 B( 25-C , 26-C ) :   1.7124
B( 26-C , 27-C ) :   1.1393 B( 26-C , 29-C ) :   1.1363 B( 27-C , 28-N ) :   2.9848
B( 29-C , 30-N ) :   2.9979 B( 31-C , 32-C ) :   1.4172 B( 31-C , 93-H ) :   0.9805
B( 32-C , 33-S ) :   1.0957 B( 32-C , 34-C ) :   1.1888 B( 34-C , 35-C ) :   1.2943
B( 34-C , 43-C ) :   0.1291 B( 34-C , 45-C ) :   1.1966 B( 35-C , 36-C ) :   1.1203
B( 35-C , 40-N ) :   1.3823 B( 36-C , 37-N ) :   1.3783 B( 36-C , 43-C ) :   1.2950
B( 37-N , 38-C ) :   1.6533 B( 38-C , 39-C ) :   1.1080 B( 38-C , 42-F ) :   1.1888
B( 39-C , 40-N ) :   1.6537 B( 39-C , 41-F ) :   1.1897 B( 43-C , 44-C ) :   1.1951
B( 43-C , 49-C ) :   1.1929 B( 44-C , 45-C ) :   1.1019 B( 44-C , 48-N ) :   1.5108
B( 45-C , 46-N ) :   1.5104 B( 46-N , 47-S ) :   1.2863 B( 46-N , 48-N ) :   0.1486
B( 47-S , 48-N ) :   1.2855 B( 49-C , 50-C ) :   1.4126 B( 49-C , 53-S ) :   1.0961
B( 50-C , 51-C ) :   1.2800 B( 50-C , 94-H ) :   0.9816 B( 51-C , 52-C ) :   1.4006
B( 51-C , 56-C ) :   0.9920 B( 52-C , 53-S ) :   1.0854 B( 52-C , 54-C ) :   1.2141
B( 54-C , 55-C ) :   1.3947 B( 54-C , 64-S ) :   1.1503 B( 55-C , 56-C ) :   0.9904
B( 55-C , 62-C ) :   1.3042 B( 56-C , 57-C ) :   1.7151 B( 57-C , 58-C ) :   1.1326
B( 57-C , 60-C ) :   1.1394 B( 58-C , 59-N ) :   2.9945 B( 60-C , 61-N ) :   2.9848
B( 62-C , 63-C ) :   1.4052 B( 62-C , 95-H ) :   1.0005 B( 63-C , 64-S ) :   1.0904
B( 63-C , 65-C ) :   1.1272 B( 65-C , 66-C ) :   1.6590 B( 65-C , 96-H ) :   0.9474
B( 66-C , 67-C ) :   0.9303 B( 66-C , 77-C ) :   1.0297 B( 67-C , 68-O ) :   2.2735
B( 67-C , 69-C ) :   0.9245 B( 69-C , 70-C ) :   1.3344 B( 69-C , 74-C ) :   1.3607
B( 70-C , 71-C ) :   1.3517 B( 70-C , 77-C ) :   1.0039 B( 71-C , 72-C ) :   1.3748
B( 71-C , 97-H ) :   0.9880 B( 72-C , 73-C ) :   1.3756 B( 72-C , 76-C ) :   1.0936
B( 73-C , 74-C ) :   1.3562 B( 73-C , 75-C ) :   1.0926 B( 74-C , 98-H ) :   1.0107
B( 75-C , 99-H ) :   0.9406 B( 75-C ,100-H ) :   0.9407 B( 75-C ,101-H ) :   0.9521
B( 76-C ,102-H ) :   0.9511 B( 76-C ,103-H ) :   0.9391 B( 76-C ,104-H ) :   0.9408
B( 77-C , 78-C ) :   1.6552 B( 78-C , 79-C ) :   1.1509 B( 78-C , 81-C ) :   1.1352
B( 79-C , 80-N ) :   3.0233 B( 81-C , 82-N ) :   2.9912

-----------------------------------------------------------------------------
         ABSORPTION SPECTRUM VIA TRANSITION ELECTRIC DIPOLE MOMENTS
-----------------------------------------------------------------------------
State   Energy  Wavelength   fosc         T2         TX        TY        TZ
        (cm-1)    (nm)                  (au**2)     (au)      (au)      (au)
-----------------------------------------------------------------------------
   0    9419.6   1061.6   1.042142731  36.42259  -3.21812   5.08114  -0.49834
   1   13761.6    726.7   0.030884289   0.73883  -0.45721   0.30662   0.66013
   2   14942.5    669.2   0.002570478   0.05663  -0.15703  -0.02259   0.17738
   3   17668.3    566.0   0.028472492   0.53052  -0.33617   0.10793   0.63708
   4   20516.1    487.4   0.551869025   8.85556  -1.42309   2.07045  -1.59487
   5   21546.2    464.1   0.762186769  11.64570  -2.13459   2.31423   1.31664
   6   22801.9    438.6   0.047679561   0.68839  -0.72676   0.39885  -0.03370
   7   24658.6    405.5   0.101425398   1.35411   0.57549  -0.90083  -0.45981
   8   24864.6    402.2   0.016185787   0.21430   0.25543  -0.33922   0.18436
   9   25712.4    388.9   0.039720757   0.50857  -0.32503  -0.20369   0.60120
  10   25878.9    386.4   0.087730425   1.11604   0.44853  -0.93005  -0.22331
  11   26105.1    383.1   0.024713883   0.31167   0.11980  -0.13082  -0.52934
  12   26459.2    377.9   0.024209838   0.30122  -0.42499  -0.07874   0.33825
  13   26676.8    374.9   0.020997179   0.25912   0.10490   0.38340  -0.31800
  14   27731.3    360.6   0.115722673   1.37380   0.15530  -0.97964   0.62449
  15   27818.0    359.5   0.131200591   1.55269  -0.29721   1.16410  -0.33050
  16   28401.6    352.1   0.001567567   0.01817  -0.13149  -0.02358  -0.01802
  17   29297.0    341.3   0.070367820   0.79073   0.09303  -0.06517   0.88194
  18   29550.4    338.4   0.034902986   0.38884  -0.23289  -0.48344   0.31763
  19   29902.7    334.4   0.150501936   1.65694   0.16100   0.27792  -1.24651
  20   30132.6    331.9   0.159792230   1.74580  -0.43203  -0.28155   1.21650
  21   30480.6    328.1   0.046402190   0.50118   0.43752  -0.54053   0.13258
  22   30541.6    327.4   0.026764849   0.28850   0.32730  -0.17688  -0.38742
  23   30671.7    326.0   0.096144137   1.03195   0.11172  -0.43194   0.91264
  24   30816.2    324.5   0.160190659   1.71133  -0.75462   0.40303   0.98967
  25   31094.7    321.6   0.482816604   5.11176  -0.95661  -0.04922   2.04799
  26   31498.7    317.5   0.336126219   3.51305  -0.54878   1.74318  -0.41618
  27   31684.5    315.6   0.007369542   0.07657  -0.09430   0.25869   0.02753
  28   32124.0    311.3   0.240067282   2.46025   0.68268  -0.93652  -1.05694
  29   32238.9    310.2   0.267310962   2.72968   0.21540  -0.99456   1.30159
  30   32433.8    308.3   0.018822654   0.19106   0.30694  -0.30909  -0.03612
  31   32464.4    308.0   0.034888448   0.35379  -0.30496   0.28682   0.42252
  32   32519.8    307.5   0.014166755   0.14342  -0.29782  -0.22685  -0.05707
  33   32842.1    304.5   0.132836163   1.33156   0.20844  -1.13477  -0.02005
  34   33146.7    301.7   0.062855265   0.62428  -0.30944   0.71700  -0.12014
  35   33238.3    300.9   0.075620477   0.74899   0.36825   0.43507  -0.65123
  36   33473.8    298.7   0.058093112   0.57134   0.54775   0.35967  -0.37676
  37   33546.7    298.1   0.071097414   0.69772  -0.40478   0.51290  -0.52039
  38   34264.7    291.8   0.029862431   0.28692   0.00916   0.42639  -0.32407
  39   34476.6    290.1   0.008653683   0.08263   0.11241   0.10098  -0.24454
  40   34963.7    286.0   0.724686960   6.82352   1.12076  -0.01166  -2.35951
  41   35077.4    285.1   0.106174281   0.99648  -0.21244  -0.47440   0.85223
  42   35197.1    284.1   0.021892250   0.20477   0.08324  -0.37936   0.23221
  43   35376.8    282.7   0.023902190   0.22243  -0.15908   0.43937  -0.06387
  44   35577.2    281.1   0.169288696   1.56650   0.31587   0.30017  -1.17330
  45   35636.1    280.6   0.373585514   3.45124   0.25475   0.75694  -1.67731
  46   35764.7    279.6   0.262447007   2.41581   0.59431  -1.27865   0.65396
  47   35946.7    278.2   0.403214314   3.69277  -0.40715  -0.15443   1.87167
  48   36019.8    277.6   0.454067350   4.15006  -0.18240  -1.82794   0.88059
  49   36373.6    274.9   0.116014427   1.05003  -0.55677  -0.81660   0.27056
  50   36621.4    273.1   0.024173657   0.21731  -0.25458  -0.24139   0.30697
  51   36747.9    272.1   0.000939670   0.00842   0.06170   0.04557  -0.05034
  52   37016.7    270.1   0.013629351   0.12121  -0.21677   0.26571  -0.06021
  53   37214.6    268.7   0.108952600   0.96383   0.29756  -0.06225  -0.93349
  54   37368.7    267.6   0.002179388   0.01920  -0.01615   0.00192  -0.13761
  55   37654.5    265.6   0.048524097   0.42424   0.43834  -0.47137  -0.09954
  56   37674.9    265.4   0.001768449   0.01545  -0.00227   0.10187  -0.07121
  57   37873.0    264.0   0.031333632   0.27237   0.02493   0.50567  -0.12668
  58   38094.1    262.5   0.077675051   0.67127   0.30168  -0.70376   0.29153
  59   38407.8    260.4   0.087430196   0.74941  -0.27049  -0.72233  -0.39303
  60   38761.2    258.0   0.009253254   0.07859  -0.18050   0.19667  -0.08564
  61   38978.0    256.6   0.000656678   0.00555  -0.03037   0.00010  -0.06800
  62   39190.3    255.2   0.027235845   0.22879  -0.33419   0.34212  -0.00779
  63   39319.9    254.3   0.029642384   0.24819  -0.29998   0.39707   0.02303
  64   39438.1    253.6   0.000408779   0.00341  -0.00577   0.05694  -0.01168
  65   39646.1    252.2   0.100150082   0.83162  -0.35854   0.71043   0.44538
  66   39886.1    250.7   0.012387438   0.10224   0.03640   0.30080  -0.10216
  67   40229.3    248.6   0.035018869   0.28657   0.01269  -0.29857  -0.44415

FINAL SINGLE POINT ENERGY     -5368.925391231799

DIPOLE MOMENT
-------------
                                X             Y             Z
Electronic contribution:     29.73757      11.32065     -63.63706
Nuclear contribution   :    -32.03374     -13.93386      68.81934
                        -----------------------------------------
Total Dipole Moment    :     -2.29617      -2.61321       5.18229
                        -----------------------------------------
Magnitude (a.u.)       :      6.24158
Magnitude (Debye)      :     15.86484

Rotational constants in cm-1:     0.001204     0.000193     0.000169
Rotational constants in MHz :    36.089666     5.797905     5.062424

                             ****ORCA TERMINATED NORMALLY****
TOTAL RUN TIME: 0 days 0 hours 12 minutes 12 seconds 605 msec
