                         Program Version 4.2.0 -  RELEASE  -
|  1> # ORCA input file
|  2> # SCF done       -208.541353682499          0.000891428905
|  3> ! CAM-B3LYP def2-SVP def2/J RIJCOSX Grid4 TightSCF
|  4> %maxcore 5000
|  5> %tddft
|  6>     Mode sTDDFT
|  7>     Ethresh 5.0
|  8>     maxcore 5000
|  9> end
| 10>
| 11> %pal
| 12>   nprocs 6
| 13>   end
| 14> * xyz 0 1
| 15>    C       -3.85904        -0.48728        -2.80045
| 16>    C       -3.62023        -0.09153        -1.38949
| 17>    O       -3.74131        -0.75894        -0.38665
| 18>    C       -3.12259         1.29889        -1.45081
| 19>    C       -3.09635         1.73966        -2.78478
| 20>    C       -3.59313         0.66962        -3.64246
| 21>    C       -3.83237         0.77764        -4.98699
| 22>    C       -3.56023         1.93669        -5.74581
| 23>    N       -3.35528         2.84184        -6.42074
| 24>    C       -4.41084        -0.21965        -5.80176
| 25>    N       -4.89535        -0.96902        -6.52477
| 26>    C       -2.64452         3.02125        -3.06916
| 27>    C       -2.23542         3.83307        -2.02306
| 28>    C       -2.27501         3.38099        -0.70743
| 29>    C       -2.71955         2.09960        -0.40219
| 30>   Cl       -1.76232         4.42628         0.55992
| 31>    C       -4.10982        -1.74335        -3.27975
| 32>    C       -4.44369        -2.92942        -2.59454
| 33>    C       -4.90324        -3.16347        -1.30287
| 34>    C       -5.11772        -4.51190        -1.06228
| 35>    C       -4.81823        -5.33293        -2.17741
| 36>    S       -4.31253        -4.42957        -3.52466
| 37>    C       -5.00504        -6.68372        -1.81288
| 38>    C       -5.43082        -6.72230        -0.46578
| 39>    C       -5.53513        -5.36208         0.04006
| 40>    C       -5.94793        -4.97825         1.28123
| 41>    C       -6.31264        -5.91868         2.26918
| 42>    N       -6.60506        -6.67730         3.07763
| 43>    C       -6.06351        -3.62489         1.66834
| 44>    N       -6.18967        -2.53510         1.99945
| 45>    C       -5.61041        -8.01355         0.00274
| 46>    C       -5.31987        -8.96483        -0.97148
| 47>    S       -4.83625        -8.24431        -2.49686
| 48>    C       -5.34375       -10.37175        -0.80706
| 49>    C       -4.99282       -11.23927        -1.86931
| 50>    C       -4.92210       -12.67327        -1.73504
| 51>    N       -4.54518       -13.40670        -2.79224
| 52>    C       -4.25962       -12.82167        -3.92880
| 53>    C       -4.34790       -11.39857        -4.06683
| 54>    N       -4.70356       -10.66434        -3.04231
| 55>    C       -4.04863       -10.76719        -5.29962
| 56>    N       -3.79889       -10.27796        -6.30430
| 57>    C       -3.84266       -13.60570        -5.03589
| 58>    N       -3.48982       -14.18862        -5.95556
| 59>    C       -5.21561       -13.30862        -0.50056
| 60>    C       -5.60057       -12.44135         0.54736
| 61>    C       -5.67098       -11.00873         0.41052
| 62>    N       -6.05284       -10.42926         1.54969
| 63>    S       -6.29927       -11.54738         2.66738
| 64>    N       -5.93197       -12.83330         1.77836
| 65>    C       -5.10866       -14.70539        -0.26896
| 66>    C       -4.78819       -15.71321        -1.17383
| 67>    C       -4.72050       -16.95695        -0.56532
| 68>    C       -4.99129       -16.90667         0.82102
| 69>    S       -5.35276       -15.32797         1.35898
| 70>    C       -4.85641       -18.20996         1.34950
| 71>    C       -4.49464       -19.08570         0.30158
| 72>    C       -4.42595       -18.33141        -0.93780
| 73>    C       -4.18144       -18.82795        -2.18386
| 74>    C       -3.93355       -20.20251        -2.38539
| 75>    N       -3.72991       -21.32269        -2.52209
| 76>    C       -4.17669       -18.00749        -3.33265
| 77>    N       -4.17537       -17.33606        -4.26131
| 78>    C       -4.32832       -20.39583         0.72360
| 79>    C       -4.56653       -20.54396         2.08431
| 80>    S       -4.97620       -19.01142         2.84624
| 81>    C       -4.45484       -21.70224         2.88299
| 82>    C       -4.40596       -23.00779         2.49850
| 83>    C       -3.84109       -24.00802         3.45099
| 84>    O       -3.62969       -23.84203         4.62815
| 85>    C       -3.55111       -25.19984         2.62620
| 86>    C       -4.03431       -24.99462         1.32029
| 87>    C       -4.70782       -23.69958         1.26154
| 88>    C       -5.64773       -23.34583         0.32968
| 89>    C       -5.99385       -24.14716        -0.77988
| 90>    N       -6.31624       -24.76239        -1.69262
| 91>    C       -6.44844       -22.19054         0.42280
| 92>    N       -7.13485       -21.27189         0.47692
| 93>    C       -3.83599       -25.96859         0.35318
| 94>    C       -3.17154       -27.13258         0.70695
| 95>    C       -2.71603       -27.32874         2.00721
| 96>    C       -2.89748       -26.35971         2.98829
| 97>   Cl       -1.90722       -28.79498         2.40537
| 98>    H       -2.59937         3.39453        -4.07895
| 99>    H       -1.88007         4.83071        -2.22790
|100>    H       -2.75460         1.73578         0.61250
|101>    H       -4.01169        -1.88067        -4.35058
|102>    H       -5.05559        -2.37667        -0.58754
|103>    H       -5.92344        -8.29041         0.99259
|104>    H       -4.61143       -15.51541        -2.21463
|105>    H       -4.00060       -21.20320         0.09485
|106>    H       -4.31334       -21.53727         3.94704
|107>    H       -4.17225       -25.83144        -0.66180
|108>    H       -3.00301       -27.89910        -0.03298
|109>    H       -2.54269       -26.50157         3.99677
|110> *
|111>
|112>                          ****END OF INPUT****

CARTESIAN COORDINATES (ANGSTROEM)
---------------------------------
  C     -3.859040   -0.487280   -2.800450
  C     -3.620230   -0.091530   -1.389490
  O     -3.741310   -0.758940   -0.386650
  C     -3.122590    1.298890   -1.450810
  C     -3.096350    1.739660   -2.784780
  C     -3.593130    0.669620   -3.642460
  C     -3.832370    0.777640   -4.986990
  C     -3.560230    1.936690   -5.745810
  N     -3.355280    2.841840   -6.420740
  C     -4.410840   -0.219650   -5.801760
  N     -4.895350   -0.969020   -6.524770
  C     -2.644520    3.021250   -3.069160
  C     -2.235420    3.833070   -2.023060
  C     -2.275010    3.380990   -0.707430
  C     -2.719550    2.099600   -0.402190
  Cl    -1.762320    4.426280    0.559920
  C     -4.109820   -1.743350   -3.279750
  C     -4.443690   -2.929420   -2.594540
  C     -4.903240   -3.163470   -1.302870
  C     -5.117720   -4.511900   -1.062280
  C     -4.818230   -5.332930   -2.177410
  S     -4.312530   -4.429570   -3.524660
  C     -5.005040   -6.683720   -1.812880
  C     -5.430820   -6.722300   -0.465780
  C     -5.535130   -5.362080    0.040060
  C     -5.947930   -4.978250    1.281230
  C     -6.312640   -5.918680    2.269180
  N     -6.605060   -6.677300    3.077630
  C     -6.063510   -3.624890    1.668340
  N     -6.189670   -2.535100    1.999450
  C     -5.610410   -8.013550    0.002740
  C     -5.319870   -8.964830   -0.971480
  S     -4.836250   -8.244310   -2.496860
  C     -5.343750  -10.371750   -0.807060
  C     -4.992820  -11.239270   -1.869310
  C     -4.922100  -12.673270   -1.735040
  N     -4.545180  -13.406700   -2.792240
  C     -4.259620  -12.821670   -3.928800
  C     -4.347900  -11.398570   -4.066830
  N     -4.703560  -10.664340   -3.042310
  C     -4.048630  -10.767190   -5.299620
  N     -3.798890  -10.277960   -6.304300
  C     -3.842660  -13.605700   -5.035890
  N     -3.489820  -14.188620   -5.955560
  C     -5.215610  -13.308620   -0.500560
  C     -5.600570  -12.441350    0.547360
  C     -5.670980  -11.008730    0.410520
  N     -6.052840  -10.429260    1.549690
  S     -6.299270  -11.547380    2.667380
  N     -5.931970  -12.833300    1.778360
  C     -5.108660  -14.705390   -0.268960
  C     -4.788190  -15.713210   -1.173830
  C     -4.720500  -16.956950   -0.565320
  C     -4.991290  -16.906670    0.821020
  S     -5.352760  -15.327970    1.358980
  C     -4.856410  -18.209960    1.349500
  C     -4.494640  -19.085700    0.301580
  C     -4.425950  -18.331410   -0.937800
  C     -4.181440  -18.827950   -2.183860
  C     -3.933550  -20.202510   -2.385390
  N     -3.729910  -21.322690   -2.522090
  C     -4.176690  -18.007490   -3.332650
  N     -4.175370  -17.336060   -4.261310
  C     -4.328320  -20.395830    0.723600
  C     -4.566530  -20.543960    2.084310
  S     -4.976200  -19.011420    2.846240
  C     -4.454840  -21.702240    2.882990
  C     -4.405960  -23.007790    2.498500
  C     -3.841090  -24.008020    3.450990
  O     -3.629690  -23.842030    4.628150
  C     -3.551110  -25.199840    2.626200
  C     -4.034310  -24.994620    1.320290
  C     -4.707820  -23.699580    1.261540
  C     -5.647730  -23.345830    0.329680
  C     -5.993850  -24.147160   -0.779880
  N     -6.316240  -24.762390   -1.692620
  C     -6.448440  -22.190540    0.422800
  N     -7.134850  -21.271890    0.476920
  C     -3.835990  -25.968590    0.353180
  C     -3.171540  -27.132580    0.706950
  C     -2.716030  -27.328740    2.007210
  C     -2.897480  -26.359710    2.988290
  Cl    -1.907220  -28.794980    2.405370
  H     -2.599370    3.394530   -4.078950
  H     -1.880070    4.830710   -2.227900
  H     -2.754600    1.735780    0.612500
  H     -4.011690   -1.880670   -4.350580
  H     -5.055590   -2.376670   -0.587540
  H     -5.923440   -8.290410    0.992590
  H     -4.611430  -15.515410   -2.214630
  H     -4.000600  -21.203200    0.094850
  H     -4.313340  -21.537270    3.947040
  H     -4.172250  -25.831440   -0.661800
  H     -3.003010  -27.899100   -0.032980
  H     -2.542690  -26.501570    3.996770

 Total Charge           Charge          ....    0
 Multiplicity           Mult            ....    1
 Number of Electrons    NEL             ....  600
 Basis Dimension        Dim             .... 1250

ORBITAL ENERGIES
----------------

  NO   OCC          E(Eh)            E(eV)
   0   2.0000    -101.600378     -2764.6868
   1   2.0000    -101.599777     -2764.6705
   2   2.0000     -89.070902     -2423.7425
   3   2.0000     -89.005050     -2421.9505
   4   2.0000     -89.002934     -2421.8930
   5   2.0000     -89.000104     -2421.8160
   6   2.0000     -88.999648     -2421.8036
   7   2.0000     -19.229669      -523.2659
   8   2.0000     -19.228021      -523.2211
   9   2.0000     -14.487785      -394.2327
  10   2.0000     -14.482432      -394.0870
  11   2.0000     -14.479153      -393.9978
  12   2.0000     -14.478392      -393.9771
  13   2.0000     -14.447890      -393.1471
  14   2.0000     -14.440406      -392.9434
  15   2.0000     -14.439349      -392.9147
  16   2.0000     -14.439015      -392.9056
  17   2.0000     -14.435974      -392.8228
  18   2.0000     -14.435327      -392.8052
  19   2.0000     -14.426360      -392.5612
  20   2.0000     -14.423983      -392.4965
  21   2.0000     -14.420975      -392.4147
  22   2.0000     -14.420906      -392.4128
  23   2.0000     -10.405150      -283.1385
  24   2.0000     -10.402240      -283.0593
  25   2.0000     -10.380710      -282.4735
  26   2.0000     -10.378688      -282.4185
  27   2.0000     -10.374253      -282.2978
  28   2.0000     -10.374211      -282.2966
  29   2.0000     -10.372763      -282.2572
  30   2.0000     -10.370845      -282.2050
  31   2.0000     -10.368267      -282.1349
  32   2.0000     -10.367259      -282.1075
  33   2.0000     -10.361058      -281.9387
  34   2.0000     -10.360954      -281.9359
  35   2.0000     -10.354297      -281.7548
  36   2.0000     -10.353989      -281.7464
  37   2.0000     -10.353584      -281.7354
  38   2.0000     -10.352316      -281.7008
  39   2.0000     -10.352246      -281.6989
  40   2.0000     -10.351443      -281.6771
  41   2.0000     -10.351108      -281.6680
  42   2.0000     -10.349629      -281.6277
  43   2.0000     -10.345036      -281.5027
  44   2.0000     -10.344098      -281.4772
  45   2.0000     -10.342537      -281.4348
  46   2.0000     -10.342275      -281.4276
  47   2.0000     -10.341798      -281.4146
  48   2.0000     -10.340658      -281.3836
  49   2.0000     -10.339430      -281.3502
  50   2.0000     -10.339171      -281.3431
  51   2.0000     -10.338507      -281.3251
  52   2.0000     -10.338503      -281.3250
  53   2.0000     -10.337357      -281.2938
  54   2.0000     -10.335776      -281.2508
  55   2.0000     -10.335376      -281.2399
  56   2.0000     -10.334598      -281.2187
  57   2.0000     -10.334288      -281.2103
  58   2.0000     -10.332006      -281.1482
  59   2.0000     -10.327240      -281.0185
  60   2.0000     -10.326503      -280.9984
  61   2.0000     -10.323580      -280.9189
  62   2.0000     -10.322846      -280.8989
  63   2.0000     -10.321339      -280.8579
  64   2.0000     -10.318249      -280.7738
  65   2.0000     -10.317331      -280.7489
  66   2.0000     -10.317080      -280.7420
  67   2.0000     -10.316335      -280.7217
  68   2.0000     -10.315834      -280.7081
  69   2.0000     -10.315142      -280.6893
  70   2.0000     -10.315002      -280.6855
  71   2.0000     -10.312416      -280.6151
  72   2.0000     -10.311648      -280.5942
  73   2.0000     -10.310983      -280.5761
  74   2.0000     -10.310933      -280.5747
  75   2.0000     -10.309546      -280.5370
  76   2.0000     -10.308652      -280.5127
  77   2.0000     -10.308208      -280.5006
  78   2.0000     -10.307687      -280.4864
  79   2.0000     -10.307585      -280.4836
  80   2.0000     -10.307090      -280.4702
  81   2.0000     -10.306660      -280.4585
  82   2.0000     -10.304697      -280.4051
  83   2.0000      -9.555499      -260.0183
  84   2.0000      -9.554887      -260.0017
  85   2.0000      -8.161728      -222.0919
  86   2.0000      -8.099735      -220.4050
  87   2.0000      -8.097796      -220.3522
  88   2.0000      -8.093274      -220.2292
  89   2.0000      -8.092041      -220.1956
  90   2.0000      -7.325704      -199.3425
  91   2.0000      -7.325100      -199.3261
  92   2.0000      -7.315755      -199.0718
  93   2.0000      -7.315237      -199.0577
  94   2.0000      -7.315152      -199.0554
  95   2.0000      -7.314611      -199.0407
  96   2.0000      -6.132810      -166.8823
  97   2.0000      -6.124954      -166.6685
  98   2.0000      -6.124599      -166.6588
  99   2.0000      -6.068894      -165.1430
 100   2.0000      -6.066835      -165.0870
 101   2.0000      -6.064719      -165.0294
 102   2.0000      -6.062741      -164.9756
 103   2.0000      -6.062700      -164.9745
 104   2.0000      -6.062236      -164.9618
 105   2.0000      -6.061617      -164.9450
 106   2.0000      -6.060371      -164.9111
 107   2.0000      -6.058110      -164.8496
 108   2.0000      -6.056789      -164.8136
 109   2.0000      -6.055692      -164.7837
 110   2.0000      -6.054477      -164.7507
 111   2.0000      -1.168283       -31.7906
 112   2.0000      -1.145569       -31.1725
 113   2.0000      -1.144955       -31.1558
 114   2.0000      -1.143777       -31.1238
 115   2.0000      -1.072384       -29.1810
 116   2.0000      -1.057791       -28.7839
 117   2.0000      -1.056018       -28.7357
 118   2.0000      -1.032059       -28.0837
 119   2.0000      -1.030683       -28.0463
 120   2.0000      -1.030133       -28.0313
 121   2.0000      -1.029421       -28.0120
 122   2.0000      -1.027733       -27.9660
 123   2.0000      -1.026151       -27.9230
 124   2.0000      -1.017246       -27.6807
 125   2.0000      -1.015710       -27.6389
 126   2.0000      -1.014637       -27.6097
 127   2.0000      -1.013661       -27.5831
 128   2.0000      -1.013164       -27.5696
 129   2.0000      -1.012516       -27.5520
 130   2.0000      -1.006967       -27.4010
 131   2.0000      -1.001179       -27.2435
 132   2.0000      -1.000813       -27.2335
 133   2.0000      -0.995908       -27.1000
 134   2.0000      -0.989552       -26.9271
 135   2.0000      -0.988466       -26.8975
 136   2.0000      -0.970875       -26.4189
 137   2.0000      -0.966620       -26.3031
 138   2.0000      -0.942073       -25.6351
 139   2.0000      -0.941234       -25.6123
 140   2.0000      -0.933680       -25.4067
 141   2.0000      -0.931427       -25.3454
 142   2.0000      -0.925886       -25.1946
 143   2.0000      -0.915032       -24.8993
 144   2.0000      -0.908250       -24.7147
 145   2.0000      -0.902132       -24.5483
 146   2.0000      -0.888690       -24.1825
 147   2.0000      -0.887195       -24.1418
 148   2.0000      -0.878593       -23.9077
 149   2.0000      -0.872406       -23.7394
 150   2.0000      -0.868808       -23.6415
 151   2.0000      -0.867974       -23.6188
 152   2.0000      -0.865471       -23.5507
 153   2.0000      -0.863728       -23.5032
 154   2.0000      -0.856913       -23.3178
 155   2.0000      -0.829402       -22.5692
 156   2.0000      -0.828170       -22.5357
 157   2.0000      -0.812657       -22.1135
 158   2.0000      -0.803405       -21.8618
 159   2.0000      -0.789119       -21.4730
 160   2.0000      -0.784866       -21.3573
 161   2.0000      -0.777033       -21.1441
 162   2.0000      -0.776278       -21.1236
 163   2.0000      -0.772171       -21.0119
 164   2.0000      -0.762674       -20.7534
 165   2.0000      -0.748533       -20.3686
 166   2.0000      -0.733318       -19.9546
 167   2.0000      -0.727343       -19.7920
 168   2.0000      -0.720730       -19.6121
 169   2.0000      -0.717780       -19.5318
 170   2.0000      -0.709866       -19.3164
 171   2.0000      -0.708874       -19.2894
 172   2.0000      -0.704196       -19.1621
 173   2.0000      -0.700912       -19.0728
 174   2.0000      -0.695548       -18.9268
 175   2.0000      -0.694681       -18.9032
 176   2.0000      -0.689302       -18.7569
 177   2.0000      -0.687742       -18.7144
 178   2.0000      -0.682840       -18.5810
 179   2.0000      -0.677648       -18.4397
 180   2.0000      -0.664502       -18.0820
 181   2.0000      -0.659554       -17.9474
 182   2.0000      -0.651410       -17.7258
 183   2.0000      -0.646810       -17.6006
 184   2.0000      -0.643484       -17.5101
 185   2.0000      -0.641184       -17.4475
 186   2.0000      -0.631723       -17.1900
 187   2.0000      -0.627590       -17.0776
 188   2.0000      -0.625937       -17.0326
 189   2.0000      -0.623986       -16.9795
 190   2.0000      -0.621471       -16.9111
 191   2.0000      -0.617480       -16.8025
 192   2.0000      -0.609094       -16.5743
 193   2.0000      -0.604156       -16.4399
 194   2.0000      -0.601017       -16.3545
 195   2.0000      -0.593239       -16.1429
 196   2.0000      -0.591357       -16.0916
 197   2.0000      -0.585097       -15.9213
 198   2.0000      -0.581298       -15.8179
 199   2.0000      -0.574264       -15.6265
 200   2.0000      -0.569796       -15.5049
 201   2.0000      -0.564998       -15.3744
 202   2.0000      -0.560789       -15.2598
 203   2.0000      -0.559160       -15.2155
 204   2.0000      -0.557658       -15.1746
 205   2.0000      -0.553369       -15.0579
 206   2.0000      -0.550641       -14.9837
 207   2.0000      -0.549475       -14.9520
 208   2.0000      -0.547816       -14.9068
 209   2.0000      -0.546427       -14.8690
 210   2.0000      -0.543147       -14.7798
 211   2.0000      -0.539295       -14.6750
 212   2.0000      -0.538159       -14.6441
 213   2.0000      -0.533734       -14.5236
 214   2.0000      -0.527511       -14.3543
 215   2.0000      -0.526449       -14.3254
 216   2.0000      -0.520111       -14.1529
 217   2.0000      -0.517254       -14.0752
 218   2.0000      -0.515343       -14.0232
 219   2.0000      -0.515046       -14.0151
 220   2.0000      -0.514936       -14.0121
 221   2.0000      -0.512033       -13.9331
 222   2.0000      -0.510671       -13.8961
 223   2.0000      -0.508615       -13.8401
 224   2.0000      -0.506444       -13.7810
 225   2.0000      -0.503728       -13.7071
 226   2.0000      -0.502428       -13.6718
 227   2.0000      -0.500794       -13.6273
 228   2.0000      -0.497296       -13.5321
 229   2.0000      -0.494279       -13.4500
 230   2.0000      -0.492014       -13.3884
 231   2.0000      -0.489109       -13.3093
 232   2.0000      -0.488024       -13.2798
 233   2.0000      -0.485613       -13.2142
 234   2.0000      -0.484162       -13.1747
 235   2.0000      -0.481569       -13.1042
 236   2.0000      -0.476697       -12.9716
 237   2.0000      -0.474628       -12.9153
 238   2.0000      -0.472306       -12.8521
 239   2.0000      -0.470668       -12.8075
 240   2.0000      -0.469202       -12.7676
 241   2.0000      -0.468364       -12.7448
 242   2.0000      -0.467682       -12.7263
 243   2.0000      -0.466183       -12.6855
 244   2.0000      -0.465514       -12.6673
 245   2.0000      -0.464104       -12.6289
 246   2.0000      -0.462119       -12.5749
 247   2.0000      -0.461800       -12.5662
 248   2.0000      -0.459670       -12.5083
 249   2.0000      -0.458159       -12.4671
 250   2.0000      -0.457272       -12.4430
 251   2.0000      -0.455962       -12.4074
 252   2.0000      -0.455304       -12.3894
 253   2.0000      -0.449437       -12.2298
 254   2.0000      -0.449122       -12.2212
 255   2.0000      -0.447406       -12.1745
 256   2.0000      -0.446862       -12.1597
 257   2.0000      -0.446556       -12.1514
 258   2.0000      -0.446138       -12.1400
 259   2.0000      -0.445092       -12.1116
 260   2.0000      -0.440480       -11.9861
 261   2.0000      -0.440102       -11.9758
 262   2.0000      -0.439746       -11.9661
 263   2.0000      -0.437997       -11.9185
 264   2.0000      -0.435542       -11.8517
 265   2.0000      -0.435246       -11.8437
 266   2.0000      -0.434030       -11.8106
 267   2.0000      -0.433809       -11.8045
 268   2.0000      -0.433619       -11.7994
 269   2.0000      -0.431344       -11.7375
 270   2.0000      -0.427945       -11.6450
 271   2.0000      -0.426797       -11.6137
 272   2.0000      -0.424220       -11.5436
 273   2.0000      -0.417521       -11.3613
 274   2.0000      -0.416201       -11.3254
 275   2.0000      -0.414975       -11.2920
 276   2.0000      -0.410503       -11.1704
 277   2.0000      -0.409348       -11.1389
 278   2.0000      -0.397956       -10.8289
 279   2.0000      -0.397091       -10.8054
 280   2.0000      -0.394680       -10.7398
 281   2.0000      -0.392359       -10.6766
 282   2.0000      -0.385387       -10.4869
 283   2.0000      -0.373470       -10.1626
 284   2.0000      -0.370893       -10.0925
 285   2.0000      -0.368168       -10.0183
 286   2.0000      -0.360770        -9.8171
 287   2.0000      -0.358531        -9.7561
 288   2.0000      -0.357378        -9.7248
 289   2.0000      -0.356462        -9.6998
 290   2.0000      -0.353842        -9.6285
 291   2.0000      -0.349074        -9.4988
 292   2.0000      -0.345239        -9.3944
 293   2.0000      -0.332134        -9.0378
 294   2.0000      -0.331064        -9.0087
 295   2.0000      -0.321796        -8.7565
 296   2.0000      -0.316517        -8.6129
 297   2.0000      -0.311706        -8.4819
 298   2.0000      -0.287696        -7.8286
 299   2.0000      -0.255338        -6.9481
 300   0.0000      -0.152882        -4.1601
 301   0.0000      -0.117180        -3.1886
 302   0.0000      -0.112289        -3.0555
 303   0.0000      -0.094101        -2.5606
 304   0.0000      -0.093786        -2.5520

MULLIKEN ATOMIC CHARGES
-----------------------
   0 C :   -0.086050
   1 C :    0.154708
   2 O :   -0.143620
   3 C :   -0.029166
   4 C :    0.037869
   5 C :    0.297841
   6 C :   -0.344132
   7 C :   -0.185176
   8 N :    0.155184
   9 C :   -0.198095
  10 N :    0.162897
  11 C :   -0.032531
  12 C :    0.054686
  13 C :    0.073680
  14 C :   -0.014836
  15 Cl:   -0.065320
  16 C :    0.031695
  17 C :   -0.115160
  18 C :    0.015579
  19 C :   -0.015283
  20 C :   -0.087886
  21 S :    0.218675
  22 C :   -0.062694
  23 C :    0.041428
  24 C :    0.312612
  25 C :   -0.297128
  26 C :   -0.188700
  27 N :    0.170669
  28 C :   -0.189483
  29 N :    0.190458
  30 C :   -0.063644
  31 C :   -0.171869
  32 S :    0.218224
  33 C :    0.181558
  34 C :   -0.055324
  35 C :   -0.067280
  36 N :    0.053962
  37 C :   -0.115844
  38 C :   -0.092491
  39 N :   -0.016816
  40 C :   -0.238438
  41 N :    0.259713
  42 C :   -0.222108
  43 N :    0.261343
  44 C :    0.209771
  45 C :   -0.023089
  46 C :    0.003541
  47 N :   -0.277346
  48 S :    0.589910
  49 N :   -0.339449
  50 C :   -0.183961
  51 C :   -0.059498
  52 C :    0.049335
  53 C :   -0.072761
  54 S :    0.214779
  55 C :   -0.076717
  56 C :   -0.001787
  57 C :    0.304725
  58 C :   -0.283120
  59 C :   -0.183855
  60 N :    0.170364
  61 C :   -0.195994
  62 N :    0.194643
  63 C :    0.000817
  64 C :   -0.109216
  65 S :    0.218256
  66 C :    0.083794
  67 C :   -0.133949
  68 C :    0.135544
  69 O :   -0.135030
  70 C :   -0.008588
  71 C :    0.017040
  72 C :    0.259571
  73 C :   -0.320829
  74 C :   -0.173226
  75 N :    0.166046
  76 C :   -0.199804
  77 N :    0.168733
  78 C :   -0.025686
  79 C :    0.048792
  80 C :    0.069788
  81 C :   -0.012766
  82 Cl:   -0.065743
  83 H :    0.008860
  84 H :    0.000466
  85 H :    0.000868
  86 H :    0.019338
  87 H :    0.037375
  88 H :    0.023044
  89 H :    0.025559
  90 H :    0.025622
  91 H :    0.022680
  92 H :    0.016290
  93 H :    0.003808
  94 H :   -0.000654
Sum of atomic charges:   -0.0000000

LOEWDIN ATOMIC CHARGES
----------------------
   0 C :   -0.093511
   1 C :    0.086796
   2 O :   -0.129408
   3 C :   -0.037069
   4 C :   -0.019426
   5 C :    0.074500
   6 C :   -0.136540
   7 C :   -0.019009
   8 N :   -0.047271
   9 C :   -0.025181
  10 N :   -0.046860
  11 C :    0.009335
  12 C :   -0.016858
  13 C :   -0.105145
  14 C :   -0.003767
  15 Cl:    0.146881
  16 C :    0.042178
  17 C :   -0.173404
  18 C :    0.018990
  19 C :   -0.068149
  20 C :   -0.161088
  21 S :    0.503671
  22 C :   -0.183781
  23 C :   -0.061333
  24 C :    0.075607
  25 C :   -0.094559
  26 C :   -0.014739
  27 N :   -0.032459
  28 C :   -0.021709
  29 N :   -0.017265
  30 C :   -0.008617
  31 C :   -0.160440
  32 S :    0.517421
  33 C :   -0.037293
  34 C :   -0.011359
  35 C :   -0.003983
  36 N :    0.010677
  37 C :   -0.016800
  38 C :   -0.015822
  39 N :   -0.019975
  40 C :   -0.039934
  41 N :    0.009095
  42 C :   -0.042400
  43 N :    0.018901
  44 C :   -0.038062
  45 C :   -0.045059
  46 C :   -0.036387
  47 N :   -0.266191
  48 S :    0.705468
  49 N :   -0.302473
  50 C :   -0.160240
  51 C :   -0.005977
  52 C :   -0.062283
  53 C :   -0.179381
  54 S :    0.517996
  55 C :   -0.162033
  56 C :   -0.058299
  57 C :    0.078238
  58 C :   -0.093336
  59 C :   -0.012175
  60 N :   -0.031008
  61 C :   -0.020277
  62 N :   -0.017197
  63 C :    0.008226
  64 C :   -0.176620
  65 S :    0.501271
  66 C :    0.040795
  67 C :   -0.088257
  68 C :    0.084977
  69 O :   -0.134353
  70 C :   -0.040745
  71 C :   -0.015303
  72 C :    0.063391
  73 C :   -0.131265
  74 C :   -0.020117
  75 N :   -0.039152
  76 C :   -0.015526
  77 N :   -0.042920
  78 C :    0.010002
  79 C :   -0.015049
  80 C :   -0.106272
  81 C :   -0.004147
  82 Cl:    0.146181
  83 H :    0.043245
  84 H :    0.040125
  85 H :    0.044871
  86 H :    0.044369
  87 H :    0.044709
  88 H :    0.038768
  89 H :    0.038919
  90 H :    0.042810
  91 H :    0.046571
  92 H :    0.045139
  93 H :    0.040988
  94 H :    0.044144

  Mayer bond orders larger than 0.100000
B(  0-C ,  1-C ) :   0.9437 B(  0-C ,  5-C ) :   1.0720 B(  0-C , 16-C ) :   1.6029
B(  1-C ,  2-O ) :   2.1908 B(  1-C ,  3-C ) :   0.9445 B(  3-C ,  4-C ) :   1.3334
B(  3-C , 14-C ) :   1.3643 B(  4-C ,  5-C ) :   0.9961 B(  4-C , 11-C ) :   1.3563
B(  5-C ,  6-C ) :   1.6393 B(  6-C ,  7-C ) :   1.1396 B(  6-C ,  9-C ) :   1.1388
B(  7-C ,  8-N ) :   2.9771 B(  9-C , 10-N ) :   2.9866 B( 11-C , 12-C ) :   1.3763
B( 11-C , 83-H ) :   0.9839 B( 12-C , 13-C ) :   1.3807 B( 12-C , 84-H ) :   0.9868
B( 13-C , 14-C ) :   1.3295 B( 13-C , 15-Cl) :   0.9915 B( 14-C , 85-H ) :   1.0131
B( 16-C , 17-C ) :   1.2030 B( 16-C , 86-H ) :   0.9200 B( 17-C , 18-C ) :   1.3979
B( 17-C , 21-S ) :   1.0823 B( 18-C , 19-C ) :   1.3336 B( 18-C , 87-H ) :   0.9735
B( 19-C , 20-C ) :   1.3696 B( 19-C , 24-C ) :   0.9935 B( 20-C , 21-S ) :   1.1635
B( 20-C , 22-C ) :   1.2164 B( 22-C , 23-C ) :   1.3913 B( 22-C , 32-S ) :   1.0803
B( 23-C , 24-C ) :   0.9905 B( 23-C , 30-C ) :   1.2902 B( 24-C , 25-C ) :   1.7157
B( 25-C , 26-C ) :   1.1417 B( 25-C , 28-C ) :   1.1318 B( 26-C , 27-N ) :   2.9820
B( 28-C , 29-N ) :   2.9962 B( 30-C , 31-C ) :   1.4032 B( 30-C , 88-H ) :   0.9815
B( 31-C , 32-S ) :   1.0944 B( 31-C , 33-C ) :   1.2121 B( 33-C , 34-C ) :   1.2465
B( 33-C , 44-C ) :   0.1231 B( 33-C , 46-C ) :   1.2016 B( 34-C , 35-C ) :   1.1121
B( 34-C , 39-N ) :   1.3956 B( 35-C , 36-N ) :   1.4529 B( 35-C , 44-C ) :   1.2492
B( 36-N , 37-C ) :   1.7284 B( 37-C , 38-C ) :   1.2140 B( 37-C , 42-C ) :   1.1597
B( 38-C , 39-N ) :   1.6914 B( 38-C , 40-C ) :   1.1638 B( 40-C , 41-N ) :   3.0413
B( 42-C , 43-N ) :   3.0260 B( 44-C , 45-C ) :   1.1878 B( 44-C , 50-C ) :   1.2035
B( 45-C , 46-C ) :   1.1123 B( 45-C , 49-N ) :   1.4673 B( 46-C , 47-N ) :   1.5103
B( 47-N , 48-S ) :   1.2937 B( 47-N , 49-N ) :   0.1488 B( 48-S , 49-N ) :   1.2745
B( 50-C , 51-C ) :   1.3956 B( 50-C , 54-S ) :   1.0990 B( 51-C , 52-C ) :   1.2850
B( 51-C , 89-H ) :   0.9848 B( 52-C , 53-C ) :   1.3898 B( 52-C , 57-C ) :   0.9889
B( 53-C , 54-S ) :   1.1014 B( 53-C , 55-C ) :   1.2097 B( 55-C , 56-C ) :   1.3993
B( 55-C , 65-S ) :   1.1473 B( 56-C , 57-C ) :   0.9972 B( 56-C , 63-C ) :   1.3665
B( 57-C , 58-C ) :   1.7213 B( 58-C , 59-C ) :   1.1331 B( 58-C , 61-C ) :   1.1349
B( 59-C , 60-N ) :   2.9814 B( 61-C , 62-N ) :   2.9958 B( 63-C , 64-C ) :   1.3890
B( 63-C , 90-H ) :   0.9775 B( 64-C , 65-S ) :   1.0941 B( 64-C , 66-C ) :   1.1360
B( 66-C , 67-C ) :   1.6784 B( 66-C , 91-H ) :   0.9279 B( 67-C , 68-C ) :   0.9439
B( 67-C , 72-C ) :   1.0323 B( 68-C , 69-O ) :   2.2695 B( 68-C , 70-C ) :   0.9170
B( 70-C , 71-C ) :   1.3330 B( 70-C , 81-C ) :   1.3691 B( 71-C , 72-C ) :   1.0060
B( 71-C , 78-C ) :   1.3658 B( 72-C , 73-C ) :   1.6569 B( 73-C , 74-C ) :   1.1239
B( 73-C , 76-C ) :   1.1701 B( 74-C , 75-N ) :   2.9986 B( 76-C , 77-N ) :   2.9961
B( 78-C , 79-C ) :   1.3745 B( 78-C , 92-H ) :   0.9857 B( 79-C , 80-C ) :   1.3820
B( 79-C , 93-H ) :   0.9881 B( 80-C , 81-C ) :   1.3351 B( 80-C , 82-Cl) :   0.9912
B( 81-C , 94-H ) :   1.0111

-----------------------------------------------------------------------------
         ABSORPTION SPECTRUM VIA TRANSITION ELECTRIC DIPOLE MOMENTS
-----------------------------------------------------------------------------
State   Energy  Wavelength   fosc         T2         TX        TY        TZ
        (cm-1)    (nm)                  (au**2)     (au)      (au)      (au)
-----------------------------------------------------------------------------
   0    7655.2   1306.3   0.840334661  36.13851  -0.01070  -5.94335   0.90278
   1   13884.6    720.2   0.015855044   0.37593   0.18176  -0.48893   0.32225
   2   14457.2    691.7   0.077767066   1.77087  -0.18993  -1.27760   0.32021
   3   16180.8    618.0   0.004505216   0.09166  -0.22553  -0.06855  -0.19000
   4   20391.2    490.4   0.874865241  14.12454   0.28575   3.65600  -0.82252
   5   21324.5    468.9   0.547282782   8.44905  -0.45531  -2.79375   0.66084
   6   22044.9    453.6   0.211947068   3.16515  -0.29847  -1.67177   0.53032
   7   23349.8    428.3   0.023796300   0.33551   0.27627  -0.28614  -0.42107
   8   23443.7    426.6   0.003292802   0.04624   0.03181   0.21229   0.01273
   9   23770.6    420.7   0.076985542   1.06621   0.00265   0.43942  -0.93441
  10   24516.8    407.9   0.010998454   0.14769  -0.25808  -0.20949   0.19286
  11   24728.0    404.4   0.010294084   0.13705   0.01210   0.06142  -0.36487
  12   25134.6    397.9   0.011755215   0.15397   0.06362   0.09323   0.37581
  13   25226.7    396.4   0.031568280   0.41197  -0.12787   0.03961   0.62773
  14   25563.4    391.2   0.013747754   0.17705  -0.34406   0.18221  -0.15958
  15   25847.7    386.9   0.006046034   0.07701   0.00135   0.27746   0.00424
  16   26871.5    372.1   0.128317650   1.57206   0.24995   1.18459   0.32611
  17   27380.6    365.2   0.223819816   2.69111   0.34690  -1.42422   0.73645
  18   27848.3    359.1   0.022670695   0.26800   0.19243  -0.21390  -0.43037
  19   29159.0    342.9   0.065153411   0.73560  -0.16550  -0.48419   0.68831
  20   29340.2    340.8   0.010130827   0.11367  -0.16205  -0.07940   0.28479
  21   29497.5    339.0   0.061908940   0.69095   0.03563  -0.55317   0.61942
  22   29693.3    336.8   0.030134708   0.33411  -0.12431  -0.22518  -0.51764
  23   29821.3    335.3   0.030239046   0.33382   0.57399   0.04897  -0.04427
  24   30124.7    332.0   0.180438038   1.97188  -0.77838  -0.27015   1.13711
  25   30181.5    331.3   0.010952008   0.11946   0.04284   0.27661  -0.20276
  26   30487.1    328.0   0.083667507   0.90348   0.03853   0.07037  -0.94712
  27   30710.5    325.6   0.001661193   0.01781   0.03190  -0.04595   0.12116
  28   30969.2    322.9   0.297176528   3.15908  -0.27891   1.69603  -0.45250
  29   31425.8    318.2   0.315425932   3.30436   0.17182  -1.77561   0.34933
  30   31730.3    315.2   0.493763523   5.12295   0.75167  -1.38693  -1.62308
  31   31875.0    313.7   0.572643011   5.91437  -0.39687   1.51530   1.86030
  32   32169.9    310.8   0.092197520   0.94351  -0.75165  -0.49108  -0.37064
  33   32512.1    307.6   0.138906923   1.40655  -0.61237   0.13209   1.00703
  34   32764.6    305.2   0.307847922   3.09320   0.16044  -0.17196  -1.74295
  35   32896.8    304.0   0.032951345   0.32976  -0.25146  -0.51617  -0.00985
  36   33220.0    301.0   0.125757303   1.24626   0.56323  -0.84878  -0.45673
  37   33344.1    299.9   0.122029765   1.20482  -0.44428   0.07863  -1.00062
  38   33588.1    297.7   0.009525897   0.09337  -0.26064   0.12824   0.09481
  39   33846.4    295.5   0.103392199   1.00566   0.00891   0.88050  -0.47990
  40   34007.4    294.1   0.022334655   0.21621  -0.11144   0.36846   0.26082
  41   34096.6    293.3   0.151707288   1.46477   0.20257   0.04003   1.19253
  42   34319.0    291.4   0.047982074   0.46028  -0.62751   0.21276  -0.14575
  43   34359.4    291.0   0.066836884   0.64039  -0.01835  -0.58825   0.54223
  44   34608.1    288.9   0.158560858   1.50832  -0.02897   1.22750   0.02699
  45   34726.2    288.0   0.004458994   0.04227  -0.15174  -0.13463   0.03348
  46   35076.7    285.1   0.061436041   0.57661   0.41589   0.16151   0.61445
  47   35170.0    284.3   0.272447062   2.55027   0.00287   0.32301  -1.56394
  48   35486.4    281.8   0.237101950   2.19962  -0.37369  -0.79256  -1.19659
  49   35605.1    280.9   0.198213247   1.83272   0.98846  -0.56992   0.72859
  50   35919.1    278.4   0.179673931   1.64678   0.64809  -0.90126   0.64381
  51   36049.8    277.4   0.471211604   4.30317  -0.21392   0.39955   2.02430
  52   36253.3    275.8   0.014766065   0.13409  -0.08710   0.00517   0.35563
  53   36572.3    273.4   0.077200119   0.69493   0.23499  -0.77822   0.18462
  54   36756.0    272.1   0.094187664   0.84361   0.18946   0.55510  -0.70681
  55   36815.7    271.6   0.030634146   0.27394  -0.28459   0.35179  -0.26304
  56   37152.9    269.2   0.008177540   0.07246  -0.02466   0.26320   0.05076
  57   37546.9    266.3   0.016997583   0.14904  -0.07902   0.19360  -0.32452
  58   37699.6    265.3   0.023128230   0.20197   0.14177   0.24956  -0.34581
  59   37855.6    264.2   0.024800171   0.21568  -0.09148  -0.38691  -0.24002
  60   38170.6    262.0   0.065197805   0.56231  -0.13021   0.37060   0.63876
  61   38382.6    260.5   0.004403563   0.03777   0.05784  -0.17560   0.05992
  62   38479.8    259.9   0.017709575   0.15151   0.04449   0.26203  -0.28439
  63   38502.7    259.7   0.002174826   0.01860   0.10411   0.07890  -0.03914
  64   38630.7    258.9   0.015401361   0.13125   0.04991   0.21856   0.28459
  65   39096.2    255.8   0.067558157   0.56888   0.42117   0.01280   0.62556
  66   39126.7    255.6   0.024822602   0.20886  -0.09282   0.02016   0.44703
  67   39259.3    254.7   0.111080451   0.93147  -0.17046   0.18992  -0.93078
  68   39300.1    254.5   0.001433412   0.01201   0.09171  -0.05553   0.02266
  69   39413.9    253.7   0.005230590   0.04369  -0.08411  -0.10212   0.16182
  70   39722.1    251.7   0.183426100   1.52021  -0.00935  -0.46272   1.14281
  71   40177.8    248.9   0.049287023   0.40385  -0.06281  -0.08605   0.62650

FINAL SINGLE POINT ENERGY     -6116.743687983497

DIPOLE MOMENT
-------------
                                X             Y             Z
Electronic contribution:      0.02147      -1.84112       6.10781
Nuclear contribution   :      1.09488       1.45209      -2.28575
                        -----------------------------------------
Total Dipole Moment    :      1.11635      -0.38902       3.82206
                        -----------------------------------------
Magnitude (a.u.)       :      4.00071
Magnitude (Debye)      :     10.16900

Rotational constants in cm-1:     0.002015     0.000152     0.000146
Rotational constants in MHz :    60.420017     4.570333     4.373340

                             ****ORCA TERMINATED NORMALLY****
TOTAL RUN TIME: 0 days 0 hours 11 minutes 35 seconds 937 msec
