                         Program Version 4.2.0 -  RELEASE  -
|  1> # ORCA input file
|  2> # SCF done       -193.803699829033          0.000562736464
|  3> ! CAM-B3LYP def2-SVP def2/J RIJCOSX Grid4 TightSCF
|  4> %maxcore 5000
|  5> %tddft
|  6>     Mode sTDDFT
|  7>     Ethresh 5.0
|  8>     maxcore 5000
|  9> end
| 10>
| 11> %pal
| 12>   nprocs 6
| 13>   end
| 14> * xyz 0 1
| 15>    C        3.62653         0.13008       -10.24807
| 16>    C        2.49261         0.66346        -9.70983
| 17>    S        2.51527         0.76424        -7.98614
| 18>    C        4.07474         0.05871        -7.96349
| 19>    C        4.54269        -0.22043        -9.24238
| 20>    C        5.88857        -0.79421        -9.14235
| 21>    O        6.65026        -1.11558       -10.02321
| 22>    C        6.12390        -0.95319        -7.66723
| 23>    C        5.05570        -0.26215        -6.95983
| 24>    C        5.03348         0.21885        -5.67504
| 25>    C        3.93154         0.96145        -5.19853
| 26>    N        3.03974         1.57058        -4.81283
| 27>    C        6.09430         0.11964        -4.75789
| 28>    N        6.94621         0.08810        -3.98860
| 29>    C        7.15688        -1.73577        -7.25966
| 30>    C        7.37918        -2.33926        -5.99987
| 31>    C        6.46134        -2.62509        -4.99990
| 32>    C        7.04687        -3.27576        -3.92200
| 33>    C        8.42784        -3.50295        -4.09934
| 34>    S        8.98954        -2.92417        -5.59738
| 35>    C        8.92769        -4.16783        -2.95389
| 36>    C        7.85970        -4.35297        -2.04751
| 37>    C        6.65053        -3.78361        -2.62141
| 38>    C        5.41131        -3.70832        -2.05697
| 39>    C        4.33246        -3.10217        -2.73506
| 40>    N        3.46548        -2.61224        -3.30344
| 41>    C        5.13840        -4.22739        -0.77396
| 42>    N        4.91706        -4.65961         0.26438
| 43>    C        8.24287        -5.02328        -0.89438
| 44>    C        9.59303        -5.35406        -0.92344
| 45>    S       10.40356        -4.81495        -2.38717
| 46>    C       10.33398        -6.07331         0.02849
| 47>    C       11.68570        -6.41193        -0.10143
| 48>    C       12.17696        -7.20100         0.99006
| 49>    N       13.44097        -7.61997         1.02804
| 50>    C       14.21226        -7.27389         0.01858
| 51>    C       15.62332        -7.73262         0.06238
| 52>    O       16.06572        -8.39690         0.97549
| 53>    C       16.44812        -7.32008        -1.08629
| 54>    C       15.98635        -6.59393        -2.10974
| 55>    C       14.59628        -6.11841        -2.21323
| 56>    O       14.19837        -5.47074        -3.15851
| 57>    C       13.71912        -6.49212        -1.07574
| 58>    N       12.47128        -6.07449        -1.12279
| 59>    C       11.20180        -7.46570         1.95867
| 60>    S        9.69445        -6.72217         1.50970
| 61>    C       11.39792        -8.25043         3.10702
| 62>    C       10.48601        -8.54038         4.11568
| 63>    C       11.03532        -9.38791         5.06770
| 64>    C       12.37078        -9.74715         4.77694
| 65>    S       12.95759        -9.02652         3.34341
| 66>    C       12.82932       -10.63459         5.77927
| 67>    C       11.78116       -10.83030         6.71094
| 68>    C       10.62688       -10.04947         6.29656
| 69>    C        9.41684        -9.95782         6.91838
| 70>    C        8.37141        -9.16228         6.40315
| 71>    N        7.52445        -8.51544         5.98044
| 72>    C        9.12825       -10.65100         8.11333
| 73>    N        8.88669       -11.21238         9.08303
| 74>    C       12.13557       -11.70547         7.72053
| 75>    C       13.43746       -12.19556         7.57021
| 76>    S       14.22984       -11.53348         6.14285
| 77>    C       13.98851       -13.11873         8.47900
| 78>    C       15.20266       -13.74488         8.47738
| 79>    C       15.65388       -14.71268         9.47171
| 80>    C       15.02022       -15.16035        10.60180
| 81>    C       15.63780       -16.11542        11.43799
| 82>    N       16.13561       -16.89263        12.11917
| 83>    C       13.75160       -14.75329        11.05728
| 84>    N       12.72550       -14.46161        11.48193
| 85>    C       16.95685       -15.14133         9.04027
| 86>    C       17.33716       -14.50102         7.86801
| 87>    C       18.60644       -14.89518         7.41350
| 88>    C       19.15563       -15.82205         8.24981
| 89>    S       18.15433       -16.23237         9.59584
| 90>    C       16.26576       -13.58937         7.46005
| 91>    O       16.24573       -12.85615         6.48876
| 92>    H        3.79660        -0.00155       -11.30042
| 93>    H        1.62652         1.01983       -10.23265
| 94>    H        7.87392        -1.97859        -8.03845
| 95>    H        5.41178        -2.41216        -5.08794
| 96>    H        7.59943        -5.27685        -0.07083
| 97>    H       17.47739        -7.65078        -1.05059
| 98>    H       16.62706        -6.31401        -2.93505
| 99>    H        9.48599        -8.14507         4.12589
|100>    H       11.50166       -12.00158         8.53770
|101>    H       13.31476       -13.36346         9.29220
|102>    H       19.08141       -14.51841         6.52683
|103>    H       20.11061       -16.30142         8.15710
|104> *
|105>
|106>                          ****END OF INPUT****

CARTESIAN COORDINATES (ANGSTROEM)
---------------------------------
  C      3.626530    0.130080  -10.248070
  C      2.492610    0.663460   -9.709830
  S      2.515270    0.764240   -7.986140
  C      4.074740    0.058710   -7.963490
  C      4.542690   -0.220430   -9.242380
  C      5.888570   -0.794210   -9.142350
  O      6.650260   -1.115580  -10.023210
  C      6.123900   -0.953190   -7.667230
  C      5.055700   -0.262150   -6.959830
  C      5.033480    0.218850   -5.675040
  C      3.931540    0.961450   -5.198530
  N      3.039740    1.570580   -4.812830
  C      6.094300    0.119640   -4.757890
  N      6.946210    0.088100   -3.988600
  C      7.156880   -1.735770   -7.259660
  C      7.379180   -2.339260   -5.999870
  C      6.461340   -2.625090   -4.999900
  C      7.046870   -3.275760   -3.922000
  C      8.427840   -3.502950   -4.099340
  S      8.989540   -2.924170   -5.597380
  C      8.927690   -4.167830   -2.953890
  C      7.859700   -4.352970   -2.047510
  C      6.650530   -3.783610   -2.621410
  C      5.411310   -3.708320   -2.056970
  C      4.332460   -3.102170   -2.735060
  N      3.465480   -2.612240   -3.303440
  C      5.138400   -4.227390   -0.773960
  N      4.917060   -4.659610    0.264380
  C      8.242870   -5.023280   -0.894380
  C      9.593030   -5.354060   -0.923440
  S     10.403560   -4.814950   -2.387170
  C     10.333980   -6.073310    0.028490
  C     11.685700   -6.411930   -0.101430
  C     12.176960   -7.201000    0.990060
  N     13.440970   -7.619970    1.028040
  C     14.212260   -7.273890    0.018580
  C     15.623320   -7.732620    0.062380
  O     16.065720   -8.396900    0.975490
  C     16.448120   -7.320080   -1.086290
  C     15.986350   -6.593930   -2.109740
  C     14.596280   -6.118410   -2.213230
  O     14.198370   -5.470740   -3.158510
  C     13.719120   -6.492120   -1.075740
  N     12.471280   -6.074490   -1.122790
  C     11.201800   -7.465700    1.958670
  S      9.694450   -6.722170    1.509700
  C     11.397920   -8.250430    3.107020
  C     10.486010   -8.540380    4.115680
  C     11.035320   -9.387910    5.067700
  C     12.370780   -9.747150    4.776940
  S     12.957590   -9.026520    3.343410
  C     12.829320  -10.634590    5.779270
  C     11.781160  -10.830300    6.710940
  C     10.626880  -10.049470    6.296560
  C      9.416840   -9.957820    6.918380
  C      8.371410   -9.162280    6.403150
  N      7.524450   -8.515440    5.980440
  C      9.128250  -10.651000    8.113330
  N      8.886690  -11.212380    9.083030
  C     12.135570  -11.705470    7.720530
  C     13.437460  -12.195560    7.570210
  S     14.229840  -11.533480    6.142850
  C     13.988510  -13.118730    8.479000
  C     15.202660  -13.744880    8.477380
  C     15.653880  -14.712680    9.471710
  C     15.020220  -15.160350   10.601800
  C     15.637800  -16.115420   11.437990
  N     16.135610  -16.892630   12.119170
  C     13.751600  -14.753290   11.057280
  N     12.725500  -14.461610   11.481930
  C     16.956850  -15.141330    9.040270
  C     17.337160  -14.501020    7.868010
  C     18.606440  -14.895180    7.413500
  C     19.155630  -15.822050    8.249810
  S     18.154330  -16.232370    9.595840
  C     16.265760  -13.589370    7.460050
  O     16.245730  -12.856150    6.488760
  H      3.796600   -0.001550  -11.300420
  H      1.626520    1.019830  -10.232650
  H      7.873920   -1.978590   -8.038450
  H      5.411780   -2.412160   -5.087940
  H      7.599430   -5.276850   -0.070830
  H     17.477390   -7.650780   -1.050590
  H     16.627060   -6.314010   -2.935050
  H      9.485990   -8.145070    4.125890
  H     11.501660  -12.001580    8.537700
  H     13.314760  -13.363460    9.292200
  H     19.081410  -14.518410    6.526830
  H     20.110610  -16.301420    8.157100

 Total Charge           Charge          ....    0
 Multiplicity           Mult            ....    1
 Number of Electrons    NEL             ....  562
 Basis Dimension        Dim             .... 1166

ORBITAL ENERGIES
----------------

  NO   OCC          E(Eh)            E(eV)
   0   2.0000     -89.013118     -2422.1701
   1   2.0000     -88.997968     -2421.7578
   2   2.0000     -88.995273     -2421.6845
   3   2.0000     -88.994061     -2421.6515
   4   2.0000     -88.992926     -2421.6206
   5   2.0000     -88.991172     -2421.5729
   6   2.0000     -88.990342     -2421.5503
   7   2.0000     -19.239774      -523.5409
   8   2.0000     -19.239638      -523.5372
   9   2.0000     -19.231992      -523.3291
  10   2.0000     -19.221707      -523.0492
  11   2.0000     -14.467283      -393.6748
  12   2.0000     -14.466899      -393.6643
  13   2.0000     -14.434939      -392.7947
  14   2.0000     -14.434478      -392.7821
  15   2.0000     -14.433557      -392.7570
  16   2.0000     -14.431749      -392.7078
  17   2.0000     -14.422826      -392.4650
  18   2.0000     -14.421624      -392.4323
  19   2.0000     -14.420238      -392.3946
  20   2.0000     -14.417666      -392.3246
  21   2.0000     -10.389531      -282.7135
  22   2.0000     -10.389308      -282.7074
  23   2.0000     -10.383582      -282.5516
  24   2.0000     -10.375936      -282.3436
  25   2.0000     -10.369793      -282.1764
  26   2.0000     -10.368000      -282.1276
  27   2.0000     -10.357667      -281.8464
  28   2.0000     -10.357349      -281.8378
  29   2.0000     -10.357241      -281.8349
  30   2.0000     -10.356290      -281.8090
  31   2.0000     -10.354447      -281.7588
  32   2.0000     -10.353841      -281.7423
  33   2.0000     -10.350382      -281.6482
  34   2.0000     -10.349772      -281.6316
  35   2.0000     -10.349193      -281.6159
  36   2.0000     -10.348396      -281.5942
  37   2.0000     -10.347225      -281.5623
  38   2.0000     -10.346892      -281.5532
  39   2.0000     -10.344326      -281.4834
  40   2.0000     -10.341117      -281.3961
  41   2.0000     -10.340672      -281.3840
  42   2.0000     -10.336078      -281.2590
  43   2.0000     -10.335417      -281.2410
  44   2.0000     -10.335155      -281.2339
  45   2.0000     -10.334587      -281.2184
  46   2.0000     -10.333897      -281.1996
  47   2.0000     -10.333810      -281.1973
  48   2.0000     -10.332114      -281.1511
  49   2.0000     -10.331553      -281.1359
  50   2.0000     -10.330889      -281.1178
  51   2.0000     -10.330512      -281.1075
  52   2.0000     -10.329855      -281.0896
  53   2.0000     -10.328947      -281.0649
  54   2.0000     -10.326833      -281.0074
  55   2.0000     -10.325201      -280.9630
  56   2.0000     -10.324897      -280.9547
  57   2.0000     -10.323143      -280.9070
  58   2.0000     -10.322687      -280.8946
  59   2.0000     -10.321419      -280.8601
  60   2.0000     -10.321410      -280.8598
  61   2.0000     -10.320705      -280.8407
  62   2.0000     -10.318567      -280.7825
  63   2.0000     -10.314388      -280.6688
  64   2.0000     -10.314376      -280.6684
  65   2.0000     -10.314350      -280.6677
  66   2.0000     -10.313466      -280.6437
  67   2.0000     -10.313044      -280.6322
  68   2.0000     -10.313001      -280.6310
  69   2.0000     -10.310099      -280.5521
  70   2.0000     -10.307647      -280.4853
  71   2.0000     -10.307029      -280.4685
  72   2.0000     -10.306655      -280.4583
  73   2.0000     -10.304629      -280.4032
  74   2.0000     -10.303321      -280.3676
  75   2.0000     -10.301733      -280.3244
  76   2.0000     -10.301098      -280.3071
  77   2.0000      -8.107046      -220.6039
  78   2.0000      -8.092567      -220.2099
  79   2.0000      -8.088487      -220.0989
  80   2.0000      -8.087500      -220.0721
  81   2.0000      -8.087464      -220.0711
  82   2.0000      -8.085032      -220.0049
  83   2.0000      -8.083711      -219.9690
  84   2.0000      -6.076171      -165.3410
  85   2.0000      -6.072051      -165.2289
  86   2.0000      -6.069683      -165.1645
  87   2.0000      -6.061731      -164.9481
  88   2.0000      -6.057897      -164.8438
  89   2.0000      -6.057537      -164.8339
  90   2.0000      -6.056841      -164.8150
  91   2.0000      -6.056803      -164.8140
  92   2.0000      -6.055126      -164.7684
  93   2.0000      -6.054348      -164.7472
  94   2.0000      -6.053400      -164.7214
  95   2.0000      -6.053115      -164.7136
  96   2.0000      -6.052359      -164.6931
  97   2.0000      -6.052170      -164.6879
  98   2.0000      -6.050812      -164.6510
  99   2.0000      -6.050105      -164.6317
 100   2.0000      -6.049785      -164.6230
 101   2.0000      -6.049690      -164.6204
 102   2.0000      -6.048363      -164.5843
 103   2.0000      -6.047624      -164.5642
 104   2.0000      -6.046239      -164.5265
 105   2.0000      -1.157497       -31.4971
 106   2.0000      -1.152612       -31.3642
 107   2.0000      -1.147959       -31.2376
 108   2.0000      -1.137575       -30.9550
 109   2.0000      -1.117640       -30.4125
 110   2.0000      -1.053020       -28.6541
 111   2.0000      -1.050367       -28.5819
 112   2.0000      -1.045160       -28.4403
 113   2.0000      -1.034849       -28.1597
 114   2.0000      -1.032773       -28.1032
 115   2.0000      -1.027794       -27.9677
 116   2.0000      -1.025533       -27.9062
 117   2.0000      -1.022482       -27.8231
 118   2.0000      -1.013405       -27.5762
 119   2.0000      -1.012698       -27.5569
 120   2.0000      -1.011496       -27.5242
 121   2.0000      -1.010285       -27.4912
 122   2.0000      -1.005024       -27.3481
 123   2.0000      -0.999834       -27.2069
 124   2.0000      -0.998135       -27.1606
 125   2.0000      -0.996134       -27.1062
 126   2.0000      -0.971002       -26.4223
 127   2.0000      -0.968766       -26.3615
 128   2.0000      -0.962662       -26.1954
 129   2.0000      -0.960580       -26.1387
 130   2.0000      -0.952513       -25.9192
 131   2.0000      -0.928922       -25.2773
 132   2.0000      -0.922806       -25.1108
 133   2.0000      -0.911397       -24.8004
 134   2.0000      -0.908687       -24.7266
 135   2.0000      -0.894694       -24.3459
 136   2.0000      -0.890618       -24.2349
 137   2.0000      -0.885192       -24.0873
 138   2.0000      -0.882034       -24.0014
 139   2.0000      -0.870520       -23.6881
 140   2.0000      -0.865091       -23.5403
 141   2.0000      -0.861662       -23.4470
 142   2.0000      -0.860793       -23.4234
 143   2.0000      -0.858373       -23.3575
 144   2.0000      -0.856505       -23.3067
 145   2.0000      -0.820993       -22.3403
 146   2.0000      -0.816460       -22.2170
 147   2.0000      -0.805801       -21.9270
 148   2.0000      -0.798814       -21.7368
 149   2.0000      -0.791219       -21.5302
 150   2.0000      -0.781539       -21.2668
 151   2.0000      -0.777353       -21.1528
 152   2.0000      -0.774624       -21.0786
 153   2.0000      -0.767591       -20.8872
 154   2.0000      -0.765240       -20.8233
 155   2.0000      -0.742011       -20.1911
 156   2.0000      -0.735375       -20.0106
 157   2.0000      -0.710615       -19.3368
 158   2.0000      -0.709883       -19.3169
 159   2.0000      -0.701972       -19.1016
 160   2.0000      -0.698585       -19.0095
 161   2.0000      -0.697519       -18.9804
 162   2.0000      -0.691999       -18.8302
 163   2.0000      -0.690402       -18.7868
 164   2.0000      -0.687838       -18.7170
 165   2.0000      -0.682107       -18.5611
 166   2.0000      -0.675182       -18.3726
 167   2.0000      -0.673807       -18.3352
 168   2.0000      -0.670928       -18.2569
 169   2.0000      -0.664567       -18.0838
 170   2.0000      -0.647329       -17.6147
 171   2.0000      -0.644023       -17.5248
 172   2.0000      -0.639684       -17.4067
 173   2.0000      -0.637368       -17.3437
 174   2.0000      -0.629387       -17.1265
 175   2.0000      -0.626956       -17.0603
 176   2.0000      -0.623698       -16.9717
 177   2.0000      -0.623531       -16.9671
 178   2.0000      -0.619068       -16.8457
 179   2.0000      -0.614626       -16.7248
 180   2.0000      -0.609901       -16.5963
 181   2.0000      -0.605706       -16.4821
 182   2.0000      -0.603012       -16.4088
 183   2.0000      -0.584661       -15.9094
 184   2.0000      -0.584398       -15.9023
 185   2.0000      -0.579636       -15.7727
 186   2.0000      -0.577004       -15.7011
 187   2.0000      -0.572408       -15.5760
 188   2.0000      -0.567031       -15.4297
 189   2.0000      -0.555280       -15.1099
 190   2.0000      -0.554784       -15.0964
 191   2.0000      -0.553969       -15.0743
 192   2.0000      -0.552850       -15.0438
 193   2.0000      -0.549890       -14.9633
 194   2.0000      -0.546614       -14.8741
 195   2.0000      -0.545417       -14.8415
 196   2.0000      -0.544339       -14.8122
 197   2.0000      -0.538901       -14.6642
 198   2.0000      -0.535298       -14.5662
 199   2.0000      -0.531298       -14.4573
 200   2.0000      -0.527864       -14.3639
 201   2.0000      -0.523575       -14.2472
 202   2.0000      -0.523075       -14.2336
 203   2.0000      -0.518205       -14.1011
 204   2.0000      -0.517126       -14.0717
 205   2.0000      -0.514527       -14.0010
 206   2.0000      -0.510322       -13.8866
 207   2.0000      -0.509924       -13.8757
 208   2.0000      -0.508351       -13.8329
 209   2.0000      -0.507726       -13.8159
 210   2.0000      -0.506682       -13.7875
 211   2.0000      -0.504563       -13.7299
 212   2.0000      -0.504395       -13.7253
 213   2.0000      -0.502031       -13.6610
 214   2.0000      -0.498195       -13.5566
 215   2.0000      -0.496380       -13.5072
 216   2.0000      -0.493085       -13.4175
 217   2.0000      -0.492586       -13.4040
 218   2.0000      -0.489722       -13.3260
 219   2.0000      -0.483908       -13.1678
 220   2.0000      -0.483294       -13.1511
 221   2.0000      -0.480675       -13.0798
 222   2.0000      -0.479540       -13.0490
 223   2.0000      -0.478251       -13.0139
 224   2.0000      -0.473691       -12.8898
 225   2.0000      -0.467751       -12.7282
 226   2.0000      -0.465431       -12.6650
 227   2.0000      -0.465088       -12.6557
 228   2.0000      -0.463580       -12.6147
 229   2.0000      -0.463362       -12.6087
 230   2.0000      -0.461514       -12.5584
 231   2.0000      -0.461139       -12.5482
 232   2.0000      -0.459757       -12.5106
 233   2.0000      -0.458250       -12.4696
 234   2.0000      -0.457311       -12.4441
 235   2.0000      -0.453533       -12.3413
 236   2.0000      -0.453312       -12.3353
 237   2.0000      -0.452853       -12.3228
 238   2.0000      -0.450239       -12.2516
 239   2.0000      -0.447699       -12.1825
 240   2.0000      -0.445423       -12.1206
 241   2.0000      -0.444370       -12.0919
 242   2.0000      -0.443054       -12.0561
 243   2.0000      -0.442790       -12.0489
 244   2.0000      -0.441538       -12.0149
 245   2.0000      -0.440032       -11.9739
 246   2.0000      -0.434183       -11.8147
 247   2.0000      -0.433082       -11.7848
 248   2.0000      -0.431704       -11.7473
 249   2.0000      -0.431400       -11.7390
 250   2.0000      -0.430911       -11.7257
 251   2.0000      -0.430249       -11.7077
 252   2.0000      -0.425849       -11.5879
 253   2.0000      -0.422056       -11.4847
 254   2.0000      -0.415377       -11.3030
 255   2.0000      -0.415089       -11.2952
 256   2.0000      -0.414639       -11.2829
 257   2.0000      -0.412701       -11.2302
 258   2.0000      -0.408694       -11.1211
 259   2.0000      -0.397248       -10.8097
 260   2.0000      -0.388383       -10.5684
 261   2.0000      -0.385414       -10.4877
 262   2.0000      -0.377629       -10.2758
 263   2.0000      -0.370829       -10.0908
 264   2.0000      -0.364132        -9.9085
 265   2.0000      -0.360264        -9.8033
 266   2.0000      -0.355073        -9.6620
 267   2.0000      -0.353627        -9.6227
 268   2.0000      -0.350754        -9.5445
 269   2.0000      -0.349671        -9.5150
 270   2.0000      -0.348959        -9.4957
 271   2.0000      -0.347947        -9.4681
 272   2.0000      -0.347364        -9.4523
 273   2.0000      -0.343367        -9.3435
 274   2.0000      -0.328230        -8.9316
 275   2.0000      -0.325724        -8.8634
 276   2.0000      -0.315416        -8.5829
 277   2.0000      -0.311724        -8.4824
 278   2.0000      -0.307382        -8.3643
 279   2.0000      -0.280681        -7.6377
 280   2.0000      -0.245101        -6.6695
 281   0.0000      -0.128126        -3.4865
 282   0.0000      -0.112912        -3.0725
 283   0.0000      -0.100207        -2.7268
 284   0.0000      -0.098399        -2.6776
 285   0.0000      -0.089080        -2.4240

MULLIKEN ATOMIC CHARGES
-----------------------
   0 C :    0.012883
   1 C :   -0.054111
   2 S :    0.227128
   3 C :   -0.175290
   4 C :    0.030966
   5 C :    0.142548
   6 O :   -0.137353
   7 C :   -0.138609
   8 C :    0.239725
   9 C :   -0.325331
  10 C :   -0.187773
  11 N :    0.166572
  12 C :   -0.199760
  13 N :    0.173124
  14 C :    0.069607
  15 C :   -0.106327
  16 C :   -0.006679
  17 C :   -0.002743
  18 C :   -0.074406
  19 S :    0.219236
  20 C :   -0.089450
  21 C :    0.035501
  22 C :    0.302532
  23 C :   -0.288758
  24 C :   -0.184721
  25 N :    0.173249
  26 C :   -0.192928
  27 N :    0.181214
  28 C :   -0.081228
  29 C :   -0.072599
  30 S :    0.245164
  31 C :   -0.119218
  32 C :    0.021271
  33 C :    0.030847
  34 N :    0.039497
  35 C :   -0.113975
  36 C :    0.140323
  37 O :   -0.103436
  38 C :   -0.018091
  39 C :   -0.015952
  40 C :    0.139008
  41 O :   -0.105221
  42 C :   -0.111698
  43 N :    0.037096
  44 C :   -0.124560
  45 S :    0.241768
  46 C :   -0.072031
  47 C :   -0.079903
  48 C :    0.031560
  49 C :   -0.091327
  50 S :    0.246979
  51 C :   -0.072198
  52 C :    0.043927
  53 C :    0.305166
  54 C :   -0.294426
  55 C :   -0.190023
  56 N :    0.173072
  57 C :   -0.195356
  58 N :    0.186360
  59 C :   -0.060776
  60 C :   -0.053230
  61 S :    0.245067
  62 C :   -0.040444
  63 C :   -0.097910
  64 C :    0.259205
  65 C :   -0.333703
  66 C :   -0.207255
  67 N :    0.163650
  68 C :   -0.184495
  69 N :    0.162599
  70 C :   -0.159801
  71 C :    0.020818
  72 C :    0.018860
  73 C :   -0.053501
  74 S :    0.225258
  75 C :    0.179976
  76 O :   -0.177460
  77 H :    0.008163
  78 H :    0.044851
  79 H :    0.023178
  80 H :    0.025440
  81 H :    0.012777
  82 H :    0.021215
  83 H :    0.021262
  84 H :    0.011578
  85 H :    0.026479
  86 H :    0.017489
  87 H :    0.005763
  88 H :    0.044106
Sum of atomic charges:   -0.0000000

LOEWDIN ATOMIC CHARGES
----------------------
   0 C :   -0.035602
   1 C :   -0.153194
   2 S :    0.515403
   3 C :   -0.172671
   4 C :   -0.072351
   5 C :    0.082834
   6 O :   -0.136724
   7 C :   -0.086474
   8 C :    0.051784
   9 C :   -0.138767
  10 C :   -0.033556
  11 N :   -0.038021
  12 C :   -0.017738
  13 N :   -0.043442
  14 C :    0.036163
  15 C :   -0.181441
  16 C :    0.006265
  17 C :   -0.064264
  18 C :   -0.161224
  19 S :    0.502064
  20 C :   -0.182409
  21 C :   -0.059956
  22 C :    0.081731
  23 C :   -0.097679
  24 C :   -0.013128
  25 N :   -0.030969
  26 C :   -0.017576
  27 N :   -0.028401
  28 C :   -0.026241
  29 C :   -0.178506
  30 S :    0.533362
  31 C :   -0.188145
  32 C :   -0.054664
  33 C :   -0.053367
  34 N :   -0.008365
  35 C :   -0.037241
  36 C :    0.055495
  37 O :   -0.099616
  38 C :   -0.010865
  39 C :   -0.011302
  40 C :    0.055675
  41 O :   -0.101589
  42 C :   -0.038026
  43 N :   -0.008715
  44 C :   -0.190658
  45 S :    0.526447
  46 C :   -0.175533
  47 C :   -0.029793
  48 C :   -0.058115
  49 C :   -0.185775
  50 S :    0.532867
  51 C :   -0.167963
  52 C :   -0.076926
  53 C :    0.077864
  54 C :   -0.101047
  55 C :   -0.016845
  56 N :   -0.031514
  57 C :   -0.020368
  58 N :   -0.023840
  59 C :    0.008437
  60 C :   -0.185051
  61 S :    0.548034
  62 C :    0.048801
  63 C :   -0.106763
  64 C :    0.062122
  65 C :   -0.139849
  66 C :   -0.034306
  67 N :   -0.043187
  68 C :   -0.025181
  69 N :   -0.041561
  70 C :   -0.175618
  71 C :   -0.070774
  72 C :   -0.034812
  73 C :   -0.153344
  74 S :    0.514656
  75 C :    0.085467
  76 O :   -0.164123
  77 H :    0.042973
  78 H :    0.031090
  79 H :    0.046341
  80 H :    0.042207
  81 H :    0.039024
  82 H :    0.047298
  83 H :    0.047303
  84 H :    0.038383
  85 H :    0.047525
  86 H :    0.053976
  87 H :    0.042543
  88 H :    0.031043

  Mayer bond orders larger than 0.100000
B(  0-C ,  1-C ) :   1.5481 B(  0-C ,  4-C ) :   1.2718 B(  0-C , 77-H ) :   1.0082
B(  1-C ,  2-S ) :   1.1673 B(  1-C , 78-H ) :   0.9682 B(  2-S ,  3-C ) :   1.1585
B(  3-C ,  4-C ) :   1.4366 B(  3-C ,  8-C ) :   1.0922 B(  4-C ,  5-C ) :   0.9426
B(  5-C ,  6-O ) :   2.2593 B(  5-C ,  7-C ) :   0.9304 B(  7-C ,  8-C ) :   1.0290
B(  7-C , 14-C ) :   1.7142 B(  8-C ,  9-C ) :   1.6480 B(  9-C , 10-C ) :   1.1244
B(  9-C , 12-C ) :   1.1735 B( 10-C , 11-N ) :   3.0092 B( 12-C , 13-N ) :   2.9968
B( 14-C , 15-C ) :   1.1201 B( 14-C , 79-H ) :   0.9256 B( 15-C , 16-C ) :   1.4018
B( 15-C , 19-S ) :   1.0939 B( 16-C , 17-C ) :   1.3550 B( 16-C , 80-H ) :   0.9797
B( 17-C , 18-C ) :   1.4104 B( 17-C , 22-C ) :   1.0000 B( 18-C , 19-S ) :   1.1514
B( 18-C , 20-C ) :   1.2030 B( 20-C , 21-C ) :   1.4052 B( 20-C , 30-S ) :   1.0987
B( 21-C , 22-C ) :   0.9889 B( 21-C , 28-C ) :   1.3314 B( 22-C , 23-C ) :   1.7205
B( 23-C , 24-C ) :   1.1331 B( 23-C , 26-C ) :   1.1346 B( 24-C , 25-N ) :   2.9842
B( 26-C , 27-N ) :   2.9957 B( 28-C , 29-C ) :   1.3835 B( 28-C , 81-H ) :   0.9945
B( 29-C , 30-S ) :   1.1193 B( 29-C , 31-C ) :   1.2394 B( 31-C , 32-C ) :   1.3164
B( 31-C , 44-C ) :   0.1178 B( 31-C , 45-S ) :   1.1593 B( 32-C , 33-C ) :   1.1883
B( 32-C , 43-N ) :   1.4201 B( 33-C , 34-N ) :   1.4189 B( 33-C , 44-C ) :   1.3180
B( 34-N , 35-C ) :   1.7005 B( 35-C , 36-C ) :   0.8952 B( 35-C , 42-C ) :   1.1082
B( 36-C , 37-O ) :   2.2491 B( 36-C , 38-C ) :   1.0216 B( 38-C , 39-C ) :   1.6777
B( 38-C , 82-H ) :   0.9984 B( 39-C , 40-C ) :   1.0234 B( 39-C , 83-H ) :   0.9980
B( 40-C , 41-O ) :   2.2469 B( 40-C , 42-C ) :   0.8972 B( 42-C , 43-N ) :   1.6973
B( 44-C , 45-S ) :   1.1565 B( 44-C , 46-C ) :   1.2395 B( 46-C , 47-C ) :   1.3838
B( 46-C , 50-S ) :   1.1211 B( 47-C , 48-C ) :   1.3267 B( 47-C , 84-H ) :   0.9942
B( 48-C , 49-C ) :   1.4015 B( 48-C , 53-C ) :   0.9936 B( 49-C , 50-S ) :   1.0974
B( 49-C , 51-C ) :   1.2080 B( 51-C , 52-C ) :   1.3592 B( 51-C , 61-S ) :   1.1243
B( 52-C , 53-C ) :   0.9884 B( 52-C , 59-C ) :   1.3239 B( 53-C , 54-C ) :   1.7162
B( 54-C , 55-C ) :   1.1326 B( 54-C , 57-C ) :   1.1345 B( 55-C , 56-N ) :   2.9915
B( 57-C , 58-N ) :   2.9957 B( 59-C , 60-C ) :   1.3404 B( 59-C , 85-H ) :   1.0089
B( 60-C , 61-S ) :   1.0763 B( 60-C , 62-C ) :   1.2421 B( 62-C , 63-C ) :   1.5466
B( 62-C , 86-H ) :   0.9437 B( 63-C , 64-C ) :   1.0750 B( 63-C , 75-C ) :   0.9597
B( 64-C , 65-C ) :   1.6378 B( 64-C , 70-C ) :   1.0898 B( 65-C , 66-C ) :   1.1442
B( 65-C , 68-C ) :   1.1432 B( 66-C , 67-N ) :   3.0031 B( 68-C , 69-N ) :   2.9671
B( 70-C , 71-C ) :   1.4421 B( 70-C , 74-S ) :   1.1483 B( 71-C , 72-C ) :   1.2671
B( 71-C , 75-C ) :   0.9840 B( 72-C , 73-C ) :   1.5424 B( 72-C , 87-H ) :   1.0084
B( 73-C , 74-S ) :   1.1695 B( 73-C , 88-H ) :   0.9681 B( 75-C , 76-O ) :   2.1243

-----------------------------------------------------------------------------
         ABSORPTION SPECTRUM VIA TRANSITION ELECTRIC DIPOLE MOMENTS
-----------------------------------------------------------------------------
State   Energy  Wavelength   fosc         T2         TX        TY        TZ
        (cm-1)    (nm)                  (au**2)     (au)      (au)      (au)
-----------------------------------------------------------------------------
   0   10066.5    993.4   0.995590509  32.55940   2.26425  -3.26417   4.09607
   1   12798.3    781.4   0.021457840   0.55196  -0.33658  -0.39812   0.52932
   2   14316.6    698.5   0.019776632   0.45477  -0.36289   0.33013  -0.46271
   3   16545.5    604.4   0.098051668   1.95097  -1.27364  -0.01573   0.57320
   4   19483.2    513.3   0.019143876   0.32348   0.55485   0.02792  -0.12181
   5   20057.4    498.6   0.582976478   9.56866  -1.35798   2.02840  -1.90004
   6   21009.2    476.0   0.363650798   5.69838   1.09452  -1.46272   1.53651
   7   22470.3    445.0   0.014144132   0.20723  -0.24900   0.37652  -0.05883
   8   24120.9    414.6   0.501224711   6.84092   1.11086  -1.63642   1.71145
   9   24614.3    406.3   0.002872774   0.03842  -0.03784   0.19195  -0.01212
  10   24861.1    402.2   0.369449925   4.89228   1.24989  -1.14769   1.41876
  11   25589.6    390.8   0.000037806   0.00049   0.02152  -0.00431   0.00214
  12   26056.1    383.8   0.033367856   0.42159  -0.17610  -0.31653   0.53888
  13   26420.2    378.5   0.030948997   0.38564   0.00784   0.21175  -0.58373
  14   26460.6    377.9   0.000998587   0.01242  -0.04042  -0.06541  -0.08070
  15   26848.8    372.5   0.016582683   0.20333  -0.06962   0.01967   0.44508
  16   27299.3    366.3   0.140125735   1.68982  -0.19730   0.37867  -1.22781
  17   28015.4    356.9   0.024106929   0.28328   0.51971  -0.10818  -0.03847
  18   28363.1    352.6   0.078614226   0.91248  -0.90974   0.08069   0.27989
  19   28688.0    348.6   0.012561724   0.14415   0.34630   0.00285  -0.15564
  20   29316.5    341.1   0.037511559   0.42124  -0.18512  -0.62056   0.04333
  21   29644.3    337.3   0.126378331   1.40348  -1.00557   0.62327  -0.06192
  22   30171.2    331.4   0.012779241   0.13944  -0.10560   0.28321  -0.21927
  23   30307.9    329.9   0.026901268   0.29221   0.15632   0.12039  -0.50327
  24   30524.9    327.6   0.257645381   2.77871   0.61844  -0.46837   1.47543
  25   30685.0    325.9   0.000593151   0.00636   0.03467  -0.00178   0.07182
  26   31186.8    320.6   0.013547492   0.14301  -0.23304   0.01921   0.29721
  27   31271.0    319.8   0.009574356   0.10080   0.30139  -0.09979  -0.00100
  28   31383.1    318.6   0.103406464   1.08474  -0.51205  -0.48603   0.76572
  29   31561.3    316.8   0.098447538   1.02689  -0.13578   0.39027  -0.92528
  30   31758.0    314.9   0.305645357   3.16840   1.68876  -0.15200   0.54164
  31   31861.0    313.9   0.158628844   1.63907   0.98430  -0.68682  -0.44553
  32   32435.7    308.3   0.123575808   1.25425  -0.41905   0.43882  -0.94132
  33   32750.5    305.3   0.128704017   1.29375  -0.64222   0.44331   0.82751
  34   33003.8    303.0   0.020793468   0.20741   0.21864  -0.35516   0.18295
  35   33219.3    301.0   0.590066558   5.84772  -1.46072  -0.15334   1.92107
  36   33497.1    298.5   0.657513193   6.46209  -2.49422   0.05011   0.48831
  37   33604.7    297.6   0.222954689   2.18420  -1.10779   0.78780  -0.57998
  38   33697.3    296.8   0.017576956   0.17172   0.36374   0.09072  -0.17660
  39   33877.2    295.2   0.115175539   1.11925  -0.54585   0.24188   0.87338
  40   34000.8    294.1   0.051371410   0.49740   0.59605   0.02250  -0.37632
  41   34555.7    289.4   0.048905881   0.46593   0.66033  -0.16092  -0.06316
  42   34615.3    288.9   0.196055277   1.86460   1.21147  -0.45602   0.43472
  43   34630.3    288.8   0.088760675   0.84380   0.34447   0.12835  -0.84182
  44   34799.0    287.4   0.161480471   1.52767  -0.49700   0.03374   1.13116
  45   35155.5    284.5   0.259082945   2.42617  -0.93531  -0.35545   1.19374
  46   35270.7    283.5   0.141612425   1.32179  -0.64237  -0.10176   0.94805
  47   35403.5    282.5   0.249717402   2.32209  -1.47536   0.36862  -0.09760
  48   35448.0    282.1   0.077505683   0.71981  -0.68219   0.19251  -0.46623
  49   35876.6    278.7   0.006635472   0.06089   0.24214   0.02018  -0.04302
  50   35958.1    278.1   0.107163904   0.98113   0.30089   0.15617  -0.93070
  51   36174.5    276.4   0.050785503   0.46218  -0.13797   0.02568   0.66520
  52   36258.1    275.8   0.033440081   0.30363  -0.33342  -0.43238  -0.07420
  53   36385.5    274.8   0.101869631   0.92170   0.31788   0.30891  -0.85160
  54   36532.6    273.7   0.068949374   0.62134  -0.63562   0.40969  -0.22244
  55   36831.6    271.5   0.081362936   0.72725  -0.74191   0.26326   0.32788
  56   36876.0    271.2   0.103666346   0.92548  -0.83320  -0.05140   0.47813
  57   36899.9    271.0   0.026706521   0.23827  -0.29448   0.22019  -0.32103
  58   37164.6    269.1   0.001528756   0.01354   0.02292  -0.07223   0.08832
  59   37211.3    268.7   0.001659064   0.01468   0.08902  -0.00439   0.08207
  60   37460.6    266.9   0.030912655   0.27167   0.47310  -0.15235  -0.15695
  61   37646.9    265.6   0.028263121   0.24715  -0.39141   0.28696   0.10773
  62   37753.2    264.9   0.001470573   0.01282   0.01690  -0.08755   0.06981
  63   37834.0    264.3   0.012639248   0.10998   0.03418   0.05206  -0.32573
  64   38255.3    261.4   0.018258841   0.15713   0.34920  -0.12287  -0.14175
  65   38357.7    260.7   0.007743974   0.06646  -0.12674   0.17216  -0.14409
  66   38442.4    260.1   0.008096005   0.06933  -0.20817   0.12415  -0.10288
  67   38789.7    257.8   0.018502539   0.15703  -0.22180  -0.01799   0.32789
  68   39251.4    254.8   0.009574080   0.08030  -0.20821   0.19072  -0.02403
  69   39392.1    253.9   0.019063373   0.15932   0.37162  -0.13204  -0.06149
  70   39545.9    252.9   0.000675870   0.00563  -0.06978   0.00556   0.02696
  71   39632.7    252.3   0.001657814   0.01377  -0.07699   0.04227   0.07783
  72   40034.8    249.8   0.032086086   0.26385  -0.36535   0.21616   0.28921
  73   40178.4    248.9   0.078432197   0.64265  -0.52325   0.27877   0.53958
  74   40321.7    248.0   0.009304601   0.07597   0.15152  -0.07221   0.21863

FINAL SINGLE POINT ENERGY     -5772.070738273701

DIPOLE MOMENT
-------------
                                X             Y             Z
Electronic contribution:     -3.33751       0.91052       8.33010
Nuclear contribution   :      6.82261      -1.38227     -12.44036
                        -----------------------------------------
Total Dipole Moment    :      3.48509      -0.47175      -4.11026
                        -----------------------------------------
Magnitude (a.u.)       :      5.40950
Magnitude (Debye)      :     13.74984

Rotational constants in cm-1:     0.002070     0.000194     0.000179
Rotational constants in MHz :    62.060198     5.805675     5.369271

                             ****ORCA TERMINATED NORMALLY****
TOTAL RUN TIME: 0 days 0 hours 9 minutes 52 seconds 839 msec
