                         Program Version 4.2.0 -  RELEASE  -
|  1> # ORCA input file
|  2> # SCF done       -183.384190725537          0.000363617554
|  3> ! CAM-B3LYP def2-SVP def2/J RIJCOSX Grid4 TightSCF
|  4> %maxcore 5000
|  5> %tddft
|  6>     Mode sTDDFT
|  7>     Ethresh 5.0
|  8>     maxcore 5000
|  9> end
| 10>
| 11> %pal
| 12>   nprocs 6
| 13>   end
| 14> * xyz 0 1
| 15>    C        0.88501         3.38663         4.53523
| 16>    C        0.73783         3.54246         5.88715
| 17>    C        1.73963         3.10089         6.76374
| 18>    C        2.87376         2.50964         6.27710
| 19>    C        3.05692         2.33185         4.89095
| 20>    C        4.22285         1.71271         4.38352
| 21>    C        4.36788         1.55812         3.03123
| 22>    C        3.35387         2.02710         2.14547
| 23>    C        2.21484         2.61811         2.60777
| 24>    C        2.03998         2.78308         4.00128
| 25>    C        3.77232         1.77435         0.75296
| 26>    O        3.15200         1.99617        -0.26243
| 27>    C        5.15643         1.23386         0.85042
| 28>    C        5.42436         0.94006         2.23822
| 29>    C        6.39378         0.09492         2.72180
| 30>    C        7.17990        -0.74864         1.91283
| 31>    N        7.79351        -1.52258         1.32666
| 32>    C        6.64581        -0.11951         4.08975
| 33>    N        6.93249        -0.30381         5.18714
| 34>    C        5.93412         1.19152        -0.26830
| 35>    C        7.33961         0.98301        -0.41157
| 36>    C        7.79330         0.36945        -1.57678
| 37>    C        9.08424        -0.13261        -1.68741
| 38>    C        9.99883         0.00090        -0.65367
| 39>    C        9.68024         0.86950         0.42395
| 40>    C       10.60053         1.42866         1.31545
| 41>   Si        9.54779         1.99813         2.67622
| 42>    C        8.14744         2.31974         1.56818
| 43>    C        8.31585         1.37693         0.55467
| 44>    C       11.22251        -0.77806        -0.63829
| 45>    C       12.01516        -0.99639        -1.77937
| 46>    C       13.15874        -1.88033        -1.75604
| 47>    N       13.92753        -2.00791        -2.85412
| 48>    C       13.60357        -1.35968        -3.94138
| 49>    C       12.44865        -0.50306        -3.97367
| 50>    N       11.70868        -0.33325        -2.91039
| 51>    C       12.11651         0.18671        -5.16658
| 52>    N       11.87350         0.72001        -6.15086
| 53>    C       14.41889        -1.48736        -5.09359
| 54>    N       15.05123        -1.56835        -6.04540
| 55>    C       13.52885        -2.59652        -0.60222
| 56>    C       12.73388        -2.38290         0.53508
| 57>    C       11.61003        -1.47120         0.52245
| 58>    N       10.97302        -1.46261         1.69920
| 59>    S       11.68057        -2.50043         2.68728
| 60>    N       12.84352        -3.00750         1.71409
| 61>    C       14.62023        -3.55715        -0.64354
| 62>    C       14.63956        -4.50022        -1.65933
| 63>    C       15.62359        -5.47383        -1.74780
| 64>    C       16.67783        -5.54795        -0.84101
| 65>    C       16.67803        -4.62994         0.26866
| 66>    C       17.54986        -4.65362         1.36136
| 67>   Si       17.43411        -2.97055         2.01187
| 68>    C       15.72720        -2.74503         1.45552
| 69>    C       15.63697        -3.59816         0.34911
| 70>    C       17.78268        -6.43678        -0.97591
| 71>    C       18.08217        -7.48845        -1.80133
| 72>    C       19.38240        -8.14871        -1.76515
| 73>    C       20.41489        -7.92578        -0.88645
| 74>    C       21.64649        -8.61367        -0.92062
| 75>    N       22.67524        -9.12240        -0.87691
| 76>    C       20.43215        -7.02568         0.19743
| 77>    N       20.54951        -6.33965         1.11415
| 78>    C       19.41555        -9.14635        -2.82781
| 79>    C       18.14375        -9.16675        -3.46214
| 80>    C       17.86187       -10.01054        -4.49692
| 81>    C       18.86627       -10.88910        -4.96086
| 82>    C       18.63896       -11.78048        -6.02746
| 83>    C       19.62884       -12.62107        -6.45945
| 84>    C       20.88910       -12.60692        -5.84345
| 85>    C       21.14236       -11.75255        -4.80515
| 86>    C       20.14575       -10.87319        -4.33500
| 87>    C       20.40438        -9.98990        -3.26189
| 88>    C       17.26055        -8.17059        -2.83206
| 89>    O       16.09178        -7.99831        -3.11496
| 90>    H        0.11682         3.72488         3.85527
| 91>    H       -0.15092         4.00668         6.28772
| 92>    H        1.60815         3.23076         7.82758
| 93>    H        3.64667         2.16503         6.94856
| 94>    H        4.97862         1.38247         5.07915
| 95>    H        1.45434         2.95721         1.92020
| 96>    H        5.38214         1.33179        -1.19412
| 97>    H        7.08679         0.16962        -2.36955
| 98>    H        9.34567        -0.71472        -2.55671
| 99>    H       11.62116         1.08137         1.32360
|100>    H        7.17856         2.75085         1.76541
|101>    H       13.84305        -4.50398        -2.38750
|102>    H       15.55984        -6.19482        -2.54511
|103>    H       18.38879        -5.32695         1.42316
|104>    H       15.08673        -1.88320         1.53426
|105>    H       18.58539        -6.19296        -0.29489
|106>    H       16.88511       -10.00490        -4.95761
|107>    H       17.66656       -11.78671        -6.49800
|108>    H       19.44639       -13.30123        -7.27806
|109>    H       21.65901       -13.27683        -6.19614
|110>    H       22.11099       -11.73808        -4.32716
|111>    H       21.38485       -10.00417        -2.81405
|112> *
|113>
|114>                          ****END OF INPUT****

CARTESIAN COORDINATES (ANGSTROEM)
---------------------------------
  C      0.885010    3.386630    4.535230
  C      0.737830    3.542460    5.887150
  C      1.739630    3.100890    6.763740
  C      2.873760    2.509640    6.277100
  C      3.056920    2.331850    4.890950
  C      4.222850    1.712710    4.383520
  C      4.367880    1.558120    3.031230
  C      3.353870    2.027100    2.145470
  C      2.214840    2.618110    2.607770
  C      2.039980    2.783080    4.001280
  C      3.772320    1.774350    0.752960
  O      3.152000    1.996170   -0.262430
  C      5.156430    1.233860    0.850420
  C      5.424360    0.940060    2.238220
  C      6.393780    0.094920    2.721800
  C      7.179900   -0.748640    1.912830
  N      7.793510   -1.522580    1.326660
  C      6.645810   -0.119510    4.089750
  N      6.932490   -0.303810    5.187140
  C      5.934120    1.191520   -0.268300
  C      7.339610    0.983010   -0.411570
  C      7.793300    0.369450   -1.576780
  C      9.084240   -0.132610   -1.687410
  C      9.998830    0.000900   -0.653670
  C      9.680240    0.869500    0.423950
  C     10.600530    1.428660    1.315450
  Si     9.547790    1.998130    2.676220
  C      8.147440    2.319740    1.568180
  C      8.315850    1.376930    0.554670
  C     11.222510   -0.778060   -0.638290
  C     12.015160   -0.996390   -1.779370
  C     13.158740   -1.880330   -1.756040
  N     13.927530   -2.007910   -2.854120
  C     13.603570   -1.359680   -3.941380
  C     12.448650   -0.503060   -3.973670
  N     11.708680   -0.333250   -2.910390
  C     12.116510    0.186710   -5.166580
  N     11.873500    0.720010   -6.150860
  C     14.418890   -1.487360   -5.093590
  N     15.051230   -1.568350   -6.045400
  C     13.528850   -2.596520   -0.602220
  C     12.733880   -2.382900    0.535080
  C     11.610030   -1.471200    0.522450
  N     10.973020   -1.462610    1.699200
  S     11.680570   -2.500430    2.687280
  N     12.843520   -3.007500    1.714090
  C     14.620230   -3.557150   -0.643540
  C     14.639560   -4.500220   -1.659330
  C     15.623590   -5.473830   -1.747800
  C     16.677830   -5.547950   -0.841010
  C     16.678030   -4.629940    0.268660
  C     17.549860   -4.653620    1.361360
  Si    17.434110   -2.970550    2.011870
  C     15.727200   -2.745030    1.455520
  C     15.636970   -3.598160    0.349110
  C     17.782680   -6.436780   -0.975910
  C     18.082170   -7.488450   -1.801330
  C     19.382400   -8.148710   -1.765150
  C     20.414890   -7.925780   -0.886450
  C     21.646490   -8.613670   -0.920620
  N     22.675240   -9.122400   -0.876910
  C     20.432150   -7.025680    0.197430
  N     20.549510   -6.339650    1.114150
  C     19.415550   -9.146350   -2.827810
  C     18.143750   -9.166750   -3.462140
  C     17.861870  -10.010540   -4.496920
  C     18.866270  -10.889100   -4.960860
  C     18.638960  -11.780480   -6.027460
  C     19.628840  -12.621070   -6.459450
  C     20.889100  -12.606920   -5.843450
  C     21.142360  -11.752550   -4.805150
  C     20.145750  -10.873190   -4.335000
  C     20.404380   -9.989900   -3.261890
  C     17.260550   -8.170590   -2.832060
  O     16.091780   -7.998310   -3.114960
  H      0.116820    3.724880    3.855270
  H     -0.150920    4.006680    6.287720
  H      1.608150    3.230760    7.827580
  H      3.646670    2.165030    6.948560
  H      4.978620    1.382470    5.079150
  H      1.454340    2.957210    1.920200
  H      5.382140    1.331790   -1.194120
  H      7.086790    0.169620   -2.369550
  H      9.345670   -0.714720   -2.556710
  H     11.621160    1.081370    1.323600
  H      7.178560    2.750850    1.765410
  H     13.843050   -4.503980   -2.387500
  H     15.559840   -6.194820   -2.545110
  H     18.388790   -5.326950    1.423160
  H     15.086730   -1.883200    1.534260
  H     18.585390   -6.192960   -0.294890
  H     16.885110  -10.004900   -4.957610
  H     17.666560  -11.786710   -6.498000
  H     19.446390  -13.301230   -7.278060
  H     21.659010  -13.276830   -6.196140
  H     22.110990  -11.738080   -4.327160
  H     21.384850  -10.004170   -2.814050

 Total Charge           Charge          ....    0
 Multiplicity           Mult            ....    1
 Number of Electrons    NEL             ....  512
 Basis Dimension        Dim             .... 1172

ORBITAL ENERGIES
----------------

  NO   OCC          E(Eh)            E(eV)
   0   2.0000     -89.055190     -2423.3149
   1   2.0000     -66.202720     -1801.4676
   2   2.0000     -66.195361     -1801.2673
   3   2.0000     -19.219019      -522.9761
   4   2.0000     -19.215458      -522.8792
   5   2.0000     -14.471165      -393.7804
   6   2.0000     -14.470294      -393.7567
   7   2.0000     -14.457661      -393.4129
   8   2.0000     -14.457526      -393.4093
   9   2.0000     -14.436847      -392.8466
  10   2.0000     -14.436064      -392.8253
  11   2.0000     -14.419184      -392.3659
  12   2.0000     -14.418623      -392.3507
  13   2.0000     -14.417780      -392.3277
  14   2.0000     -14.412334      -392.1795
  15   2.0000     -10.390564      -282.7416
  16   2.0000     -10.390049      -282.7276
  17   2.0000     -10.369719      -282.1744
  18   2.0000     -10.366155      -282.0774
  19   2.0000     -10.359357      -281.8924
  20   2.0000     -10.359109      -281.8857
  21   2.0000     -10.351936      -281.6905
  22   2.0000     -10.351614      -281.6817
  23   2.0000     -10.344377      -281.4848
  24   2.0000     -10.340655      -281.3835
  25   2.0000     -10.340214      -281.3715
  26   2.0000     -10.339977      -281.3651
  27   2.0000     -10.330384      -281.1040
  28   2.0000     -10.329731      -281.0863
  29   2.0000     -10.328921      -281.0642
  30   2.0000     -10.328560      -281.0544
  31   2.0000     -10.322159      -280.8802
  32   2.0000     -10.321471      -280.8615
  33   2.0000     -10.320328      -280.8304
  34   2.0000     -10.318629      -280.7842
  35   2.0000     -10.316436      -280.7245
  36   2.0000     -10.315826      -280.7079
  37   2.0000     -10.315428      -280.6971
  38   2.0000     -10.314291      -280.6661
  39   2.0000     -10.309613      -280.5388
  40   2.0000     -10.307463      -280.4803
  41   2.0000     -10.306793      -280.4621
  42   2.0000     -10.306172      -280.4452
  43   2.0000     -10.304605      -280.4026
  44   2.0000     -10.303493      -280.3723
  45   2.0000     -10.303140      -280.3627
  46   2.0000     -10.301993      -280.3315
  47   2.0000     -10.301085      -280.3068
  48   2.0000     -10.300251      -280.2841
  49   2.0000     -10.299925      -280.2752
  50   2.0000     -10.299068      -280.2519
  51   2.0000     -10.298966      -280.2491
  52   2.0000     -10.298591      -280.2389
  53   2.0000     -10.297961      -280.2218
  54   2.0000     -10.297550      -280.2106
  55   2.0000     -10.296649      -280.1861
  56   2.0000     -10.296299      -280.1766
  57   2.0000     -10.295569      -280.1567
  58   2.0000     -10.295351      -280.1507
  59   2.0000     -10.295211      -280.1469
  60   2.0000     -10.294302      -280.1222
  61   2.0000     -10.290138      -280.0089
  62   2.0000     -10.287650      -279.9412
  63   2.0000     -10.287223      -279.9296
  64   2.0000     -10.287007      -279.9237
  65   2.0000     -10.286913      -279.9211
  66   2.0000     -10.286492      -279.9097
  67   2.0000     -10.285799      -279.8908
  68   2.0000     -10.285116      -279.8722
  69   2.0000     -10.284802      -279.8637
  70   2.0000     -10.284290      -279.8498
  71   2.0000     -10.265698      -279.3439
  72   2.0000     -10.261581      -279.2318
  73   2.0000     -10.260956      -279.2148
  74   2.0000     -10.252056      -278.9726
  75   2.0000      -8.146230      -221.6702
  76   2.0000      -6.117066      -166.4538
  77   2.0000      -6.109665      -166.2524
  78   2.0000      -6.109143      -166.2382
  79   2.0000      -5.373249      -146.2136
  80   2.0000      -5.366745      -146.0366
  81   2.0000      -3.740497      -101.7841
  82   2.0000      -3.733940      -101.6057
  83   2.0000      -3.732162      -101.5573
  84   2.0000      -3.730798      -101.5202
  85   2.0000      -3.725567      -101.3778
  86   2.0000      -3.724284      -101.3429
  87   2.0000      -1.150078       -31.2952
  88   2.0000      -1.133467       -30.8432
  89   2.0000      -1.130034       -30.7498
  90   2.0000      -1.129774       -30.7427
  91   2.0000      -1.057124       -28.7658
  92   2.0000      -1.022149       -27.8141
  93   2.0000      -1.021242       -27.7894
  94   2.0000      -1.018760       -27.7219
  95   2.0000      -1.011411       -27.5219
  96   2.0000      -1.006051       -27.3760
  97   2.0000      -1.000654       -27.2292
  98   2.0000      -0.999759       -27.2048
  99   2.0000      -0.998868       -27.1806
 100   2.0000      -0.996130       -27.1061
 101   2.0000      -0.992810       -27.0157
 102   2.0000      -0.985295       -26.8112
 103   2.0000      -0.977090       -26.5880
 104   2.0000      -0.971627       -26.4393
 105   2.0000      -0.969377       -26.3781
 106   2.0000      -0.931707       -25.3530
 107   2.0000      -0.926229       -25.2040
 108   2.0000      -0.920447       -25.0466
 109   2.0000      -0.917415       -24.9641
 110   2.0000      -0.911768       -24.8105
 111   2.0000      -0.906624       -24.6705
 112   2.0000      -0.900942       -24.5159
 113   2.0000      -0.893824       -24.3222
 114   2.0000      -0.888466       -24.1764
 115   2.0000      -0.882346       -24.0099
 116   2.0000      -0.879757       -23.9394
 117   2.0000      -0.872672       -23.7466
 118   2.0000      -0.852208       -23.1898
 119   2.0000      -0.841860       -22.9082
 120   2.0000      -0.839914       -22.8552
 121   2.0000      -0.829456       -22.5706
 122   2.0000      -0.827232       -22.5101
 123   2.0000      -0.811369       -22.0785
 124   2.0000      -0.803571       -21.8663
 125   2.0000      -0.796602       -21.6767
 126   2.0000      -0.790405       -21.5080
 127   2.0000      -0.777998       -21.1704
 128   2.0000      -0.769060       -20.9272
 129   2.0000      -0.763115       -20.7654
 130   2.0000      -0.761822       -20.7302
 131   2.0000      -0.760381       -20.6910
 132   2.0000      -0.749437       -20.3932
 133   2.0000      -0.733995       -19.9730
 134   2.0000      -0.719673       -19.5833
 135   2.0000      -0.710292       -19.3280
 136   2.0000      -0.707915       -19.2633
 137   2.0000      -0.703857       -19.1529
 138   2.0000      -0.703377       -19.1399
 139   2.0000      -0.698629       -19.0107
 140   2.0000      -0.697059       -18.9679
 141   2.0000      -0.692612       -18.8469
 142   2.0000      -0.678314       -18.4579
 143   2.0000      -0.677365       -18.4320
 144   2.0000      -0.667331       -18.1590
 145   2.0000      -0.663748       -18.0615
 146   2.0000      -0.660742       -17.9797
 147   2.0000      -0.658639       -17.9225
 148   2.0000      -0.646543       -17.5933
 149   2.0000      -0.636217       -17.3123
 150   2.0000      -0.633810       -17.2468
 151   2.0000      -0.632980       -17.2243
 152   2.0000      -0.628548       -17.1037
 153   2.0000      -0.621641       -16.9157
 154   2.0000      -0.611427       -16.6378
 155   2.0000      -0.608510       -16.5584
 156   2.0000      -0.607643       -16.5348
 157   2.0000      -0.604981       -16.4624
 158   2.0000      -0.603357       -16.4182
 159   2.0000      -0.595877       -16.2146
 160   2.0000      -0.593268       -16.1436
 161   2.0000      -0.590296       -16.0628
 162   2.0000      -0.583856       -15.8875
 163   2.0000      -0.574337       -15.6285
 164   2.0000      -0.564879       -15.3711
 165   2.0000      -0.558563       -15.1993
 166   2.0000      -0.554540       -15.0898
 167   2.0000      -0.551879       -15.0174
 168   2.0000      -0.547827       -14.9071
 169   2.0000      -0.547385       -14.8951
 170   2.0000      -0.545386       -14.8407
 171   2.0000      -0.543311       -14.7842
 172   2.0000      -0.537756       -14.6331
 173   2.0000      -0.537512       -14.6264
 174   2.0000      -0.536552       -14.6003
 175   2.0000      -0.533840       -14.5265
 176   2.0000      -0.527107       -14.3433
 177   2.0000      -0.524596       -14.2750
 178   2.0000      -0.523221       -14.2376
 179   2.0000      -0.521370       -14.1872
 180   2.0000      -0.518915       -14.1204
 181   2.0000      -0.517938       -14.0938
 182   2.0000      -0.515761       -14.0346
 183   2.0000      -0.514784       -14.0080
 184   2.0000      -0.512909       -13.9570
 185   2.0000      -0.507045       -13.7974
 186   2.0000      -0.506339       -13.7782
 187   2.0000      -0.504087       -13.7169
 188   2.0000      -0.503181       -13.6923
 189   2.0000      -0.497744       -13.5443
 190   2.0000      -0.496849       -13.5200
 191   2.0000      -0.494511       -13.4563
 192   2.0000      -0.493460       -13.4277
 193   2.0000      -0.489955       -13.3323
 194   2.0000      -0.489050       -13.3077
 195   2.0000      -0.487089       -13.2544
 196   2.0000      -0.484742       -13.1905
 197   2.0000      -0.482170       -13.1205
 198   2.0000      -0.479654       -13.0521
 199   2.0000      -0.473268       -12.8783
 200   2.0000      -0.466564       -12.6959
 201   2.0000      -0.465178       -12.6581
 202   2.0000      -0.462135       -12.5753
 203   2.0000      -0.459874       -12.5138
 204   2.0000      -0.458383       -12.4732
 205   2.0000      -0.457031       -12.4364
 206   2.0000      -0.453333       -12.3358
 207   2.0000      -0.450618       -12.2619
 208   2.0000      -0.450113       -12.2482
 209   2.0000      -0.446939       -12.1618
 210   2.0000      -0.445751       -12.1295
 211   2.0000      -0.443121       -12.0579
 212   2.0000      -0.442792       -12.0490
 213   2.0000      -0.441400       -12.0111
 214   2.0000      -0.439881       -11.9698
 215   2.0000      -0.437315       -11.8999
 216   2.0000      -0.435844       -11.8599
 217   2.0000      -0.432800       -11.7771
 218   2.0000      -0.432508       -11.7691
 219   2.0000      -0.431280       -11.7357
 220   2.0000      -0.430179       -11.7058
 221   2.0000      -0.427691       -11.6381
 222   2.0000      -0.425274       -11.5723
 223   2.0000      -0.423452       -11.5227
 224   2.0000      -0.422641       -11.5007
 225   2.0000      -0.420655       -11.4466
 226   2.0000      -0.418462       -11.3869
 227   2.0000      -0.417316       -11.3557
 228   2.0000      -0.416105       -11.3228
 229   2.0000      -0.412032       -11.2120
 230   2.0000      -0.406920       -11.0729
 231   2.0000      -0.403659       -10.9841
 232   2.0000      -0.397823       -10.8253
 233   2.0000      -0.397410       -10.8141
 234   2.0000      -0.391861       -10.6631
 235   2.0000      -0.388539       -10.5727
 236   2.0000      -0.380564       -10.3557
 237   2.0000      -0.379452       -10.3254
 238   2.0000      -0.378363       -10.2958
 239   2.0000      -0.370277       -10.0758
 240   2.0000      -0.369764       -10.0618
 241   2.0000      -0.364672        -9.9232
 242   2.0000      -0.355535        -9.6746
 243   2.0000      -0.339226        -9.2308
 244   2.0000      -0.338094        -9.2000
 245   2.0000      -0.329359        -8.9623
 246   2.0000      -0.326160        -8.8753
 247   2.0000      -0.316432        -8.6106
 248   2.0000      -0.313415        -8.5284
 249   2.0000      -0.303720        -8.2646
 250   2.0000      -0.293664        -7.9910
 251   2.0000      -0.292176        -7.9505
 252   2.0000      -0.289382        -7.8745
 253   2.0000      -0.282587        -7.6896
 254   2.0000      -0.262260        -7.1365
 255   2.0000      -0.252579        -6.8730
 256   0.0000      -0.133643        -3.6366
 257   0.0000      -0.115515        -3.1433
 258   0.0000      -0.111318        -3.0291
 259   0.0000      -0.081853        -2.2273
 260   0.0000      -0.081274        -2.2116

MULLIKEN ATOMIC CHARGES
-----------------------
   0 C :   -0.014602
   1 C :    0.036778
   2 C :    0.034119
   3 C :   -0.018763
   4 C :    0.095831
   5 C :   -0.087626
   6 C :    0.044171
   7 C :    0.012075
   8 C :   -0.083214
   9 C :    0.093570
  10 C :    0.138630
  11 O :   -0.143165
  12 C :   -0.121904
  13 C :    0.274540
  14 C :   -0.348953
  15 C :   -0.198809
  16 N :    0.170521
  17 C :   -0.180759
  18 N :    0.154459
  19 C :    0.004424
  20 C :    0.095739
  21 C :    0.016214
  22 C :    0.023743
  23 C :    0.031675
  24 C :    0.026395
  25 C :   -0.146491
  26 Si:    0.349365
  27 C :   -0.155610
  28 C :   -0.066612
  29 C :    0.075920
  30 C :   -0.065771
  31 C :   -0.066183
  32 N :    0.063500
  33 C :   -0.141858
  34 C :   -0.137711
  35 N :    0.056359
  36 C :   -0.202509
  37 N :    0.240767
  38 C :   -0.199576
  39 N :    0.241660
  40 C :    0.058794
  41 C :   -0.006133
  42 C :   -0.005929
  43 N :   -0.247884
  44 S :    0.576678
  45 N :   -0.258897
  46 C :    0.015010
  47 C :    0.028472
  48 C :   -0.018657
  49 C :    0.107392
  50 C :   -0.017215
  51 C :   -0.195197
  52 Si:    0.356083
  53 C :   -0.141378
  54 C :    0.015528
  55 C :   -0.025158
  56 C :   -0.051303
  57 C :    0.319983
  58 C :   -0.368214
  59 C :   -0.183377
  60 N :    0.147884
  61 C :   -0.156364
  62 N :    0.138385
  63 C :    0.041341
  64 C :    0.007747
  65 C :   -0.081926
  66 C :    0.098022
  67 C :   -0.015481
  68 C :    0.035515
  69 C :    0.035238
  70 C :   -0.016267
  71 C :    0.093950
  72 C :   -0.078330
  73 C :    0.150994
  74 O :   -0.159056
  75 H :   -0.016834
  76 H :   -0.005476
  77 H :   -0.003956
  78 H :   -0.010665
  79 H :   -0.007600
  80 H :   -0.012309
  81 H :    0.023915
  82 H :    0.001411
  83 H :   -0.010254
  84 H :    0.005364
  85 H :    0.009524
  86 H :   -0.015651
  87 H :    0.010240
  88 H :    0.015359
  89 H :   -0.001961
  90 H :   -0.022806
  91 H :   -0.013978
  92 H :   -0.018037
  93 H :   -0.004613
  94 H :   -0.004551
  95 H :   -0.009152
  96 H :   -0.008561
Sum of atomic charges:   -0.0000000

LOEWDIN ATOMIC CHARGES
----------------------
   0 C :   -0.009285
   1 C :   -0.012999
   2 C :   -0.013136
   3 C :   -0.006807
   4 C :   -0.005731
   5 C :    0.014103
   6 C :   -0.023470
   7 C :   -0.057321
   8 C :    0.032385
   9 C :   -0.009379
  10 C :    0.083633
  11 O :   -0.143329
  12 C :   -0.092504
  13 C :    0.065381
  14 C :   -0.137124
  15 C :   -0.015542
  16 N :   -0.054055
  17 C :   -0.020016
  18 N :   -0.053725
  19 C :    0.072845
  20 C :   -0.030348
  21 C :    0.038201
  22 C :    0.006298
  23 C :    0.022800
  24 C :   -0.000056
  25 C :   -0.196671
  26 Si:    0.431853
  27 C :   -0.220109
  28 C :   -0.008583
  29 C :   -0.001778
  30 C :   -0.008099
  31 C :   -0.005196
  32 N :    0.007544
  33 C :   -0.028209
  34 C :   -0.028260
  35 N :    0.004756
  36 C :   -0.037445
  37 N :   -0.000677
  38 C :   -0.036876
  39 N :    0.000168
  40 C :   -0.006004
  41 C :   -0.044539
  42 C :   -0.039738
  43 N :   -0.265210
  44 S :    0.714270
  45 N :   -0.274867
  46 C :    0.016921
  47 C :    0.002651
  48 C :    0.045565
  49 C :   -0.041481
  50 C :   -0.001463
  51 C :   -0.227559
  52 Si:    0.439330
  53 C :   -0.205826
  54 C :   -0.010659
  55 C :    0.081218
  56 C :   -0.087252
  57 C :    0.079719
  58 C :   -0.143687
  59 C :   -0.016410
  60 N :   -0.055405
  61 C :   -0.016670
  62 N :   -0.053742
  63 C :   -0.027189
  64 C :   -0.054756
  65 C :    0.031943
  66 C :   -0.007959
  67 C :   -0.009798
  68 C :   -0.011952
  69 C :   -0.013530
  70 C :   -0.004841
  71 C :   -0.006164
  72 C :    0.020261
  73 C :    0.087736
  74 O :   -0.143109
  75 H :    0.032085
  76 H :    0.032731
  77 H :    0.033335
  78 H :    0.034286
  79 H :    0.038684
  80 H :    0.039437
  81 H :    0.048096
  82 H :    0.039633
  83 H :    0.033173
  84 H :    0.017060
  85 H :    0.020628
  86 H :    0.032238
  87 H :    0.034458
  88 H :    0.020988
  89 H :    0.016242
  90 H :    0.043538
  91 H :    0.038431
  92 H :    0.031760
  93 H :    0.032889
  94 H :    0.033345
  95 H :    0.034884
  96 H :    0.039031

  Mayer bond orders larger than 0.100000
B(  0-C ,  1-C ) :   1.4873 B(  0-C ,  9-C ) :   1.2464 B(  0-C , 75-H ) :   0.9972
B(  1-C ,  2-C ) :   1.2619 B(  1-C , 76-H ) :   0.9882 B(  2-C ,  3-C ) :   1.4880
B(  2-C , 77-H ) :   0.9891 B(  3-C ,  4-C ) :   1.2415 B(  3-C , 78-H ) :   0.9971
B(  4-C ,  5-C ) :   1.2005 B(  4-C ,  9-C ) :   1.2577 B(  5-C ,  6-C ) :   1.4553
B(  5-C , 79-H ) :   0.9931 B(  6-C ,  7-C ) :   1.2087 B(  6-C , 13-C ) :   1.0110
B(  7-C ,  8-C ) :   1.4770 B(  7-C , 10-C ) :   0.9203 B(  8-C ,  9-C ) :   1.1801
B(  8-C , 80-H ) :   1.0160 B( 10-C , 11-O ) :   2.2678 B( 10-C , 12-C ) :   0.9314
B( 12-C , 13-C ) :   1.0396 B( 12-C , 19-C ) :   1.6511 B( 13-C , 14-C ) :   1.6276
B( 14-C , 15-C ) :   1.1756 B( 14-C , 17-C ) :   1.1368 B( 15-C , 16-N ) :   2.9787
B( 17-C , 18-N ) :   2.9693 B( 19-C , 20-C ) :   1.0925 B( 19-C , 81-H ) :   0.9438
B( 20-C , 21-C ) :   1.4848 B( 20-C , 28-C ) :   1.0706 B( 21-C , 22-C ) :   1.1847
B( 21-C , 82-H ) :   0.9904 B( 22-C , 23-C ) :   1.5532 B( 22-C , 83-H ) :   0.9808
B( 23-C , 24-C ) :   1.1302 B( 23-C , 29-C ) :   1.0049 B( 24-C , 25-C ) :   1.6425
B( 24-C , 26-Si) :   0.1282 B( 24-C , 28-C ) :   1.0172 B( 25-C , 26-Si) :   0.9912
B( 25-C , 84-H ) :   0.9363 B( 26-Si, 27-C ) :   0.9992 B( 26-Si, 28-C ) :   0.1398
B( 27-C , 28-C ) :   1.6783 B( 27-C , 85-H ) :   0.9331 B( 29-C , 30-C ) :   1.3010
B( 29-C , 40-C ) :   0.1419 B( 29-C , 42-C ) :   1.2620 B( 30-C , 31-C ) :   1.0854
B( 30-C , 35-N ) :   1.4305 B( 31-C , 32-N ) :   1.4302 B( 31-C , 40-C ) :   1.3327
B( 32-N , 33-C ) :   1.7623 B( 33-C , 34-C ) :   1.1867 B( 33-C , 38-C ) :   1.1471
B( 34-C , 35-N ) :   1.7548 B( 34-C , 36-C ) :   1.1464 B( 36-C , 37-N ) :   3.0491
B( 38-C , 39-N ) :   3.0497 B( 40-C , 41-C ) :   1.2694 B( 40-C , 46-C ) :   0.9676
B( 41-C , 42-C ) :   1.0993 B( 41-C , 45-N ) :   1.4971 B( 42-C , 43-N ) :   1.4864
B( 43-N , 44-S ) :   1.3115 B( 43-N , 45-N ) :   0.1590 B( 44-S , 45-N ) :   1.3065
B( 46-C , 47-C ) :   1.5388 B( 46-C , 54-C ) :   1.1591 B( 47-C , 48-C ) :   1.1860
B( 47-C , 86-H ) :   0.9877 B( 48-C , 49-C ) :   1.4674 B( 48-C , 87-H ) :   0.9656
B( 49-C , 50-C ) :   1.0512 B( 49-C , 55-C ) :   1.1873 B( 50-C , 51-C ) :   1.6440
B( 50-C , 52-Si) :   0.1381 B( 50-C , 54-C ) :   1.0046 B( 51-C , 52-Si) :   1.0171
B( 51-C , 53-C ) :   0.1123 B( 51-C , 88-H ) :   0.9310 B( 52-Si, 53-C ) :   0.9890
B( 52-Si, 54-C ) :   0.1322 B( 53-C , 54-C ) :   1.6495 B( 53-C , 89-H ) :   0.9266
B( 55-C , 56-C ) :   1.5729 B( 55-C , 90-H ) :   0.9234 B( 56-C , 57-C ) :   1.0800
B( 56-C , 73-C ) :   0.9191 B( 57-C , 58-C ) :   1.6060 B( 57-C , 63-C ) :   0.9830
B( 58-C , 59-C ) :   1.1541 B( 58-C , 61-C ) :   1.1516 B( 59-C , 60-N ) :   2.9590
B( 61-C , 62-N ) :   2.9212 B( 63-C , 64-C ) :   1.2131 B( 63-C , 72-C ) :   1.4483
B( 64-C , 65-C ) :   1.4687 B( 64-C , 73-C ) :   0.9533 B( 65-C , 66-C ) :   1.1786
B( 65-C , 91-H ) :   1.0161 B( 66-C , 67-C ) :   1.2431 B( 66-C , 71-C ) :   1.2543
B( 67-C , 68-C ) :   1.4888 B( 67-C , 92-H ) :   0.9976 B( 68-C , 69-C ) :   1.2594
B( 68-C , 93-H ) :   0.9893 B( 69-C , 70-C ) :   1.4877 B( 69-C , 94-H ) :   0.9888
B( 70-C , 71-C ) :   1.2418 B( 70-C , 95-H ) :   0.9968 B( 71-C , 72-C ) :   1.2086
B( 72-C , 96-H ) :   0.9879 B( 73-C , 74-O ) :   2.1641 B( 74-O , 87-H ) :   0.1019

-----------------------------------------------------------------------------
         ABSORPTION SPECTRUM VIA TRANSITION ELECTRIC DIPOLE MOMENTS
-----------------------------------------------------------------------------
State   Energy  Wavelength   fosc         T2         TX        TY        TZ
        (cm-1)    (nm)                  (au**2)     (au)      (au)      (au)
-----------------------------------------------------------------------------
   0    8719.1   1146.9   0.339612580  12.82292   2.88887  -1.97957  -0.74743
   1    9884.9   1011.6   0.021713329   0.72315   0.47121   0.66708  -0.23689
   2   11519.6    868.1   0.003237477   0.09252   0.05055  -0.02431   0.29896
   3   12398.4    806.6   0.005808103   0.15422  -0.18939   0.32366   0.11662
   4   14934.2    669.6   0.109375423   2.41108  -0.81354  -0.46383  -1.23858
   5   15900.0    628.9   0.099189798   2.05374  -0.46255  -0.83946  -1.06541
   6   17611.3    567.8   0.052335613   0.97832   0.62243  -0.55689  -0.52988
   7   17915.2    558.2   0.158138383   2.90597   1.37950  -0.83318  -0.55567
   8   18663.5    535.8   0.154100851   2.71824   1.09852  -1.19507  -0.28861
   9   18942.0    527.9   0.057017731   0.99097  -0.72008  -0.10110   0.67987
  10   19259.6    519.2   0.019190298   0.32803   0.40943   0.37565   0.13888
  11   19366.9    516.3   0.174661387   2.96901   1.37934  -0.49442  -0.90663
  12   19483.2    513.3   0.099039714   1.67350   0.70029  -1.05396  -0.26880
  13   21066.4    474.7   0.213232675   3.33226   1.39951  -1.16983  -0.07153
  14   22664.4    441.2   0.010765624   0.15638  -0.07024   0.02611  -0.38828
  15   22916.4    436.4   0.007051446   0.10130  -0.10588   0.17525   0.24367
  16   24040.5    416.0   0.023856320   0.32669   0.23211  -0.52134  -0.03193
  17   24782.1    403.5   0.016376370   0.21755  -0.08170   0.12460  -0.44198
  18   25015.3    399.8   0.008667640   0.11407  -0.13313   0.30994   0.01690
  19   25114.3    398.2   0.005108035   0.06696  -0.05369  -0.16248   0.19411
  20   25388.0    393.9   0.004305327   0.05583  -0.13095  -0.04929   0.19040
  21   25419.8    393.4   0.004387335   0.05682  -0.08590   0.21891  -0.03896
  22   25861.1    386.7   0.031381925   0.39949  -0.59134   0.00505   0.22312
  23   25918.1    385.8   0.022066382   0.28029  -0.40816   0.13319   0.30976
  24   26252.1    380.9   0.028403381   0.35619   0.13445   0.48634   0.31873
  25   26376.5    379.1   0.052765442   0.65858  -0.75399   0.29991   0.01146
  26   26564.5    376.4   0.009492198   0.11764   0.32890   0.00062   0.09725
  27   26732.1    374.1   0.007713887   0.09500   0.06490   0.15657   0.25744
  28   26950.8    371.0   0.004514140   0.05514  -0.05594  -0.17867  -0.14174
  29   26975.2    370.7   0.009680416   0.11814   0.12663   0.27124   0.16892
  30   27446.7    364.3   0.030960469   0.37136   0.51353  -0.22461  -0.23916
  31   27479.2    363.9   0.001015263   0.01216  -0.10840   0.01467  -0.01408
  32   27760.0    360.2   0.092401732   1.09581  -0.71309   0.15475   0.75058
  33   27938.2    357.9   0.003868731   0.04559   0.01478   0.20091  -0.07074
  34   28275.5    353.7   0.140314463   1.63369  -0.52287   1.02716   0.55248
  35   28367.9    352.5   0.003517744   0.04082  -0.13720  -0.03562  -0.14398
  36   29142.9    343.1   0.073090156   0.82566  -0.08467   0.36947   0.82583
  37   29323.2    341.0   0.029658302   0.33297   0.46450  -0.33919  -0.04647
  38   29404.4    340.1   0.063820882   0.71454   0.28030  -0.68879  -0.40192
  39   29719.6    336.5   0.007974760   0.08834   0.11364  -0.24458   0.12491
  40   30033.6    333.0   0.018877144   0.20692   0.17390  -0.40062  -0.12722
  41   30331.2    329.7   0.020784817   0.22560   0.16012   0.44664   0.02175
  42   30580.9    327.0   0.340256482   3.66295  -0.71535  -0.30997   1.74790
  43   30910.2    323.5   0.099476004   1.05948   0.32411   0.24568   0.94555
  44   31185.6    320.7   0.037069584   0.39133  -0.00337  -0.44758  -0.43702
  45   31471.9    317.7   0.023818611   0.24915  -0.10757  -0.42834   0.23261
  46   31563.7    316.8   0.370350861   3.86279  -1.14988   0.90015   1.31541
  47   31739.3    315.1   0.017480028   0.18131  -0.19418   0.33227   0.18222
  48   32252.3    310.1   0.072780914   0.74290   0.71282  -0.47599   0.09066
  49   32897.2    304.0   0.068889844   0.68940   0.31803   0.51393   0.56933
  50   33204.3    301.2   0.006279888   0.06226  -0.23279   0.08984   0.00005
  51   33267.8    300.6   0.011905456   0.11781  -0.24685   0.19977   0.13026
  52   33427.8    299.2   0.095834016   0.94382  -0.67149   0.68431  -0.15698
  53   33565.9    297.9   0.041155076   0.40365  -0.47708   0.23703   0.34620
  54   33605.1    297.6   0.062740388   0.61464   0.60639  -0.19608  -0.45659
  55   33777.4    296.1   0.014796988   0.14422  -0.07155  -0.16054   0.33664
  56   33862.9    295.3   0.016802728   0.16335  -0.28186   0.28938   0.01301
  57   33951.1    294.5   0.049345654   0.47849  -0.27912   0.63290  -0.00418
  58   34011.4    294.0   0.047348555   0.45831  -0.43962   0.43004   0.28304
  59   34511.5    289.8   0.160083288   1.52707  -1.04637   0.65712   0.01952
  60   34679.4    288.4   0.057094117   0.54200  -0.63452   0.36994   0.05020
  61   34739.8    287.9   0.018775595   0.17793  -0.07516   0.18178   0.37314
  62   34872.7    286.8   0.008133418   0.07678   0.07910  -0.07878   0.25361
  63   34978.6    285.9   0.001580459   0.01487  -0.11637  -0.02781   0.02366
  64   35095.5    284.9   0.030377792   0.28496  -0.32678  -0.08031   0.41439
  65   35168.6    284.3   0.123185162   1.15313  -0.60476   0.62711   0.62780
  66   35298.5    283.3   0.023290173   0.21722   0.46015   0.00583   0.07380
  67   35369.1    282.7   0.068288780   0.63562   0.55830  -0.17018  -0.54311
  68   35513.7    281.6   0.189966806   1.76099  -0.56795   1.02430   0.62390
  69   35676.5    280.3   0.043951295   0.40557   0.26969   0.26158   0.51421
  70   35725.8    279.9   0.109743596   1.01128   0.89854   0.28082   0.35362
  71   35761.6    279.6   0.119671170   1.10166   0.36231   0.66027   0.73105
  72   35860.3    278.9   0.005050035   0.04636  -0.09755   0.19168  -0.01030
  73   35940.9    278.2   0.018166275   0.16640  -0.10215   0.28759   0.27066
  74   36068.7    277.2   0.130585150   1.19190   0.35814   0.67243   0.78197
  75   36355.2    275.1   0.214750304   1.94466  -1.24818   0.31416   0.53666
  76   36384.5    274.8   0.058874719   0.53271  -0.65692   0.27864   0.15338
  77   36602.1    273.2   0.041971512   0.37751   0.19321  -0.42361  -0.40091
  78   36677.0    272.7   0.018679144   0.16766  -0.24524   0.27277   0.18199
  79   36840.0    271.4   0.011813611   0.10557   0.21308   0.14014   0.20132
  80   37018.4    270.1   0.176297299   1.56785  -0.62489   0.62752   0.88520
  81   37064.0    269.8   0.086967570   0.77247   0.61116  -0.45091  -0.44230
  82   37241.3    268.5   0.301858033   2.66842  -0.31553  -0.41796  -1.54731
  83   37322.8    267.9   0.004943627   0.04361  -0.03503  -0.13174  -0.15819
  84   37393.3    267.4   0.067483072   0.59412   0.11974  -0.07013  -0.75820
  85   37518.5    266.5   0.079252852   0.69542   0.27936   0.04886  -0.78421
  86   37714.1    265.2   0.019314310   0.16860  -0.10679  -0.04554   0.39385
  87   37786.1    264.6   0.102531795   0.89331   0.54934  -0.13440  -0.75728
  88   38029.6    263.0   0.115604649   1.00076  -0.45711  -0.51214   0.72768
  89   38280.3    261.2   0.199064010   1.71196   0.53025   0.44590  -1.10994
  90   38637.8    258.8   0.001860460   0.01585  -0.09298  -0.08134  -0.02430
  91   38764.1    258.0   0.377119564   3.20276   0.50490  -0.83075   1.50256
  92   38873.7    257.2   0.094474509   0.80008  -0.32753   0.34984  -0.75526
  93   39407.6    253.8   0.064912568   0.54228  -0.14959   0.18726   0.69630
  94   39560.6    252.8   0.089879083   0.74795  -0.65885   0.48409   0.28200
  95   39627.0    252.4   0.025763150   0.21403   0.42949   0.02552  -0.17007
  96   39655.5    252.2   0.020930152   0.17376   0.09252  -0.37481  -0.15721
  97   39721.8    251.8   0.046833926   0.38816  -0.16755   0.42685  -0.42176
  98   39803.3    251.2   0.046572885   0.38520   0.12959  -0.28947   0.53349
  99   39907.9    250.6   0.010376172   0.08560  -0.21673  -0.19599   0.01454
 100   40097.7    249.4   0.019322899   0.15865   0.04623   0.24914  -0.30731
 101   40181.1    248.9   0.092943759   0.76151   0.25351  -0.73720  -0.39215

FINAL SINGLE POINT ENERGY     -3970.297061927170

DIPOLE MOMENT
-------------
                                X             Y             Z
Electronic contribution:     11.87872      12.21384       1.81645
Nuclear contribution   :    -14.68786     -12.18182      -1.02649
                        -----------------------------------------
Total Dipole Moment    :     -2.80914       0.03202       0.78996
                        -----------------------------------------
Magnitude (a.u.)       :      2.91827
Magnitude (Debye)      :      7.41766

Rotational constants in cm-1:     0.002134     0.000277     0.000266
Rotational constants in MHz :    63.963635     8.318551     7.977785

                             ****ORCA TERMINATED NORMALLY****
TOTAL RUN TIME: 0 days 0 hours 13 minutes 50 seconds 678 msec
