                         Program Version 4.2.0 -  RELEASE  -
|  1> # ORCA input file
|  2> # SCF done       -162.983693749209          0.000519039329
|  3> ! CAM-B3LYP def2-SVP def2/J RIJCOSX Grid4 TightSCF
|  4> %maxcore 5000
|  5> %tddft
|  6>     Mode sTDDFT
|  7>     Ethresh 5.0
|  8>     maxcore 5000
|  9> end
| 10>
| 11> %pal
| 12>   nprocs 6
| 13>   end
| 14> * xyz 0 1
| 15>    C       -1.94537         2.30307         0.24686
| 16>    C       -2.48065         2.38838         1.52554
| 17>    C       -1.99632         1.59697         2.55890
| 18>    C       -0.96436         0.72016         2.27882
| 19>    C       -0.42444         0.63489         0.98943
| 20>    C       -0.90893         1.42383        -0.03768
| 21>    C        0.66272        -0.37220         0.95203
| 22>    O        1.31714        -0.67295        -0.02350
| 23>    C        0.75447        -0.90783         2.32517
| 24>    C       -0.26407        -0.23020         3.16919
| 25>    O       -0.46539        -0.42906         4.34647
| 26>    C        1.55203        -1.85426         2.88746
| 27>    C        2.58856        -2.64122         2.33766
| 28>    C        3.14278        -2.67510         1.06628
| 29>    C        4.16121        -3.61680         0.96495
| 30>    C        4.38862        -4.31536         2.17043
| 31>    S        3.35746        -3.80698         3.42108
| 32>    C        5.43049        -5.25126         1.96101
| 33>    C        5.86567        -5.14973         0.62651
| 34>    C        5.08731        -4.11407        -0.04083
| 35>    C        5.21926        -3.69919        -1.33160
| 36>    C        6.16859        -4.26986        -2.20836
| 37>    N        6.93732        -4.72045        -2.92949
| 38>    C        4.43829        -2.67012        -1.90425
| 39>    N        3.83423        -1.83652        -2.40718
| 40>    C        6.89378        -6.03930         0.32499
| 41>    C        7.23913        -6.81054         1.42310
| 42>    S        6.28681        -6.43665         2.84232
| 43>    C        8.24495        -7.80624         1.45585
| 44>    N        8.96074        -8.13421         0.41993
| 45>    C        9.83184        -9.09104         0.72989
| 46>    C        9.81828        -9.54822         2.06101
| 47>    S        8.62034        -8.70291         2.95336
| 48>    N       10.69221       -10.50292         2.37081
| 49>    C       11.40629       -10.82945         1.33250
| 50>    S       11.02895        -9.93767        -0.16502
| 51>    C       12.42128       -11.81345         1.35437
| 52>    C       13.21575       -12.23914         0.30446
| 53>    C       14.11238       -13.22577         0.70844
| 54>    C       13.99163       -13.54383         2.07429
| 55>    S       12.77663       -12.63493         2.85889
| 56>    C       14.94405       -14.54549         2.38744
| 57>    C       15.66962       -14.86207         1.21865
| 58>    C       15.16355       -14.04762         0.12463
| 59>    C       15.56753       -14.04998        -1.17667
| 60>    C       16.58662       -14.89030        -1.67804
| 61>    N       17.40095       -15.55793        -2.12961
| 62>    C       14.97784       -13.20122        -2.13929
| 63>    N       14.50285       -12.51418        -2.92449
| 64>    C       16.64285       -15.83314         1.42801
| 65>    C       16.66987       -16.26786         2.74526
| 66>    S       15.45523       -15.44717         3.73294
| 67>    C       17.47831       -17.22410         3.39955
| 68>    C       18.50508       -17.98897         2.94250
| 69>    C       19.17826       -18.92558         3.87982
| 70>    O       18.89826       -19.09652         5.04533
| 71>    C       20.24299       -19.58986         3.09778
| 72>    C       21.16134       -20.54650         3.48975
| 73>    C       22.06821       -21.00843         2.54480
| 74>    C       22.05488       -20.52468         1.24301
| 75>    C       21.13392       -19.56421         0.84612
| 76>    C       20.22956       -19.10270         1.78487
| 77>    C       19.15714       -18.09230         1.62157
| 78>    O       18.89976       -17.49083         0.60057
| 79>    H       -2.34220         2.93078        -0.53721
| 80>    H       -3.28636         3.08128         1.71807
| 81>    H       -2.40658         1.65653         3.55527
| 82>    H       -0.48531         1.34937        -1.02745
| 83>    H        1.35231        -2.03338         3.94188
| 84>    H        2.79609        -2.03396         0.27386
| 85>    H        7.38618        -6.14781        -0.62341
| 86>    H       13.12958       -11.83921        -0.68975
| 87>    H       17.31548       -16.22241         0.68288
| 88>    H       17.24543       -17.37657         4.45133
| 89>    H       21.16484       -20.91665         4.50345
| 90>    H       22.79588       -21.75543         2.82556
| 91>    H       22.77234       -20.90211         0.52955
| 92>    H       21.11441       -19.18125        -0.16264
| 93> *
| 94>
| 95>                          ****END OF INPUT****

CARTESIAN COORDINATES (ANGSTROEM)
---------------------------------
  C     -1.945370    2.303070    0.246860
  C     -2.480650    2.388380    1.525540
  C     -1.996320    1.596970    2.558900
  C     -0.964360    0.720160    2.278820
  C     -0.424440    0.634890    0.989430
  C     -0.908930    1.423830   -0.037680
  C      0.662720   -0.372200    0.952030
  O      1.317140   -0.672950   -0.023500
  C      0.754470   -0.907830    2.325170
  C     -0.264070   -0.230200    3.169190
  O     -0.465390   -0.429060    4.346470
  C      1.552030   -1.854260    2.887460
  C      2.588560   -2.641220    2.337660
  C      3.142780   -2.675100    1.066280
  C      4.161210   -3.616800    0.964950
  C      4.388620   -4.315360    2.170430
  S      3.357460   -3.806980    3.421080
  C      5.430490   -5.251260    1.961010
  C      5.865670   -5.149730    0.626510
  C      5.087310   -4.114070   -0.040830
  C      5.219260   -3.699190   -1.331600
  C      6.168590   -4.269860   -2.208360
  N      6.937320   -4.720450   -2.929490
  C      4.438290   -2.670120   -1.904250
  N      3.834230   -1.836520   -2.407180
  C      6.893780   -6.039300    0.324990
  C      7.239130   -6.810540    1.423100
  S      6.286810   -6.436650    2.842320
  C      8.244950   -7.806240    1.455850
  N      8.960740   -8.134210    0.419930
  C      9.831840   -9.091040    0.729890
  C      9.818280   -9.548220    2.061010
  S      8.620340   -8.702910    2.953360
  N     10.692210  -10.502920    2.370810
  C     11.406290  -10.829450    1.332500
  S     11.028950   -9.937670   -0.165020
  C     12.421280  -11.813450    1.354370
  C     13.215750  -12.239140    0.304460
  C     14.112380  -13.225770    0.708440
  C     13.991630  -13.543830    2.074290
  S     12.776630  -12.634930    2.858890
  C     14.944050  -14.545490    2.387440
  C     15.669620  -14.862070    1.218650
  C     15.163550  -14.047620    0.124630
  C     15.567530  -14.049980   -1.176670
  C     16.586620  -14.890300   -1.678040
  N     17.400950  -15.557930   -2.129610
  C     14.977840  -13.201220   -2.139290
  N     14.502850  -12.514180   -2.924490
  C     16.642850  -15.833140    1.428010
  C     16.669870  -16.267860    2.745260
  S     15.455230  -15.447170    3.732940
  C     17.478310  -17.224100    3.399550
  C     18.505080  -17.988970    2.942500
  C     19.178260  -18.925580    3.879820
  O     18.898260  -19.096520    5.045330
  C     20.242990  -19.589860    3.097780
  C     21.161340  -20.546500    3.489750
  C     22.068210  -21.008430    2.544800
  C     22.054880  -20.524680    1.243010
  C     21.133920  -19.564210    0.846120
  C     20.229560  -19.102700    1.784870
  C     19.157140  -18.092300    1.621570
  O     18.899760  -17.490830    0.600570
  H     -2.342200    2.930780   -0.537210
  H     -3.286360    3.081280    1.718070
  H     -2.406580    1.656530    3.555270
  H     -0.485310    1.349370   -1.027450
  H      1.352310   -2.033380    3.941880
  H      2.796090   -2.033960    0.273860
  H      7.386180   -6.147810   -0.623410
  H     13.129580  -11.839210   -0.689750
  H     17.315480  -16.222410    0.682880
  H     17.245430  -17.376570    4.451330
  H     21.164840  -20.916650    4.503450
  H     22.795880  -21.755430    2.825560
  H     22.772340  -20.902110    0.529550
  H     21.114410  -19.181250   -0.162640

 Total Charge           Charge          ....    0
 Multiplicity           Mult            ....    1
 Number of Electrons    NEL             ....  472
 Basis Dimension        Dim             ....  990

ORBITAL ENERGIES
----------------

  NO   OCC          E(Eh)            E(eV)
   0   2.0000     -89.000751     -2421.8335
   1   2.0000     -88.997006     -2421.7317
   2   2.0000     -88.994355     -2421.6595
   3   2.0000     -88.994022     -2421.6505
   4   2.0000     -88.983481     -2421.3636
   5   2.0000     -88.982129     -2421.3268
   6   2.0000     -19.213595      -522.8285
   7   2.0000     -19.213421      -522.8238
   8   2.0000     -19.208713      -522.6957
   9   2.0000     -19.208436      -522.6881
  10   2.0000     -14.437188      -392.8559
  11   2.0000     -14.435258      -392.8033
  12   2.0000     -14.432275      -392.7222
  13   2.0000     -14.430730      -392.6801
  14   2.0000     -14.427401      -392.5895
  15   2.0000     -14.427227      -392.5848
  16   2.0000     -10.368090      -282.1301
  17   2.0000     -10.367674      -282.1188
  18   2.0000     -10.365366      -282.0559
  19   2.0000     -10.364888      -282.0429
  20   2.0000     -10.364691      -282.0376
  21   2.0000     -10.364473      -282.0316
  22   2.0000     -10.358844      -281.8785
  23   2.0000     -10.358608      -281.8720
  24   2.0000     -10.354092      -281.7492
  25   2.0000     -10.353828      -281.7420
  26   2.0000     -10.343768      -281.4682
  27   2.0000     -10.343028      -281.4481
  28   2.0000     -10.342979      -281.4468
  29   2.0000     -10.342384      -281.4306
  30   2.0000     -10.340587      -281.3817
  31   2.0000     -10.338327      -281.3202
  32   2.0000     -10.334555      -281.2175
  33   2.0000     -10.334213      -281.2082
  34   2.0000     -10.332266      -281.1553
  35   2.0000     -10.330304      -281.1019
  36   2.0000     -10.326109      -280.9877
  37   2.0000     -10.326078      -280.9869
  38   2.0000     -10.325468      -280.9703
  39   2.0000     -10.325067      -280.9594
  40   2.0000     -10.318681      -280.7856
  41   2.0000     -10.318404      -280.7781
  42   2.0000     -10.312916      -280.6287
  43   2.0000     -10.312418      -280.6152
  44   2.0000     -10.311934      -280.6020
  45   2.0000     -10.308636      -280.5122
  46   2.0000     -10.307685      -280.4864
  47   2.0000     -10.307288      -280.4756
  48   2.0000     -10.301788      -280.3259
  49   2.0000     -10.301478      -280.3175
  50   2.0000     -10.289765      -279.9987
  51   2.0000     -10.289577      -279.9936
  52   2.0000     -10.289331      -279.9869
  53   2.0000     -10.289163      -279.9824
  54   2.0000     -10.289074      -279.9799
  55   2.0000     -10.288896      -279.9751
  56   2.0000     -10.288330      -279.9597
  57   2.0000     -10.288189      -279.9559
  58   2.0000     -10.285833      -279.8917
  59   2.0000     -10.285631      -279.8863
  60   2.0000     -10.285432      -279.8808
  61   2.0000     -10.285252      -279.8759
  62   2.0000     -10.281214      -279.7661
  63   2.0000     -10.280949      -279.7589
  64   2.0000      -8.095520      -220.2903
  65   2.0000      -8.091249      -220.1741
  66   2.0000      -8.089265      -220.1201
  67   2.0000      -8.088907      -220.1104
  68   2.0000      -8.079538      -219.8554
  69   2.0000      -8.077849      -219.8094
  70   2.0000      -6.064763      -165.0306
  71   2.0000      -6.060641      -164.9184
  72   2.0000      -6.060546      -164.9158
  73   2.0000      -6.058356      -164.8563
  74   2.0000      -6.057964      -164.8456
  75   2.0000      -6.057813      -164.8415
  76   2.0000      -6.056286      -164.7999
  77   2.0000      -6.054242      -164.7443
  78   2.0000      -6.053888      -164.7347
  79   2.0000      -6.053570      -164.7260
  80   2.0000      -6.051811      -164.6781
  81   2.0000      -6.051488      -164.6694
  82   2.0000      -6.048723      -164.5941
  83   2.0000      -6.047023      -164.5479
  84   2.0000      -6.045045      -164.4940
  85   2.0000      -6.043371      -164.4485
  86   2.0000      -6.041208      -164.3896
  87   2.0000      -6.039512      -164.3435
  88   2.0000      -1.129294       -30.7297
  89   2.0000      -1.129091       -30.7241
  90   2.0000      -1.121981       -30.5307
  91   2.0000      -1.121737       -30.5240
  92   2.0000      -1.108732       -30.1701
  93   2.0000      -1.069961       -29.1151
  94   2.0000      -1.049904       -28.5693
  95   2.0000      -1.048566       -28.5329
  96   2.0000      -1.022730       -27.8299
  97   2.0000      -1.021981       -27.8095
  98   2.0000      -1.006704       -27.3938
  99   2.0000      -1.006228       -27.3809
 100   2.0000      -1.003682       -27.3116
 101   2.0000      -1.002059       -27.2674
 102   2.0000      -0.977931       -26.6108
 103   2.0000      -0.977728       -26.6053
 104   2.0000      -0.963987       -26.2314
 105   2.0000      -0.962979       -26.2040
 106   2.0000      -0.932945       -25.3867
 107   2.0000      -0.928389       -25.2628
 108   2.0000      -0.925572       -25.1861
 109   2.0000      -0.915167       -24.9030
 110   2.0000      -0.910298       -24.7705
 111   2.0000      -0.897079       -24.4108
 112   2.0000      -0.880384       -23.9565
 113   2.0000      -0.878808       -23.9136
 114   2.0000      -0.877067       -23.8662
 115   2.0000      -0.867824       -23.6147
 116   2.0000      -0.860928       -23.4270
 117   2.0000      -0.859272       -23.3820
 118   2.0000      -0.852684       -23.2027
 119   2.0000      -0.852493       -23.1975
 120   2.0000      -0.847377       -23.0583
 121   2.0000      -0.823626       -22.4120
 122   2.0000      -0.801745       -21.8166
 123   2.0000      -0.793547       -21.5935
 124   2.0000      -0.780618       -21.2417
 125   2.0000      -0.776626       -21.1331
 126   2.0000      -0.759177       -20.6583
 127   2.0000      -0.741636       -20.1809
 128   2.0000      -0.733704       -19.9651
 129   2.0000      -0.733326       -19.9548
 130   2.0000      -0.716594       -19.4995
 131   2.0000      -0.710517       -19.3342
 132   2.0000      -0.706007       -19.2114
 133   2.0000      -0.699383       -19.0312
 134   2.0000      -0.688624       -18.7384
 135   2.0000      -0.685409       -18.6509
 136   2.0000      -0.683577       -18.6011
 137   2.0000      -0.675824       -18.3901
 138   2.0000      -0.669052       -18.2058
 139   2.0000      -0.663369       -18.0512
 140   2.0000      -0.654981       -17.8229
 141   2.0000      -0.651092       -17.7171
 142   2.0000      -0.650154       -17.6916
 143   2.0000      -0.633018       -17.2253
 144   2.0000      -0.631063       -17.1721
 145   2.0000      -0.627148       -17.0656
 146   2.0000      -0.619681       -16.8624
 147   2.0000      -0.618749       -16.8370
 148   2.0000      -0.613242       -16.6872
 149   2.0000      -0.609590       -16.5878
 150   2.0000      -0.596175       -16.2227
 151   2.0000      -0.584701       -15.9105
 152   2.0000      -0.581704       -15.8290
 153   2.0000      -0.573710       -15.6114
 154   2.0000      -0.569849       -15.5064
 155   2.0000      -0.562288       -15.3006
 156   2.0000      -0.562141       -15.2966
 157   2.0000      -0.557495       -15.1702
 158   2.0000      -0.552773       -15.0417
 159   2.0000      -0.552142       -15.0245
 160   2.0000      -0.548790       -14.9333
 161   2.0000      -0.546709       -14.8767
 162   2.0000      -0.537312       -14.6210
 163   2.0000      -0.532808       -14.4984
 164   2.0000      -0.530332       -14.4311
 165   2.0000      -0.530042       -14.4232
 166   2.0000      -0.529467       -14.4075
 167   2.0000      -0.529171       -14.3995
 168   2.0000      -0.525378       -14.2963
 169   2.0000      -0.523393       -14.2423
 170   2.0000      -0.517419       -14.0797
 171   2.0000      -0.514656       -14.0045
 172   2.0000      -0.514289       -13.9945
 173   2.0000      -0.512719       -13.9518
 174   2.0000      -0.509628       -13.8677
 175   2.0000      -0.508685       -13.8420
 176   2.0000      -0.505798       -13.7635
 177   2.0000      -0.505754       -13.7623
 178   2.0000      -0.504490       -13.7279
 179   2.0000      -0.502512       -13.6740
 180   2.0000      -0.495825       -13.4921
 181   2.0000      -0.493462       -13.4278
 182   2.0000      -0.489065       -13.3081
 183   2.0000      -0.483467       -13.1558
 184   2.0000      -0.481425       -13.1002
 185   2.0000      -0.471636       -12.8339
 186   2.0000      -0.471081       -12.8188
 187   2.0000      -0.470192       -12.7946
 188   2.0000      -0.469689       -12.7809
 189   2.0000      -0.469577       -12.7778
 190   2.0000      -0.461655       -12.5623
 191   2.0000      -0.459903       -12.5146
 192   2.0000      -0.459757       -12.5106
 193   2.0000      -0.457322       -12.4444
 194   2.0000      -0.455162       -12.3856
 195   2.0000      -0.455036       -12.3821
 196   2.0000      -0.453253       -12.3336
 197   2.0000      -0.451806       -12.2943
 198   2.0000      -0.451058       -12.2739
 199   2.0000      -0.450449       -12.2573
 200   2.0000      -0.446839       -12.1591
 201   2.0000      -0.445585       -12.1250
 202   2.0000      -0.439265       -11.9530
 203   2.0000      -0.439144       -11.9497
 204   2.0000      -0.438201       -11.9240
 205   2.0000      -0.438132       -11.9222
 206   2.0000      -0.437932       -11.9167
 207   2.0000      -0.437759       -11.9120
 208   2.0000      -0.434906       -11.8344
 209   2.0000      -0.427668       -11.6374
 210   2.0000      -0.424743       -11.5579
 211   2.0000      -0.424053       -11.5391
 212   2.0000      -0.418697       -11.3933
 213   2.0000      -0.407559       -11.0903
 214   2.0000      -0.398800       -10.8519
 215   2.0000      -0.395527       -10.7628
 216   2.0000      -0.391371       -10.6497
 217   2.0000      -0.371044       -10.0966
 218   2.0000      -0.361569        -9.8388
 219   2.0000      -0.356403        -9.6982
 220   2.0000      -0.354351        -9.6424
 221   2.0000      -0.348483        -9.4827
 222   2.0000      -0.348259        -9.4766
 223   2.0000      -0.347808        -9.4643
 224   2.0000      -0.340640        -9.2693
 225   2.0000      -0.337861        -9.1937
 226   2.0000      -0.337137        -9.1740
 227   2.0000      -0.336949        -9.1689
 228   2.0000      -0.335561        -9.1311
 229   2.0000      -0.326166        -8.8754
 230   2.0000      -0.324371        -8.8266
 231   2.0000      -0.321404        -8.7458
 232   2.0000      -0.321182        -8.7398
 233   2.0000      -0.308415        -8.3924
 234   2.0000      -0.278140        -7.5686
 235   2.0000      -0.251906        -6.8547
 236   0.0000      -0.114503        -3.1158
 237   0.0000      -0.108517        -2.9529
 238   0.0000      -0.077913        -2.1201
 239   0.0000      -0.070763        -1.9256
 240   0.0000      -0.052086        -1.4173

MULLIKEN ATOMIC CHARGES
-----------------------
   0 C :    0.040043
   1 C :    0.037243
   2 C :   -0.020561
   3 C :    0.013511
   4 C :   -0.013523
   5 C :   -0.020406
   6 C :    0.189297
   7 O :   -0.148874
   8 C :   -0.169310
   9 C :    0.142064
  10 O :   -0.152037
  11 C :    0.054603
  12 C :   -0.105747
  13 C :   -0.011400
  14 C :    0.001852
  15 C :   -0.086664
  16 S :    0.196458
  17 C :   -0.098278
  18 C :    0.013913
  19 C :    0.306932
  20 C :   -0.294578
  21 C :   -0.196352
  22 N :    0.183013
  23 C :   -0.196618
  24 N :    0.202206
  25 C :   -0.035438
  26 C :   -0.035429
  27 S :    0.200973
  28 C :   -0.109274
  29 N :   -0.020999
  30 C :   -0.051404
  31 C :   -0.058134
  32 S :    0.125244
  33 N :   -0.043156
  34 C :   -0.105090
  35 S :    0.143840
  36 C :   -0.046145
  37 C :   -0.050423
  38 C :    0.014566
  39 C :   -0.107752
  40 S :    0.251910
  41 C :   -0.090085
  42 C :    0.000828
  43 C :    0.309388
  44 C :   -0.295215
  45 C :   -0.196318
  46 N :    0.200682
  47 C :   -0.194186
  48 N :    0.175527
  49 C :   -0.011561
  50 C :   -0.107015
  51 S :    0.198653
  52 C :    0.055982
  53 C :   -0.170816
  54 C :    0.142654
  55 O :   -0.151976
  56 C :    0.013681
  57 C :   -0.021019
  58 C :    0.038437
  59 C :    0.039353
  60 C :   -0.021025
  61 C :   -0.013207
  62 C :    0.189182
  63 O :   -0.148617
  64 H :   -0.000310
  65 H :   -0.000923
  66 H :   -0.006626
  67 H :   -0.000952
  68 H :    0.010980
  69 H :    0.033989
  70 H :    0.024735
  71 H :    0.019301
  72 H :    0.034538
  73 H :    0.011116
  74 H :   -0.006459
  75 H :   -0.001390
  76 H :   -0.000315
  77 H :   -0.001091
Sum of atomic charges:   -0.0000000

LOEWDIN ATOMIC CHARGES
----------------------
   0 C :   -0.002904
   1 C :   -0.003717
   2 C :    0.009744
   3 C :   -0.046152
   4 C :   -0.042800
   5 C :    0.011296
   6 C :    0.082862
   7 O :   -0.136276
   8 C :   -0.126430
   9 C :    0.078273
  10 O :   -0.149190
  11 C :    0.046089
  12 C :   -0.176745
  13 C :    0.010943
  14 C :   -0.071656
  15 C :   -0.169213
  16 S :    0.486396
  17 C :   -0.182461
  18 C :   -0.057565
  19 C :    0.073480
  20 C :   -0.089045
  21 C :   -0.017712
  22 N :   -0.024691
  23 C :   -0.024365
  24 N :   -0.010384
  25 C :   -0.000776
  26 C :   -0.194724
  27 S :    0.478619
  28 C :   -0.132795
  29 N :   -0.092356
  30 C :   -0.207513
  31 C :   -0.210529
  32 S :    0.402456
  33 N :   -0.109369
  34 C :   -0.133905
  35 S :    0.428403
  36 C :   -0.191943
  37 C :   -0.024923
  38 C :   -0.060179
  39 C :   -0.182732
  40 S :    0.514827
  41 C :   -0.168666
  42 C :   -0.072021
  43 C :    0.075042
  44 C :   -0.092688
  45 C :   -0.024874
  46 N :   -0.011104
  47 C :   -0.015792
  48 N :   -0.030505
  49 C :    0.010814
  50 C :   -0.177025
  51 S :    0.488633
  52 C :    0.046338
  53 C :   -0.126649
  54 C :    0.078270
  55 O :   -0.149139
  56 C :   -0.046106
  57 C :    0.009713
  58 C :   -0.003711
  59 C :   -0.003061
  60 C :    0.011237
  61 C :   -0.042792
  62 C :    0.082893
  63 O :   -0.136445
  64 H :    0.033934
  65 H :    0.033543
  66 H :    0.038081
  67 H :    0.039850
  68 H :    0.041292
  69 H :    0.042882
  70 H :    0.048979
  71 H :    0.039153
  72 H :    0.042886
  73 H :    0.041384
  74 H :    0.038118
  75 H :    0.033472
  76 H :    0.033921
  77 H :    0.039809

  Mayer bond orders larger than 0.100000
B(  0-C ,  1-C ) :   1.3790 B(  0-C ,  5-C ) :   1.3558 B(  0-C , 64-H ) :   0.9887
B(  1-C ,  2-C ) :   1.3590 B(  1-C , 65-H ) :   0.9891 B(  2-C ,  3-C ) :   1.3859
B(  2-C , 66-H ) :   1.0047 B(  3-C ,  4-C ) :   1.3496 B(  3-C ,  9-C ) :   0.9172
B(  4-C ,  5-C ) :   1.3872 B(  4-C ,  6-C ) :   0.9437 B(  5-C , 67-H ) :   1.0049
B(  6-C ,  7-O ) :   2.1574 B(  6-C ,  8-C ) :   0.9453 B(  7-O , 69-H ) :   0.1069
B(  8-C ,  9-C ) :   0.9627 B(  8-C , 11-C ) :   1.6912 B(  9-C , 10-O ) :   2.2454
B( 11-C , 12-C ) :   1.1319 B( 11-C , 68-H ) :   0.9293 B( 12-C , 13-C ) :   1.4315
B( 12-C , 16-S ) :   1.0795 B( 13-C , 14-C ) :   1.2871 B( 13-C , 69-H ) :   0.9677
B( 14-C , 15-C ) :   1.4004 B( 14-C , 19-C ) :   1.0001 B( 15-C , 16-S ) :   1.1564
B( 15-C , 17-C ) :   1.1974 B( 17-C , 18-C ) :   1.4311 B( 17-C , 27-S ) :   1.1268
B( 18-C , 19-C ) :   0.9859 B( 18-C , 25-C ) :   1.2765 B( 19-C , 20-C ) :   1.7205
B( 20-C , 21-C ) :   1.1362 B( 20-C , 23-C ) :   1.1352 B( 21-C , 22-N ) :   2.9960
B( 23-C , 24-N ) :   3.0024 B( 25-C , 26-C ) :   1.4675 B( 25-C , 70-H ) :   1.0096
B( 26-C , 27-S ) :   1.1075 B( 26-C , 28-C ) :   1.1049 B( 28-C , 29-N ) :   1.7335
B( 28-C , 32-S ) :   1.0782 B( 29-N , 30-C ) :   1.4000 B( 29-N , 32-S ) :   0.1010
B( 30-C , 31-C ) :   1.2974 B( 30-C , 35-S ) :   1.0979 B( 31-C , 32-S ) :   1.0996
B( 31-C , 33-N ) :   1.4057 B( 33-N , 34-C ) :   1.7144 B( 34-C , 35-S ) :   1.0965
B( 34-C , 36-C ) :   1.1503 B( 36-C , 37-C ) :   1.4548 B( 36-C , 40-S ) :   1.1110
B( 37-C , 38-C ) :   1.3191 B( 37-C , 71-H ) :   0.9827 B( 38-C , 39-C ) :   1.4355
B( 38-C , 43-C ) :   0.9932 B( 39-C , 40-S ) :   1.1203 B( 39-C , 41-C ) :   1.1934
B( 41-C , 42-C ) :   1.4039 B( 41-C , 51-S ) :   1.1583 B( 42-C , 43-C ) :   0.9974
B( 42-C , 49-C ) :   1.2894 B( 43-C , 44-C ) :   1.7168 B( 44-C , 45-C ) :   1.1342
B( 44-C , 47-C ) :   1.1361 B( 45-C , 46-N ) :   3.0028 B( 47-C , 48-N ) :   2.9902
B( 49-C , 50-C ) :   1.4305 B( 49-C , 72-H ) :   0.9674 B( 50-C , 51-S ) :   1.0803
B( 50-C , 52-C ) :   1.1318 B( 52-C , 53-C ) :   1.6904 B( 52-C , 73-H ) :   0.9294
B( 53-C , 54-C ) :   0.9629 B( 53-C , 62-C ) :   0.9462 B( 54-C , 55-O ) :   2.2455
B( 54-C , 56-C ) :   0.9170 B( 56-C , 57-C ) :   1.3858 B( 56-C , 61-C ) :   1.3487
B( 57-C , 58-C ) :   1.3597 B( 57-C , 74-H ) :   1.0043 B( 58-C , 59-C ) :   1.3783
B( 58-C , 75-H ) :   0.9889 B( 59-C , 60-C ) :   1.3564 B( 59-C , 76-H ) :   0.9887
B( 60-C , 61-C ) :   1.3878 B( 60-C , 77-H ) :   1.0045 B( 61-C , 62-C ) :   0.9433
B( 62-C , 63-O ) :   2.1580 B( 63-O , 72-H ) :   0.1065

-----------------------------------------------------------------------------
         ABSORPTION SPECTRUM VIA TRANSITION ELECTRIC DIPOLE MOMENTS
-----------------------------------------------------------------------------
State   Energy  Wavelength   fosc         T2         TX        TY        TZ
        (cm-1)    (nm)                  (au**2)     (au)      (au)      (au)
-----------------------------------------------------------------------------
   0   13722.8    728.7   0.740320888  17.76045   3.02240  -2.93280   0.15570
   1   14523.1    688.6   0.005701564   0.12924  -0.19870   0.12292   0.27323
   2   21369.3    468.0   2.245684993  34.59666   4.22251  -4.09000   0.19745
   3   22837.8    437.9   0.013598910   0.19603  -0.29642   0.31767  -0.08517
   4   24536.0    407.6   0.738392754   9.90737   2.28489  -2.16303   0.08926
   5   25316.6    395.0   0.052722213   0.68559  -0.10769  -0.10484   0.81425
   6   26584.6    376.2   0.000057932   0.00072  -0.01504   0.01402  -0.01716
   7   26919.9    371.5   0.000066789   0.00082   0.01687  -0.00054  -0.02306
   8   28402.9    352.1   0.027397859   0.31756   0.44579  -0.32873   0.10378
   9   29907.7    334.4   0.029953219   0.32971   0.33165   0.00063  -0.46875
  10   30064.1    332.6   0.180886624   1.98077  -0.15995  -0.26641   1.37267
  11   30711.7    325.6   0.000246535   0.00264   0.00572  -0.03249   0.03943
  12   30741.2    325.3   0.000256868   0.00275  -0.00805   0.04251  -0.02965
  13   31266.3    319.8   0.377642899   3.97632   0.22895   0.52959  -1.90878
  14   31433.7    318.1   0.335779860   3.51670   0.65793  -0.08683  -1.75393
  15   31715.8    315.3   0.001232564   0.01279   0.03799  -0.06363   0.08545
  16   31842.3    314.0   0.172588278   1.78436   0.32430   0.16840  -1.28485
  17   31952.4    313.0   0.000645502   0.00665  -0.06367   0.05008   0.00940
  18   32948.9    303.5   0.141460760   1.41342  -0.88767   0.72346   0.31949
  19   33006.8    303.0   0.265230622   2.64543   1.01671  -1.15639   0.52393
  20   33209.2    301.1   0.185832184   1.84221   0.89145  -0.96080   0.35269
  21   33285.3    300.4   0.264978563   2.62080   1.19549  -1.03237  -0.35471
  22   33802.4    295.8   0.109117302   1.06273   0.78773  -0.66499   0.00121
  23   34191.8    292.5   0.068146843   0.65614  -0.01335  -0.26323   0.76595
  24   34809.7    287.3   0.055916347   0.52883   0.38788  -0.13227  -0.60073
  25   34883.8    286.7   0.001765073   0.01666   0.00240   0.03587   0.12396
  26   34933.9    286.3   0.001950143   0.01838  -0.13207  -0.01340  -0.02748
  27   35783.8    279.5   0.002575943   0.02370  -0.11447   0.09653   0.03573
  28   35855.5    278.9   0.000327417   0.00301  -0.00397   0.01943   0.05112
  29   35871.8    278.8   0.001105872   0.01015  -0.03262  -0.01074   0.09471
  30   36161.5    276.5   0.000258806   0.00236  -0.04200   0.01979   0.01416
  31   36367.5    275.0   0.008002615   0.07244   0.12292  -0.04430  -0.23531
  32   36482.3    274.1   0.086234831   0.77817   0.27675  -0.00696  -0.83758
  33   36825.2    271.6   0.006961671   0.06224   0.00520   0.08817  -0.23331
  34   36966.4    270.5   0.060107460   0.53530   0.09985   0.21063  -0.69351
  35   37706.8    265.2   0.016212171   0.14155  -0.10685   0.00198   0.36073
  36   38041.0    262.9   0.056004827   0.48467   0.19330  -0.41316   0.52594
  37   38192.0    261.8   0.084732534   0.73039   0.23727   0.05243  -0.81935
  38   38566.7    259.3   0.009363592   0.07993  -0.20140   0.19342  -0.04423
  39   38965.5    256.6   0.016848805   0.14235   0.05501   0.07811  -0.36500
  40   39166.6    255.3   0.001065094   0.00895  -0.05910   0.01493  -0.07237
  41   39199.8    255.1   0.000734297   0.00617   0.07498   0.00017  -0.02335
  42   39452.3    253.5   0.003066083   0.02559  -0.04612   0.00394   0.15311
  43   39913.1    250.5   0.000018888   0.00016  -0.00179  -0.00951   0.00789
  44   40160.1    249.0   0.001163816   0.00954   0.04909  -0.00916  -0.08395
  45   40166.9    249.0   0.000290846   0.00238  -0.03889   0.02819  -0.00876
  46   40231.8    248.6   0.003331497   0.02726  -0.10633   0.11585  -0.05033

FINAL SINGLE POINT ENERGY     -4852.187069802388

DIPOLE MOMENT
-------------
                                X             Y             Z
Electronic contribution:     -1.04756      -0.86783       2.79125
Nuclear contribution   :      0.51248       0.50564      -0.27222
                        -----------------------------------------
Total Dipole Moment    :     -0.53508      -0.36219       2.51904
                        -----------------------------------------
Magnitude (a.u.)       :      2.60058
Magnitude (Debye)      :      6.61016

Rotational constants in cm-1:     0.004916     0.000192     0.000184
Rotational constants in MHz :   147.363087     5.744895     5.530482

                             ****ORCA TERMINATED NORMALLY****
TOTAL RUN TIME: 0 days 0 hours 7 minutes 12 seconds 889 msec
