                         Program Version 4.2.0 -  RELEASE  -
|  1> # ORCA input file
|  2> # SCF done       -181.501338204970          0.000345459169
|  3> ! CAM-B3LYP def2-SVP def2/J RIJCOSX Grid4 TightSCF
|  4> %maxcore 5000
|  5> %tddft
|  6>     Mode sTDDFT
|  7>     Ethresh 5.0
|  8>     maxcore 5000
|  9> end
| 10>
| 11> %pal
| 12>   nprocs 6
| 13>   end
| 14> * xyz 0 1
| 15>    C       -3.67781         1.14868        -2.47191
| 16>    C       -4.69674         2.04466        -2.26644
| 17>    C       -5.91357         1.72419        -1.63487
| 18>    N       -6.91139         1.53143        -1.09974
| 19>    C       -4.66794         3.37814        -2.71541
| 20>    N       -4.70055         4.46544        -3.08447
| 21>    C       -3.76958        -0.29283        -2.26610
| 22>    C       -2.71000        -0.92239        -2.98315
| 23>    C       -2.56781        -2.27931        -3.00979
| 24>    C       -3.48936        -3.08310        -2.30037
| 25>    C       -4.53929        -2.45950        -1.56667
| 26>    C       -4.66506        -1.05062        -1.56184
| 27>    C       -5.44815        -3.27192        -0.85926
| 28>    C       -5.33120        -4.63526        -0.87855
| 29>    C       -4.29867        -5.24843        -1.60323
| 30>    C       -3.39710        -4.48866        -2.29841
| 31>    C       -1.87649         0.11274        -3.61960
| 32>    O       -0.92275        -0.03852        -4.35053
| 33>    C       -2.42433         1.41118        -3.13530
| 34>    C       -1.68708         2.54375        -3.32145
| 35>    C       -1.77338         3.80424        -2.67798
| 36>    C       -2.28478         3.97627        -1.37708
| 37>    C       -2.33576         5.26877        -0.73324
| 38>    N       -2.84017         5.18815         0.49933
| 39>    S       -3.20034         3.66169         0.82433
| 40>    N       -2.74012         3.01348        -0.56677
| 41>    C       -1.89888         6.44936        -1.36203
| 42>    C       -1.34823         6.28815        -2.66494
| 43>    C       -0.84572         7.28156        -3.47729
| 44>    S       -0.29720         6.67527        -4.96571
| 45>    C       -0.72219         5.07762        -4.56029
| 46>    C       -1.27058         4.98521        -3.29873
| 47>    C       -2.02670         7.69972        -0.72046
| 48>    N       -1.67282         8.84989        -1.24289
| 49>    C       -1.92491         9.85110        -0.41702
| 50>    C       -2.49992         9.50438         0.83367
| 51>    S       -2.72267         7.80483         0.92051
| 52>    N       -2.75081        10.50628         1.65958
| 53>    C       -2.40994        11.65737         1.13125
| 54>    S       -1.71752        11.55164        -0.51228
| 55>    C       -2.55803        12.91279         1.75889
| 56>    C       -2.19739        14.09760         1.08787
| 57>    C       -2.30494        15.39710         1.70600
| 58>    N       -1.89278        16.36652         0.88327
| 59>    S       -1.44286        15.72098        -0.51026
| 60>    N       -1.71959        14.18067        -0.15582
| 61>    C       -2.72373        15.56765         3.04191
| 62>    C       -3.17995        14.38954         3.69398
| 63>    C       -3.80009        14.31255         4.92240
| 64>    S       -4.21413        12.71844         5.33923
| 65>    C       -3.60084        12.09305         3.88334
| 66>    C       -3.09023        13.08073         3.06922
| 67>    C       -2.69946        16.87543         3.59072
| 68>    C       -2.42811        17.24789         4.87848
| 69>    C       -2.53280        18.59803         5.39348
| 70>    C       -3.26005        19.61657         4.83194
| 71>    C       -3.34842        20.91395         5.37544
| 72>    N       -3.44904        21.98893         5.76659
| 73>    C       -4.05241        19.48845         3.67200
| 74>    N       -4.74781        19.45136         2.75876
| 75>    C       -1.81939        18.65230         6.66282
| 76>    C       -1.33893        17.34583         6.96426
| 77>    C       -1.71300        16.41771         5.88102
| 78>    O       -1.41743        15.24282         5.80092
| 79>    C       -0.62974        17.08459         8.10059
| 80>    C       -0.36522        18.13774         9.00558
| 81>    C       -0.83945        19.44787         8.70870
| 82>    C       -1.57106        19.68844         7.52246
| 83>    C       -0.56473        20.49133         9.61532
| 84>    C        0.14389        20.25442        10.76191
| 85>    C        0.61028        18.96419        11.05353
| 86>    C        0.36038        17.92830        10.19445
| 87>    H       -1.76355        -2.73675        -3.56679
| 88>    H       -5.46536        -0.60427        -0.99260
| 89>    H       -6.24357        -2.79520        -0.30531
| 90>    H       -6.03487        -5.24884        -0.33602
| 91>    H       -4.22103        -6.32544        -1.60815
| 92>    H       -2.59974        -4.95545        -2.85816
| 93>    H       -0.87286         2.42781        -4.03037
| 94>    H       -0.79118         8.32625        -3.25204
| 95>    H       -0.55146         4.29227        -5.26779
| 96>    H       -4.05271        15.11652         5.58221
| 97>    H       -3.65299        11.04673         3.66468
| 98>    H       -2.82556        17.65962         2.85236
| 99>    H       -0.27498        16.08580         8.30796
|100>    H       -1.91037        20.69204         7.31987
|101>    H       -0.92693        21.48292         9.38641
|102>    H        0.34896        21.06059        11.45031
|103>    H        1.16915        18.79491        11.96181
|104>    H        0.71777        16.93271        10.41377
|105> *
|106>
|107>                          ****END OF INPUT****

CARTESIAN COORDINATES (ANGSTROEM)
---------------------------------
  C     -3.677810    1.148680   -2.471910
  C     -4.696740    2.044660   -2.266440
  C     -5.913570    1.724190   -1.634870
  N     -6.911390    1.531430   -1.099740
  C     -4.667940    3.378140   -2.715410
  N     -4.700550    4.465440   -3.084470
  C     -3.769580   -0.292830   -2.266100
  C     -2.710000   -0.922390   -2.983150
  C     -2.567810   -2.279310   -3.009790
  C     -3.489360   -3.083100   -2.300370
  C     -4.539290   -2.459500   -1.566670
  C     -4.665060   -1.050620   -1.561840
  C     -5.448150   -3.271920   -0.859260
  C     -5.331200   -4.635260   -0.878550
  C     -4.298670   -5.248430   -1.603230
  C     -3.397100   -4.488660   -2.298410
  C     -1.876490    0.112740   -3.619600
  O     -0.922750   -0.038520   -4.350530
  C     -2.424330    1.411180   -3.135300
  C     -1.687080    2.543750   -3.321450
  C     -1.773380    3.804240   -2.677980
  C     -2.284780    3.976270   -1.377080
  C     -2.335760    5.268770   -0.733240
  N     -2.840170    5.188150    0.499330
  S     -3.200340    3.661690    0.824330
  N     -2.740120    3.013480   -0.566770
  C     -1.898880    6.449360   -1.362030
  C     -1.348230    6.288150   -2.664940
  C     -0.845720    7.281560   -3.477290
  S     -0.297200    6.675270   -4.965710
  C     -0.722190    5.077620   -4.560290
  C     -1.270580    4.985210   -3.298730
  C     -2.026700    7.699720   -0.720460
  N     -1.672820    8.849890   -1.242890
  C     -1.924910    9.851100   -0.417020
  C     -2.499920    9.504380    0.833670
  S     -2.722670    7.804830    0.920510
  N     -2.750810   10.506280    1.659580
  C     -2.409940   11.657370    1.131250
  S     -1.717520   11.551640   -0.512280
  C     -2.558030   12.912790    1.758890
  C     -2.197390   14.097600    1.087870
  C     -2.304940   15.397100    1.706000
  N     -1.892780   16.366520    0.883270
  S     -1.442860   15.720980   -0.510260
  N     -1.719590   14.180670   -0.155820
  C     -2.723730   15.567650    3.041910
  C     -3.179950   14.389540    3.693980
  C     -3.800090   14.312550    4.922400
  S     -4.214130   12.718440    5.339230
  C     -3.600840   12.093050    3.883340
  C     -3.090230   13.080730    3.069220
  C     -2.699460   16.875430    3.590720
  C     -2.428110   17.247890    4.878480
  C     -2.532800   18.598030    5.393480
  C     -3.260050   19.616570    4.831940
  C     -3.348420   20.913950    5.375440
  N     -3.449040   21.988930    5.766590
  C     -4.052410   19.488450    3.672000
  N     -4.747810   19.451360    2.758760
  C     -1.819390   18.652300    6.662820
  C     -1.338930   17.345830    6.964260
  C     -1.713000   16.417710    5.881020
  O     -1.417430   15.242820    5.800920
  C     -0.629740   17.084590    8.100590
  C     -0.365220   18.137740    9.005580
  C     -0.839450   19.447870    8.708700
  C     -1.571060   19.688440    7.522460
  C     -0.564730   20.491330    9.615320
  C      0.143890   20.254420   10.761910
  C      0.610280   18.964190   11.053530
  C      0.360380   17.928300   10.194450
  H     -1.763550   -2.736750   -3.566790
  H     -5.465360   -0.604270   -0.992600
  H     -6.243570   -2.795200   -0.305310
  H     -6.034870   -5.248840   -0.336020
  H     -4.221030   -6.325440   -1.608150
  H     -2.599740   -4.955450   -2.858160
  H     -0.872860    2.427810   -4.030370
  H     -0.791180    8.326250   -3.252040
  H     -0.551460    4.292270   -5.267790
  H     -4.052710   15.116520    5.582210
  H     -3.652990   11.046730    3.664680
  H     -2.825560   17.659620    2.852360
  H     -0.274980   16.085800    8.307960
  H     -1.910370   20.692040    7.319870
  H     -0.926930   21.482920    9.386410
  H      0.348960   21.060590   11.450310
  H      1.169150   18.794910   11.961810
  H      0.717770   16.932710   10.413770

 Total Charge           Charge          ....    0
 Multiplicity           Mult            ....    1
 Number of Electrons    NEL             ....  524
 Basis Dimension        Dim             .... 1122

ORBITAL ENERGIES
----------------

  NO   OCC          E(Eh)            E(eV)
   0   2.0000     -89.044322     -2423.0192
   1   2.0000     -89.043181     -2422.9881
   2   2.0000     -88.986458     -2421.4446
   3   2.0000     -88.983708     -2421.3698
   4   2.0000     -88.971309     -2421.0324
   5   2.0000     -88.971263     -2421.0312
   6   2.0000     -19.209670      -522.7217
   7   2.0000     -19.208456      -522.6887
   8   2.0000     -14.451988      -393.2586
   9   2.0000     -14.450712      -393.2239
  10   2.0000     -14.447800      -393.1446
  11   2.0000     -14.445350      -393.0780
  12   2.0000     -14.431519      -392.7016
  13   2.0000     -14.431209      -392.6932
  14   2.0000     -14.410403      -392.1270
  15   2.0000     -14.408671      -392.0799
  16   2.0000     -14.408540      -392.0763
  17   2.0000     -14.408395      -392.0723
  18   2.0000     -10.360792      -281.9315
  19   2.0000     -10.358402      -281.8664
  20   2.0000     -10.354890      -281.7709
  21   2.0000     -10.354650      -281.7643
  22   2.0000     -10.336740      -281.2770
  23   2.0000     -10.336490      -281.2702
  24   2.0000     -10.335817      -281.2519
  25   2.0000     -10.335786      -281.2510
  26   2.0000     -10.334114      -281.2055
  27   2.0000     -10.334088      -281.2048
  28   2.0000     -10.333709      -281.1945
  29   2.0000     -10.333610      -281.1918
  30   2.0000     -10.331490      -281.1341
  31   2.0000     -10.329539      -281.0810
  32   2.0000     -10.320844      -280.8445
  33   2.0000     -10.320416      -280.8328
  34   2.0000     -10.313239      -280.6375
  35   2.0000     -10.311910      -280.6013
  36   2.0000     -10.311518      -280.5907
  37   2.0000     -10.311306      -280.5849
  38   2.0000     -10.310728      -280.5692
  39   2.0000     -10.307910      -280.4925
  40   2.0000     -10.304888      -280.4103
  41   2.0000     -10.304714      -280.4055
  42   2.0000     -10.303667      -280.3770
  43   2.0000     -10.303488      -280.3722
  44   2.0000     -10.302155      -280.3359
  45   2.0000     -10.302089      -280.3341
  46   2.0000     -10.300875      -280.3010
  47   2.0000     -10.299233      -280.2564
  48   2.0000     -10.298699      -280.2418
  49   2.0000     -10.298412      -280.2340
  50   2.0000     -10.296196      -280.1737
  51   2.0000     -10.296066      -280.1702
  52   2.0000     -10.295311      -280.1497
  53   2.0000     -10.294469      -280.1267
  54   2.0000     -10.294093      -280.1165
  55   2.0000     -10.292944      -280.0852
  56   2.0000     -10.292649      -280.0772
  57   2.0000     -10.292272      -280.0670
  58   2.0000     -10.291853      -280.0555
  59   2.0000     -10.291238      -280.0388
  60   2.0000     -10.290770      -280.0261
  61   2.0000     -10.289380      -279.9883
  62   2.0000     -10.284833      -279.8645
  63   2.0000     -10.283968      -279.8410
  64   2.0000     -10.283444      -279.8267
  65   2.0000     -10.283088      -279.8171
  66   2.0000     -10.282785      -279.8088
  67   2.0000     -10.282596      -279.8037
  68   2.0000     -10.281820      -279.7826
  69   2.0000     -10.281499      -279.7738
  70   2.0000     -10.281198      -279.7656
  71   2.0000     -10.280594      -279.7492
  72   2.0000      -8.134853      -221.3606
  73   2.0000      -8.134069      -221.3393
  74   2.0000      -8.081618      -219.9120
  75   2.0000      -8.078814      -219.8357
  76   2.0000      -8.065838      -219.4826
  77   2.0000      -8.065774      -219.4809
  78   2.0000      -6.105793      -166.1471
  79   2.0000      -6.105039      -166.1265
  80   2.0000      -6.098194      -165.9403
  81   2.0000      -6.097917      -165.9327
  82   2.0000      -6.097394      -165.9185
  83   2.0000      -6.097039      -165.9089
  84   2.0000      -6.050086      -164.6312
  85   2.0000      -6.047234      -164.5536
  86   2.0000      -6.045809      -164.5148
  87   2.0000      -6.045736      -164.5128
  88   2.0000      -6.043077      -164.4405
  89   2.0000      -6.042924      -164.4363
  90   2.0000      -6.035097      -164.2233
  91   2.0000      -6.035041      -164.2218
  92   2.0000      -6.031084      -164.1141
  93   2.0000      -6.031035      -164.1128
  94   2.0000      -6.027702      -164.0221
  95   2.0000      -6.027660      -164.0210
  96   2.0000      -1.138292       -30.9745
  97   2.0000      -1.138037       -30.9676
  98   2.0000      -1.124366       -30.5956
  99   2.0000      -1.122708       -30.5504
 100   2.0000      -1.100470       -29.9453
 101   2.0000      -1.061198       -28.8767
 102   2.0000      -1.013129       -27.5686
 103   2.0000      -1.012868       -27.5615
 104   2.0000      -1.008703       -27.4482
 105   2.0000      -1.006336       -27.3838
 106   2.0000      -0.994728       -27.0679
 107   2.0000      -0.993740       -27.0410
 108   2.0000      -0.993267       -27.0282
 109   2.0000      -0.991775       -26.9876
 110   2.0000      -0.987798       -26.8793
 111   2.0000      -0.986763       -26.8512
 112   2.0000      -0.967893       -26.3377
 113   2.0000      -0.965013       -26.2593
 114   2.0000      -0.951945       -25.9037
 115   2.0000      -0.951641       -25.8955
 116   2.0000      -0.923700       -25.1351
 117   2.0000      -0.921151       -25.0658
 118   2.0000      -0.916436       -24.9375
 119   2.0000      -0.911223       -24.7956
 120   2.0000      -0.902351       -24.5542
 121   2.0000      -0.888830       -24.1863
 122   2.0000      -0.883460       -24.0402
 123   2.0000      -0.880737       -23.9661
 124   2.0000      -0.877050       -23.8657
 125   2.0000      -0.875030       -23.8108
 126   2.0000      -0.861630       -23.4461
 127   2.0000      -0.860155       -23.4060
 128   2.0000      -0.852868       -23.2077
 129   2.0000      -0.847604       -23.0645
 130   2.0000      -0.827046       -22.5051
 131   2.0000      -0.824605       -22.4386
 132   2.0000      -0.822535       -22.3823
 133   2.0000      -0.808092       -21.9893
 134   2.0000      -0.804516       -21.8920
 135   2.0000      -0.798793       -21.7363
 136   2.0000      -0.772566       -21.0226
 137   2.0000      -0.763398       -20.7731
 138   2.0000      -0.760941       -20.7063
 139   2.0000      -0.756461       -20.5843
 140   2.0000      -0.752454       -20.4753
 141   2.0000      -0.741613       -20.1803
 142   2.0000      -0.715990       -19.4831
 143   2.0000      -0.713991       -19.4287
 144   2.0000      -0.701306       -19.0835
 145   2.0000      -0.700451       -19.0602
 146   2.0000      -0.696434       -18.9509
 147   2.0000      -0.695607       -18.9284
 148   2.0000      -0.692690       -18.8490
 149   2.0000      -0.685072       -18.6418
 150   2.0000      -0.678215       -18.4552
 151   2.0000      -0.673142       -18.3171
 152   2.0000      -0.668761       -18.1979
 153   2.0000      -0.667871       -18.1737
 154   2.0000      -0.662004       -18.0141
 155   2.0000      -0.656690       -17.8694
 156   2.0000      -0.651686       -17.7333
 157   2.0000      -0.640931       -17.4406
 158   2.0000      -0.633238       -17.2313
 159   2.0000      -0.627509       -17.0754
 160   2.0000      -0.626005       -17.0345
 161   2.0000      -0.620869       -16.8947
 162   2.0000      -0.614057       -16.7093
 163   2.0000      -0.604655       -16.4535
 164   2.0000      -0.603224       -16.4145
 165   2.0000      -0.600826       -16.3493
 166   2.0000      -0.596797       -16.2397
 167   2.0000      -0.593829       -16.1589
 168   2.0000      -0.589085       -16.0298
 169   2.0000      -0.584541       -15.9062
 170   2.0000      -0.582560       -15.8523
 171   2.0000      -0.568030       -15.4569
 172   2.0000      -0.564483       -15.3604
 173   2.0000      -0.556751       -15.1500
 174   2.0000      -0.552859       -15.0441
 175   2.0000      -0.551699       -15.0125
 176   2.0000      -0.546616       -14.8742
 177   2.0000      -0.544949       -14.8288
 178   2.0000      -0.542689       -14.7673
 179   2.0000      -0.540831       -14.7168
 180   2.0000      -0.540284       -14.7019
 181   2.0000      -0.536368       -14.5953
 182   2.0000      -0.530956       -14.4480
 183   2.0000      -0.530571       -14.4376
 184   2.0000      -0.528479       -14.3806
 185   2.0000      -0.526011       -14.3135
 186   2.0000      -0.522323       -14.2131
 187   2.0000      -0.515209       -14.0196
 188   2.0000      -0.513124       -13.9628
 189   2.0000      -0.512045       -13.9334
 190   2.0000      -0.506968       -13.7953
 191   2.0000      -0.506678       -13.7874
 192   2.0000      -0.504867       -13.7381
 193   2.0000      -0.504200       -13.7200
 194   2.0000      -0.498978       -13.5779
 195   2.0000      -0.497828       -13.5466
 196   2.0000      -0.495994       -13.4967
 197   2.0000      -0.493733       -13.4352
 198   2.0000      -0.491077       -13.3629
 199   2.0000      -0.489645       -13.3239
 200   2.0000      -0.487272       -13.2594
 201   2.0000      -0.486432       -13.2365
 202   2.0000      -0.485699       -13.2165
 203   2.0000      -0.482632       -13.1331
 204   2.0000      -0.481829       -13.1112
 205   2.0000      -0.479670       -13.0525
 206   2.0000      -0.477462       -12.9924
 207   2.0000      -0.476728       -12.9724
 208   2.0000      -0.473089       -12.8734
 209   2.0000      -0.472175       -12.8485
 210   2.0000      -0.461060       -12.5461
 211   2.0000      -0.459091       -12.4925
 212   2.0000      -0.447769       -12.1844
 213   2.0000      -0.443795       -12.0763
 214   2.0000      -0.442552       -12.0425
 215   2.0000      -0.441093       -12.0027
 216   2.0000      -0.439961       -11.9720
 217   2.0000      -0.439437       -11.9577
 218   2.0000      -0.438556       -11.9337
 219   2.0000      -0.437556       -11.9065
 220   2.0000      -0.436019       -11.8647
 221   2.0000      -0.434077       -11.8118
 222   2.0000      -0.433656       -11.8004
 223   2.0000      -0.429790       -11.6952
 224   2.0000      -0.428094       -11.6490
 225   2.0000      -0.427625       -11.6363
 226   2.0000      -0.424273       -11.5450
 227   2.0000      -0.423865       -11.5339
 228   2.0000      -0.420913       -11.4536
 229   2.0000      -0.420363       -11.4386
 230   2.0000      -0.415385       -11.3032
 231   2.0000      -0.414481       -11.2786
 232   2.0000      -0.410455       -11.1691
 233   2.0000      -0.409870       -11.1531
 234   2.0000      -0.408455       -11.1146
 235   2.0000      -0.404235       -10.9998
 236   2.0000      -0.399800       -10.8791
 237   2.0000      -0.392825       -10.6893
 238   2.0000      -0.392308       -10.6752
 239   2.0000      -0.391493       -10.6531
 240   2.0000      -0.385083       -10.4786
 241   2.0000      -0.375751       -10.2247
 242   2.0000      -0.372992       -10.1496
 243   2.0000      -0.371599       -10.1117
 244   2.0000      -0.369956       -10.0670
 245   2.0000      -0.363444        -9.8898
 246   2.0000      -0.355704        -9.6792
 247   2.0000      -0.347381        -9.4527
 248   2.0000      -0.340842        -9.2748
 249   2.0000      -0.337238        -9.1767
 250   2.0000      -0.333503        -9.0751
 251   2.0000      -0.333345        -9.0708
 252   2.0000      -0.326484        -8.8841
 253   2.0000      -0.323768        -8.8102
 254   2.0000      -0.319260        -8.6875
 255   2.0000      -0.311376        -8.4730
 256   2.0000      -0.306621        -8.3436
 257   2.0000      -0.303445        -8.2572
 258   2.0000      -0.290704        -7.9105
 259   2.0000      -0.287096        -7.8123
 260   2.0000      -0.258913        -7.0454
 261   2.0000      -0.233920        -6.3653
 262   0.0000      -0.136413        -3.7120
 263   0.0000      -0.111047        -3.0218
 264   0.0000      -0.069917        -1.9025
 265   0.0000      -0.063977        -1.7409
 266   0.0000      -0.048569        -1.3216

MULLIKEN ATOMIC CHARGES
-----------------------
   0 C :    0.339319
   1 C :   -0.350507
   2 C :   -0.189441
   3 N :    0.145536
   4 C :   -0.207988
   5 N :    0.165672
   6 C :    0.035145
   7 C :    0.017861
   8 C :   -0.085211
   9 C :    0.094492
  10 C :    0.095101
  11 C :   -0.089274
  12 C :   -0.020415
  13 C :    0.035690
  14 C :    0.032396
  15 C :   -0.015360
  16 C :    0.130252
  17 O :   -0.149822
  18 C :   -0.117942
  19 C :   -0.066516
  20 C :    0.139043
  21 C :   -0.027989
  22 C :    0.019926
  23 N :   -0.321366
  24 S :    0.562898
  25 N :   -0.295138
  26 C :    0.206131
  27 C :    0.018523
  28 C :   -0.130229
  29 S :    0.209123
  30 C :   -0.171424
  31 C :    0.086714
  32 C :   -0.209790
  33 N :   -0.034714
  34 C :   -0.032093
  35 C :   -0.031385
  36 S :    0.163171
  37 N :   -0.031851
  38 C :   -0.209449
  39 S :    0.158893
  40 C :    0.211309
  41 C :   -0.021356
  42 C :    0.024821
  43 N :   -0.280399
  44 S :    0.555447
  45 N :   -0.325739
  46 C :    0.063658
  47 C :    0.100524
  48 C :   -0.137869
  49 S :    0.206108
  50 C :   -0.140750
  51 C :    0.026105
  52 C :   -0.075904
  53 C :   -0.103567
  54 C :    0.300740
  55 C :   -0.335199
  56 C :   -0.184203
  57 N :    0.144639
  58 C :   -0.209460
  59 N :    0.164335
  60 C :    0.054520
  61 C :   -0.004982
  62 C :    0.129476
  63 O :   -0.142127
  64 C :   -0.087190
  65 C :    0.100115
  66 C :    0.098586
  67 C :   -0.090033
  68 C :   -0.019927
  69 C :    0.035004
  70 C :    0.037574
  71 C :   -0.018408
  72 H :   -0.014395
  73 H :   -0.009943
  74 H :   -0.012547
  75 H :   -0.006834
  76 H :   -0.005984
  77 H :   -0.018988
  78 H :    0.014700
  79 H :    0.036983
  80 H :    0.031286
  81 H :    0.026169
  82 H :    0.035048
  83 H :    0.049427
  84 H :   -0.017073
  85 H :   -0.008950
  86 H :   -0.010589
  87 H :   -0.005518
  88 H :   -0.006762
  89 H :   -0.019861
Sum of atomic charges:   -0.0000000

LOEWDIN ATOMIC CHARGES
----------------------
   0 C :    0.074947
   1 C :   -0.143264
   2 C :   -0.020467
   3 N :   -0.062618
   4 C :   -0.018456
   5 N :   -0.059393
   6 C :   -0.017586
   7 C :   -0.056292
   8 C :    0.030497
   9 C :   -0.010700
  10 C :   -0.005404
  11 C :    0.011139
  12 C :   -0.008167
  13 C :   -0.014787
  14 C :   -0.016177
  15 C :   -0.009970
  16 C :    0.083612
  17 O :   -0.148158
  18 C :   -0.077416
  19 C :    0.059917
  20 C :   -0.037148
  21 C :   -0.039416
  22 C :   -0.047888
  23 N :   -0.301975
  24 S :    0.688208
  25 N :   -0.283194
  26 C :   -0.017924
  27 C :   -0.037007
  28 C :   -0.185895
  29 S :    0.550147
  30 C :   -0.212763
  31 C :   -0.023639
  32 C :   -0.107649
  33 N :   -0.088545
  34 C :   -0.209060
  35 C :   -0.207862
  36 S :    0.458499
  37 N :   -0.088649
  38 C :   -0.107753
  39 S :    0.455839
  40 C :   -0.024690
  41 C :   -0.056063
  42 C :   -0.032753
  43 N :   -0.285456
  44 S :    0.684735
  45 N :   -0.310208
  46 C :   -0.032811
  47 C :   -0.028066
  48 C :   -0.189742
  49 S :    0.555688
  50 C :   -0.195716
  51 C :   -0.035644
  52 C :    0.074576
  53 C :   -0.095012
  54 C :    0.072645
  55 C :   -0.138521
  56 C :   -0.017163
  57 N :   -0.056084
  58 C :   -0.026409
  59 N :   -0.050437
  60 C :   -0.026289
  61 C :   -0.054058
  62 C :    0.071996
  63 O :   -0.140682
  64 C :    0.027647
  65 C :   -0.008769
  66 C :   -0.007257
  67 C :    0.017768
  68 C :   -0.005771
  69 C :   -0.015157
  70 C :   -0.013736
  71 C :   -0.010758
  72 H :    0.038245
  73 H :    0.037443
  74 H :    0.033430
  75 H :    0.032205
  76 H :    0.031996
  77 H :    0.031115
  78 H :    0.043160
  79 H :    0.025527
  80 H :    0.026405
  81 H :    0.023881
  82 H :    0.024471
  83 H :    0.050587
  84 H :    0.037387
  85 H :    0.038621
  86 H :    0.034298
  87 H :    0.032749
  88 H :    0.032138
  89 H :    0.030957

  Mayer bond orders larger than 0.100000
B(  0-C ,  1-C ) :   1.6153 B(  0-C ,  6-C ) :   1.0041 B(  0-C , 18-C ) :   1.0528
B(  1-C ,  2-C ) :   1.1480 B(  1-C ,  4-C ) :   1.1766 B(  2-C ,  3-N ) :   2.9773
B(  4-C ,  5-N ) :   2.9986 B(  6-C ,  7-C ) :   1.2098 B(  6-C , 11-C ) :   1.4606
B(  7-C ,  8-C ) :   1.4779 B(  7-C , 16-C ) :   0.9215 B(  8-C ,  9-C ) :   1.1810
B(  8-C , 72-H ) :   1.0152 B(  9-C , 10-C ) :   1.2590 B(  9-C , 15-C ) :   1.2466
B( 10-C , 11-C ) :   1.2002 B( 10-C , 12-C ) :   1.2430 B( 11-C , 73-H ) :   0.9927
B( 12-C , 13-C ) :   1.4897 B( 12-C , 74-H ) :   0.9968 B( 13-C , 14-C ) :   1.2618
B( 13-C , 75-H ) :   0.9882 B( 14-C , 15-C ) :   1.4880 B( 14-C , 76-H ) :   0.9885
B( 15-C , 77-H ) :   0.9970 B( 16-C , 17-O ) :   2.2543 B( 16-C , 18-C ) :   0.9413
B( 18-C , 19-C ) :   1.6342 B( 19-C , 20-C ) :   1.1330 B( 19-C , 78-H ) :   0.9338
B( 20-C , 21-C ) :   1.2517 B( 20-C , 26-C ) :   0.1092 B( 20-C , 31-C ) :   1.1854
B( 21-C , 22-C ) :   1.1265 B( 21-C , 25-N ) :   1.4733 B( 22-C , 23-N ) :   1.4519
B( 22-C , 26-C ) :   1.2403 B( 23-N , 24-S ) :   1.2886 B( 23-N , 25-N ) :   0.1550
B( 24-S , 25-N ) :   1.2848 B( 26-C , 27-C ) :   1.2123 B( 26-C , 32-C ) :   1.1710
B( 27-C , 28-C ) :   1.4330 B( 27-C , 31-C ) :   1.1194 B( 28-C , 29-S ) :   1.2543
B( 28-C , 30-C ) :   0.1091 B( 28-C , 79-H ) :   0.9325 B( 29-S , 30-C ) :   1.2304
B( 30-C , 31-C ) :   1.4354 B( 30-C , 80-H ) :   0.9475 B( 32-C , 33-N ) :   1.6290
B( 32-C , 36-S ) :   1.0852 B( 33-N , 34-C ) :   1.4473 B( 33-N , 36-S ) :   0.1013
B( 34-C , 35-C ) :   1.1986 B( 34-C , 39-S ) :   1.0780 B( 35-C , 36-S ) :   1.0798
B( 35-C , 37-N ) :   1.4464 B( 37-N , 38-C ) :   1.6323 B( 37-N , 39-S ) :   0.1013
B( 38-C , 39-S ) :   1.0847 B( 38-C , 40-C ) :   1.1706 B( 40-C , 41-C ) :   1.2353
B( 40-C , 46-C ) :   0.1069 B( 40-C , 51-C ) :   1.2165 B( 41-C , 42-C ) :   1.1297
B( 41-C , 45-N ) :   1.4524 B( 42-C , 43-N ) :   1.4997 B( 42-C , 46-C ) :   1.2321
B( 43-N , 44-S ) :   1.2960 B( 43-N , 45-N ) :   0.1615 B( 44-S , 45-N ) :   1.2794
B( 46-C , 47-C ) :   1.1988 B( 46-C , 52-C ) :   1.2177 B( 47-C , 48-C ) :   1.4187
B( 47-C , 51-C ) :   1.1339 B( 48-C , 49-S ) :   1.2444 B( 48-C , 50-C ) :   0.1071
B( 48-C , 81-H ) :   0.9521 B( 49-S , 50-C ) :   1.2480 B( 50-C , 51-C ) :   1.4264
B( 50-C , 82-H ) :   0.9343 B( 52-C , 53-C ) :   1.5407 B( 52-C , 83-H ) :   0.9384
B( 53-C , 54-C ) :   1.0601 B( 53-C , 62-C ) :   0.9477 B( 54-C , 55-C ) :   1.6381
B( 54-C , 60-C ) :   0.9912 B( 55-C , 56-C ) :   1.1450 B( 55-C , 58-C ) :   1.1413
B( 56-C , 57-N ) :   2.9655 B( 58-C , 59-N ) :   2.9990 B( 60-C , 61-C ) :   1.2119
B( 60-C , 67-C ) :   1.4510 B( 61-C , 62-C ) :   0.9379 B( 61-C , 64-C ) :   1.4761
B( 62-C , 63-O ) :   2.2224 B( 64-C , 65-C ) :   1.1734 B( 64-C , 84-H ) :   1.0170
B( 65-C , 66-C ) :   1.2594 B( 65-C , 71-C ) :   1.2462 B( 66-C , 67-C ) :   1.2000
B( 66-C , 68-C ) :   1.2406 B( 67-C , 85-H ) :   0.9911 B( 68-C , 69-C ) :   1.4881
B( 68-C , 86-H ) :   0.9974 B( 69-C , 70-C ) :   1.2605 B( 69-C , 87-H ) :   0.9884
B( 70-C , 71-C ) :   1.4883 B( 70-C , 88-H ) :   0.9882 B( 71-C , 89-H ) :   0.9973

-----------------------------------------------------------------------------
         ABSORPTION SPECTRUM VIA TRANSITION ELECTRIC DIPOLE MOMENTS
-----------------------------------------------------------------------------
State   Energy  Wavelength   fosc         T2         TX        TY        TZ
        (cm-1)    (nm)                  (au**2)     (au)      (au)      (au)
-----------------------------------------------------------------------------
   0    7216.4   1385.7   0.936843970  42.73903   0.24741   5.87635   2.85418
   1   11214.0    891.7   0.017454057   0.51240  -0.35022  -0.11285   0.61401
   2   13852.4    721.9   0.004440590   0.10553  -0.04341   0.25677   0.19422
   3   17969.1    556.5   0.196239217   3.59529  -0.42422   1.61676   0.89522
   4   18668.8    535.7   0.029197446   0.51488  -0.14349   0.69410   0.11188
   5   19947.6    501.3   0.007659647   0.12641  -0.08005  -0.29673   0.17877
   6   20943.5    477.5   0.179234724   2.81740  -0.17309  -1.45556  -0.81779
   7   21697.7    460.9   0.003157747   0.04791  -0.09985   0.18280  -0.06727
   8   21938.9    455.8   0.112694771   1.69108  -0.96201  -0.87250   0.06604
   9   22490.1    444.6   0.033037044   0.48360  -0.01724   0.60109   0.34927
  10   23406.6    427.2   0.029344175   0.41272   0.53229  -0.03189  -0.35829
  11   24604.7    406.4   0.066996607   0.89642   0.55802   0.33968   0.68531
  12   24912.9    401.4   0.114136706   1.50826  -0.00274  -0.97056  -0.75251
  13   25252.8    396.0   0.005278212   0.06881   0.19407   0.11174  -0.13661
  14   25547.8    391.4   0.015761164   0.20310  -0.18884  -0.31840   0.25702
  15   25958.8    385.2   0.085645339   1.08616  -0.21149   0.56517   0.84971
  16   26605.1    375.9   0.144737687   1.79099  -0.21967  -1.24710   0.43297
  17   26918.1    371.5   0.003164444   0.03870   0.08035  -0.09956   0.14945
  18   27596.8    362.4   0.160564264   1.91543  -0.65132  -1.17378   0.33681
  19   28003.8    357.1   0.070949492   0.83408   0.57195   0.70808   0.07460
  20   28381.5    352.3   0.049415117   0.57319   0.35072   0.30908   0.59554
  21   28754.1    347.8   0.211739558   2.42425   0.58736   0.92426  -1.10680
  22   29017.4    344.6   0.250803341   2.84544  -0.51087  -0.25638   1.58705
  23   29440.7    339.7   0.033680179   0.37662  -0.03530   0.59177  -0.15869
  24   29494.5    339.0   0.053344300   0.59542  -0.17555  -0.08903   0.74611
  25   29933.8    334.1   0.320538882   3.52528  -0.08652  -1.11420  -1.50876
  26   30007.1    333.3   0.017808601   0.19538  -0.38340   0.07564  -0.20655
  27   30126.0    331.9   0.053881259   0.58881  -0.46852   0.53598  -0.28641
  28   30423.1    328.7   0.014633789   0.15835  -0.13362  -0.03676  -0.37303
  29   30834.3    324.3   0.002718706   0.02903   0.05036  -0.14375   0.07633
  30   30955.6    323.0   0.217820103   2.31651   0.85596  -0.45682   1.17267
  31   31176.0    320.8   0.077665408   0.82013   0.00362   0.89953   0.10467
  32   31211.1    320.4   0.081174167   0.85622  -0.51772  -0.76418   0.06494
  33   31684.1    315.6   0.016542756   0.17189   0.26352  -0.31857  -0.03095
  34   31845.1    314.0   0.104304139   1.07829   0.22436  -0.88370   0.49703
  35   32296.6    309.6   0.022569229   0.23006  -0.32481   0.23574  -0.26265
  36   32530.4    307.4   0.003215714   0.03254   0.10485  -0.09974  -0.10772
  37   33173.3    301.4   0.035522274   0.35252  -0.02310   0.04877  -0.59128
  38   33416.3    299.3   0.130812183   1.28874   0.19121  -1.11110  -0.13284
  39   33538.9    298.2   0.038834274   0.38119   0.11882   0.10700  -0.59634
  40   33878.7    295.2   0.092203104   0.89597   0.60007   0.11683   0.72266
  41   34267.2    291.8   0.052358373   0.50302   0.40633  -0.57718  -0.06916
  42   34593.7    289.1   0.020135049   0.19162  -0.07222  -0.23816   0.36011
  43   34908.7    286.5   0.035715604   0.33682   0.57150  -0.05512   0.08470
  44   35253.2    283.7   0.015373667   0.14357  -0.02328   0.05134   0.37469
  45   35497.6    281.7   0.051610750   0.47865   0.13522  -0.41357   0.53789
  46   35603.4    280.9   0.066612904   0.61595  -0.28117  -0.64894   0.34024
  47   35978.5    277.9   0.121009809   1.10727   0.58841  -0.85076  -0.19298
  48   36058.7    277.3   0.140450304   1.28229   0.33985  -0.30806   1.03533
  49   36107.2    277.0   0.028583946   0.26062  -0.34567  -0.21261  -0.30972
  50   36164.2    276.5   0.039016294   0.35517   0.20455  -0.55962   0.01271
  51   36486.0    274.1   0.463614004   4.18317   0.83410  -1.78465   0.54997
  52   36703.7    272.5   0.135069943   1.21150   0.72238  -0.45146   0.69703
  53   36960.4    270.6   0.026682741   0.23767  -0.18329   0.09254  -0.44216
  54   37030.8    270.0   0.093538234   0.83158   0.23823  -0.87803  -0.06228
  55   37278.3    268.3   0.012614766   0.11140  -0.02671   0.32341  -0.07808
  56   37371.3    267.6   0.027344468   0.24088  -0.25933  -0.36187   0.20660
  57   37560.8    266.2   0.103749789   0.90934  -0.29996   0.90121  -0.08474
  58   38491.7    259.8   0.047085141   0.40271  -0.38482  -0.03424  -0.50344
  59   38642.6    258.8   0.075677030   0.64472   0.28433  -0.05918   0.74858
  60   38660.6    258.7   0.024655510   0.20995  -0.03080   0.44988  -0.08129
  61   38807.9    257.7   0.016577124   0.14063  -0.13524  -0.34924   0.01917
  62   39261.5    254.7   0.009711153   0.08143   0.20576  -0.01715   0.19697
  63   39299.4    254.5   0.007155136   0.05994  -0.14028   0.13489   0.14854
  64   39455.4    253.5   0.005366500   0.04478  -0.03956  -0.03139   0.20549
  65   39508.8    253.1   0.032625902   0.27186  -0.09008   0.49166   0.14837
  66   39778.9    251.4   0.003171558   0.02625   0.03627  -0.00267  -0.15788
  67   39937.1    250.4   0.006315167   0.05206   0.13003   0.17527   0.06655
  68   40018.1    249.9   0.012378258   0.10183  -0.22521  -0.13473   0.18154
  69   40162.0    249.0   0.015830716   0.12977  -0.20342  -0.23461   0.18260

FINAL SINGLE POINT ENERGY     -5151.354903776249

DIPOLE MOMENT
-------------
                                X             Y             Z
Electronic contribution:     -2.92648      14.64941     -24.05107
Nuclear contribution   :      5.29778     -16.81318      25.61058
                        -----------------------------------------
Total Dipole Moment    :      2.37130      -2.16378       1.55952
                        -----------------------------------------
Magnitude (a.u.)       :      3.56891
Magnitude (Debye)      :      9.07144

Rotational constants in cm-1:     0.002285     0.000232     0.000221
Rotational constants in MHz :    68.512526     6.965631     6.628938

                             ****ORCA TERMINATED NORMALLY****
TOTAL RUN TIME: 0 days 0 hours 10 minutes 24 seconds 856 msec
