                         Program Version 4.2.0 -  RELEASE  -
|  1> # ORCA input file
|  2> # SCF done       -207.601094958223          0.000461948415
|  3> ! CAM-B3LYP def2-SVP def2/J RIJCOSX Grid4 TightSCF
|  4> %maxcore 5000
|  5> %tddft
|  6>     Mode sTDDFT
|  7>     Ethresh 5.0
|  8>     maxcore 5000
|  9> end
| 10>
| 11> %pal
| 12>   nprocs 6
| 13>   end
| 14> * xyz 0 1
| 15>    C       -4.43936         0.05417        -1.65480
| 16>    O       -4.62693        -0.60339        -0.65593
| 17>    C       -4.20024         1.51284        -1.70029
| 18>    C       -4.00708         1.92598        -3.02943
| 19>    C       -3.75172         3.26355        -3.29929
| 20>    C       -3.69864         4.15892        -2.24234
| 21>    C       -3.89887         3.72847        -0.93624
| 22>    C       -4.15174         2.39549        -0.64120
| 23>   Br       -3.82008         4.99445         0.47590
| 24>    C       -4.13356         0.76398        -3.90314
| 25>    C       -4.15438         0.80117        -5.27247
| 26>    C       -3.98167         1.97853        -6.03209
| 27>    N       -3.84103         2.89755        -6.70463
| 28>    C       -4.39303        -0.30317        -6.11901
| 29>    N       -4.60446        -1.14499        -6.87072
| 30>    C       -4.33027        -0.40520        -3.06112
| 31>    C       -4.25756        -1.69489        -3.51286
| 32>    C       -4.52838        -2.91076        -2.85547
| 33>    C       -5.18362        -3.20245        -1.66271
| 34>    C       -5.29079        -4.56738        -1.44727
| 35>    C       -4.70338        -5.34288        -2.47789
| 36>    S       -4.04821        -4.38155        -3.71539
| 37>    C       -4.86209        -6.70987        -2.16709
| 38>    C       -5.55938        -6.80750        -0.94180
| 39>    C       -5.85541        -5.46821        -0.45555
| 40>    C       -6.54386        -5.14042         0.67426
| 41>    C       -7.04790        -6.12574         1.55132
| 42>    N       -7.45976        -6.92287         2.26497
| 43>    C       -6.82910        -3.80656         1.04106
| 44>    N       -7.09296        -2.73504         1.34954
| 45>    C       -5.79232        -8.11945        -0.56117
| 46>    C       -5.27763        -9.02727        -1.48259
| 47>    S       -4.48257        -8.23912        -2.83473
| 48>    C       -5.37840       -10.44008        -1.42745
| 49>    C       -4.80738       -11.25050        -2.43555
| 50>    C       -4.94919       -12.68219        -2.44579
| 51>    N       -4.39261       -13.39321        -3.43167
| 52>    C       -3.71940       -12.78722        -4.37977
| 53>    C       -3.57805       -11.36189        -4.36956
| 54>    N       -4.12065       -10.64879        -3.41243
| 55>    C       -2.84907       -10.70394        -5.39153
| 56>    N       -2.25522       -10.19528        -6.22781
| 57>    C       -3.13545       -13.56053        -5.41392
| 58>    N       -2.65445       -14.16315        -6.26032
| 59>    C       -5.67637       -13.37819        -1.45251
| 60>    C       -6.21470       -12.57494        -0.41923
| 61>    C       -6.06545       -11.13650        -0.40490
| 62>    N       -6.65936       -10.59724         0.66043
| 63>    S       -7.32576       -11.75214         1.54728
| 64>    N       -6.90915       -13.00170         0.63639
| 65>    C       -5.85943       -14.78124        -1.53120
| 66>    C       -6.59834       -15.57470        -0.65808
| 67>    C       -6.61201       -16.90280        -1.05273
| 68>    C       -5.86764       -17.13207        -2.23267
| 69>    S       -5.16017       -15.70373        -2.85191
| 70>    C       -5.95857       -18.50463        -2.55476
| 71>    C       -6.76944       -19.14269        -1.58813
| 72>    C       -7.19076       -18.15924        -0.60627
| 73>    C       -7.94533       -18.38553         0.50710
| 74>    C       -8.42112       -19.67763         0.81618
| 75>    N       -8.80239       -20.73450         1.04522
| 76>    C       -8.29341       -17.35361         1.40429
| 77>    N       -8.58347       -16.51342         2.12812
| 78>    C       -6.91870       -20.50113        -1.81785
| 79>    C       -6.22037       -20.92309        -2.94344
| 80>    S       -5.39751       -19.58685        -3.74136
| 81>    C       -6.15209       -22.21018        -3.51604
| 82>    C       -6.48064       -23.41533        -2.97125
| 83>    C       -6.74095       -24.55916        -3.89268
| 84>    O       -6.47544       -24.61351        -5.06900
| 85>    C       -7.43787       -25.56643        -3.06471
| 86>    C       -7.47054       -25.13233        -1.72645
| 87>    C       -6.74250       -23.86876        -1.62088
| 88>    C       -6.19719       -23.37668        -0.46435
| 89>    C       -6.39010       -23.96159         0.80595
| 90>    N       -6.51010       -24.40322         1.85761
| 91>    C       -5.30332       -22.28882        -0.41809
| 92>    N       -4.55592       -21.42096        -0.34080
| 93>    C       -8.11781       -25.89896        -0.76898
| 94>    C       -8.70873       -27.09091        -1.15954
| 95>    C       -8.64817       -27.51205        -2.48244
| 96>    C       -8.01471       -26.75569        -3.46013
| 97>   Br       -9.46028       -29.15838        -2.96587
| 98>    H       -3.58864         3.61922        -4.30317
| 99>    H       -3.49918         5.20200        -2.43412
|100>    H       -4.30730         2.05258         0.36994
|101>    H       -3.92994        -1.82729        -4.53776
|102>    H       -5.55165        -2.44031        -1.00063
|103>    H       -6.30780        -8.44091         0.32503
|104>    H       -7.09051       -15.16523         0.20495
|105>    H       -7.54084       -21.15449        -1.23415
|106>    H       -5.86464       -22.25172        -4.56263
|107>    H       -8.18286       -25.58269         0.25937
|108>    H       -9.22141       -27.69919        -0.43038
|109>    H       -7.97101       -27.07645        -4.48934
|110> *
|111>
|112>                          ****END OF INPUT****

CARTESIAN COORDINATES (ANGSTROEM)
---------------------------------
  C     -4.439360    0.054170   -1.654800
  O     -4.626930   -0.603390   -0.655930
  C     -4.200240    1.512840   -1.700290
  C     -4.007080    1.925980   -3.029430
  C     -3.751720    3.263550   -3.299290
  C     -3.698640    4.158920   -2.242340
  C     -3.898870    3.728470   -0.936240
  C     -4.151740    2.395490   -0.641200
  Br    -3.820080    4.994450    0.475900
  C     -4.133560    0.763980   -3.903140
  C     -4.154380    0.801170   -5.272470
  C     -3.981670    1.978530   -6.032090
  N     -3.841030    2.897550   -6.704630
  C     -4.393030   -0.303170   -6.119010
  N     -4.604460   -1.144990   -6.870720
  C     -4.330270   -0.405200   -3.061120
  C     -4.257560   -1.694890   -3.512860
  C     -4.528380   -2.910760   -2.855470
  C     -5.183620   -3.202450   -1.662710
  C     -5.290790   -4.567380   -1.447270
  C     -4.703380   -5.342880   -2.477890
  S     -4.048210   -4.381550   -3.715390
  C     -4.862090   -6.709870   -2.167090
  C     -5.559380   -6.807500   -0.941800
  C     -5.855410   -5.468210   -0.455550
  C     -6.543860   -5.140420    0.674260
  C     -7.047900   -6.125740    1.551320
  N     -7.459760   -6.922870    2.264970
  C     -6.829100   -3.806560    1.041060
  N     -7.092960   -2.735040    1.349540
  C     -5.792320   -8.119450   -0.561170
  C     -5.277630   -9.027270   -1.482590
  S     -4.482570   -8.239120   -2.834730
  C     -5.378400  -10.440080   -1.427450
  C     -4.807380  -11.250500   -2.435550
  C     -4.949190  -12.682190   -2.445790
  N     -4.392610  -13.393210   -3.431670
  C     -3.719400  -12.787220   -4.379770
  C     -3.578050  -11.361890   -4.369560
  N     -4.120650  -10.648790   -3.412430
  C     -2.849070  -10.703940   -5.391530
  N     -2.255220  -10.195280   -6.227810
  C     -3.135450  -13.560530   -5.413920
  N     -2.654450  -14.163150   -6.260320
  C     -5.676370  -13.378190   -1.452510
  C     -6.214700  -12.574940   -0.419230
  C     -6.065450  -11.136500   -0.404900
  N     -6.659360  -10.597240    0.660430
  S     -7.325760  -11.752140    1.547280
  N     -6.909150  -13.001700    0.636390
  C     -5.859430  -14.781240   -1.531200
  C     -6.598340  -15.574700   -0.658080
  C     -6.612010  -16.902800   -1.052730
  C     -5.867640  -17.132070   -2.232670
  S     -5.160170  -15.703730   -2.851910
  C     -5.958570  -18.504630   -2.554760
  C     -6.769440  -19.142690   -1.588130
  C     -7.190760  -18.159240   -0.606270
  C     -7.945330  -18.385530    0.507100
  C     -8.421120  -19.677630    0.816180
  N     -8.802390  -20.734500    1.045220
  C     -8.293410  -17.353610    1.404290
  N     -8.583470  -16.513420    2.128120
  C     -6.918700  -20.501130   -1.817850
  C     -6.220370  -20.923090   -2.943440
  S     -5.397510  -19.586850   -3.741360
  C     -6.152090  -22.210180   -3.516040
  C     -6.480640  -23.415330   -2.971250
  C     -6.740950  -24.559160   -3.892680
  O     -6.475440  -24.613510   -5.069000
  C     -7.437870  -25.566430   -3.064710
  C     -7.470540  -25.132330   -1.726450
  C     -6.742500  -23.868760   -1.620880
  C     -6.197190  -23.376680   -0.464350
  C     -6.390100  -23.961590    0.805950
  N     -6.510100  -24.403220    1.857610
  C     -5.303320  -22.288820   -0.418090
  N     -4.555920  -21.420960   -0.340800
  C     -8.117810  -25.898960   -0.768980
  C     -8.708730  -27.090910   -1.159540
  C     -8.648170  -27.512050   -2.482440
  C     -8.014710  -26.755690   -3.460130
  Br    -9.460280  -29.158380   -2.965870
  H     -3.588640    3.619220   -4.303170
  H     -3.499180    5.202000   -2.434120
  H     -4.307300    2.052580    0.369940
  H     -3.929940   -1.827290   -4.537760
  H     -5.551650   -2.440310   -1.000630
  H     -6.307800   -8.440910    0.325030
  H     -7.090510  -15.165230    0.204950
  H     -7.540840  -21.154490   -1.234150
  H     -5.864640  -22.251720   -4.562630
  H     -8.182860  -25.582690    0.259370
  H     -9.221410  -27.699190   -0.430380
  H     -7.971010  -27.076450   -4.489340

 Total Charge           Charge          ....    0
 Multiplicity           Mult            ....    1
 Number of Electrons    NEL             ....  636
 Basis Dimension        Dim             .... 1278

ORBITAL ENERGIES
----------------

  NO   OCC          E(Eh)            E(eV)
   0   2.0000    -482.876651    -13139.7417
   1   2.0000    -482.875714    -13139.7162
   2   2.0000     -89.067194     -2423.6416
   3   2.0000     -89.005430     -2421.9609
   4   2.0000     -89.003566     -2421.9101
   5   2.0000     -89.000739     -2421.8332
   6   2.0000     -89.000198     -2421.8185
   7   2.0000     -62.554364     -1702.1908
   8   2.0000     -62.553403     -1702.1646
   9   2.0000     -56.388206     -1534.4011
  10   2.0000     -56.387245     -1534.3749
  11   2.0000     -56.385670     -1534.3321
  12   2.0000     -56.385666     -1534.3320
  13   2.0000     -56.384717     -1534.3061
  14   2.0000     -56.384700     -1534.3057
  15   2.0000     -19.229780      -523.2689
  16   2.0000     -19.228133      -523.2241
  17   2.0000     -14.492293      -394.3553
  18   2.0000     -14.491896      -394.3445
  19   2.0000     -14.475109      -393.8877
  20   2.0000     -14.474621      -393.8745
  21   2.0000     -14.451662      -393.2497
  22   2.0000     -14.451550      -393.2467
  23   2.0000     -14.440843      -392.9553
  24   2.0000     -14.439653      -392.9229
  25   2.0000     -14.438716      -392.8974
  26   2.0000     -14.435337      -392.8055
  27   2.0000     -14.427389      -392.5892
  28   2.0000     -14.424597      -392.5132
  29   2.0000     -14.421987      -392.4422
  30   2.0000     -14.421450      -392.4276
  31   2.0000     -10.409864      -283.2668
  32   2.0000     -10.409322      -283.2520
  33   2.0000     -10.380784      -282.4755
  34   2.0000     -10.378787      -282.4211
  35   2.0000     -10.375661      -282.3361
  36   2.0000     -10.374597      -282.3071
  37   2.0000     -10.373184      -282.2687
  38   2.0000     -10.372925      -282.2616
  39   2.0000     -10.367800      -282.1222
  40   2.0000     -10.367557      -282.1156
  41   2.0000     -10.362858      -281.9877
  42   2.0000     -10.361252      -281.9440
  43   2.0000     -10.355083      -281.7761
  44   2.0000     -10.353271      -281.7268
  45   2.0000     -10.352993      -281.7193
  46   2.0000     -10.351769      -281.6860
  47   2.0000     -10.351718      -281.6846
  48   2.0000     -10.350550      -281.6528
  49   2.0000     -10.350048      -281.6391
  50   2.0000     -10.349487      -281.6239
  51   2.0000     -10.346217      -281.5349
  52   2.0000     -10.344681      -281.4931
  53   2.0000     -10.344559      -281.4898
  54   2.0000     -10.344487      -281.4878
  55   2.0000     -10.342673      -281.4384
  56   2.0000     -10.342132      -281.4237
  57   2.0000     -10.341505      -281.4067
  58   2.0000     -10.340999      -281.3929
  59   2.0000     -10.339684      -281.3571
  60   2.0000     -10.339496      -281.3520
  61   2.0000     -10.339339      -281.3477
  62   2.0000     -10.338723      -281.3310
  63   2.0000     -10.337964      -281.3103
  64   2.0000     -10.336391      -281.2675
  65   2.0000     -10.334828      -281.2250
  66   2.0000     -10.334453      -281.2148
  67   2.0000     -10.328205      -281.0447
  68   2.0000     -10.327174      -281.0167
  69   2.0000     -10.324092      -280.9328
  70   2.0000     -10.323990      -280.9301
  71   2.0000     -10.322424      -280.8874
  72   2.0000     -10.319147      -280.7983
  73   2.0000     -10.318405      -280.7781
  74   2.0000     -10.318065      -280.7688
  75   2.0000     -10.316988      -280.7395
  76   2.0000     -10.316544      -280.7274
  77   2.0000     -10.316056      -280.7142
  78   2.0000     -10.315551      -280.7004
  79   2.0000     -10.313927      -280.6562
  80   2.0000     -10.312533      -280.6183
  81   2.0000     -10.311531      -280.5910
  82   2.0000     -10.311054      -280.5780
  83   2.0000     -10.310985      -280.5762
  84   2.0000     -10.310007      -280.5496
  85   2.0000     -10.308898      -280.5194
  86   2.0000     -10.308870      -280.5186
  87   2.0000     -10.308376      -280.5052
  88   2.0000     -10.307544      -280.4825
  89   2.0000     -10.307009      -280.4680
  90   2.0000     -10.304736      -280.4061
  91   2.0000      -8.783656      -239.0154
  92   2.0000      -8.782689      -238.9891
  93   2.0000      -8.158122      -221.9938
  94   2.0000      -8.100167      -220.4168
  95   2.0000      -8.098426      -220.3694
  96   2.0000      -8.093344      -220.2311
  97   2.0000      -8.092780      -220.2157
  98   2.0000      -6.619528      -180.1265
  99   2.0000      -6.618538      -180.0996
 100   2.0000      -6.605751      -179.7516
 101   2.0000      -6.605318      -179.7398
 102   2.0000      -6.604806      -179.7259
 103   2.0000      -6.604340      -179.7132
 104   2.0000      -6.129170      -166.7832
 105   2.0000      -6.121209      -166.5666
 106   2.0000      -6.121119      -166.5641
 107   2.0000      -6.069275      -165.1534
 108   2.0000      -6.067492      -165.1048
 109   2.0000      -6.065126      -165.0405
 110   2.0000      -6.063354      -164.9922
 111   2.0000      -6.062911      -164.9802
 112   2.0000      -6.062705      -164.9746
 113   2.0000      -6.062342      -164.9647
 114   2.0000      -6.060996      -164.9281
 115   2.0000      -6.058064      -164.8483
 116   2.0000      -6.057534      -164.8339
 117   2.0000      -6.055776      -164.7860
 118   2.0000      -6.055203      -164.7704
 119   2.0000      -2.735462       -74.4357
 120   2.0000      -2.734514       -74.4099
 121   2.0000      -2.731687       -74.3330
 122   2.0000      -2.731355       -74.3240
 123   2.0000      -2.730705       -74.3062
 124   2.0000      -2.730354       -74.2967
 125   2.0000      -2.720409       -74.0261
 126   2.0000      -2.720390       -74.0256
 127   2.0000      -2.719437       -73.9996
 128   2.0000      -2.719427       -73.9994
 129   2.0000      -1.165073       -31.7032
 130   2.0000      -1.151166       -31.3248
 131   2.0000      -1.145717       -31.1765
 132   2.0000      -1.144100       -31.1325
 133   2.0000      -1.079983       -29.3878
 134   2.0000      -1.058329       -28.7986
 135   2.0000      -1.056754       -28.7557
 136   2.0000      -1.037363       -28.2281
 137   2.0000      -1.032436       -28.0940
 138   2.0000      -1.029961       -28.0267
 139   2.0000      -1.029705       -28.0197
 140   2.0000      -1.027826       -27.9686
 141   2.0000      -1.026853       -27.9421
 142   2.0000      -1.021145       -27.7868
 143   2.0000      -1.018095       -27.7038
 144   2.0000      -1.016710       -27.6661
 145   2.0000      -1.013754       -27.5857
 146   2.0000      -1.010232       -27.4898
 147   2.0000      -1.008820       -27.4514
 148   2.0000      -1.007367       -27.4119
 149   2.0000      -1.002041       -27.2669
 150   2.0000      -1.001314       -27.2471
 151   2.0000      -0.996872       -27.1263
 152   2.0000      -0.975102       -26.5339
 153   2.0000      -0.972431       -26.4612
 154   2.0000      -0.968708       -26.3599
 155   2.0000      -0.966080       -26.2884
 156   2.0000      -0.937015       -25.4975
 157   2.0000      -0.934611       -25.4321
 158   2.0000      -0.929398       -25.2902
 159   2.0000      -0.918653       -24.9978
 160   2.0000      -0.917691       -24.9716
 161   2.0000      -0.915837       -24.9212
 162   2.0000      -0.905770       -24.6473
 163   2.0000      -0.899185       -24.4681
 164   2.0000      -0.886927       -24.1345
 165   2.0000      -0.885316       -24.0907
 166   2.0000      -0.878688       -23.9103
 167   2.0000      -0.873523       -23.7698
 168   2.0000      -0.869523       -23.6609
 169   2.0000      -0.868191       -23.6247
 170   2.0000      -0.861749       -23.4494
 171   2.0000      -0.858780       -23.3686
 172   2.0000      -0.857503       -23.3338
 173   2.0000      -0.832226       -22.6460
 174   2.0000      -0.828264       -22.5382
 175   2.0000      -0.810512       -22.0551
 176   2.0000      -0.804132       -21.8816
 177   2.0000      -0.790442       -21.5090
 178   2.0000      -0.786074       -21.3902
 179   2.0000      -0.776792       -21.1376
 180   2.0000      -0.776104       -21.1189
 181   2.0000      -0.771224       -20.9861
 182   2.0000      -0.763598       -20.7786
 183   2.0000      -0.749233       -20.3877
 184   2.0000      -0.732806       -19.9407
 185   2.0000      -0.728932       -19.8352
 186   2.0000      -0.727960       -19.8088
 187   2.0000      -0.715410       -19.4673
 188   2.0000      -0.711727       -19.3671
 189   2.0000      -0.709276       -19.3004
 190   2.0000      -0.704095       -19.1594
 191   2.0000      -0.701249       -19.0820
 192   2.0000      -0.697421       -18.9778
 193   2.0000      -0.694002       -18.8848
 194   2.0000      -0.691034       -18.8040
 195   2.0000      -0.688781       -18.7427
 196   2.0000      -0.682944       -18.5838
 197   2.0000      -0.678269       -18.4566
 198   2.0000      -0.663791       -18.0627
 199   2.0000      -0.659316       -17.9409
 200   2.0000      -0.652112       -17.7449
 201   2.0000      -0.649676       -17.6786
 202   2.0000      -0.645088       -17.5537
 203   2.0000      -0.641774       -17.4636
 204   2.0000      -0.631631       -17.1876
 205   2.0000      -0.629509       -17.1298
 206   2.0000      -0.626594       -17.0505
 207   2.0000      -0.624356       -16.9896
 208   2.0000      -0.622057       -16.9270
 209   2.0000      -0.616116       -16.7654
 210   2.0000      -0.607548       -16.5322
 211   2.0000      -0.607244       -16.5240
 212   2.0000      -0.600892       -16.3511
 213   2.0000      -0.593035       -16.1373
 214   2.0000      -0.590012       -16.0550
 215   2.0000      -0.583742       -15.8844
 216   2.0000      -0.580839       -15.8054
 217   2.0000      -0.574144       -15.6233
 218   2.0000      -0.568522       -15.4703
 219   2.0000      -0.563284       -15.3277
 220   2.0000      -0.561018       -15.2661
 221   2.0000      -0.559136       -15.2149
 222   2.0000      -0.556569       -15.1450
 223   2.0000      -0.551847       -15.0165
 224   2.0000      -0.550561       -14.9815
 225   2.0000      -0.549103       -14.9418
 226   2.0000      -0.547917       -14.9096
 227   2.0000      -0.546557       -14.8726
 228   2.0000      -0.543056       -14.7773
 229   2.0000      -0.539003       -14.6670
 230   2.0000      -0.536884       -14.6094
 231   2.0000      -0.533545       -14.5185
 232   2.0000      -0.526851       -14.3363
 233   2.0000      -0.526779       -14.3344
 234   2.0000      -0.523772       -14.2526
 235   2.0000      -0.516891       -14.0653
 236   2.0000      -0.516646       -14.0587
 237   2.0000      -0.513946       -13.9852
 238   2.0000      -0.513599       -13.9757
 239   2.0000      -0.511500       -13.9186
 240   2.0000      -0.510706       -13.8970
 241   2.0000      -0.507788       -13.8176
 242   2.0000      -0.504707       -13.7338
 243   2.0000      -0.503681       -13.7059
 244   2.0000      -0.501402       -13.6438
 245   2.0000      -0.498051       -13.5526
 246   2.0000      -0.496683       -13.5154
 247   2.0000      -0.493366       -13.4252
 248   2.0000      -0.490119       -13.3368
 249   2.0000      -0.489464       -13.3190
 250   2.0000      -0.487437       -13.2638
 251   2.0000      -0.483403       -13.1541
 252   2.0000      -0.481516       -13.1027
 253   2.0000      -0.481145       -13.0926
 254   2.0000      -0.477557       -12.9950
 255   2.0000      -0.473983       -12.8977
 256   2.0000      -0.471849       -12.8397
 257   2.0000      -0.471090       -12.8190
 258   2.0000      -0.470946       -12.8151
 259   2.0000      -0.470600       -12.8057
 260   2.0000      -0.468673       -12.7532
 261   2.0000      -0.468147       -12.7389
 262   2.0000      -0.466738       -12.7006
 263   2.0000      -0.464910       -12.6508
 264   2.0000      -0.462667       -12.5898
 265   2.0000      -0.460291       -12.5251
 266   2.0000      -0.459604       -12.5065
 267   2.0000      -0.457893       -12.4599
 268   2.0000      -0.457471       -12.4484
 269   2.0000      -0.456868       -12.4320
 270   2.0000      -0.455622       -12.3981
 271   2.0000      -0.450263       -12.2523
 272   2.0000      -0.450047       -12.2464
 273   2.0000      -0.449719       -12.2375
 274   2.0000      -0.449131       -12.2215
 275   2.0000      -0.448599       -12.2070
 276   2.0000      -0.447459       -12.1760
 277   2.0000      -0.446623       -12.1532
 278   2.0000      -0.445895       -12.1334
 279   2.0000      -0.440912       -11.9978
 280   2.0000      -0.437898       -11.9158
 281   2.0000      -0.436564       -11.8795
 282   2.0000      -0.435681       -11.8555
 283   2.0000      -0.434865       -11.8333
 284   2.0000      -0.434636       -11.8271
 285   2.0000      -0.433633       -11.7998
 286   2.0000      -0.431695       -11.7470
 287   2.0000      -0.430770       -11.7218
 288   2.0000      -0.430069       -11.7028
 289   2.0000      -0.423674       -11.5288
 290   2.0000      -0.422323       -11.4920
 291   2.0000      -0.418951       -11.4002
 292   2.0000      -0.416094       -11.3225
 293   2.0000      -0.409283       -11.1371
 294   2.0000      -0.406308       -11.0562
 295   2.0000      -0.403709       -10.9855
 296   2.0000      -0.399959       -10.8834
 297   2.0000      -0.386303       -10.5119
 298   2.0000      -0.379225       -10.3192
 299   2.0000      -0.374854       -10.2003
 300   2.0000      -0.372644       -10.1402
 301   2.0000      -0.371497       -10.1089
 302   2.0000      -0.370200       -10.0737
 303   2.0000      -0.365307        -9.9405
 304   2.0000      -0.360954        -9.8221
 305   2.0000      -0.359365        -9.7788
 306   2.0000      -0.357552        -9.7295
 307   2.0000      -0.356384        -9.6977
 308   2.0000      -0.353353        -9.6152
 309   2.0000      -0.348982        -9.4963
 310   2.0000      -0.344452        -9.3730
 311   2.0000      -0.333392        -9.0721
 312   2.0000      -0.331856        -9.0303
 313   2.0000      -0.320695        -8.7266
 314   2.0000      -0.315814        -8.5937
 315   2.0000      -0.311715        -8.4822
 316   2.0000      -0.288084        -7.8392
 317   2.0000      -0.256033        -6.9670
 318   0.0000      -0.154623        -4.2075
 319   0.0000      -0.118655        -3.2288
 320   0.0000      -0.112961        -3.0738
 321   0.0000      -0.095383        -2.5955
 322   0.0000      -0.094506        -2.5716

MULLIKEN ATOMIC CHARGES
-----------------------
   0 C :    0.155989
   1 O :   -0.142697
   2 C :   -0.026334
   3 C :    0.035462
   4 C :   -0.023346
   5 C :    0.050448
   6 C :   -0.004975
   7 C :   -0.009313
   8 Br:   -0.013883
   9 C :    0.293408
  10 C :   -0.338822
  11 C :   -0.186831
  12 N :    0.156568
  13 C :   -0.198919
  14 N :    0.159145
  15 C :   -0.089550
  16 C :    0.035529
  17 C :   -0.112793
  18 C :    0.011356
  19 C :   -0.013113
  20 C :   -0.088689
  21 S :    0.218152
  22 C :   -0.062562
  23 C :    0.044428
  24 C :    0.311055
  25 C :   -0.297341
  26 C :   -0.189243
  27 N :    0.172921
  28 C :   -0.188715
  29 N :    0.192081
  30 C :   -0.064585
  31 C :   -0.171581
  32 S :    0.213691
  33 C :    0.187410
  34 C :   -0.057578
  35 C :   -0.059407
  36 N :   -0.002140
  37 C :   -0.098707
  38 C :   -0.095629
  39 N :   -0.001990
  40 C :   -0.241796
  41 N :    0.258529
  42 C :   -0.242875
  43 N :    0.258459
  44 C :    0.191263
  45 C :   -0.007511
  46 C :   -0.008053
  47 N :   -0.282694
  48 S :    0.597920
  49 N :   -0.284709
  50 C :   -0.173737
  51 C :   -0.065601
  52 C :    0.045774
  53 C :   -0.062122
  54 S :    0.214334
  55 C :   -0.079404
  56 C :   -0.003037
  57 C :    0.308973
  58 C :   -0.288433
  59 C :   -0.183577
  60 N :    0.171914
  61 C :   -0.184735
  62 N :    0.174184
  63 C :   -0.002292
  64 C :   -0.109908
  65 S :    0.226855
  66 C :    0.086410
  67 C :   -0.136196
  68 C :    0.136746
  69 O :   -0.133619
  70 C :   -0.002391
  71 C :    0.014212
  72 C :    0.259820
  73 C :   -0.324764
  74 C :   -0.175378
  75 N :    0.168810
  76 C :   -0.200496
  77 N :    0.173259
  78 C :   -0.022146
  79 C :    0.050535
  80 C :   -0.007170
  81 C :   -0.012269
  82 Br:   -0.014810
  83 H :    0.009250
  84 H :    0.007971
  85 H :    0.007530
  86 H :    0.018633
  87 H :    0.038199
  88 H :    0.025183
  89 H :    0.024310
  90 H :    0.025780
  91 H :    0.023514
  92 H :    0.017151
  93 H :    0.009463
  94 H :    0.005844
Sum of atomic charges:   -0.0000000

LOEWDIN ATOMIC CHARGES
----------------------
   0 C :    0.086838
   1 O :   -0.128983
   2 C :   -0.037513
   3 C :   -0.016608
   4 C :    0.008738
   5 C :   -0.011659
   6 C :   -0.097330
   7 C :    0.002207
   8 Br:    0.120210
   9 C :    0.074345
  10 C :   -0.136204
  11 C :   -0.019161
  12 N :   -0.046939
  13 C :   -0.025100
  14 N :   -0.047774
  15 C :   -0.094598
  16 C :    0.042807
  17 C :   -0.173376
  18 C :    0.019385
  19 C :   -0.067864
  20 C :   -0.160841
  21 S :    0.503607
  22 C :   -0.183973
  23 C :   -0.060452
  24 C :    0.074762
  25 C :   -0.093207
  26 C :   -0.015229
  27 N :   -0.030183
  28 C :   -0.022132
  29 N :   -0.015930
  30 C :   -0.008178
  31 C :   -0.159510
  32 S :    0.514818
  33 C :   -0.038480
  34 C :   -0.012742
  35 C :   -0.014218
  36 N :   -0.015652
  37 C :   -0.019340
  38 C :   -0.017384
  39 N :   -0.016475
  40 C :   -0.040396
  41 N :    0.008511
  42 C :   -0.040394
  43 N :    0.007085
  44 C :   -0.033633
  45 C :   -0.036485
  46 C :   -0.035416
  47 N :   -0.270045
  48 S :    0.715380
  49 N :   -0.269903
  50 C :   -0.163200
  51 C :   -0.003719
  52 C :   -0.064307
  53 C :   -0.176190
  54 S :    0.516733
  55 C :   -0.162249
  56 C :   -0.058220
  57 C :    0.080606
  58 C :   -0.096267
  59 C :   -0.012885
  60 N :   -0.031275
  61 C :   -0.016515
  62 N :   -0.028137
  63 C :    0.008819
  64 C :   -0.176143
  65 S :    0.508399
  66 C :    0.041904
  67 C :   -0.088740
  68 C :    0.084752
  69 O :   -0.132879
  70 C :   -0.040923
  71 C :   -0.012431
  72 C :    0.063472
  73 C :   -0.131225
  74 C :   -0.019971
  75 N :   -0.039042
  76 C :   -0.015724
  77 N :   -0.041884
  78 C :    0.008908
  79 C :   -0.009244
  80 C :   -0.098767
  81 C :    0.001853
  82 Br:    0.119393
  83 H :    0.043267
  84 H :    0.041127
  85 H :    0.045727
  86 H :    0.044040
  87 H :    0.044770
  88 H :    0.039313
  89 H :    0.039687
  90 H :    0.042742
  91 H :    0.047216
  92 H :    0.045060
  93 H :    0.041667
  94 H :    0.045091

  Mayer bond orders larger than 0.100000
B(  0-C ,  1-O ) :   2.1887 B(  0-C ,  2-C ) :   0.9477 B(  0-C , 15-C ) :   0.9455
B(  2-C ,  3-C ) :   1.3320 B(  2-C ,  7-C ) :   1.3801 B(  3-C ,  4-C ) :   1.3615
B(  3-C ,  9-C ) :   0.9947 B(  4-C ,  5-C ) :   1.3845 B(  4-C , 83-H ) :   0.9849
B(  5-C ,  6-C ) :   1.3862 B(  5-C , 84-H ) :   0.9845 B(  6-C ,  7-C ) :   1.3358
B(  6-C ,  8-Br) :   0.9969 B(  7-C , 85-H ) :   1.0080 B(  9-C , 10-C ) :   1.6391
B(  9-C , 15-C ) :   1.0745 B( 10-C , 11-C ) :   1.1402 B( 10-C , 13-C ) :   1.1365
B( 11-C , 12-N ) :   2.9780 B( 13-C , 14-N ) :   2.9883 B( 15-C , 16-C ) :   1.5977
B( 16-C , 17-C ) :   1.2093 B( 16-C , 86-H ) :   0.9189 B( 17-C , 18-C ) :   1.3922
B( 17-C , 21-S ) :   1.0812 B( 18-C , 19-C ) :   1.3344 B( 18-C , 87-H ) :   0.9721
B( 19-C , 20-C ) :   1.3684 B( 19-C , 24-C ) :   0.9925 B( 20-C , 21-S ) :   1.1641
B( 20-C , 22-C ) :   1.2164 B( 22-C , 23-C ) :   1.3937 B( 22-C , 32-S ) :   1.0811
B( 23-C , 24-C ) :   0.9909 B( 23-C , 30-C ) :   1.2868 B( 24-C , 25-C ) :   1.7174
B( 25-C , 26-C ) :   1.1406 B( 25-C , 28-C ) :   1.1321 B( 26-C , 27-N ) :   2.9828
B( 28-C , 29-N ) :   2.9959 B( 30-C , 31-C ) :   1.4031 B( 30-C , 88-H ) :   0.9811
B( 31-C , 32-S ) :   1.0951 B( 31-C , 33-C ) :   1.2112 B( 33-C , 34-C ) :   1.2529
B( 33-C , 44-C ) :   0.1225 B( 33-C , 46-C ) :   1.1961 B( 34-C , 35-C ) :   1.1115
B( 34-C , 39-N ) :   1.4017 B( 35-C , 36-N ) :   1.4069 B( 35-C , 44-C ) :   1.2483
B( 36-N , 37-C ) :   1.6910 B( 37-C , 38-C ) :   1.2201 B( 37-C , 42-C ) :   1.1694
B( 38-C , 39-N ) :   1.6956 B( 38-C , 40-C ) :   1.1649 B( 40-C , 41-N ) :   3.0407
B( 42-C , 43-N ) :   3.0393 B( 44-C , 45-C ) :   1.1964 B( 44-C , 50-C ) :   1.2174
B( 45-C , 46-C ) :   1.0981 B( 45-C , 49-N ) :   1.5130 B( 46-C , 47-N ) :   1.5157
B( 47-N , 48-S ) :   1.2881 B( 47-N , 49-N ) :   0.1459 B( 48-S , 49-N ) :   1.2891
B( 50-C , 51-C ) :   1.4001 B( 50-C , 54-S ) :   1.0900 B( 51-C , 52-C ) :   1.2899
B( 51-C , 89-H ) :   0.9824 B( 52-C , 53-C ) :   1.3916 B( 52-C , 57-C ) :   0.9886
B( 53-C , 54-S ) :   1.0882 B( 53-C , 55-C ) :   1.2123 B( 55-C , 56-C ) :   1.3942
B( 55-C , 65-S ) :   1.1509 B( 56-C , 57-C ) :   0.9956 B( 56-C , 63-C ) :   1.3681
B( 57-C , 58-C ) :   1.7193 B( 58-C , 59-C ) :   1.1318 B( 58-C , 61-C ) :   1.1366
B( 59-C , 60-N ) :   2.9828 B( 61-C , 62-N ) :   2.9854 B( 63-C , 64-C ) :   1.3823
B( 63-C , 90-H ) :   0.9780 B( 64-C , 65-S ) :   1.0976 B( 64-C , 66-C ) :   1.1420
B( 66-C , 67-C ) :   1.6738 B( 66-C , 91-H ) :   0.9262 B( 67-C , 68-C ) :   0.9447
B( 67-C , 72-C ) :   1.0353 B( 68-C , 69-O ) :   2.2695 B( 68-C , 70-C ) :   0.9200
B( 70-C , 71-C ) :   1.3340 B( 70-C , 81-C ) :   1.3813 B( 71-C , 72-C ) :   1.0028
B( 71-C , 78-C ) :   1.3681 B( 72-C , 73-C ) :   1.6576 B( 73-C , 74-C ) :   1.1260
B( 73-C , 76-C ) :   1.1696 B( 74-C , 75-N ) :   2.9996 B( 76-C , 77-N ) :   2.9972
B( 78-C , 79-C ) :   1.3809 B( 78-C , 92-H ) :   0.9872 B( 79-C , 80-C ) :   1.3898
B( 79-C , 93-H ) :   0.9855 B( 80-C , 81-C ) :   1.3384 B( 80-C , 82-Br) :   0.9963
B( 81-C , 94-H ) :   1.0081

-----------------------------------------------------------------------------
         ABSORPTION SPECTRUM VIA TRANSITION ELECTRIC DIPOLE MOMENTS
-----------------------------------------------------------------------------
State   Energy  Wavelength   fosc         T2         TX        TY        TZ
        (cm-1)    (nm)                  (au**2)     (au)      (au)      (au)
-----------------------------------------------------------------------------
   0    7312.0   1367.6   0.773815317  34.83983   0.60073   5.86947  -0.16810
   1   13737.2    727.9   0.002533636   0.06072   0.10023   0.14828   0.16937
   2   14482.1    690.5   0.090342958   2.05371  -0.08793  -1.41896   0.18035
   3   15953.0    626.8   0.002044924   0.04220   0.16914   0.04123   0.10905
   4   20294.2    492.8   0.985502387  15.98679   0.29821   3.95966  -0.46790
   5   21102.3    473.9   0.602015297   9.39191   0.25229   3.00110  -0.56716
   6   21629.6    462.3   0.117601261   1.78994   0.08771   1.30328  -0.28933
   7   23118.6    432.6   0.006884140   0.09803   0.10256   0.24131   0.17112
   8   23323.2    428.8   0.014511568   0.20483   0.28436  -0.07682  -0.34362
   9   23508.2    425.4   0.122872793   1.72073  -0.69261  -0.71433   0.85484
  10   24479.3    408.5   0.015020226   0.20200   0.03661  -0.00833  -0.44787
  11   24589.1    406.7   0.014993191   0.20074  -0.17695  -0.11450   0.39537
  12   24913.4    401.4   0.034276285   0.45293  -0.12523  -0.41256  -0.51677
  13   25164.2    397.4   0.001312839   0.01718   0.01193  -0.06874   0.11094
  14   25289.1    395.4   0.011697369   0.15228   0.35777   0.13894  -0.07051
  15   25607.5    390.5   0.021513127   0.27657  -0.04971  -0.34816  -0.39101
  16   26877.5    372.1   0.127562346   1.56246   0.20438   1.13345   0.48579
  17   27473.8    364.0   0.210626773   2.52389  -0.18677  -1.48792  -0.52452
  18   27833.6    359.3   0.027958803   0.33069  -0.15120   0.33900   0.43921
  19   28816.6    347.0   0.063610452   0.72671  -0.39804   0.61943   0.42963
  20   29028.5    344.5   0.020980455   0.23794  -0.21251   0.05952   0.43501
  21   29332.1    340.9   0.028995900   0.32544   0.16420   0.53120   0.12767
  22   29581.9    338.0   0.047064645   0.52377   0.55316   0.11079  -0.45334
  23   29609.2    337.7   0.012606040   0.14016   0.36151  -0.04371   0.08695
  24   29996.4    333.4   0.196441439   2.15596  -0.61581  -0.14308   1.32524
  25   30282.9    330.2   0.007493509   0.08146   0.00279  -0.09845  -0.26789
  26   30500.9    327.9   0.004756211   0.05134  -0.07651   0.04437  -0.20860
  27   30546.0    327.4   0.027096534   0.29203   0.20423  -0.04763   0.49805
  28   31050.0    322.1   0.227159857   2.40849   0.79749   0.87883  -1.00008
  29   31244.0    320.1   0.697487410   7.34928  -0.44912  -2.59198  -0.65515
  30   31363.3    318.8   0.177537446   1.86356   0.37472   1.28834  -0.25165
  31   31852.1    314.0   0.291142848   3.00915  -1.25912   0.54231   1.06286
  32   32012.9    312.4   0.164771449   1.69446   0.93798   0.07680  -0.89931
  33   32193.8    310.6   0.716607420   7.32798   1.29594   0.03638  -2.37639
  34   32348.0    309.1   0.042718004   0.43475  -0.01359  -0.56051  -0.34698
  35   32833.4    304.6   0.079329964   0.79542  -0.20192  -0.70460  -0.50813
  36   32926.2    303.7   0.039977947   0.39972   0.05013   0.42270   0.46747
  37   33259.2    300.7   0.038879643   0.38485  -0.27717  -0.54595  -0.09980
  38   33385.4    299.5   0.095062372   0.93741  -0.20788  -0.53901  -0.77695
  39   33631.3    297.3   0.053857428   0.52720  -0.12891  -0.70140   0.13647
  40   33713.5    296.6   0.054069350   0.52799   0.13584   0.67728  -0.22544
  41   33997.5    294.1   0.048148882   0.46625  -0.01671  -0.38419  -0.56424
  42   34038.7    293.8   0.118859455   1.14957  -0.07379   0.15195   1.05879
  43   34244.4    292.0   0.055210182   0.53077   0.28627   0.39149   0.54365
  44   34320.4    291.4   0.021248082   0.20382   0.16286   0.16358  -0.38799
  45   34510.4    289.8   0.065208369   0.62205   0.36694   0.57341  -0.39826
  46   34666.8    288.5   0.178077561   1.69111   0.02437   1.18497   0.53511
  47   34855.3    286.9   0.216212952   2.04215   0.35801  -0.56839  -1.26131
  48   35218.6    283.9   0.220957689   2.06544   0.49393   0.72500   1.13836
  49   35353.7    282.9   0.062430904   0.58135   0.63159   0.18234  -0.38627
  50   35763.3    279.6   0.576245636   5.30451   0.38534  -0.81059  -2.12108
  51   35822.6    279.2   0.226532353   2.08185   0.66483   1.10821   0.64166
  52   36229.7    276.0   0.022461224   0.20410  -0.21436   0.32296   0.23205
  53   36362.0    275.0   0.048636581   0.44034  -0.15624   0.37958   0.52139
  54   36523.4    273.8   0.096288806   0.86792  -0.39709  -0.47213   0.69809
  55   36596.0    273.3   0.073375494   0.66007   0.16333   0.76032   0.23517
  56   36998.6    270.3   0.027168431   0.24174   0.17247   0.42509  -0.17692
  57   37163.9    269.1   0.017665020   0.15648  -0.32618  -0.16611  -0.14999
  58   37382.0    267.5   0.014021430   0.12348   0.07675  -0.22447   0.25924
  59   37741.4    265.0   0.009459433   0.08251  -0.04567   0.13462   0.24961
  60   37888.0    263.9   0.014475366   0.12578  -0.03185   0.35322   0.00139
  61   37926.3    263.7   0.005982193   0.05193  -0.03210  -0.20870   0.08568
  62   38117.6    262.3   0.006409880   0.05536   0.16077   0.14754  -0.08801
  63   38242.0    261.5   0.008918532   0.07678  -0.14089  -0.23795   0.01756
  64   38766.3    258.0   0.001296703   0.01101   0.09231  -0.04188   0.02716
  65   38841.5    257.5   0.004309341   0.03653  -0.06952   0.15468   0.08812
  66   38899.9    257.1   0.006761900   0.05723  -0.05898   0.19512   0.12520
  67   39445.0    253.5   0.000442514   0.00369   0.03013  -0.01432   0.05080
  68   39484.0    253.3   0.004986386   0.04158  -0.15682  -0.03785  -0.12470
  69   39643.3    252.2   0.224968333   1.86822  -0.03006   0.23692   1.34580
  70   39875.8    250.8   0.329039609   2.71653  -0.91480   0.07311   1.36906
  71   39966.3    250.2   0.187526940   1.54471   0.34597   0.41535  -1.11915
  72   40124.6    249.2   0.039766456   0.32627  -0.21171  -0.44093   0.29502
  73   40232.7    248.6   0.002029985   0.01661  -0.02200  -0.12421  -0.02643
  74   40247.2    248.5   0.106577404   0.87178   0.18058  -0.51523  -0.75744

FINAL SINGLE POINT ENERGY    -10344.544851233493

DIPOLE MOMENT
-------------
                                X             Y             Z
Electronic contribution:    -13.07806      -6.31005      11.36324
Nuclear contribution   :     12.65288       5.70957     -11.12661
                        -----------------------------------------
Total Dipole Moment    :     -0.42518      -0.60048       0.23663
                        -----------------------------------------
Magnitude (a.u.)       :      0.77288
Magnitude (Debye)      :      1.96451

Rotational constants in cm-1:     0.002099     0.000122     0.000117
Rotational constants in MHz :    62.924549     3.642666     3.495220

                             ****ORCA TERMINATED NORMALLY****
TOTAL RUN TIME: 0 days 0 hours 12 minutes 7 seconds 721 msec
