                         Program Version 4.2.0 -  RELEASE  -
|  1> # ORCA input file
|  2> # SCF done       -143.728905654969          0.000514472437
|  3> ! CAM-B3LYP def2-SVP def2/J RIJCOSX Grid4 TightSCF
|  4> %maxcore 5000
|  5> %tddft
|  6>     Mode sTDDFT
|  7>     Ethresh 5.0
|  8>     maxcore 5000
|  9> end
| 10>
| 11> %pal
| 12>   nprocs 6
| 13>   end
| 14> * xyz 0 1
| 15>    C      -12.68643        -2.56787         1.95201
| 16>    C      -13.56669        -3.22155         1.10401
| 17>    C      -13.11796        -4.18088         0.20480
| 18>    C      -11.77596        -4.52112         0.13331
| 19>    C      -10.88537        -3.87917         0.97906
| 20>    C      -11.33929        -2.89344         1.88818
| 21>    C      -10.20229        -2.37775         2.63256
| 22>    C      -10.23385        -1.56931         3.72891
| 23>    C      -11.42539        -1.07538         4.30797
| 24>    N      -12.35800        -0.64720         4.81951
| 25>    C       -9.09539        -1.16540         4.46486
| 26>    N       -8.22075        -0.81292         5.11704
| 27>    C       -9.00114        -2.92326         1.98092
| 28>    C       -9.45508        -4.05895         1.16207
| 29>    C       -8.73796        -5.17024         0.84179
| 30>    C       -7.42649        -5.42220         1.30555
| 31>    N       -6.39606        -5.70618         1.72131
| 32>    C       -9.24749        -6.24341         0.07882
| 33>    N       -9.61585        -7.13485        -0.54175
| 34>    C       -7.79271        -2.32598         1.99987
| 35>    C       -6.67249        -2.64839         1.13595
| 36>    N       -6.91101        -3.27286        -0.01379
| 37>    C       -5.84943        -3.59738        -0.72950
| 38>    N       -4.59762        -3.30143        -0.40438
| 39>    C       -4.47654        -2.61732         0.72222
| 40>    N       -5.45715        -2.27305         1.52910
| 41>    C       -6.13527        -4.42296        -1.92052
| 42>    N       -5.34290        -4.36136        -2.97637
| 43>    C       -5.68380        -5.16268        -3.98169
| 44>    N       -6.70751        -6.00344        -3.96686
| 45>    C       -7.43432        -5.98145        -2.86618
| 46>    N       -7.20867        -5.20383        -1.82373
| 47>    C       -4.85644        -5.07820        -5.20043
| 48>    N       -3.68840        -4.47660        -5.06608
| 49>    C       -2.98536        -4.31254        -6.18409
| 50>    N       -3.35936        -4.79530        -7.36702
| 51>    C       -4.52770        -5.40766        -7.37999
| 52>    N       -5.33125        -5.55916        -6.34206
| 53>    C       -1.71005        -3.62639        -6.09272
| 54>    C       -1.33962        -2.81781        -5.07991
| 55>    C        0.05073        -2.42654        -4.79524
| 56>    C        1.06649        -2.32437        -5.69725
| 57>    C        0.92707        -2.52194        -7.09082
| 58>    N        0.88201        -2.65583        -8.22858
| 59>    C        2.38620        -1.95209        -5.35252
| 60>    N        3.47077        -1.65524        -5.12867
| 61>    C        0.11380        -2.16713        -3.36587
| 62>    C       -1.20161        -2.15850        -2.84460
| 63>    C       -1.43067        -1.97422        -1.49158
| 64>    C       -0.33737        -1.78011        -0.66157
| 65>    C        0.95520        -1.76705        -1.17229
| 66>    C        1.19706        -1.96326        -2.52343
| 67>    C       -2.13912        -2.35231        -3.93485
| 68>    C       -3.43676        -1.94445        -3.95506
| 69>    C       -4.10817        -1.37444        -2.85191
| 70>    N       -4.70430        -0.87504        -2.00855
| 71>    C       -4.24546        -1.94161        -5.11470
| 72>    N       -4.92321        -1.86363        -6.03646
| 73>    H      -13.04872        -1.81931         2.63761
| 74>    H      -14.61684        -2.97615         1.14188
| 75>    H      -13.82360        -4.66924        -0.44954
| 76>    H      -11.43579        -5.26006        -0.57371
| 77>    H       -7.60573        -1.49527         2.66541
| 78>    H       -3.47681        -2.32872         1.02207
| 79>    H       -8.28206        -6.65317        -2.80726
| 80>    H       -4.86048        -5.81628        -8.32544
| 81>    H       -1.01551        -3.87332        -6.88277
| 82>    H       -2.43338        -2.01049        -1.09955
| 83>    H       -0.48986        -1.63992         0.39771
| 84>    H        1.78932        -1.61148        -0.50540
| 85>    H        2.20734        -1.96647        -2.89918
| 86> *
| 87>
| 88>                          ****END OF INPUT****

CARTESIAN COORDINATES (ANGSTROEM)
---------------------------------
  C    -12.686430   -2.567870    1.952010
  C    -13.566690   -3.221550    1.104010
  C    -13.117960   -4.180880    0.204800
  C    -11.775960   -4.521120    0.133310
  C    -10.885370   -3.879170    0.979060
  C    -11.339290   -2.893440    1.888180
  C    -10.202290   -2.377750    2.632560
  C    -10.233850   -1.569310    3.728910
  C    -11.425390   -1.075380    4.307970
  N    -12.358000   -0.647200    4.819510
  C     -9.095390   -1.165400    4.464860
  N     -8.220750   -0.812920    5.117040
  C     -9.001140   -2.923260    1.980920
  C     -9.455080   -4.058950    1.162070
  C     -8.737960   -5.170240    0.841790
  C     -7.426490   -5.422200    1.305550
  N     -6.396060   -5.706180    1.721310
  C     -9.247490   -6.243410    0.078820
  N     -9.615850   -7.134850   -0.541750
  C     -7.792710   -2.325980    1.999870
  C     -6.672490   -2.648390    1.135950
  N     -6.911010   -3.272860   -0.013790
  C     -5.849430   -3.597380   -0.729500
  N     -4.597620   -3.301430   -0.404380
  C     -4.476540   -2.617320    0.722220
  N     -5.457150   -2.273050    1.529100
  C     -6.135270   -4.422960   -1.920520
  N     -5.342900   -4.361360   -2.976370
  C     -5.683800   -5.162680   -3.981690
  N     -6.707510   -6.003440   -3.966860
  C     -7.434320   -5.981450   -2.866180
  N     -7.208670   -5.203830   -1.823730
  C     -4.856440   -5.078200   -5.200430
  N     -3.688400   -4.476600   -5.066080
  C     -2.985360   -4.312540   -6.184090
  N     -3.359360   -4.795300   -7.367020
  C     -4.527700   -5.407660   -7.379990
  N     -5.331250   -5.559160   -6.342060
  C     -1.710050   -3.626390   -6.092720
  C     -1.339620   -2.817810   -5.079910
  C      0.050730   -2.426540   -4.795240
  C      1.066490   -2.324370   -5.697250
  C      0.927070   -2.521940   -7.090820
  N      0.882010   -2.655830   -8.228580
  C      2.386200   -1.952090   -5.352520
  N      3.470770   -1.655240   -5.128670
  C      0.113800   -2.167130   -3.365870
  C     -1.201610   -2.158500   -2.844600
  C     -1.430670   -1.974220   -1.491580
  C     -0.337370   -1.780110   -0.661570
  C      0.955200   -1.767050   -1.172290
  C      1.197060   -1.963260   -2.523430
  C     -2.139120   -2.352310   -3.934850
  C     -3.436760   -1.944450   -3.955060
  C     -4.108170   -1.374440   -2.851910
  N     -4.704300   -0.875040   -2.008550
  C     -4.245460   -1.941610   -5.114700
  N     -4.923210   -1.863630   -6.036460
  H    -13.048720   -1.819310    2.637610
  H    -14.616840   -2.976150    1.141880
  H    -13.823600   -4.669240   -0.449540
  H    -11.435790   -5.260060   -0.573710
  H     -7.605730   -1.495270    2.665410
  H     -3.476810   -2.328720    1.022070
  H     -8.282060   -6.653170   -2.807260
  H     -4.860480   -5.816280   -8.325440
  H     -1.015510   -3.873320   -6.882770
  H     -2.433380   -2.010490   -1.099550
  H     -0.489860   -1.639920    0.397710
  H      1.789320   -1.611480   -0.505400
  H      2.207340   -1.966470   -2.899180

 Total Charge           Charge          ....    0
 Multiplicity           Mult            ....    1
 Number of Electrons    NEL             ....  378
 Basis Dimension        Dim             ....  877

ORBITAL ENERGIES
----------------

  NO   OCC          E(Eh)            E(eV)
   0   2.0000     -14.453600      -393.3024
   1   2.0000     -14.450384      -393.2149
   2   2.0000     -14.446468      -393.1084
   3   2.0000     -14.446173      -393.1004
   4   2.0000     -14.445238      -393.0749
   5   2.0000     -14.444891      -393.0655
   6   2.0000     -14.444087      -393.0436
   7   2.0000     -14.443725      -393.0337
   8   2.0000     -14.442101      -392.9895
   9   2.0000     -14.434511      -392.7830
  10   2.0000     -14.434118      -392.7723
  11   2.0000     -14.433580      -392.7577
  12   2.0000     -14.433422      -392.7534
  13   2.0000     -14.433304      -392.7502
  14   2.0000     -14.432695      -392.7336
  15   2.0000     -14.432578      -392.7304
  16   2.0000     -14.431539      -392.7022
  17   2.0000     -10.389260      -282.7061
  18   2.0000     -10.389054      -282.7005
  19   2.0000     -10.388479      -282.6849
  20   2.0000     -10.388062      -282.6735
  21   2.0000     -10.385494      -282.6037
  22   2.0000     -10.383842      -282.5587
  23   2.0000     -10.376970      -282.3717
  24   2.0000     -10.376182      -282.3503
  25   2.0000     -10.373743      -282.2839
  26   2.0000     -10.369058      -282.1564
  27   2.0000     -10.368696      -282.1466
  28   2.0000     -10.365604      -282.0624
  29   2.0000     -10.364200      -282.0242
  30   2.0000     -10.363382      -282.0020
  31   2.0000     -10.363256      -281.9985
  32   2.0000     -10.357033      -281.8292
  33   2.0000     -10.356660      -281.8190
  34   2.0000     -10.346303      -281.5372
  35   2.0000     -10.346157      -281.5333
  36   2.0000     -10.336613      -281.2735
  37   2.0000     -10.335679      -281.2481
  38   2.0000     -10.335647      -281.2472
  39   2.0000     -10.335240      -281.2362
  40   2.0000     -10.334353      -281.2120
  41   2.0000     -10.334316      -281.2110
  42   2.0000     -10.334007      -281.2026
  43   2.0000     -10.333967      -281.2015
  44   2.0000     -10.332378      -281.1583
  45   2.0000     -10.331799      -281.1425
  46   2.0000     -10.326505      -280.9985
  47   2.0000     -10.326178      -280.9896
  48   2.0000     -10.325920      -280.9826
  49   2.0000     -10.324551      -280.9453
  50   2.0000     -10.313103      -280.6338
  51   2.0000     -10.312696      -280.6227
  52   2.0000     -10.312167      -280.6083
  53   2.0000     -10.311823      -280.5990
  54   2.0000     -10.311724      -280.5963
  55   2.0000     -10.310608      -280.5659
  56   2.0000     -10.310273      -280.5568
  57   2.0000     -10.310122      -280.5527
  58   2.0000      -1.162771       -31.6406
  59   2.0000      -1.151749       -31.3407
  60   2.0000      -1.143343       -31.1119
  61   2.0000      -1.051098       -28.6018
  62   2.0000      -1.050681       -28.5905
  63   2.0000      -1.041481       -28.3401
  64   2.0000      -1.034674       -28.1549
  65   2.0000      -1.031011       -28.0552
  66   2.0000      -1.029450       -28.0128
  67   2.0000      -1.023431       -27.8490
  68   2.0000      -1.021537       -27.7974
  69   2.0000      -1.019940       -27.7540
  70   2.0000      -1.019794       -27.7500
  71   2.0000      -1.011971       -27.5371
  72   2.0000      -1.011596       -27.5269
  73   2.0000      -1.011475       -27.5236
  74   2.0000      -1.010553       -27.4986
  75   2.0000      -1.008825       -27.4515
  76   2.0000      -1.003695       -27.3119
  77   2.0000      -0.970572       -26.4106
  78   2.0000      -0.970019       -26.3956
  79   2.0000      -0.953693       -25.9513
  80   2.0000      -0.953276       -25.9400
  81   2.0000      -0.912111       -24.8198
  82   2.0000      -0.911833       -24.8122
  83   2.0000      -0.900909       -24.5150
  84   2.0000      -0.900393       -24.5009
  85   2.0000      -0.878278       -23.8992
  86   2.0000      -0.877805       -23.8863
  87   2.0000      -0.850869       -23.1533
  88   2.0000      -0.840140       -22.8614
  89   2.0000      -0.828455       -22.5434
  90   2.0000      -0.826607       -22.4931
  91   2.0000      -0.803745       -21.8710
  92   2.0000      -0.803491       -21.8641
  93   2.0000      -0.786324       -21.3970
  94   2.0000      -0.779646       -21.2153
  95   2.0000      -0.767321       -20.8799
  96   2.0000      -0.749263       -20.3885
  97   2.0000      -0.728902       -19.8344
  98   2.0000      -0.728374       -19.8201
  99   2.0000      -0.726987       -19.7823
 100   2.0000      -0.724245       -19.7077
 101   2.0000      -0.714316       -19.4375
 102   2.0000      -0.703578       -19.1453
 103   2.0000      -0.692169       -18.8349
 104   2.0000      -0.683672       -18.6037
 105   2.0000      -0.681664       -18.5490
 106   2.0000      -0.679231       -18.4828
 107   2.0000      -0.678289       -18.4572
 108   2.0000      -0.670774       -18.2527
 109   2.0000      -0.668882       -18.2012
 110   2.0000      -0.651310       -17.7230
 111   2.0000      -0.648512       -17.6469
 112   2.0000      -0.634654       -17.2698
 113   2.0000      -0.620907       -16.8957
 114   2.0000      -0.602109       -16.3842
 115   2.0000      -0.601161       -16.3584
 116   2.0000      -0.600892       -16.3511
 117   2.0000      -0.596371       -16.2281
 118   2.0000      -0.588643       -16.0178
 119   2.0000      -0.585074       -15.9207
 120   2.0000      -0.576856       -15.6971
 121   2.0000      -0.572608       -15.5814
 122   2.0000      -0.564730       -15.3671
 123   2.0000      -0.560384       -15.2488
 124   2.0000      -0.558280       -15.1916
 125   2.0000      -0.556126       -15.1330
 126   2.0000      -0.551456       -15.0059
 127   2.0000      -0.550131       -14.9698
 128   2.0000      -0.549213       -14.9449
 129   2.0000      -0.547774       -14.9057
 130   2.0000      -0.535723       -14.5778
 131   2.0000      -0.532965       -14.5027
 132   2.0000      -0.523011       -14.2319
 133   2.0000      -0.519850       -14.1458
 134   2.0000      -0.518484       -14.1087
 135   2.0000      -0.516997       -14.0682
 136   2.0000      -0.516359       -14.0508
 137   2.0000      -0.514488       -13.9999
 138   2.0000      -0.497989       -13.5510
 139   2.0000      -0.494691       -13.4612
 140   2.0000      -0.481803       -13.1105
 141   2.0000      -0.478404       -13.0180
 142   2.0000      -0.475300       -12.9336
 143   2.0000      -0.473254       -12.8779
 144   2.0000      -0.472775       -12.8649
 145   2.0000      -0.471406       -12.8276
 146   2.0000      -0.469068       -12.7640
 147   2.0000      -0.467490       -12.7210
 148   2.0000      -0.466122       -12.6838
 149   2.0000      -0.464561       -12.6413
 150   2.0000      -0.464518       -12.6402
 151   2.0000      -0.463618       -12.6157
 152   2.0000      -0.461409       -12.5556
 153   2.0000      -0.460283       -12.5249
 154   2.0000      -0.459460       -12.5026
 155   2.0000      -0.457967       -12.4619
 156   2.0000      -0.457670       -12.4538
 157   2.0000      -0.452204       -12.3051
 158   2.0000      -0.450254       -12.2520
 159   2.0000      -0.447713       -12.1829
 160   2.0000      -0.445053       -12.1105
 161   2.0000      -0.443538       -12.0693
 162   2.0000      -0.442646       -12.0450
 163   2.0000      -0.442441       -12.0394
 164   2.0000      -0.441628       -12.0173
 165   2.0000      -0.438024       -11.9192
 166   2.0000      -0.437044       -11.8926
 167   2.0000      -0.429431       -11.6854
 168   2.0000      -0.428847       -11.6695
 169   2.0000      -0.425840       -11.5877
 170   2.0000      -0.425494       -11.5783
 171   2.0000      -0.415837       -11.3155
 172   2.0000      -0.413874       -11.2621
 173   2.0000      -0.407696       -11.0940
 174   2.0000      -0.397652       -10.8207
 175   2.0000      -0.396934       -10.8011
 176   2.0000      -0.396563       -10.7910
 177   2.0000      -0.381103       -10.3703
 178   2.0000      -0.377633       -10.2759
 179   2.0000      -0.369655       -10.0588
 180   2.0000      -0.367633       -10.0038
 181   2.0000      -0.361596        -9.8395
 182   2.0000      -0.361544        -9.8381
 183   2.0000      -0.360439        -9.8080
 184   2.0000      -0.353626        -9.6227
 185   2.0000      -0.344036        -9.3617
 186   2.0000      -0.342574        -9.3219
 187   2.0000      -0.317429        -8.6377
 188   2.0000      -0.316158        -8.6031
 189   0.0000      -0.113267        -3.0821
 190   0.0000      -0.113104        -3.0777
 191   0.0000      -0.095849        -2.6082
 192   0.0000      -0.095325        -2.5939
 193   0.0000      -0.081163        -2.2086

MULLIKEN ATOMIC CHARGES
-----------------------
   0 C :   -0.029600
   1 C :    0.047183
   2 C :    0.050636
   3 C :   -0.031437
   4 C :    0.018756
   5 C :    0.016649
   6 C :    0.260431
   7 C :   -0.317906
   8 C :   -0.188623
   9 N :    0.175032
  10 C :   -0.194250
  11 N :    0.185070
  12 C :   -0.022716
  13 C :    0.234602
  14 C :   -0.262161
  15 C :   -0.187242
  16 N :    0.168367
  17 C :   -0.156165
  18 N :    0.143744
  19 C :    0.083512
  20 C :   -0.063797
  21 N :   -0.059046
  22 C :    0.006040
  23 N :   -0.075618
  24 C :    0.141705
  25 N :   -0.043058
  26 C :   -0.009025
  27 N :    0.009091
  28 C :   -0.041157
  29 N :   -0.024473
  30 C :    0.129358
  31 N :   -0.082903
  32 C :   -0.037758
  33 N :   -0.048749
  34 C :   -0.069158
  35 N :   -0.051490
  36 C :    0.127499
  37 N :   -0.030368
  38 C :    0.084383
  39 C :   -0.026582
  40 C :    0.260345
  41 C :   -0.316050
  42 C :   -0.193997
  43 N :    0.181935
  44 C :   -0.187020
  45 N :    0.174836
  46 C :    0.014554
  47 C :    0.009126
  48 C :   -0.005322
  49 C :    0.053336
  50 C :    0.045159
  51 C :   -0.029736
  52 C :    0.251894
  53 C :   -0.269307
  54 C :   -0.162920
  55 N :    0.154285
  56 C :   -0.200292
  57 N :    0.172626
  58 H :    0.009851
  59 H :    0.009243
  60 H :    0.009837
  61 H :    0.008630
  62 H :    0.036556
  63 H :    0.023060
  64 H :    0.040494
  65 H :    0.034295
  66 H :    0.034551
  67 H :   -0.013819
  68 H :    0.006195
  69 H :    0.009533
  70 H :    0.009345
Sum of atomic charges:    0.0000000

LOEWDIN ATOMIC CHARGES
----------------------
   0 C :    0.007880
   1 C :    0.004299
   2 C :    0.010616
   3 C :    0.002522
   4 C :   -0.003860
   5 C :   -0.015023
   6 C :    0.075006
   7 C :   -0.113470
   8 C :   -0.018498
   9 N :   -0.031731
  10 C :   -0.026310
  11 N :   -0.024949
  12 C :    0.003229
  13 C :    0.068351
  14 C :   -0.093444
  15 C :   -0.017934
  16 N :   -0.047403
  17 C :   -0.005381
  18 N :   -0.051642
  19 C :    0.036881
  20 C :    0.048610
  21 N :   -0.061490
  22 C :    0.044741
  23 N :   -0.069168
  24 C :    0.091581
  25 N :   -0.068430
  26 C :    0.043622
  27 N :   -0.053768
  28 C :    0.040454
  29 N :   -0.057368
  30 C :    0.092426
  31 N :   -0.065792
  32 C :    0.034615
  33 N :   -0.062073
  34 C :    0.043790
  35 N :   -0.072525
  36 C :    0.091937
  37 N :   -0.060396
  38 C :    0.034566
  39 C :    0.004873
  40 C :    0.075343
  41 C :   -0.114110
  42 C :   -0.026169
  43 N :   -0.025018
  44 C :   -0.018496
  45 N :   -0.031754
  46 C :   -0.014419
  47 C :   -0.002205
  48 C :    0.007409
  49 C :    0.008440
  50 C :    0.005057
  51 C :    0.007228
  52 C :    0.074928
  53 C :   -0.095551
  54 C :   -0.004873
  55 N :   -0.057331
  56 C :   -0.019631
  57 N :   -0.044188
  58 H :    0.042620
  59 H :    0.039660
  60 H :    0.039789
  61 H :    0.041688
  62 H :    0.055719
  63 H :    0.022817
  64 H :    0.029361
  65 H :    0.030593
  66 H :    0.055075
  67 H :    0.039168
  68 H :    0.037248
  69 H :    0.039765
  70 H :    0.042495

  Mayer bond orders larger than 0.100000
B(  0-C ,  1-C ) :   1.3792 B(  0-C ,  5-C ) :   1.3729 B(  0-C , 58-H ) :   0.9865
B(  1-C ,  2-C ) :   1.3692 B(  1-C , 59-H ) :   0.9863 B(  2-C ,  3-C ) :   1.3729
B(  2-C , 60-H ) :   0.9866 B(  3-C ,  4-C ) :   1.3786 B(  3-C , 61-H ) :   0.9876
B(  4-C ,  5-C ) :   1.3007 B(  4-C , 13-C ) :   1.0178 B(  5-C ,  6-C ) :   1.0177
B(  6-C ,  7-C ) :   1.6924 B(  6-C , 12-C ) :   1.0012 B(  7-C ,  8-C ) :   1.1366
B(  7-C , 10-C ) :   1.1273 B(  8-C ,  9-N ) :   2.9908 B( 10-C , 11-N ) :   3.0083
B( 12-C , 13-C ) :   0.9694 B( 12-C , 19-C ) :   1.7354 B( 13-C , 14-C ) :   1.7255
B( 14-C , 15-C ) :   1.1459 B( 14-C , 17-C ) :   1.1510 B( 15-C , 16-N ) :   2.9841
B( 17-C , 18-N ) :   2.9220 B( 19-C , 20-C ) :   1.0106 B( 19-C , 62-H ) :   0.9400
B( 20-C , 21-N ) :   1.4878 B( 20-C , 25-N ) :   1.5536 B( 21-N , 22-C ) :   1.5405
B( 22-C , 23-N ) :   1.5758 B( 22-C , 26-C ) :   0.8936 B( 23-N , 24-C ) :   1.4517
B( 24-C , 25-N ) :   1.5180 B( 24-C , 63-H ) :   0.9670 B( 26-C , 27-N ) :   1.5846
B( 26-C , 31-N ) :   1.5998 B( 27-N , 28-C ) :   1.5836 B( 28-C , 29-N ) :   1.6395
B( 28-C , 32-C ) :   0.8850 B( 29-N , 30-C ) :   1.4892 B( 30-C , 31-N ) :   1.4672
B( 30-C , 64-H ) :   0.9670 B( 32-C , 33-N ) :   1.5723 B( 32-C , 37-N ) :   1.6271
B( 33-N , 34-C ) :   1.4827 B( 34-C , 35-N ) :   1.5631 B( 34-C , 38-C ) :   1.0110
B( 35-N , 36-C ) :   1.4941 B( 36-C , 37-N ) :   1.4906 B( 36-C , 65-H ) :   0.9759
B( 38-C , 39-C ) :   1.7337 B( 38-C , 66-H ) :   0.9425 B( 39-C , 40-C ) :   1.0019
B( 39-C , 52-C ) :   0.9716 B( 40-C , 41-C ) :   1.6939 B( 40-C , 46-C ) :   1.0145
B( 41-C , 42-C ) :   1.1254 B( 41-C , 44-C ) :   1.1368 B( 42-C , 43-N ) :   3.0090
B( 44-C , 45-N ) :   2.9911 B( 46-C , 47-C ) :   1.2976 B( 46-C , 51-C ) :   1.3721
B( 47-C , 48-C ) :   1.4023 B( 47-C , 52-C ) :   1.0151 B( 48-C , 49-C ) :   1.3607
B( 48-C , 67-H ) :   0.9800 B( 49-C , 50-C ) :   1.3702 B( 49-C , 68-H ) :   0.9877
B( 50-C , 51-C ) :   1.3797 B( 50-C , 69-H ) :   0.9855 B( 51-C , 70-H ) :   0.9878
B( 52-C , 53-C ) :   1.7234 B( 53-C , 54-C ) :   1.1584 B( 53-C , 56-C ) :   1.1442
B( 54-C , 55-N ) :   2.9614 B( 56-C , 57-N ) :   2.9868

-----------------------------------------------------------------------------
         ABSORPTION SPECTRUM VIA TRANSITION ELECTRIC DIPOLE MOMENTS
-----------------------------------------------------------------------------
State   Energy  Wavelength   fosc         T2         TX        TY        TZ
        (cm-1)    (nm)                  (au**2)     (au)      (au)      (au)
-----------------------------------------------------------------------------
   0   24812.1    403.0   0.034174474   0.45343   0.20967   0.44724  -0.45766
   1   24975.1    400.4   0.029529910   0.38925   0.03857   0.05097  -0.62062
   2   28585.3    349.8   0.015009342   0.17286   0.07756   0.31094  -0.26488
   3   28935.2    345.6   0.014222890   0.16182  -0.05814  -0.12392   0.37827
   4   30144.1    331.7   0.209400152   2.28692  -1.47706   0.04731   0.32087
   5   30309.9    329.9   0.238548040   2.59100   0.73360  -1.14424  -0.86229
   6   30409.2    328.8   0.006860214   0.07427   0.01090   0.22605   0.15183
   7   31172.9    320.8   0.007138880   0.07539   0.13985  -0.23374   0.03464
   8   31403.7    318.4   0.001759742   0.01845  -0.02555   0.09110  -0.09745
   9   32010.6    312.4   0.044231284   0.45490   0.34691  -0.35535  -0.45637
  10   32261.6    310.0   0.025317774   0.25835   0.43704   0.24861   0.07446
  11   32664.8    306.1   0.192034048   1.93541   1.28099  -0.31656  -0.44075
  12   32857.6    304.3   0.214407158   2.14822   1.37423  -0.08829  -0.50192
  13   33252.9    300.7   0.438117503   4.33748   0.78483  -1.49670  -1.21713
  14   33672.2    297.0   0.062175088   0.60788  -0.47477   0.29846   0.54166
  15   34330.2    291.3   0.015718810   0.15074   0.10339  -0.36989   0.05680
  16   34409.6    290.6   0.291760523   2.79140   1.14151   0.71661  -0.98733
  17   34582.3    289.2   0.093938378   0.89426   0.05702  -0.43757  -0.83639
  18   35121.6    284.7   0.045122015   0.42295   0.47649  -0.08777   0.43383
  19   35922.9    278.4   0.123241171   1.12943   0.67627   0.69988   0.42691
  20   36061.2    277.3   0.016626539   0.15179  -0.31267  -0.08544   0.21617
  21   36236.9    276.0   0.026948594   0.24483   0.46669   0.06277   0.15194
  22   36459.8    274.3   0.043304994   0.39102  -0.50761   0.20119   0.30475
  23   36661.7    272.8   0.483130001   4.33837  -1.16805  -0.76805  -1.54406
  24   36702.0    272.5   0.427871069   3.83795   1.85374   0.49207   0.39934
  25   36933.2    270.8   0.211295342   1.88343  -1.26917   0.13202   0.50518
  26   37074.3    269.7   0.126375219   1.12218  -1.01654  -0.09542  -0.28237
  27   37354.4    267.7   0.059528443   0.52464   0.70633  -0.12105  -0.10529
  28   37462.9    266.9   0.062441560   0.54872   0.53754   0.25828  -0.43938
  29   37716.4    265.1   0.128803224   1.12427   0.52993  -0.00218   0.91839
  30   37859.5    264.1   0.003680321   0.03200  -0.03208   0.11146   0.13620
  31   37945.0    263.5   0.003929040   0.03409   0.18132   0.03476  -0.00203
  32   38249.2    261.4   0.008695478   0.07484   0.24620   0.01435   0.11842
  33   38453.3    260.1   0.047275709   0.40474  -0.54694  -0.17976  -0.27071
  34   38738.8    258.1   0.007071632   0.06010   0.04076  -0.13777   0.19863
  35   38869.9    257.3   0.004188423   0.03547  -0.14772  -0.11401  -0.02562
  36   38937.5    256.8   0.026081401   0.22052   0.35681  -0.10102  -0.28809
  37   39198.9    255.1   0.009995733   0.08395  -0.08514  -0.12826  -0.24546
  38   39429.0    253.6   0.036306751   0.30314   0.50654  -0.20392   0.07054

FINAL SINGLE POINT ENERGY     -2497.601852992876

DIPOLE MOMENT
-------------
                                X             Y             Z
Electronic contribution:      4.30845      -0.93974      -5.42418
Nuclear contribution   :     -5.36904       0.26977       5.69223
                        -----------------------------------------
Total Dipole Moment    :     -1.06059      -0.66997       0.26806
                        -----------------------------------------
Magnitude (a.u.)       :      1.28280
Magnitude (Debye)      :      3.26062

Rotational constants in cm-1:     0.003274     0.000825     0.000713
Rotational constants in MHz :    98.155218    24.719484    21.361493

                             ****ORCA TERMINATED NORMALLY****
TOTAL RUN TIME: 0 days 0 hours 5 minutes 53 seconds 135 msec
