                         Program Version 4.2.0 -  RELEASE  -
|  1> # ORCA input file
|  2> # SCF done       -172.184059660464          0.000628726356
|  3> ! CAM-B3LYP def2-SVP def2/J RIJCOSX Grid4 TightSCF
|  4> %maxcore 5000
|  5> %tddft
|  6>     Mode sTDDFT
|  7>     Ethresh 5.0
|  8>     maxcore 5000
|  9> end
| 10>
| 11> %pal
| 12>   nprocs 6
| 13>   end
| 14> * xyz 0 1
| 15>    C       -3.46916         2.15460        -5.22403
| 16>    C       -2.82013         3.22717        -5.78675
| 17>    C       -2.94883         3.60326        -7.13681
| 18>    N       -3.03894         3.96872        -8.22233
| 19>    C       -1.88622         4.02333        -5.09587
| 20>    N       -1.08793         4.67642        -4.59098
| 21>    C       -4.23325         1.15261        -5.96471
| 22>    C       -4.36404        -0.00904        -5.14972
| 23>    C       -5.00376        -1.12972        -5.59171
| 24>    C       -5.56290        -1.13702        -6.89003
| 25>    C       -5.44954         0.02567        -7.70456
| 26>    C       -4.77372         1.17107        -7.22138
| 27>    C       -6.01582         0.00708        -8.99491
| 28>    C       -6.66062        -1.10612        -9.46156
| 29>    C       -6.77098        -2.25078        -8.65880
| 30>    C       -6.23349        -2.26556        -7.40030
| 31>    C       -3.73247         0.24648        -3.84235
| 32>    O       -3.60539        -0.52279        -2.91345
| 33>    C       -3.32102         1.67400        -3.87236
| 34>    C       -2.94196         2.26523        -2.70049
| 35>    C       -2.89248         3.63064        -2.31334
| 36>    C       -3.66706         4.61985        -2.92937
| 37>    C       -3.80895         5.88150        -2.38759
| 38>    C       -3.21209         6.23660        -1.17122
| 39>    C       -2.20609         5.36410        -0.65217
| 40>    C       -1.18846         5.73282         0.22493
| 41>   Si       -0.57494         4.13810         0.84059
| 42>    C       -1.00995         3.27917        -0.69958
| 43>    C       -2.07423         4.01820        -1.20884
| 44>    C       -3.66060         7.41040        -0.50916
| 45>    C       -3.81494         7.58055         0.84507
| 46>    C       -4.36373         8.71711         1.48884
| 47>    C       -4.57660         8.56418         2.82802
| 48>    C       -4.21348         7.29408         3.31798
| 49>    S       -3.55259         6.30918         2.03139
| 50>    C       -4.34554         6.77776         4.59597
| 51>    C       -4.91366         7.36627         5.74131
| 52>    C       -4.93571         6.53965         6.82759
| 53>    C       -4.38292         5.25452         6.60829
| 54>    S       -3.80566         5.15372         4.95507
| 55>    C       -4.39664         4.22949         7.53044
| 56>    C       -3.90800         2.91362         7.40717
| 57>    C       -3.01766         2.53303         6.38380
| 58>    C       -2.70971         1.22066         6.12278
| 59>    C       -3.27708         0.17375         6.86963
| 60>    C       -3.87603         0.51827         8.11514
| 61>    C       -4.03502        -0.35243         9.19141
| 62>   Si       -5.44818         0.39033        10.04703
| 63>    C       -4.95621         2.07768         9.56403
| 64>    C       -4.28489         1.90343         8.35840
| 65>    C       -3.24831        -1.13341         6.33572
| 66>    C       -4.18173        -2.13314         6.50238
| 67>    C       -4.04808        -3.47442         5.97452
| 68>    C       -2.90730        -4.04796         5.46722
| 69>    C       -2.83551        -5.37216         4.99093
| 70>    N       -2.70897        -6.43936         4.58477
| 71>    C       -1.64625        -3.42537         5.37582
| 72>    N       -0.58163        -3.00316         5.27783
| 73>    C       -5.32669        -4.15668         6.14558
| 74>    C       -6.22185        -3.26548         6.80127
| 75>    C       -5.54441        -1.97839         7.04052
| 76>    O       -6.06608        -0.98339         7.52683
| 77>    C       -7.50343        -3.62302         7.10185
| 78>    C       -7.95839        -4.91600         6.75411
| 79>    C       -7.07080        -5.81082         6.09215
| 80>    C       -5.74663        -5.41029         5.79355
| 81>    C       -7.53612        -7.09359         5.74175
| 82>    C       -8.81736        -7.47805         6.03207
| 83>    C       -9.69037        -6.59678         6.68536
| 84>    C       -9.26949        -5.34302         7.03910
| 85>    H       -5.08300        -2.00183        -4.95966
| 86>    H       -4.70857         2.03969        -7.85805
| 87>    H       -5.92589         0.88999        -9.61085
| 88>    H       -7.08882        -1.11067       -10.45290
| 89>    H       -7.28337        -3.12072        -9.04208
| 90>    H       -6.31471        -3.14422        -6.77691
| 91>    H       -2.74397         1.55093        -1.90508
| 92>    H       -4.25503         4.36352        -3.79866
| 93>    H       -4.48562         6.58166        -2.85680
| 94>    H       -1.19453         6.70448         0.69205
| 95>    H       -0.84706         2.25860        -1.00597
| 96>    H       -4.06940         8.19621        -1.13353
| 97>    H       -4.59000         9.61306         0.93777
| 98>    H       -4.98829         9.32503         3.46666
| 99>    H       -5.30459         8.36792         5.73437
|100>    H       -5.34309         6.81479         7.78479
|101>    H       -4.91294         4.47329         8.44938
|102>    H       -2.57287         3.29766         5.76717
|103>    H       -2.08427         0.97783         5.27545
|104>    H       -3.77498        -1.39339         9.07830
|105>    H       -5.38798         3.02676         9.83950
|106>    H       -2.46007        -1.31847         5.61491
|107>    H       -8.16517        -2.92827         7.59802
|108>    H       -5.10108        -6.10893         5.28572
|109>    H       -6.85922        -7.76866         5.23872
|110>    H       -9.16432        -8.46350         5.75906
|111>    H      -10.69837        -6.91500         6.90675
|112>    H       -9.93878        -4.65947         7.54149
|113> *
|114>
|115>                          ****END OF INPUT****

CARTESIAN COORDINATES (ANGSTROEM)
---------------------------------
  C     -3.469160    2.154600   -5.224030
  C     -2.820130    3.227170   -5.786750
  C     -2.948830    3.603260   -7.136810
  N     -3.038940    3.968720   -8.222330
  C     -1.886220    4.023330   -5.095870
  N     -1.087930    4.676420   -4.590980
  C     -4.233250    1.152610   -5.964710
  C     -4.364040   -0.009040   -5.149720
  C     -5.003760   -1.129720   -5.591710
  C     -5.562900   -1.137020   -6.890030
  C     -5.449540    0.025670   -7.704560
  C     -4.773720    1.171070   -7.221380
  C     -6.015820    0.007080   -8.994910
  C     -6.660620   -1.106120   -9.461560
  C     -6.770980   -2.250780   -8.658800
  C     -6.233490   -2.265560   -7.400300
  C     -3.732470    0.246480   -3.842350
  O     -3.605390   -0.522790   -2.913450
  C     -3.321020    1.674000   -3.872360
  C     -2.941960    2.265230   -2.700490
  C     -2.892480    3.630640   -2.313340
  C     -3.667060    4.619850   -2.929370
  C     -3.808950    5.881500   -2.387590
  C     -3.212090    6.236600   -1.171220
  C     -2.206090    5.364100   -0.652170
  C     -1.188460    5.732820    0.224930
  Si    -0.574940    4.138100    0.840590
  C     -1.009950    3.279170   -0.699580
  C     -2.074230    4.018200   -1.208840
  C     -3.660600    7.410400   -0.509160
  C     -3.814940    7.580550    0.845070
  C     -4.363730    8.717110    1.488840
  C     -4.576600    8.564180    2.828020
  C     -4.213480    7.294080    3.317980
  S     -3.552590    6.309180    2.031390
  C     -4.345540    6.777760    4.595970
  C     -4.913660    7.366270    5.741310
  C     -4.935710    6.539650    6.827590
  C     -4.382920    5.254520    6.608290
  S     -3.805660    5.153720    4.955070
  C     -4.396640    4.229490    7.530440
  C     -3.908000    2.913620    7.407170
  C     -3.017660    2.533030    6.383800
  C     -2.709710    1.220660    6.122780
  C     -3.277080    0.173750    6.869630
  C     -3.876030    0.518270    8.115140
  C     -4.035020   -0.352430    9.191410
  Si    -5.448180    0.390330   10.047030
  C     -4.956210    2.077680    9.564030
  C     -4.284890    1.903430    8.358400
  C     -3.248310   -1.133410    6.335720
  C     -4.181730   -2.133140    6.502380
  C     -4.048080   -3.474420    5.974520
  C     -2.907300   -4.047960    5.467220
  C     -2.835510   -5.372160    4.990930
  N     -2.708970   -6.439360    4.584770
  C     -1.646250   -3.425370    5.375820
  N     -0.581630   -3.003160    5.277830
  C     -5.326690   -4.156680    6.145580
  C     -6.221850   -3.265480    6.801270
  C     -5.544410   -1.978390    7.040520
  O     -6.066080   -0.983390    7.526830
  C     -7.503430   -3.623020    7.101850
  C     -7.958390   -4.916000    6.754110
  C     -7.070800   -5.810820    6.092150
  C     -5.746630   -5.410290    5.793550
  C     -7.536120   -7.093590    5.741750
  C     -8.817360   -7.478050    6.032070
  C     -9.690370   -6.596780    6.685360
  C     -9.269490   -5.343020    7.039100
  H     -5.083000   -2.001830   -4.959660
  H     -4.708570    2.039690   -7.858050
  H     -5.925890    0.889990   -9.610850
  H     -7.088820   -1.110670  -10.452900
  H     -7.283370   -3.120720   -9.042080
  H     -6.314710   -3.144220   -6.776910
  H     -2.743970    1.550930   -1.905080
  H     -4.255030    4.363520   -3.798660
  H     -4.485620    6.581660   -2.856800
  H     -1.194530    6.704480    0.692050
  H     -0.847060    2.258600   -1.005970
  H     -4.069400    8.196210   -1.133530
  H     -4.590000    9.613060    0.937770
  H     -4.988290    9.325030    3.466660
  H     -5.304590    8.367920    5.734370
  H     -5.343090    6.814790    7.784790
  H     -4.912940    4.473290    8.449380
  H     -2.572870    3.297660    5.767170
  H     -2.084270    0.977830    5.275450
  H     -3.774980   -1.393390    9.078300
  H     -5.387980    3.026760    9.839500
  H     -2.460070   -1.318470    5.614910
  H     -8.165170   -2.928270    7.598020
  H     -5.101080   -6.108930    5.285720
  H     -6.859220   -7.768660    5.238720
  H     -9.164320   -8.463500    5.759060
  H    -10.698370   -6.915000    6.906750
  H     -9.938780   -4.659470    7.541490

 Total Charge           Charge          ....    0
 Multiplicity           Mult            ....    1
 Number of Electrons    NEL             ....  492
 Basis Dimension        Dim             .... 1136

ORBITAL ENERGIES
----------------

  NO   OCC          E(Eh)            E(eV)
   0   2.0000     -88.966151     -2420.8920
   1   2.0000     -88.964248     -2420.8403
   2   2.0000     -66.198918     -1801.3641
   3   2.0000     -66.182086     -1800.9061
   4   2.0000     -19.207489      -522.6624
   5   2.0000     -19.200644      -522.4761
   6   2.0000     -14.411622      -392.1602
   7   2.0000     -14.411177      -392.1481
   8   2.0000     -14.400477      -391.8569
   9   2.0000     -14.399302      -391.8249
  10   2.0000     -10.358350      -281.8650
  11   2.0000     -10.350299      -281.6460
  12   2.0000     -10.337343      -281.2934
  13   2.0000     -10.336545      -281.2717
  14   2.0000     -10.333171      -281.1799
  15   2.0000     -10.330839      -281.1164
  16   2.0000     -10.330064      -281.0953
  17   2.0000     -10.328994      -281.0662
  18   2.0000     -10.324324      -280.9392
  19   2.0000     -10.323775      -280.9242
  20   2.0000     -10.314686      -280.6769
  21   2.0000     -10.312199      -280.6092
  22   2.0000     -10.311441      -280.5886
  23   2.0000     -10.309792      -280.5437
  24   2.0000     -10.308672      -280.5132
  25   2.0000     -10.307504      -280.4814
  26   2.0000     -10.306816      -280.4627
  27   2.0000     -10.304908      -280.4108
  28   2.0000     -10.304540      -280.4008
  29   2.0000     -10.304113      -280.3892
  30   2.0000     -10.304106      -280.3890
  31   2.0000     -10.303360      -280.3687
  32   2.0000     -10.303075      -280.3609
  33   2.0000     -10.302806      -280.3536
  34   2.0000     -10.302064      -280.3334
  35   2.0000     -10.301084      -280.3067
  36   2.0000     -10.298975      -280.2494
  37   2.0000     -10.297188      -280.2007
  38   2.0000     -10.297049      -280.1969
  39   2.0000     -10.295853      -280.1644
  40   2.0000     -10.294057      -280.1155
  41   2.0000     -10.293866      -280.1103
  42   2.0000     -10.293386      -280.0973
  43   2.0000     -10.292670      -280.0778
  44   2.0000     -10.292627      -280.0766
  45   2.0000     -10.292281      -280.0672
  46   2.0000     -10.291279      -280.0399
  47   2.0000     -10.287714      -279.9429
  48   2.0000     -10.285147      -279.8731
  49   2.0000     -10.284933      -279.8673
  50   2.0000     -10.284865      -279.8654
  51   2.0000     -10.284483      -279.8550
  52   2.0000     -10.284119      -279.8451
  53   2.0000     -10.283017      -279.8151
  54   2.0000     -10.282780      -279.8087
  55   2.0000     -10.282600      -279.8038
  56   2.0000     -10.282379      -279.7978
  57   2.0000     -10.282236      -279.7939
  58   2.0000     -10.282074      -279.7894
  59   2.0000     -10.281973      -279.7867
  60   2.0000     -10.281407      -279.7713
  61   2.0000     -10.275689      -279.6157
  62   2.0000     -10.275021      -279.5975
  63   2.0000     -10.274753      -279.5902
  64   2.0000     -10.274233      -279.5761
  65   2.0000     -10.274093      -279.5723
  66   2.0000     -10.264459      -279.3101
  67   2.0000     -10.257071      -279.1091
  68   2.0000     -10.252710      -278.9904
  69   2.0000     -10.236868      -278.5593
  70   2.0000      -8.061922      -219.3761
  71   2.0000      -8.060027      -219.3245
  72   2.0000      -6.031606      -164.1283
  73   2.0000      -6.029833      -164.0801
  74   2.0000      -6.027420      -164.0144
  75   2.0000      -6.025619      -163.9654
  76   2.0000      -6.023091      -163.8966
  77   2.0000      -6.020920      -163.8376
  78   2.0000      -5.369867      -146.1215
  79   2.0000      -5.352312      -145.6438
  80   2.0000      -3.737150      -101.6930
  81   2.0000      -3.728747      -101.4644
  82   2.0000      -3.727355      -101.4265
  83   2.0000      -3.719435      -101.2110
  84   2.0000      -3.711281      -100.9891
  85   2.0000      -3.709965      -100.9533
  86   2.0000      -1.121389       -30.5146
  87   2.0000      -1.110991       -30.2316
  88   2.0000      -1.016403       -27.6577
  89   2.0000      -1.014089       -27.5948
  90   2.0000      -1.002874       -27.2896
  91   2.0000      -0.996646       -27.1201
  92   2.0000      -0.993817       -27.0431
  93   2.0000      -0.990452       -26.9516
  94   2.0000      -0.984316       -26.7846
  95   2.0000      -0.984073       -26.7780
  96   2.0000      -0.978579       -26.6285
  97   2.0000      -0.975180       -26.5360
  98   2.0000      -0.966870       -26.3099
  99   2.0000      -0.957683       -26.0599
 100   2.0000      -0.928359       -25.2619
 101   2.0000      -0.919962       -25.0334
 102   2.0000      -0.915515       -24.9124
 103   2.0000      -0.907389       -24.6913
 104   2.0000      -0.904816       -24.6213
 105   2.0000      -0.896171       -24.3861
 106   2.0000      -0.891185       -24.2504
 107   2.0000      -0.884092       -24.0574
 108   2.0000      -0.877583       -23.8802
 109   2.0000      -0.876569       -23.8527
 110   2.0000      -0.867902       -23.6168
 111   2.0000      -0.865218       -23.5438
 112   2.0000      -0.859235       -23.3810
 113   2.0000      -0.843359       -22.9490
 114   2.0000      -0.841403       -22.8957
 115   2.0000      -0.831411       -22.6238
 116   2.0000      -0.824171       -22.4268
 117   2.0000      -0.815355       -22.1870
 118   2.0000      -0.809151       -22.0181
 119   2.0000      -0.794741       -21.6260
 120   2.0000      -0.790461       -21.5095
 121   2.0000      -0.780989       -21.2518
 122   2.0000      -0.765847       -20.8398
 123   2.0000      -0.762109       -20.7380
 124   2.0000      -0.754196       -20.5227
 125   2.0000      -0.751438       -20.4477
 126   2.0000      -0.747180       -20.3318
 127   2.0000      -0.736380       -20.0379
 128   2.0000      -0.716595       -19.4996
 129   2.0000      -0.708562       -19.2809
 130   2.0000      -0.699205       -19.0263
 131   2.0000      -0.695682       -18.9305
 132   2.0000      -0.692492       -18.8437
 133   2.0000      -0.690956       -18.8019
 134   2.0000      -0.682717       -18.5777
 135   2.0000      -0.673732       -18.3332
 136   2.0000      -0.670761       -18.2523
 137   2.0000      -0.663959       -18.0672
 138   2.0000      -0.660451       -17.9718
 139   2.0000      -0.658167       -17.9096
 140   2.0000      -0.649412       -17.6714
 141   2.0000      -0.642531       -17.4842
 142   2.0000      -0.636923       -17.3315
 143   2.0000      -0.632966       -17.2239
 144   2.0000      -0.628496       -17.1022
 145   2.0000      -0.627596       -17.0778
 146   2.0000      -0.617310       -16.7979
 147   2.0000      -0.610491       -16.6123
 148   2.0000      -0.603790       -16.4300
 149   2.0000      -0.602594       -16.3974
 150   2.0000      -0.601391       -16.3647
 151   2.0000      -0.593673       -16.1547
 152   2.0000      -0.590959       -16.0808
 153   2.0000      -0.587694       -15.9920
 154   2.0000      -0.585315       -15.9272
 155   2.0000      -0.580829       -15.8052
 156   2.0000      -0.568108       -15.4590
 157   2.0000      -0.556095       -15.1321
 158   2.0000      -0.548913       -14.9367
 159   2.0000      -0.546710       -14.8767
 160   2.0000      -0.542971       -14.7750
 161   2.0000      -0.542087       -14.7509
 162   2.0000      -0.540329       -14.7031
 163   2.0000      -0.534229       -14.5371
 164   2.0000      -0.533814       -14.5258
 165   2.0000      -0.532736       -14.4965
 166   2.0000      -0.527368       -14.3504
 167   2.0000      -0.524571       -14.2743
 168   2.0000      -0.522074       -14.2064
 169   2.0000      -0.520395       -14.1607
 170   2.0000      -0.519109       -14.1257
 171   2.0000      -0.516412       -14.0523
 172   2.0000      -0.514280       -13.9943
 173   2.0000      -0.513378       -13.9697
 174   2.0000      -0.511658       -13.9229
 175   2.0000      -0.508711       -13.8427
 176   2.0000      -0.507758       -13.8168
 177   2.0000      -0.507474       -13.8091
 178   2.0000      -0.504504       -13.7282
 179   2.0000      -0.502790       -13.6816
 180   2.0000      -0.502246       -13.6668
 181   2.0000      -0.498892       -13.5755
 182   2.0000      -0.497839       -13.5469
 183   2.0000      -0.497213       -13.5298
 184   2.0000      -0.493771       -13.4362
 185   2.0000      -0.492129       -13.3915
 186   2.0000      -0.485364       -13.2074
 187   2.0000      -0.483455       -13.1555
 188   2.0000      -0.482120       -13.1192
 189   2.0000      -0.478257       -13.0140
 190   2.0000      -0.477751       -13.0003
 191   2.0000      -0.474068       -12.9000
 192   2.0000      -0.472573       -12.8594
 193   2.0000      -0.469459       -12.7746
 194   2.0000      -0.462817       -12.5939
 195   2.0000      -0.458604       -12.4792
 196   2.0000      -0.456584       -12.4243
 197   2.0000      -0.452596       -12.3158
 198   2.0000      -0.449868       -12.2415
 199   2.0000      -0.446044       -12.1375
 200   2.0000      -0.441630       -12.0174
 201   2.0000      -0.440469       -11.9858
 202   2.0000      -0.437228       -11.8976
 203   2.0000      -0.435788       -11.8584
 204   2.0000      -0.434104       -11.8126
 205   2.0000      -0.433598       -11.7988
 206   2.0000      -0.430988       -11.7278
 207   2.0000      -0.429514       -11.6877
 208   2.0000      -0.427858       -11.6426
 209   2.0000      -0.426824       -11.6145
 210   2.0000      -0.423849       -11.5335
 211   2.0000      -0.422721       -11.5028
 212   2.0000      -0.421691       -11.4748
 213   2.0000      -0.420983       -11.4555
 214   2.0000      -0.417198       -11.3525
 215   2.0000      -0.412530       -11.2255
 216   2.0000      -0.411103       -11.1867
 217   2.0000      -0.407852       -11.0982
 218   2.0000      -0.405264       -11.0278
 219   2.0000      -0.402107       -10.9419
 220   2.0000      -0.398404       -10.8411
 221   2.0000      -0.394369       -10.7313
 222   2.0000      -0.392771       -10.6879
 223   2.0000      -0.387718       -10.5503
 224   2.0000      -0.380446       -10.3525
 225   2.0000      -0.376608       -10.2480
 226   2.0000      -0.374425       -10.1886
 227   2.0000      -0.368366       -10.0237
 228   2.0000      -0.363874        -9.9015
 229   2.0000      -0.358887        -9.7658
 230   2.0000      -0.355437        -9.6719
 231   2.0000      -0.343551        -9.3485
 232   2.0000      -0.334152        -9.0927
 233   2.0000      -0.328329        -8.9343
 234   2.0000      -0.327734        -8.9181
 235   2.0000      -0.318297        -8.6613
 236   2.0000      -0.310184        -8.4405
 237   2.0000      -0.307164        -8.3584
 238   2.0000      -0.294978        -8.0268
 239   2.0000      -0.290743        -7.9115
 240   2.0000      -0.286026        -7.7832
 241   2.0000      -0.281314        -7.6549
 242   2.0000      -0.272848        -7.4246
 243   2.0000      -0.263226        -7.1627
 244   2.0000      -0.246771        -6.7150
 245   2.0000      -0.222615        -6.0577
 246   0.0000      -0.128072        -3.4850
 247   0.0000      -0.107900        -2.9361
 248   0.0000      -0.082802        -2.2531
 249   0.0000      -0.070031        -1.9056
 250   0.0000      -0.065308        -1.7771

MULLIKEN ATOMIC CHARGES
-----------------------
   0 C :    0.274224
   1 C :   -0.339408
   2 C :   -0.177412
   3 N :    0.148873
   4 C :   -0.215435
   5 N :    0.175761
   6 C :    0.034375
   7 C :    0.020517
   8 C :   -0.089471
   9 C :    0.097294
  10 C :    0.098022
  11 C :   -0.090733
  12 C :   -0.022031
  13 C :    0.037955
  14 C :    0.036789
  15 C :   -0.018421
  16 C :    0.134219
  17 O :   -0.146270
  18 C :   -0.118683
  19 C :   -0.015401
  20 C :    0.075674
  21 C :    0.023874
  22 C :   -0.012423
  23 C :    0.101938
  24 C :   -0.040070
  25 C :   -0.158805
  26 Si:    0.351792
  27 C :   -0.180393
  28 C :    0.027564
  29 C :   -0.042771
  30 C :   -0.029873
  31 C :    0.041795
  32 C :    0.032880
  33 C :   -0.042001
  34 S :    0.098080
  35 C :   -0.046481
  36 C :    0.040646
  37 C :    0.028594
  38 C :   -0.013782
  39 S :    0.092538
  40 C :   -0.037280
  41 C :    0.140697
  42 C :   -0.070432
  43 C :    0.023655
  44 C :    0.069959
  45 C :    0.000164
  46 C :   -0.174802
  47 Si:    0.346681
  48 C :   -0.184553
  49 C :    0.018861
  50 C :   -0.051147
  51 C :   -0.095293
  52 C :    0.311050
  53 C :   -0.357580
  54 C :   -0.182848
  55 N :    0.140992
  56 C :   -0.207402
  57 N :    0.151422
  58 C :    0.051396
  59 C :    0.006456
  60 C :    0.155105
  61 O :   -0.175409
  62 C :   -0.091762
  63 C :    0.100832
  64 C :    0.097650
  65 C :   -0.092210
  66 C :   -0.023253
  67 C :    0.036350
  68 C :    0.035921
  69 C :   -0.020772
  70 H :   -0.011737
  71 H :   -0.008545
  72 H :   -0.011641
  73 H :   -0.006704
  74 H :   -0.006660
  75 H :   -0.017077
  76 H :    0.029633
  77 H :    0.001981
  78 H :   -0.013647
  79 H :    0.018845
  80 H :    0.011733
  81 H :    0.001521
  82 H :   -0.001175
  83 H :   -0.005539
  84 H :   -0.007581
  85 H :   -0.003023
  86 H :   -0.019664
  87 H :    0.003856
  88 H :    0.005543
  89 H :    0.006046
  90 H :   -0.004321
  91 H :    0.022583
  92 H :   -0.017366
  93 H :   -0.010707
  94 H :   -0.011252
  95 H :   -0.010104
  96 H :   -0.010301
  97 H :   -0.020687
Sum of atomic charges:   -0.0000000

LOEWDIN ATOMIC CHARGES
----------------------
   0 C :    0.064415
   1 C :   -0.146444
   2 C :   -0.019845
   3 N :   -0.057766
   4 C :   -0.020146
   5 N :   -0.044181
   6 C :   -0.023508
   7 C :   -0.055854
   8 C :    0.031522
   9 C :   -0.009483
  10 C :   -0.006269
  11 C :    0.013348
  12 C :   -0.007457
  13 C :   -0.014300
  14 C :   -0.014174
  15 C :   -0.009484
  16 C :    0.082252
  17 O :   -0.146914
  18 C :   -0.094741
  19 C :    0.074539
  20 C :   -0.039627
  21 C :    0.032537
  22 C :   -0.010599
  23 C :    0.002442
  24 C :   -0.025984
  25 C :   -0.201875
  26 Si:    0.422155
  27 C :   -0.217669
  28 C :    0.004722
  29 C :   -0.039420
  30 C :   -0.138556
  31 C :   -0.021194
  32 C :   -0.029349
  33 C :   -0.164783
  34 S :    0.406506
  35 C :   -0.180345
  36 C :   -0.025293
  37 C :   -0.029037
  38 C :   -0.124793
  39 S :    0.411381
  40 C :   -0.044680
  41 C :    0.010326
  42 C :   -0.050540
  43 C :    0.043658
  44 C :   -0.041623
  45 C :   -0.000269
  46 C :   -0.219088
  47 Si:    0.416790
  48 C :   -0.206011
  49 C :   -0.002277
  50 C :    0.071037
  51 C :   -0.106670
  52 C :    0.076078
  53 C :   -0.149863
  54 C :   -0.016910
  55 N :   -0.064174
  56 C :   -0.024790
  57 N :   -0.061111
  58 C :   -0.025387
  59 C :   -0.050085
  60 C :    0.084207
  61 O :   -0.159098
  62 C :    0.025094
  63 C :   -0.009390
  64 C :   -0.008493
  65 C :    0.015947
  66 C :   -0.006875
  67 C :   -0.018010
  68 C :   -0.016452
  69 C :   -0.012023
  70 H :    0.039447
  71 H :    0.037769
  72 H :    0.033690
  73 H :    0.032522
  74 H :    0.032221
  75 H :    0.031906
  76 H :    0.046565
  77 H :    0.037028
  78 H :    0.033642
  79 H :    0.018510
  80 H :    0.024399
  81 H :    0.040126
  82 H :    0.037414
  83 H :    0.035221
  84 H :    0.034907
  85 H :    0.036705
  86 H :    0.036151
  87 H :    0.015958
  88 H :    0.040699
  89 H :    0.017776
  90 H :    0.015535
  91 H :    0.045002
  92 H :    0.037009
  93 H :    0.037987
  94 H :    0.033675
  95 H :    0.031057
  96 H :    0.030657
  97 H :    0.030375

  Mayer bond orders larger than 0.100000
B(  0-C ,  1-C ) :   1.6281 B(  0-C ,  6-C ) :   0.9933 B(  0-C , 18-C ) :   1.0512
B(  1-C ,  2-C ) :   1.1360 B(  1-C ,  4-C ) :   1.1663 B(  2-C ,  3-N ) :   2.9794
B(  4-C ,  5-N ) :   3.0093 B(  6-C ,  7-C ) :   1.2131 B(  6-C , 11-C ) :   1.4602
B(  7-C ,  8-C ) :   1.4763 B(  7-C , 16-C ) :   0.9209 B(  8-C ,  9-C ) :   1.1784
B(  8-C , 70-H ) :   1.0167 B(  9-C , 10-C ) :   1.2593 B(  9-C , 15-C ) :   1.2463
B( 10-C , 11-C ) :   1.1997 B( 10-C , 12-C ) :   1.2430 B( 11-C , 71-H ) :   0.9933
B( 12-C , 13-C ) :   1.4882 B( 12-C , 72-H ) :   0.9971 B( 13-C , 14-C ) :   1.2613
B( 13-C , 73-H ) :   0.9881 B( 14-C , 15-C ) :   1.4885 B( 14-C , 74-H ) :   0.9886
B( 15-C , 75-H ) :   0.9973 B( 16-C , 17-O ) :   2.2581 B( 16-C , 18-C ) :   0.9446
B( 18-C , 19-C ) :   1.6191 B( 19-C , 20-C ) :   1.1245 B( 19-C , 76-H ) :   0.9309
B( 20-C , 21-C ) :   1.4306 B( 20-C , 28-C ) :   1.1040 B( 21-C , 22-C ) :   1.2584
B( 21-C , 77-H ) :   0.9787 B( 22-C , 23-C ) :   1.4530 B( 22-C , 78-H ) :   0.9893
B( 23-C , 24-C ) :   1.0717 B( 23-C , 29-C ) :   1.1384 B( 24-C , 25-C ) :   1.6564
B( 24-C , 26-Si) :   0.1244 B( 24-C , 28-C ) :   1.0032 B( 25-C , 26-Si) :   0.9772
B( 25-C , 27-C ) :   0.1064 B( 25-C , 79-H ) :   0.9453 B( 26-Si, 27-C ) :   0.9968
B( 26-Si, 28-C ) :   0.1247 B( 27-C , 28-C ) :   1.6676 B( 27-C , 80-H ) :   0.9351
B( 29-C , 30-C ) :   1.5723 B( 29-C , 81-H ) :   0.9655 B( 30-C , 31-C ) :   1.1527
B( 30-C , 34-S ) :   1.0435 B( 31-C , 32-C ) :   1.5785 B( 31-C , 82-H ) :   0.9974
B( 32-C , 33-C ) :   1.1962 B( 32-C , 83-H ) :   0.9943 B( 33-C , 34-S ) :   1.0583
B( 33-C , 35-C ) :   1.4790 B( 35-C , 36-C ) :   1.2035 B( 35-C , 39-S ) :   1.0459
B( 36-C , 37-C ) :   1.5653 B( 36-C , 84-H ) :   0.9935 B( 37-C , 38-C ) :   1.1656
B( 37-C , 85-H ) :   0.9987 B( 38-C , 39-S ) :   1.0567 B( 38-C , 40-C ) :   1.5215
B( 40-C , 41-C ) :   1.2111 B( 40-C , 86-H ) :   0.9652 B( 41-C , 42-C ) :   1.3720
B( 41-C , 49-C ) :   1.0834 B( 42-C , 43-C ) :   1.3062 B( 42-C , 87-H ) :   0.9649
B( 43-C , 44-C ) :   1.3674 B( 43-C , 88-H ) :   0.9880 B( 44-C , 45-C ) :   1.0787
B( 44-C , 50-C ) :   1.2228 B( 45-C , 46-C ) :   1.6623 B( 45-C , 47-Si) :   0.1368
B( 45-C , 49-C ) :   1.0225 B( 46-C , 47-Si) :   1.0154 B( 46-C , 89-H ) :   0.9436
B( 47-Si, 48-C ) :   0.9872 B( 47-Si, 49-C ) :   0.1119 B( 48-C , 49-C ) :   1.6783
B( 48-C , 90-H ) :   0.9363 B( 50-C , 51-C ) :   1.4870 B( 50-C , 91-H ) :   0.9466
B( 51-C , 52-C ) :   1.0928 B( 51-C , 60-C ) :   0.9824 B( 52-C , 53-C ) :   1.6099
B( 52-C , 58-C ) :   0.9804 B( 53-C , 54-C ) :   1.1519 B( 53-C , 56-C ) :   1.1450
B( 54-C , 55-N ) :   2.9608 B( 56-C , 57-N ) :   2.9843 B( 58-C , 59-C ) :   1.2116
B( 58-C , 65-C ) :   1.4595 B( 59-C , 60-C ) :   0.9456 B( 59-C , 62-C ) :   1.4781
B( 60-C , 61-O ) :   2.1161 B( 62-C , 63-C ) :   1.1696 B( 62-C , 92-H ) :   1.0151
B( 63-C , 64-C ) :   1.2605 B( 63-C , 69-C ) :   1.2489 B( 64-C , 65-C ) :   1.1962
B( 64-C , 66-C ) :   1.2452 B( 65-C , 93-H ) :   0.9888 B( 66-C , 67-C ) :   1.4854
B( 66-C , 94-H ) :   0.9962 B( 67-C , 68-C ) :   1.2637 B( 67-C , 95-H ) :   0.9880
B( 68-C , 69-C ) :   1.4854 B( 68-C , 96-H ) :   0.9885 B( 69-C , 97-H ) :   0.9963

-----------------------------------------------------------------------------
         ABSORPTION SPECTRUM VIA TRANSITION ELECTRIC DIPOLE MOMENTS
-----------------------------------------------------------------------------
State   Energy  Wavelength   fosc         T2         TX        TY        TZ
        (cm-1)    (nm)                  (au**2)     (au)      (au)      (au)
-----------------------------------------------------------------------------
   0    6067.5   1648.1   0.291186068  15.79933  -0.46245  -1.73621   3.54557
   1    8717.7   1147.1   0.223708368   8.44804  -0.18880   2.79838   0.76254
   2   11041.2    905.7   0.065499615   1.95299  -0.11893  -0.21750   1.37533
   3   12185.4    820.7   0.410316413  11.08545   0.45404   1.60029  -2.88416
   4   14956.7    668.6   0.062386449   1.37319   0.31253  -0.56178  -0.97976
   5   15341.6    651.8   0.034605348   0.74259  -0.06443  -0.60459   0.61066
   6   15556.8    642.8   0.170170612   3.60113  -1.26899  -0.03774  -1.41045
   7   17238.2    580.1   0.305417697   5.83280   0.08301   1.82451   1.58021
   8   17356.6    576.2   0.353268963   6.70065  -0.06933   2.52979   0.54405
   9   18106.7    552.3   0.023431262   0.42602   0.30683  -0.55826   0.14220
  10   20098.2    497.6   0.052001357   0.85179   0.10753  -0.28345  -0.87171
  11   20893.7    478.6   0.221372935   3.48807   0.30065  -1.13703  -1.45081
  12   21560.6    463.8   0.011248049   0.17175   0.01465  -0.40357   0.09309
  13   21774.8    459.2   0.005568495   0.08419  -0.22172   0.18671  -0.01296
  14   22239.9    449.6   0.002879215   0.04262   0.04426  -0.07627   0.18667
  15   22349.6    447.4   0.000762264   0.01123   0.03751  -0.09440  -0.03015
  16   22497.9    444.5   0.055207338   0.80785   0.10634   0.10305  -0.88652
  17   23207.5    430.9   0.079466571   1.12728   0.42490   0.43050   0.87259
  18   23701.1    421.9   0.005863675   0.08145  -0.26236  -0.10630  -0.03626
  19   23813.9    419.9   0.085272512   1.17884   0.65915   0.78159   0.36534
  20   24768.6    403.7   0.082796923   1.10050   0.27134  -0.61030  -0.80895
  21   25386.1    393.9   0.037597652   0.48757  -0.19420  -0.55141   0.38184
  22   25496.3    392.2   0.082847914   1.06974   0.04292   0.99927  -0.26338
  23   25877.9    386.4   0.129140735   1.64290   0.21110   1.25481   0.15420
  24   25987.9    384.8   0.021791293   0.27605   0.32608  -0.40948  -0.04525
  25   26582.2    376.2   0.026505190   0.32826  -0.12812  -0.23451  -0.50680
  26   26929.1    371.3   0.022545607   0.27562   0.00513   0.45905  -0.25470
  27   27065.2    369.5   0.001252602   0.01524  -0.01444   0.07139  -0.09966
  28   27230.2    367.2   0.005612277   0.06785  -0.03226  -0.24768  -0.07392
  29   27578.8    362.6   0.003929605   0.04691   0.07679   0.19034  -0.06915
  30   28210.0    354.5   0.049689674   0.57988  -0.58880  -0.45521  -0.16119
  31   28523.6    350.6   0.041541878   0.47947  -0.33368  -0.29578  -0.52975
  32   28673.3    348.8   0.063369740   0.72758   0.22848  -0.81034  -0.13683
  33   29094.7    343.7   0.027963365   0.31641   0.16789   0.52569  -0.10895
  34   29415.8    340.0   0.021991430   0.24612   0.36437  -0.05017  -0.33293
  35   29571.0    338.2   0.082373054   0.91705  -0.27109   0.62717   0.67099
  36   29879.5    334.7   0.124468801   1.37140  -0.89434  -0.73474   0.17807
  37   30097.9    332.2   0.283364596   3.09945  -0.78184  -1.50165  -0.48292
  38   30174.5    331.4   0.024267350   0.26476   0.42117  -0.25462  -0.15016
  39   30400.7    328.9   0.210322078   2.27760  -0.88987  -1.00534  -0.68921
  40   30843.9    324.2   0.021819006   0.23288  -0.26979  -0.21980  -0.33435
  41   30867.3    324.0   0.024165690   0.25774   0.10139   0.43209   0.24648
  42   31115.9    321.4   0.012557505   0.13286  -0.13392  -0.33617  -0.04376
  43   31498.3    317.5   0.076025014   0.79459   0.77590   0.14057   0.41571
  44   31509.0    317.4   0.085479836   0.89311   0.70462  -0.20462  -0.59561
  45   31787.3    314.6   0.025677079   0.26593   0.38864   0.33154  -0.07053
  46   32289.3    309.7   0.031331469   0.31945   0.45364   0.19576  -0.27447
  47   32527.8    307.4   0.008183497   0.08282  -0.23462  -0.16592  -0.01586
  48   32730.5    305.5   0.014954889   0.15042   0.01496   0.26907   0.27892
  49   32979.0    303.2   0.020269435   0.20234  -0.38412  -0.13017   0.19455
  50   33014.7    302.9   0.002744981   0.02737   0.09669   0.13424  -0.00173
  51   33240.5    300.8   0.014801460   0.14659   0.22675  -0.06098  -0.30242
  52   33378.4    299.6   0.083142861   0.82004  -0.21838  -0.87867   0.01700
  53   33696.9    296.8   0.064660822   0.63172   0.46943   0.63713  -0.07366
  54   33741.1    296.4   0.012115496   0.11821  -0.22106  -0.21521   0.15174
  55   33991.3    294.2   0.066333118   0.64245   0.69040  -0.18067  -0.36491
  56   34172.2    292.6   0.008136002   0.07838  -0.04898  -0.27561   0.00457
  57   34301.6    291.5   0.055361111   0.53133  -0.02195  -0.39105  -0.61476
  58   34380.0    290.9   0.009449108   0.09048   0.14705   0.24634   0.09041
  59   34830.4    287.1   0.058557813   0.55348  -0.42546   0.55063  -0.26319
  60   35031.4    285.5   0.014116272   0.13266  -0.27891  -0.02230   0.23317
  61   35189.0    284.2   0.142735570   1.33537  -0.87446  -0.72180  -0.22290
  62   35276.4    283.5   0.117804770   1.09940   1.01633   0.06744  -0.24886
  63   35301.0    283.3   0.136399179   1.27204   0.51368  -0.67999  -0.73877
  64   35491.7    281.8   0.069549355   0.64512  -0.14363   0.56058   0.55700
  65   35711.9    280.0   0.377210782   3.47733  -1.21185  -1.36082  -0.39614
  66   35814.0    279.2   0.052122969   0.47913  -0.65621   0.18780   0.11507
  67   35960.2    278.1   0.064969139   0.59479   0.34222   0.69075   0.02317
  68   36169.4    276.5   0.050967872   0.46391   0.46116   0.16460  -0.47344
  69   36395.1    274.8   0.086985722   0.78683  -0.71424  -0.48901  -0.19380
  70   36595.0    273.3   0.139344497   1.25356   0.59589   0.78201   0.53566
  71   36765.5    272.0   0.022578461   0.20218   0.31541  -0.16954   0.27193
  72   36915.0    270.9   0.035691088   0.31830  -0.53256  -0.16667  -0.08301
  73   37035.5    270.0   0.062556552   0.55607  -0.57874  -0.40824   0.23340
  74   37188.6    268.9   0.015546241   0.13762   0.19612   0.05650   0.30979
  75   37350.1    267.7   0.092777760   0.81776  -0.70181  -0.51556   0.24379
  76   37468.8    266.9   0.058522242   0.51419  -0.59828   0.18774   0.34787
  77   37638.3    265.7   0.030629632   0.26791  -0.49403  -0.12063   0.09641
  78   37693.0    265.3   0.001620115   0.01415  -0.01058   0.00591  -0.11834
  79   37891.6    263.9   0.014700190   0.12772  -0.03038   0.35581  -0.01402
  80   38026.3    263.0   0.046057538   0.39874   0.49485  -0.39223   0.00361
  81   38293.6    261.1   0.008407894   0.07228   0.04266  -0.04207   0.26209
  82   38337.6    260.8   0.005534428   0.04753   0.00642  -0.19194   0.10316
  83   38401.7    260.4   0.009299360   0.07972  -0.03782   0.16667  -0.22475
  84   38712.5    258.3   0.018039731   0.15341   0.37232   0.10690   0.05799
  85   38896.7    257.1   0.004572594   0.03870  -0.16523   0.05099   0.09380
  86   39031.4    256.2   0.039785658   0.33557  -0.56237  -0.11080  -0.08389
  87   39581.0    252.6   0.053569878   0.44556   0.55769   0.36424  -0.04326
  88   39782.4    251.4   0.023281474   0.19266  -0.35371   0.13436  -0.22249
  89   39850.3    250.9   0.071776820   0.59296  -0.23461  -0.68782   0.25460
  90   40115.6    249.3   0.007640251   0.06270  -0.07162  -0.17041   0.16891

FINAL SINGLE POINT ENERGY     -4043.874775624698

DIPOLE MOMENT
-------------
                                X             Y             Z
Electronic contribution:     21.70151       8.02250       7.81110
Nuclear contribution   :    -25.43812      -4.59356      -7.58459
                        -----------------------------------------
Total Dipole Moment    :     -3.73662       3.42895       0.22651
                        -----------------------------------------
Magnitude (a.u.)       :      5.07654
Magnitude (Debye)      :     12.90355

Rotational constants in cm-1:     0.000881     0.000481     0.000344
Rotational constants in MHz :    26.407917    14.409724    10.299123

                             ****ORCA TERMINATED NORMALLY****
TOTAL RUN TIME: 0 days 0 hours 20 minutes 29 seconds 573 msec
