                         Program Version 4.2.0 -  RELEASE  -
|  1> # ORCA input file
|  2> # SCF done       -190.465885066090          0.000437535524
|  3> ! CAM-B3LYP def2-SVP def2/J RIJCOSX Grid4 TightSCF
|  4> %maxcore 5000
|  5> %tddft
|  6>     Mode sTDDFT
|  7>     Ethresh 5.0
|  8>     maxcore 5000
|  9> end
| 10>
| 11> %pal
| 12>   nprocs 6
| 13>   end
| 14> * xyz 0 1
| 15>    C       26.72903        -6.87002        -1.23211
| 16>    S       26.55293        -7.58102        -2.91593
| 17>    C       24.99540        -8.43097        -2.49628
| 18>    C       24.36633        -7.58717        -1.38698
| 19>    C       25.52458        -7.31635        -0.41308
| 20>    C       23.26873        -8.45164        -0.72966
| 21>    O       23.52643        -9.25237         0.13560
| 22>    N       22.04793        -8.31471        -1.28323
| 23>    N       23.84707        -6.37408        -1.98169
| 24>    C       23.22639        -5.37517        -1.29673
| 25>    C       22.74258        -5.45305        -0.03375
| 26>    C       22.03046        -4.40547         0.61629
| 27>    C       21.56716        -4.59349         1.94147
| 28>    C       20.83484        -3.58563         2.67890
| 29>    N       20.40268        -3.86652         3.90786
| 30>    C       20.65542        -5.04047         4.44916
| 31>    C       21.40477        -6.02299         3.73254
| 32>    N       21.83012        -5.77935         2.51750
| 33>    C       21.68908        -7.27186         4.33758
| 34>    N       21.89104        -8.26507         4.87225
| 35>    C       20.17736        -5.29785         5.75387
| 36>    N       19.80237        -5.50979         6.81703
| 37>    C       20.52688        -2.31698         2.10880
| 38>    C       20.98481        -2.14750         0.76706
| 39>    C       21.71974        -3.15137         0.04024
| 40>    N       22.03333        -2.73715        -1.18967
| 41>    S       21.46455        -1.24335        -1.40616
| 42>    N       20.79527        -1.04937         0.04252
| 43>    C       19.79071        -1.24849         2.64773
| 44>    C       19.28416        -0.95018         3.89757
| 45>    C       19.41170        -1.52528         5.17837
| 46>    C       18.74477        -0.85932         6.16621
| 47>    C       18.04301         0.28032         5.72344
| 48>    S       18.28108         0.49536         4.00900
| 49>    C       17.24993         1.13580         6.47029
| 50>    C       16.97182         1.07859         7.85310
| 51>    C       16.13150         2.05710         8.28510
| 52>    C       15.68418         2.95048         7.27176
| 53>    S       16.41630         2.48530         5.74054
| 54>    C       14.79055         3.96370         7.48296
| 55>    C       14.22057         4.90744         6.57525
| 56>    C       13.15376         5.70516         7.04195
| 57>    C       12.55349         6.60650         6.20369
| 58>    C       13.00039         6.75643         4.87805
| 59>    C       14.06016         5.99201         4.40735
| 60>    C       14.65608         5.07942         5.24983
| 61>    C       12.21106         7.78430         4.24091
| 62>    C       11.27111         8.27108         5.16675
| 63>    C       11.36648         7.50942         6.46999
| 64>    C       10.14382         6.58570         6.68491
| 65>    C        8.79302         7.28160         6.78507
| 66>    C       11.59638         8.43644         7.67179
| 67>    C       12.86795         9.26488         7.52800
| 68>    C       10.45105         9.32048         4.82643
| 69>    C       10.51738         9.87672         3.54071
| 70>    C       11.43734         9.35710         2.62357
| 71>    C       12.28813         8.32631         2.96553
| 72>    C        9.62417        10.97579         3.22192
| 73>    C        9.48922        11.58443         2.04281
| 74>    C        8.55735        12.71133         1.80180
| 75>    S        9.53672        14.26180         1.47249
| 76>    C        8.78180        14.52268        -0.16507
| 77>    C        7.40445        13.86465        -0.08509
| 78>    C        7.66712        12.50417         0.57760
| 79>    C        6.88809        13.68819        -1.52760
| 80>    O        7.15750        12.72114        -2.20169
| 81>    N        6.17896        14.74014        -1.97430
| 82>    N        6.51648        14.71982         0.67664
| 83>    C        5.24189        14.27436         0.98905
| 84>    C        4.54663        14.66586         2.04814
| 85>    H       26.76848        -5.78704        -1.34702
| 86>    H       27.66933        -7.21607        -0.80856
| 87>    H       25.21940        -9.43532        -2.13728
| 88>    H       24.37515        -8.49043        -3.38863
| 89>    H       25.73196        -8.24358         0.12231
| 90>    H       25.25012        -6.55257         0.31377
| 91>    H       21.84399        -7.56085        -1.91553
| 92>    H       21.28212        -8.82224        -0.87097
| 93>    H       24.33828        -6.09669        -2.82101
| 94>    H       23.07680        -4.46799        -1.86466
| 95>    H       22.87531        -6.34518         0.56035
| 96>    H       19.58585        -0.48954         1.89938
| 97>    H       19.99025        -2.41368         5.33858
| 98>    H       18.74102        -1.16866         7.19598
| 99>    H       17.39360         0.31921         8.48644
|100>    H       15.80632         2.16876         9.30460
|101>    H       14.43021         4.03779         8.50318
|102>    H       12.81553         5.58656         8.06177
|103>    H       14.41562         6.10979         3.39486
|104>    H       15.48682         4.49865         4.88415
|105>    H       10.31838         6.01223         7.59830
|106>    H       10.11069         5.87704         5.85298
|107>    H        8.77751         8.00473         7.59633
|108>    H        8.02089         6.54028         6.98057
|109>    H        8.54741         7.78602         5.85469
|110>    H       11.65603         7.83092         8.57884
|111>    H       10.74403         9.10940         7.77322
|112>    H       13.74098         8.62048         7.45146
|113>    H       12.99309         9.91415         8.39159
|114>    H       12.82122         9.88438         6.63500
|115>    H        9.75776         9.73858         5.54160
|116>    H       11.49847         9.77967         1.63321
|117>    H       13.00796         7.95201         2.25303
|118>    H        9.00205        11.30971         4.04464
|119>    H       10.08510        11.29947         1.18804
|120>    H        7.96434        12.92359         2.69477
|121>    H        9.39823        14.04460        -0.92650
|122>    H        8.72561        15.59290        -0.35421
|123>    H        8.16280        11.86270        -0.15347
|124>    H        6.73090        12.02784         0.87125
|125>    H        5.93439        15.48732        -1.34651
|126>    H        5.79469        14.71754        -2.90390
|127>    H        6.98200        15.17755         1.45252
|128>    H        4.81503        13.60959         0.24897
|129>    H        4.96602        15.32694         2.78745
|130>    H        3.53178        14.34993         2.19617
|131> *
|132>
|133>                          ****END OF INPUT****

CARTESIAN COORDINATES (ANGSTROEM)
---------------------------------
  C     26.729030   -6.870020   -1.232110
  S     26.552930   -7.581020   -2.915930
  C     24.995400   -8.430970   -2.496280
  C     24.366330   -7.587170   -1.386980
  C     25.524580   -7.316350   -0.413080
  C     23.268730   -8.451640   -0.729660
  O     23.526430   -9.252370    0.135600
  N     22.047930   -8.314710   -1.283230
  N     23.847070   -6.374080   -1.981690
  C     23.226390   -5.375170   -1.296730
  C     22.742580   -5.453050   -0.033750
  C     22.030460   -4.405470    0.616290
  C     21.567160   -4.593490    1.941470
  C     20.834840   -3.585630    2.678900
  N     20.402680   -3.866520    3.907860
  C     20.655420   -5.040470    4.449160
  C     21.404770   -6.022990    3.732540
  N     21.830120   -5.779350    2.517500
  C     21.689080   -7.271860    4.337580
  N     21.891040   -8.265070    4.872250
  C     20.177360   -5.297850    5.753870
  N     19.802370   -5.509790    6.817030
  C     20.526880   -2.316980    2.108800
  C     20.984810   -2.147500    0.767060
  C     21.719740   -3.151370    0.040240
  N     22.033330   -2.737150   -1.189670
  S     21.464550   -1.243350   -1.406160
  N     20.795270   -1.049370    0.042520
  C     19.790710   -1.248490    2.647730
  C     19.284160   -0.950180    3.897570
  C     19.411700   -1.525280    5.178370
  C     18.744770   -0.859320    6.166210
  C     18.043010    0.280320    5.723440
  S     18.281080    0.495360    4.009000
  C     17.249930    1.135800    6.470290
  C     16.971820    1.078590    7.853100
  C     16.131500    2.057100    8.285100
  C     15.684180    2.950480    7.271760
  S     16.416300    2.485300    5.740540
  C     14.790550    3.963700    7.482960
  C     14.220570    4.907440    6.575250
  C     13.153760    5.705160    7.041950
  C     12.553490    6.606500    6.203690
  C     13.000390    6.756430    4.878050
  C     14.060160    5.992010    4.407350
  C     14.656080    5.079420    5.249830
  C     12.211060    7.784300    4.240910
  C     11.271110    8.271080    5.166750
  C     11.366480    7.509420    6.469990
  C     10.143820    6.585700    6.684910
  C      8.793020    7.281600    6.785070
  C     11.596380    8.436440    7.671790
  C     12.867950    9.264880    7.528000
  C     10.451050    9.320480    4.826430
  C     10.517380    9.876720    3.540710
  C     11.437340    9.357100    2.623570
  C     12.288130    8.326310    2.965530
  C      9.624170   10.975790    3.221920
  C      9.489220   11.584430    2.042810
  C      8.557350   12.711330    1.801800
  S      9.536720   14.261800    1.472490
  C      8.781800   14.522680   -0.165070
  C      7.404450   13.864650   -0.085090
  C      7.667120   12.504170    0.577600
  C      6.888090   13.688190   -1.527600
  O      7.157500   12.721140   -2.201690
  N      6.178960   14.740140   -1.974300
  N      6.516480   14.719820    0.676640
  C      5.241890   14.274360    0.989050
  C      4.546630   14.665860    2.048140
  H     26.768480   -5.787040   -1.347020
  H     27.669330   -7.216070   -0.808560
  H     25.219400   -9.435320   -2.137280
  H     24.375150   -8.490430   -3.388630
  H     25.731960   -8.243580    0.122310
  H     25.250120   -6.552570    0.313770
  H     21.843990   -7.560850   -1.915530
  H     21.282120   -8.822240   -0.870970
  H     24.338280   -6.096690   -2.821010
  H     23.076800   -4.467990   -1.864660
  H     22.875310   -6.345180    0.560350
  H     19.585850   -0.489540    1.899380
  H     19.990250   -2.413680    5.338580
  H     18.741020   -1.168660    7.195980
  H     17.393600    0.319210    8.486440
  H     15.806320    2.168760    9.304600
  H     14.430210    4.037790    8.503180
  H     12.815530    5.586560    8.061770
  H     14.415620    6.109790    3.394860
  H     15.486820    4.498650    4.884150
  H     10.318380    6.012230    7.598300
  H     10.110690    5.877040    5.852980
  H      8.777510    8.004730    7.596330
  H      8.020890    6.540280    6.980570
  H      8.547410    7.786020    5.854690
  H     11.656030    7.830920    8.578840
  H     10.744030    9.109400    7.773220
  H     13.740980    8.620480    7.451460
  H     12.993090    9.914150    8.391590
  H     12.821220    9.884380    6.635000
  H      9.757760    9.738580    5.541600
  H     11.498470    9.779670    1.633210
  H     13.007960    7.952010    2.253030
  H      9.002050   11.309710    4.044640
  H     10.085100   11.299470    1.188040
  H      7.964340   12.923590    2.694770
  H      9.398230   14.044600   -0.926500
  H      8.725610   15.592900   -0.354210
  H      8.162800   11.862700   -0.153470
  H      6.730900   12.027840    0.871250
  H      5.934390   15.487320   -1.346510
  H      5.794690   14.717540   -2.903900
  H      6.982000   15.177550    1.452520
  H      4.815030   13.609590    0.248970
  H      4.966020   15.326940    2.787450
  H      3.531780   14.349930    2.196170

 Total Charge           Charge          ....    0
 Multiplicity           Mult            ....    1
 Number of Electrons    NEL             ....  530
 Basis Dimension        Dim             .... 1230

ORBITAL ENERGIES
----------------

  NO   OCC          E(Eh)            E(eV)
   0   2.0000     -89.028934     -2422.6005
   1   2.0000     -88.949751     -2420.4458
   2   2.0000     -88.942573     -2420.2505
   3   2.0000     -88.911397     -2419.4021
   4   2.0000     -88.911043     -2419.3925
   5   2.0000     -19.178436      -521.8718
   6   2.0000     -19.177679      -521.8512
   7   2.0000     -14.443564      -393.0294
   8   2.0000     -14.442052      -392.9882
   9   2.0000     -14.441725      -392.9793
  10   2.0000     -14.441692      -392.9784
  11   2.0000     -14.441104      -392.9624
  12   2.0000     -14.427197      -392.5840
  13   2.0000     -14.425987      -392.5511
  14   2.0000     -14.419739      -392.3810
  15   2.0000     -14.415345      -392.2615
  16   2.0000     -14.412281      -392.1781
  17   2.0000     -10.368906      -282.1523
  18   2.0000     -10.368314      -282.1362
  19   2.0000     -10.360950      -281.9358
  20   2.0000     -10.359252      -281.8896
  21   2.0000     -10.329605      -281.0829
  22   2.0000     -10.327124      -281.0153
  23   2.0000     -10.326564      -281.0001
  24   2.0000     -10.326105      -280.9876
  25   2.0000     -10.325741      -280.9777
  26   2.0000     -10.321342      -280.8580
  27   2.0000     -10.316069      -280.7145
  28   2.0000     -10.311504      -280.5903
  29   2.0000     -10.310393      -280.5601
  30   2.0000     -10.310020      -280.5499
  31   2.0000     -10.308823      -280.5173
  32   2.0000     -10.307904      -280.4923
  33   2.0000     -10.306089      -280.4429
  34   2.0000     -10.300433      -280.2890
  35   2.0000     -10.299929      -280.2753
  36   2.0000     -10.299788      -280.2715
  37   2.0000     -10.297755      -280.2162
  38   2.0000     -10.297564      -280.2110
  39   2.0000     -10.295449      -280.1534
  40   2.0000     -10.290555      -280.0202
  41   2.0000     -10.289369      -279.9880
  42   2.0000     -10.287231      -279.9298
  43   2.0000     -10.286264      -279.9035
  44   2.0000     -10.284581      -279.8577
  45   2.0000     -10.280873      -279.7568
  46   2.0000     -10.278027      -279.6793
  47   2.0000     -10.277077      -279.6535
  48   2.0000     -10.274402      -279.5807
  49   2.0000     -10.271289      -279.4960
  50   2.0000     -10.271138      -279.4919
  51   2.0000     -10.270686      -279.4796
  52   2.0000     -10.270151      -279.4650
  53   2.0000     -10.269900      -279.4582
  54   2.0000     -10.269214      -279.4395
  55   2.0000     -10.269174      -279.4384
  56   2.0000     -10.269141      -279.4375
  57   2.0000     -10.268820      -279.4288
  58   2.0000     -10.267534      -279.3938
  59   2.0000     -10.267434      -279.3911
  60   2.0000     -10.267076      -279.3813
  61   2.0000     -10.266728      -279.3719
  62   2.0000     -10.266082      -279.3543
  63   2.0000     -10.265677      -279.3433
  64   2.0000     -10.263170      -279.2750
  65   2.0000     -10.262710      -279.2625
  66   2.0000     -10.256146      -279.0839
  67   2.0000     -10.251199      -278.9493
  68   2.0000     -10.246025      -278.8085
  69   2.0000     -10.244857      -278.7767
  70   2.0000      -8.120548      -220.9713
  71   2.0000      -8.045576      -218.9313
  72   2.0000      -8.039107      -218.7552
  73   2.0000      -8.007581      -217.8974
  74   2.0000      -8.006828      -217.8769
  75   2.0000      -6.091787      -165.7660
  76   2.0000      -6.084022      -165.5547
  77   2.0000      -6.082951      -165.5255
  78   2.0000      -6.015301      -163.6847
  79   2.0000      -6.011234      -163.5740
  80   2.0000      -6.008766      -163.5068
  81   2.0000      -6.006574      -163.4472
  82   2.0000      -6.004722      -163.3968
  83   2.0000      -6.000129      -163.2718
  84   2.0000      -5.978339      -162.6789
  85   2.0000      -5.977436      -162.6543
  86   2.0000      -5.974056      -162.5623
  87   2.0000      -5.973308      -162.5420
  88   2.0000      -5.966746      -162.3634
  89   2.0000      -5.966160      -162.3475
  90   2.0000      -1.126984       -30.6668
  91   2.0000      -1.120397       -30.4876
  92   2.0000      -1.119819       -30.4718
  93   2.0000      -1.100887       -29.9567
  94   2.0000      -1.047554       -28.5054
  95   2.0000      -1.035031       -28.1646
  96   2.0000      -1.027606       -27.9626
  97   2.0000      -0.998097       -27.1596
  98   2.0000      -0.995609       -27.0919
  99   2.0000      -0.988244       -26.8915
 100   2.0000      -0.985811       -26.8253
 101   2.0000      -0.983152       -26.7529
 102   2.0000      -0.982709       -26.7409
 103   2.0000      -0.982203       -26.7271
 104   2.0000      -0.972212       -26.4552
 105   2.0000      -0.958371       -26.0786
 106   2.0000      -0.945243       -25.7214
 107   2.0000      -0.936869       -25.4935
 108   2.0000      -0.934115       -25.4185
 109   2.0000      -0.918208       -24.9857
 110   2.0000      -0.896803       -24.4033
 111   2.0000      -0.891185       -24.2504
 112   2.0000      -0.889739       -24.2110
 113   2.0000      -0.881804       -23.9951
 114   2.0000      -0.867179       -23.5972
 115   2.0000      -0.852935       -23.2095
 116   2.0000      -0.845806       -23.0156
 117   2.0000      -0.838614       -22.8198
 118   2.0000      -0.836426       -22.7603
 119   2.0000      -0.833457       -22.6795
 120   2.0000      -0.832827       -22.6624
 121   2.0000      -0.828266       -22.5383
 122   2.0000      -0.822162       -22.3722
 123   2.0000      -0.821082       -22.3428
 124   2.0000      -0.818321       -22.2676
 125   2.0000      -0.813437       -22.1348
 126   2.0000      -0.808226       -21.9930
 127   2.0000      -0.801288       -21.8042
 128   2.0000      -0.792649       -21.5691
 129   2.0000      -0.780614       -21.2416
 130   2.0000      -0.763979       -20.7889
 131   2.0000      -0.760399       -20.6915
 132   2.0000      -0.738067       -20.0838
 133   2.0000      -0.723558       -19.6890
 134   2.0000      -0.715941       -19.4817
 135   2.0000      -0.712707       -19.3938
 136   2.0000      -0.711332       -19.3563
 137   2.0000      -0.705110       -19.1870
 138   2.0000      -0.700370       -19.0580
 139   2.0000      -0.690831       -18.7985
 140   2.0000      -0.686446       -18.6791
 141   2.0000      -0.682885       -18.5822
 142   2.0000      -0.680046       -18.5050
 143   2.0000      -0.675089       -18.3701
 144   2.0000      -0.672780       -18.3073
 145   2.0000      -0.668978       -18.2038
 146   2.0000      -0.664463       -18.0809
 147   2.0000      -0.660668       -17.9777
 148   2.0000      -0.655403       -17.8344
 149   2.0000      -0.648716       -17.6525
 150   2.0000      -0.644005       -17.5243
 151   2.0000      -0.641931       -17.4678
 152   2.0000      -0.636137       -17.3102
 153   2.0000      -0.630710       -17.1625
 154   2.0000      -0.623277       -16.9602
 155   2.0000      -0.620842       -16.8940
 156   2.0000      -0.618023       -16.8173
 157   2.0000      -0.614173       -16.7125
 158   2.0000      -0.612350       -16.6629
 159   2.0000      -0.604823       -16.4581
 160   2.0000      -0.597502       -16.2589
 161   2.0000      -0.594513       -16.1775
 162   2.0000      -0.592977       -16.1357
 163   2.0000      -0.590271       -16.0621
 164   2.0000      -0.582252       -15.8439
 165   2.0000      -0.574979       -15.6460
 166   2.0000      -0.570389       -15.5211
 167   2.0000      -0.566441       -15.4136
 168   2.0000      -0.562881       -15.3168
 169   2.0000      -0.560908       -15.2631
 170   2.0000      -0.552999       -15.0479
 171   2.0000      -0.548116       -14.9150
 172   2.0000      -0.544877       -14.8269
 173   2.0000      -0.541960       -14.7475
 174   2.0000      -0.541794       -14.7430
 175   2.0000      -0.538137       -14.6434
 176   2.0000      -0.536855       -14.6086
 177   2.0000      -0.532413       -14.4877
 178   2.0000      -0.528465       -14.3803
 179   2.0000      -0.524259       -14.2658
 180   2.0000      -0.519567       -14.1381
 181   2.0000      -0.517290       -14.0762
 182   2.0000      -0.514111       -13.9897
 183   2.0000      -0.511857       -13.9283
 184   2.0000      -0.510892       -13.9021
 185   2.0000      -0.508063       -13.8251
 186   2.0000      -0.504645       -13.7321
 187   2.0000      -0.501204       -13.6384
 188   2.0000      -0.499708       -13.5977
 189   2.0000      -0.497742       -13.5442
 190   2.0000      -0.497309       -13.5325
 191   2.0000      -0.496022       -13.4974
 192   2.0000      -0.495650       -13.4873
 193   2.0000      -0.492668       -13.4062
 194   2.0000      -0.490357       -13.3433
 195   2.0000      -0.487724       -13.2717
 196   2.0000      -0.480801       -13.0833
 197   2.0000      -0.479057       -13.0358
 198   2.0000      -0.475107       -12.9283
 199   2.0000      -0.474363       -12.9081
 200   2.0000      -0.471233       -12.8229
 201   2.0000      -0.469308       -12.7705
 202   2.0000      -0.467316       -12.7163
 203   2.0000      -0.465752       -12.6738
 204   2.0000      -0.461718       -12.5640
 205   2.0000      -0.459920       -12.5151
 206   2.0000      -0.459156       -12.4943
 207   2.0000      -0.457888       -12.4598
 208   2.0000      -0.455171       -12.3858
 209   2.0000      -0.452182       -12.3045
 210   2.0000      -0.449249       -12.2247
 211   2.0000      -0.446424       -12.1478
 212   2.0000      -0.444635       -12.0991
 213   2.0000      -0.442773       -12.0485
 214   2.0000      -0.442556       -12.0426
 215   2.0000      -0.440880       -11.9969
 216   2.0000      -0.440238       -11.9795
 217   2.0000      -0.438215       -11.9244
 218   2.0000      -0.437683       -11.9100
 219   2.0000      -0.434452       -11.8220
 220   2.0000      -0.432843       -11.7782
 221   2.0000      -0.432005       -11.7555
 222   2.0000      -0.430229       -11.7071
 223   2.0000      -0.428701       -11.6655
 224   2.0000      -0.425815       -11.5870
 225   2.0000      -0.423830       -11.5330
 226   2.0000      -0.422606       -11.4997
 227   2.0000      -0.420276       -11.4363
 228   2.0000      -0.417380       -11.3575
 229   2.0000      -0.414353       -11.2751
 230   2.0000      -0.412529       -11.2255
 231   2.0000      -0.410998       -11.1838
 232   2.0000      -0.403076       -10.9682
 233   2.0000      -0.401726       -10.9315
 234   2.0000      -0.400727       -10.9043
 235   2.0000      -0.399012       -10.8577
 236   2.0000      -0.397002       -10.8030
 237   2.0000      -0.396170       -10.7803
 238   2.0000      -0.389635       -10.6025
 239   2.0000      -0.386732       -10.5235
 240   2.0000      -0.385124       -10.4797
 241   2.0000      -0.383265       -10.4292
 242   2.0000      -0.382833       -10.4174
 243   2.0000      -0.378463       -10.2985
 244   2.0000      -0.370906       -10.0929
 245   2.0000      -0.367990       -10.0135
 246   2.0000      -0.348044        -9.4708
 247   2.0000      -0.343364        -9.3434
 248   2.0000      -0.343088        -9.3359
 249   2.0000      -0.341198        -9.2845
 250   2.0000      -0.337052        -9.1716
 251   2.0000      -0.334459        -9.1011
 252   2.0000      -0.330914        -9.0046
 253   2.0000      -0.327164        -8.9026
 254   2.0000      -0.323626        -8.8063
 255   2.0000      -0.320471        -8.7205
 256   2.0000      -0.318105        -8.6561
 257   2.0000      -0.312639        -8.5073
 258   2.0000      -0.304985        -8.2991
 259   2.0000      -0.294547        -8.0150
 260   2.0000      -0.290136        -7.8950
 261   2.0000      -0.275409        -7.4943
 262   2.0000      -0.268921        -7.3177
 263   2.0000      -0.248630        -6.7656
 264   2.0000      -0.199897        -5.4395
 265   0.0000      -0.110813        -3.0154
 266   0.0000      -0.063706        -1.7335
 267   0.0000      -0.033202        -0.9035
 268   0.0000      -0.022253        -0.6055
 269   0.0000      -0.015507        -0.4220

MULLIKEN ATOMIC CHARGES
-----------------------
   0 C :   -0.030713
   1 S :   -0.113051
   2 C :    0.038125
   3 C :   -0.260920
   4 C :    0.120319
   5 C :    0.049438
   6 O :   -0.199458
   7 N :   -0.050329
   8 N :   -0.088240
   9 C :    0.044194
  10 C :   -0.143094
  11 C :    0.106679
  12 C :   -0.052649
  13 C :   -0.062973
  14 N :    0.025702
  15 C :   -0.133143
  16 C :   -0.134843
  17 N :    0.052143
  18 C :   -0.216427
  19 N :    0.229350
  20 C :   -0.235972
  21 N :    0.231589
  22 C :    0.108970
  23 C :   -0.002800
  24 C :    0.006179
  25 N :   -0.313081
  26 S :    0.517858
  27 N :   -0.276932
  28 C :   -0.065330
  29 C :   -0.045034
  30 C :    0.053993
  31 C :    0.015845
  32 C :   -0.044135
  33 S :    0.091207
  34 C :   -0.022398
  35 C :    0.025434
  36 C :    0.040910
  37 C :   -0.016426
  38 S :    0.069437
  39 C :   -0.027056
  40 C :    0.116108
  41 C :   -0.109769
  42 C :    0.020478
  43 C :    0.106777
  44 C :   -0.048061
  45 C :   -0.019182
  46 C :    0.104279
  47 C :    0.025504
  48 C :   -0.129688
  49 C :    0.075406
  50 C :    0.030514
  51 C :    0.050409
  52 C :    0.024648
  53 C :   -0.118658
  54 C :    0.127053
  55 C :   -0.010140
  56 C :   -0.048065
  57 C :    0.005887
  58 C :    0.054216
  59 C :   -0.143107
  60 S :   -0.064327
  61 C :    0.046717
  62 C :   -0.257624
  63 C :    0.204765
  64 C :    0.040223
  65 O :   -0.208272
  66 N :   -0.052130
  67 N :   -0.157295
  68 C :    0.034091
  69 C :   -0.066800
  70 H :    0.045240
  71 H :    0.052310
  72 H :    0.068316
  73 H :    0.043122
  74 H :    0.040818
  75 H :    0.027557
  76 H :    0.128076
  77 H :    0.132115
  78 H :    0.123887
  79 H :    0.020568
  80 H :    0.008851
  81 H :   -0.000201
  82 H :   -0.011566
  83 H :   -0.007970
  84 H :   -0.007405
  85 H :   -0.009482
  86 H :   -0.019504
  87 H :   -0.041169
  88 H :   -0.034107
  89 H :   -0.016590
  90 H :   -0.004905
  91 H :    0.007432
  92 H :    0.002814
  93 H :    0.012708
  94 H :    0.020448
  95 H :   -0.004225
  96 H :    0.006826
  97 H :    0.020322
  98 H :    0.008424
  99 H :    0.022440
 100 H :   -0.039975
 101 H :   -0.032256
 102 H :   -0.036456
 103 H :   -0.031651
 104 H :   -0.005713
 105 H :    0.031872
 106 H :    0.061862
 107 H :    0.041530
 108 H :    0.027648
 109 H :    0.016872
 110 H :    0.132704
 111 H :    0.127595
 112 H :    0.109878
 113 H :    0.015631
 114 H :    0.002959
 115 H :    0.016023
Sum of atomic charges:   -0.0000000

LOEWDIN ATOMIC CHARGES
----------------------
   0 C :   -0.123458
   1 S :    0.197019
   2 C :   -0.112766
   3 C :   -0.043034
   4 C :   -0.032036
   5 C :    0.055148
   6 O :   -0.198748
   7 N :    0.006703
   8 N :   -0.000446
   9 C :    0.042400
  10 C :   -0.116815
  11 C :   -0.024628
  12 C :   -0.017680
  13 C :   -0.015129
  14 N :    0.005714
  15 C :   -0.046335
  16 C :   -0.036588
  17 N :    0.000146
  18 C :   -0.035700
  19 N :   -0.014054
  20 C :   -0.040009
  21 N :   -0.024528
  22 C :   -0.039700
  23 C :   -0.037550
  24 C :   -0.045322
  25 N :   -0.292924
  26 S :    0.644106
  27 N :   -0.277753
  28 C :   -0.057861
  29 C :   -0.118956
  30 C :   -0.036697
  31 C :   -0.019448
  32 C :   -0.188090
  33 S :    0.385860
  34 C :   -0.162934
  35 C :   -0.039578
  36 C :   -0.018930
  37 C :   -0.152255
  38 S :    0.392005
  39 C :   -0.030590
  40 C :   -0.033510
  41 C :   -0.015041
  42 C :    0.003021
  43 C :   -0.010325
  44 C :   -0.016684
  45 C :   -0.021020
  46 C :   -0.020388
  47 C :    0.003820
  48 C :   -0.034143
  49 C :   -0.009531
  50 C :   -0.059565
  51 C :   -0.016008
  52 C :   -0.056659
  53 C :   -0.024328
  54 C :   -0.021616
  55 C :   -0.013401
  56 C :   -0.015787
  57 C :   -0.030550
  58 C :   -0.033407
  59 C :   -0.108951
  60 S :    0.210930
  61 C :   -0.114462
  62 C :   -0.044480
  63 C :   -0.024823
  64 C :    0.052814
  65 O :   -0.210536
  66 N :    0.006941
  67 N :   -0.047307
  68 C :    0.013979
  69 C :   -0.132345
  70 H :    0.019213
  71 H :    0.026713
  72 H :    0.032228
  73 H :    0.023272
  74 H :    0.037753
  75 H :    0.035144
  76 H :    0.075064
  77 H :    0.082876
  78 H :    0.069410
  79 H :    0.024837
  80 H :    0.028250
  81 H :    0.033574
  82 H :    0.029002
  83 H :    0.034627
  84 H :    0.034469
  85 H :    0.034481
  86 H :    0.034559
  87 H :    0.023049
  88 H :    0.028107
  89 H :    0.011581
  90 H :    0.019208
  91 H :    0.027308
  92 H :    0.019422
  93 H :    0.027633
  94 H :    0.024491
  95 H :    0.019231
  96 H :    0.019749
  97 H :    0.024889
  98 H :    0.023463
  99 H :    0.026342
 100 H :    0.022643
 101 H :    0.025890
 102 H :    0.026833
 103 H :    0.024656
 104 H :    0.021196
 105 H :    0.021692
 106 H :    0.029175
 107 H :    0.023700
 108 H :    0.033724
 109 H :    0.032874
 110 H :    0.073881
 111 H :    0.080137
 112 H :    0.061903
 113 H :    0.024251
 114 H :    0.017595
 115 H :    0.024708

  Mayer bond orders larger than 0.100000
B(  0-C ,  1-S ) :   0.9811 B(  0-C ,  4-C ) :   1.0587 B(  0-C , 70-H ) :   0.9499
B(  0-C , 71-H ) :   0.9501 B(  1-S ,  2-C ) :   0.9943 B(  2-C ,  3-C ) :   0.9954
B(  2-C , 72-H ) :   0.9451 B(  2-C , 73-H ) :   0.9454 B(  3-C ,  4-C ) :   1.0356
B(  3-C ,  5-C ) :   0.8547 B(  3-C ,  8-N ) :   0.9767 B(  4-C , 74-H ) :   0.9224
B(  4-C , 75-H ) :   0.9342 B(  5-C ,  6-O ) :   2.1658 B(  5-C ,  7-N ) :   1.2916
B(  7-N , 76-H ) :   0.9333 B(  7-N , 77-H ) :   0.9394 B(  8-N ,  9-C ) :   1.2085
B(  8-N , 78-H ) :   0.9107 B(  9-C , 10-C ) :   1.5598 B(  9-C , 79-H ) :   0.9363
B( 10-C , 11-C ) :   1.2454 B( 10-C , 80-H ) :   0.9284 B( 11-C , 12-C ) :   1.2571
B( 11-C , 22-C ) :   0.1140 B( 11-C , 24-C ) :   1.1510 B( 12-C , 13-C ) :   1.0849
B( 12-C , 17-N ) :   1.4372 B( 13-C , 14-N ) :   1.4863 B( 13-C , 22-C ) :   1.1802
B( 14-N , 15-C ) :   1.6693 B( 15-C , 16-C ) :   1.2137 B( 15-C , 20-C ) :   1.1599
B( 16-C , 17-N ) :   1.7450 B( 16-C , 18-C ) :   1.1564 B( 18-C , 19-N ) :   3.0446
B( 20-C , 21-N ) :   3.0392 B( 22-C , 23-C ) :   1.1515 B( 22-C , 28-C ) :   1.3335
B( 23-C , 24-C ) :   1.1088 B( 23-C , 27-N ) :   1.5586 B( 24-C , 25-N ) :   1.4973
B( 25-N , 26-S ) :   1.2483 B( 25-N , 27-N ) :   0.1462 B( 26-S , 27-N ) :   1.2657
B( 28-C , 29-C ) :   1.4287 B( 28-C , 81-H ) :   0.9211 B( 29-C , 30-C ) :   1.2087
B( 29-C , 33-S ) :   1.0710 B( 30-C , 31-C ) :   1.5345 B( 30-C , 82-H ) :   0.9836
B( 31-C , 32-C ) :   1.2126 B( 31-C , 83-H ) :   0.9963 B( 32-C , 33-S ) :   1.0531
B( 32-C , 34-C ) :   1.4560 B( 34-C , 35-C ) :   1.1971 B( 34-C , 38-S ) :   1.0568
B( 35-C , 36-C ) :   1.5848 B( 35-C , 84-H ) :   0.9935 B( 36-C , 37-C ) :   1.1370
B( 36-C , 85-H ) :   0.9993 B( 37-C , 38-S ) :   1.0240 B( 37-C , 39-C ) :   1.5829
B( 39-C , 40-C ) :   1.1120 B( 39-C , 86-H ) :   0.9708 B( 40-C , 41-C ) :   1.2584
B( 40-C , 45-C ) :   1.3132 B( 41-C , 42-C ) :   1.3967 B( 41-C , 87-H ) :   1.0099
B( 42-C , 43-C ) :   1.3604 B( 42-C , 48-C ) :   0.9256 B( 43-C , 44-C ) :   1.3290
B( 43-C , 46-C ) :   1.0054 B( 44-C , 45-C ) :   1.4178 B( 44-C , 88-H ) :   0.9894
B( 45-C , 89-H ) :   0.9703 B( 46-C , 47-C ) :   1.3882 B( 46-C , 56-C ) :   1.3240
B( 47-C , 48-C ) :   0.9181 B( 47-C , 53-C ) :   1.3734 B( 48-C , 49-C ) :   1.0131
B( 48-C , 51-C ) :   1.0322 B( 49-C , 50-C ) :   1.1149 B( 49-C , 90-H ) :   0.9372
B( 49-C , 91-H ) :   0.9392 B( 50-C , 92-H ) :   0.9630 B( 50-C , 93-H ) :   0.9593
B( 50-C , 94-H ) :   0.9607 B( 51-C , 52-C ) :   1.1041 B( 51-C , 95-H ) :   0.9393
B( 51-C , 96-H ) :   0.9383 B( 52-C , 97-H ) :   0.9632 B( 52-C , 98-H ) :   0.9649
B( 52-C , 99-H ) :   0.9651 B( 53-C , 54-C ) :   1.2944 B( 53-C ,100-H ) :   1.0068
B( 54-C , 55-C ) :   1.3569 B( 54-C , 57-C ) :   1.0540 B( 55-C , 56-C ) :   1.3968
B( 55-C ,101-H ) :   0.9851 B( 56-C ,102-H ) :   0.9905 B( 57-C , 58-C ) :   1.8132
B( 57-C ,103-H ) :   0.9801 B( 58-C , 59-C ) :   0.9736 B( 58-C ,104-H ) :   0.9540
B( 59-C , 60-S ) :   0.9828 B( 59-C , 63-C ) :   0.9851 B( 59-C ,105-H ) :   0.9249
B( 60-S , 61-C ) :   0.9970 B( 61-C , 62-C ) :   0.9925 B( 61-C ,106-H ) :   0.9462
B( 61-C ,107-H ) :   0.9409 B( 62-C , 63-C ) :   1.0186 B( 62-C , 64-C ) :   0.8483
B( 62-C , 67-N ) :   1.0065 B( 63-C ,108-H ) :   0.9229 B( 63-C ,109-H ) :   0.9244
B( 64-C , 65-O ) :   2.1636 B( 64-C , 66-N ) :   1.3070 B( 66-N ,110-H ) :   0.9216
B( 66-N ,111-H ) :   0.9392 B( 67-N , 68-C ) :   1.1027 B( 67-N ,112-H ) :   0.9206
B( 68-C , 69-C ) :   1.9349 B( 68-C ,113-H ) :   0.9594 B( 69-C ,114-H ) :   0.9567
B( 69-C ,115-H ) :   0.9521

-----------------------------------------------------------------------------
         ABSORPTION SPECTRUM VIA TRANSITION ELECTRIC DIPOLE MOMENTS
-----------------------------------------------------------------------------
State   Energy  Wavelength   fosc         T2         TX        TY        TZ
        (cm-1)    (nm)                  (au**2)     (au)      (au)      (au)
-----------------------------------------------------------------------------
   0    5439.9   1838.3   0.406892730  24.62423   2.77517  -3.46927  -2.21062
   1   15676.8    637.9   0.919466871  19.30873  -2.60607   3.41250   0.93379
   2   16462.1    607.5   0.090744514   1.81473   0.80899  -1.04062   0.27813
   3   21080.5    474.4   0.115253276   1.79990  -0.64526   0.07945   1.17355
   4   21684.0    461.2   0.074088420   1.12483  -0.77813   0.45883   0.55571
   5   22798.1    438.6   0.139825930   2.01913  -0.90801   1.00589  -0.42758
   6   26548.6    376.7   0.037905379   0.47004  -0.35261   0.03249   0.58707
   7   26852.1    372.4   0.285769633   3.50359   0.11857  -0.41986   1.82023
   8   27018.4    370.1   0.111938933   1.36395   0.74091  -0.67821   0.59584
   9   27193.7    367.7   0.031518268   0.38157   0.34404  -0.46695   0.21251
  10   28009.6    357.0   0.058028041   0.68204  -0.20270   0.18338   0.77931
  11   29305.9    341.2   0.012242230   0.13752   0.29052  -0.17852  -0.14579
  12   30395.8    329.0   0.004080761   0.04420   0.00107   0.03658   0.20702
  13   31385.1    318.6   0.023520654   0.24672   0.39609   0.17541  -0.24303
  14   31481.0    317.7   0.069924098   0.73123   0.09226   0.55855  -0.64089
  15   31861.0    313.9   0.048958347   0.50587   0.20679  -0.61096   0.29973
  16   32287.3    309.7   0.056827505   0.57943  -0.30943   0.05573   0.69324
  17   32902.5    303.9   0.443986481   4.44239  -0.02380   1.03439  -1.83626
  18   33038.7    302.7   0.390705055   3.89315   0.73465  -1.52428   1.01489
  19   33258.1    300.7   0.129897376   1.28582   0.15441   0.55951  -0.97413
  20   33337.4    300.0   0.013772667   0.13601   0.11417   0.09555  -0.33740
  21   33680.7    296.9   0.032521441   0.31788   0.07710  -0.09309  -0.55070
  22   34106.5    293.2   0.189967686   1.83366  -0.18570   0.74907  -1.11269
  23   34640.7    288.7   0.037785568   0.35910   0.01238  -0.48261   0.35501
  24   34955.9    286.1   0.346345695   3.26186   0.36351   0.69025  -1.62889
  25   35287.6    283.4   0.057856535   0.53977   0.27899   0.12055  -0.66888
  26   35777.2    279.5   0.017719766   0.16305  -0.15065  -0.06658   0.36868
  27   36376.7    274.9   0.009123605   0.08257   0.03573  -0.20420   0.19898
  28   36851.8    271.4   0.282879803   2.52708   0.78042  -1.38179   0.09313
  29   37486.7    266.8   0.040616474   0.35670   0.16195  -0.23244   0.52578
  30   37777.5    264.7   0.000994600   0.00867  -0.08087  -0.01131  -0.04471
  31   38194.0    261.8   0.192250254   1.65710   0.88850  -0.92664  -0.09483
  32   38870.5    257.3   0.033366433   0.28260  -0.16477   0.49492  -0.10246
  33   39166.0    255.3   0.012821232   0.10777   0.23242  -0.20512   0.10806
  34   39519.5    253.0   0.018651108   0.15537   0.28230   0.07934  -0.26340
  35   39939.9    250.4   0.003239957   0.02671   0.06491  -0.12273   0.08619
  36   40214.5    248.7   0.085133521   0.69694  -0.15902  -0.12943   0.80926

FINAL SINGLE POINT ENERGY     -4732.136966754351

DIPOLE MOMENT
-------------
                                X             Y             Z
Electronic contribution:     96.61319    -108.98075     -14.17673
Nuclear contribution   :    -98.52937     112.98346      12.65039
                        -----------------------------------------
Total Dipole Moment    :     -1.91618       4.00271      -1.52634
                        -----------------------------------------
Magnitude (a.u.)       :      4.69288
Magnitude (Debye)      :     11.92835

Rotational constants in cm-1:     0.001480     0.000172     0.000157
Rotational constants in MHz :    44.367147     5.153839     4.714711

                             ****ORCA TERMINATED NORMALLY****
TOTAL RUN TIME: 0 days 0 hours 12 minutes 32 seconds 598 msec
