                         Program Version 4.2.0 -  RELEASE  -
|  1> # ORCA input file
|  2> # SCF done       -178.699435511866          0.000218417173
|  3> ! CAM-B3LYP def2-SVP def2/J RIJCOSX Grid4 TightSCF
|  4> %maxcore 5000
|  5> %tddft
|  6>     Mode sTDDFT
|  7>     Ethresh 5.0
|  8>     maxcore 5000
|  9> end
| 10>
| 11> %pal
| 12>   nprocs 6
| 13>   end
| 14> * xyz 0 1
| 15>    C       -4.35825        -2.14795         0.75791
| 16>    C       -3.54752        -2.81224        -0.12533
| 17>    C       -3.06279        -4.12208         0.07276
| 18>    N       -2.63934        -5.18497         0.16962
| 19>    C       -3.08972        -2.29910        -1.35689
| 20>    N       -2.67172        -1.95932        -2.37112
| 21>    C       -4.82817        -2.66450         2.03640
| 22>    C       -5.68094        -1.70474         2.63925
| 23>    C       -6.28047        -1.91039         3.85838
| 24>    C       -6.01778        -3.11227         4.52258
| 25>    C       -5.16195        -4.06276         3.91548
| 26>    C       -4.56277        -3.86048         2.67852
| 27>    S       -4.97908        -5.47138         4.91321
| 28>    C       -6.02692        -4.79008         6.10904
| 29>    C       -6.49623        -3.56568         5.78415
| 30>    C       -5.80626        -0.53395         1.75338
| 31>    O       -6.57902         0.38921         1.87148
| 32>    C       -4.88079        -0.79950         0.61181
| 33>    C       -4.65149         0.07663        -0.39541
| 34>    C       -5.02140         1.46417        -0.34013
| 35>    N       -5.38424         2.09300        -1.46144
| 36>    C       -5.78447         3.33161        -1.37975
| 37>    C       -5.98370         3.91587        -0.10249
| 38>    N       -5.35632         3.30609         0.89822
| 39>    N       -4.81754         2.15780         0.79727
| 40>    C       -6.70209         5.14564         0.15659
| 41>    C       -7.48791         5.74733        -0.83665
| 42>    C       -8.13003         6.92847        -0.55669
| 43>    C       -8.00724         7.52831         0.70901
| 44>    C       -7.24241         6.92819         1.70208
| 45>    C       -6.59718         5.74372         1.41946
| 46>    C       -8.78795         8.74224         0.71798
| 47>    C       -9.39656         8.90035        -0.54173
| 48>    C       -8.97587         7.78638        -1.47488
| 49>    C       -8.03994         8.29765        -2.59627
| 50>    C       -8.62992         9.34377        -3.53254
| 51>    C      -10.17768         7.01916        -2.04465
| 52>    C      -11.04240         6.40285        -0.95088
| 53>    C      -10.25266         9.94896        -0.76551
| 54>    C      -10.48443        10.90287         0.24470
| 55>    C       -9.84687        10.73652         1.48628
| 56>    C       -9.01674         9.66557         1.73052
| 57>    C      -11.35035        12.00902        -0.04320
| 58>    C      -11.62699        13.05554         0.78050
| 59>    C      -12.45196        14.13776         0.43083
| 60>    C      -12.70109        15.20380         1.26002
| 61>    C      -13.48672        16.34836         0.98528
| 62>    C      -13.53629        17.25468         2.00274
| 63>    C      -12.79846        16.87647         3.14374
| 64>    S      -12.03200        15.32433         2.88096
| 65>    C      -12.64632        17.56107         4.33516
| 66>    C      -13.17128        18.82041         4.69723
| 67>    C      -12.83191        19.21692         5.95509
| 68>    C      -12.02314        18.29720         6.67055
| 69>    S      -11.70740        16.89842         5.65193
| 70>    C      -11.56820        18.47467         7.95158
| 71>    C      -10.78181        17.61389         8.74650
| 72>    C      -10.37961        17.90383        10.05828
| 73>    C       -9.61857        16.82163        10.55519
| 74>    C       -9.00336        16.60600        11.77238
| 75>    C       -8.31734        15.39799        11.95082
| 76>    C       -7.60989        14.88380        13.03369
| 77>    C       -7.10045        13.59731        12.69337
| 78>    C       -7.49265        13.31078        11.39380
| 79>    C       -8.25420        14.40729        10.89240
| 80>    C       -8.86257        14.61696         9.68055
| 81>    C       -9.55415        15.82989         9.49799
| 82>    C      -10.25927        16.32177         8.41244
| 83>    C       -6.31803        12.78381        13.59396
| 84>    C       -5.81880        11.58272        13.31515
| 85>    H       -6.92782        -1.16170         4.28791
| 86>    H       -3.92124        -4.61654         2.25770
| 87>    H       -6.22937        -5.35864         6.99589
| 88>    H       -7.15884        -2.99046         6.40517
| 89>    H       -4.12906        -0.22193        -1.29333
| 90>    H       -5.91307         3.86635        -2.30996
| 91>    H       -7.59928         5.27647        -1.80187
| 92>    H       -7.15171         7.38295         2.67685
| 93>    H       -5.98934         5.25385         2.16399
| 94>    H       -7.72380         7.43248        -3.18379
| 95>    H       -7.14855         8.71729        -2.12204
| 96>    H       -9.53187         8.97976        -4.01746
| 97>    H       -7.90417         9.58188        -4.30745
| 98>    H       -8.86004        10.25908        -2.99449
| 99>    H       -9.81301         6.23167        -2.70785
|100>    H      -10.78817         7.70111        -2.63798
|101>    H      -10.46777         5.69513        -0.35746
|102>    H      -11.88644         5.87701        -1.39141
|103>    H      -11.42544         7.17431        -0.28635
|104>    H      -10.76548        10.05830        -1.70988
|105>    H      -10.01955        11.45448         2.27243
|106>    H       -8.55136         9.54409         2.69738
|107>    H      -11.80465        12.00723        -1.02720
|108>    H      -11.18941        13.09766         1.76890
|109>    H      -12.91082        14.14772        -0.54917
|110>    H      -13.98809        16.46726         0.04073
|111>    H      -14.08382        18.17954         1.96261
|112>    H      -13.77890        19.39754         4.02341
|113>    H      -13.13983        20.14721         6.39996
|114>    H      -11.85929        19.40645         8.42302
|115>    H      -10.61369        18.80294        10.59866
|116>    H       -9.04687        17.33962        12.56524
|117>    H       -7.46380        15.37009        13.98217
|118>    H       -7.27113        12.41784        10.83990
|119>    H       -8.82144        13.88497         8.88619
|120>    H      -10.39316        15.81531         7.47528
|121>    H       -6.14248        13.22079        14.56951
|122>    H       -5.96646        11.10973        12.35955
|123>    H       -5.24212        11.03036        14.03659
|124> *
|125>
|126>                          ****END OF INPUT****

CARTESIAN COORDINATES (ANGSTROEM)
---------------------------------
  C     -4.358250   -2.147950    0.757910
  C     -3.547520   -2.812240   -0.125330
  C     -3.062790   -4.122080    0.072760
  N     -2.639340   -5.184970    0.169620
  C     -3.089720   -2.299100   -1.356890
  N     -2.671720   -1.959320   -2.371120
  C     -4.828170   -2.664500    2.036400
  C     -5.680940   -1.704740    2.639250
  C     -6.280470   -1.910390    3.858380
  C     -6.017780   -3.112270    4.522580
  C     -5.161950   -4.062760    3.915480
  C     -4.562770   -3.860480    2.678520
  S     -4.979080   -5.471380    4.913210
  C     -6.026920   -4.790080    6.109040
  C     -6.496230   -3.565680    5.784150
  C     -5.806260   -0.533950    1.753380
  O     -6.579020    0.389210    1.871480
  C     -4.880790   -0.799500    0.611810
  C     -4.651490    0.076630   -0.395410
  C     -5.021400    1.464170   -0.340130
  N     -5.384240    2.093000   -1.461440
  C     -5.784470    3.331610   -1.379750
  C     -5.983700    3.915870   -0.102490
  N     -5.356320    3.306090    0.898220
  N     -4.817540    2.157800    0.797270
  C     -6.702090    5.145640    0.156590
  C     -7.487910    5.747330   -0.836650
  C     -8.130030    6.928470   -0.556690
  C     -8.007240    7.528310    0.709010
  C     -7.242410    6.928190    1.702080
  C     -6.597180    5.743720    1.419460
  C     -8.787950    8.742240    0.717980
  C     -9.396560    8.900350   -0.541730
  C     -8.975870    7.786380   -1.474880
  C     -8.039940    8.297650   -2.596270
  C     -8.629920    9.343770   -3.532540
  C    -10.177680    7.019160   -2.044650
  C    -11.042400    6.402850   -0.950880
  C    -10.252660    9.948960   -0.765510
  C    -10.484430   10.902870    0.244700
  C     -9.846870   10.736520    1.486280
  C     -9.016740    9.665570    1.730520
  C    -11.350350   12.009020   -0.043200
  C    -11.626990   13.055540    0.780500
  C    -12.451960   14.137760    0.430830
  C    -12.701090   15.203800    1.260020
  C    -13.486720   16.348360    0.985280
  C    -13.536290   17.254680    2.002740
  C    -12.798460   16.876470    3.143740
  S    -12.032000   15.324330    2.880960
  C    -12.646320   17.561070    4.335160
  C    -13.171280   18.820410    4.697230
  C    -12.831910   19.216920    5.955090
  C    -12.023140   18.297200    6.670550
  S    -11.707400   16.898420    5.651930
  C    -11.568200   18.474670    7.951580
  C    -10.781810   17.613890    8.746500
  C    -10.379610   17.903830   10.058280
  C     -9.618570   16.821630   10.555190
  C     -9.003360   16.606000   11.772380
  C     -8.317340   15.397990   11.950820
  C     -7.609890   14.883800   13.033690
  C     -7.100450   13.597310   12.693370
  C     -7.492650   13.310780   11.393800
  C     -8.254200   14.407290   10.892400
  C     -8.862570   14.616960    9.680550
  C     -9.554150   15.829890    9.497990
  C    -10.259270   16.321770    8.412440
  C     -6.318030   12.783810   13.593960
  C     -5.818800   11.582720   13.315150
  H     -6.927820   -1.161700    4.287910
  H     -3.921240   -4.616540    2.257700
  H     -6.229370   -5.358640    6.995890
  H     -7.158840   -2.990460    6.405170
  H     -4.129060   -0.221930   -1.293330
  H     -5.913070    3.866350   -2.309960
  H     -7.599280    5.276470   -1.801870
  H     -7.151710    7.382950    2.676850
  H     -5.989340    5.253850    2.163990
  H     -7.723800    7.432480   -3.183790
  H     -7.148550    8.717290   -2.122040
  H     -9.531870    8.979760   -4.017460
  H     -7.904170    9.581880   -4.307450
  H     -8.860040   10.259080   -2.994490
  H     -9.813010    6.231670   -2.707850
  H    -10.788170    7.701110   -2.637980
  H    -10.467770    5.695130   -0.357460
  H    -11.886440    5.877010   -1.391410
  H    -11.425440    7.174310   -0.286350
  H    -10.765480   10.058300   -1.709880
  H    -10.019550   11.454480    2.272430
  H     -8.551360    9.544090    2.697380
  H    -11.804650   12.007230   -1.027200
  H    -11.189410   13.097660    1.768900
  H    -12.910820   14.147720   -0.549170
  H    -13.988090   16.467260    0.040730
  H    -14.083820   18.179540    1.962610
  H    -13.778900   19.397540    4.023410
  H    -13.139830   20.147210    6.399960
  H    -11.859290   19.406450    8.423020
  H    -10.613690   18.802940   10.598660
  H     -9.046870   17.339620   12.565240
  H     -7.463800   15.370090   13.982170
  H     -7.271130   12.417840   10.839900
  H     -8.821440   13.884970    8.886190
  H    -10.393160   15.815310    7.475280
  H     -6.142480   13.220790   14.569510
  H     -5.966460   11.109730   12.359550
  H     -5.242120   11.030360   14.036590

 Total Charge           Charge          ....    0
 Multiplicity           Mult            ....    1
 Number of Electrons    NEL             ....  496
 Basis Dimension        Dim             .... 1187

ORBITAL ENERGIES
----------------

  NO   OCC          E(Eh)            E(eV)
   0   2.0000     -88.966958     -2420.9140
   1   2.0000     -88.937793     -2420.1204
   2   2.0000     -88.934427     -2420.0288
   3   2.0000     -19.213531      -522.8268
   4   2.0000     -14.447048      -393.1242
   5   2.0000     -14.443327      -393.0229
   6   2.0000     -14.430528      -392.6746
   7   2.0000     -14.417072      -392.3085
   8   2.0000     -14.416831      -392.3019
   9   2.0000     -10.365286      -282.0538
  10   2.0000     -10.345724      -281.5215
  11   2.0000     -10.345690      -281.5205
  12   2.0000     -10.343027      -281.4481
  13   2.0000     -10.326909      -281.0095
  14   2.0000     -10.325643      -280.9750
  15   2.0000     -10.321284      -280.8564
  16   2.0000     -10.319314      -280.8028
  17   2.0000     -10.318679      -280.7855
  18   2.0000     -10.314882      -280.6822
  19   2.0000     -10.312318      -280.6124
  20   2.0000     -10.307483      -280.4809
  21   2.0000     -10.305198      -280.4187
  22   2.0000     -10.303811      -280.3809
  23   2.0000     -10.302944      -280.3574
  24   2.0000     -10.302585      -280.3476
  25   2.0000     -10.301498      -280.3180
  26   2.0000     -10.301104      -280.3073
  27   2.0000     -10.299440      -280.2620
  28   2.0000     -10.298605      -280.2393
  29   2.0000     -10.298077      -280.2249
  30   2.0000     -10.296730      -280.1883
  31   2.0000     -10.290511      -280.0190
  32   2.0000     -10.289356      -279.9876
  33   2.0000     -10.284274      -279.8493
  34   2.0000     -10.281924      -279.7854
  35   2.0000     -10.280631      -279.7502
  36   2.0000     -10.280438      -279.7450
  37   2.0000     -10.278405      -279.6896
  38   2.0000     -10.278074      -279.6806
  39   2.0000     -10.277750      -279.6718
  40   2.0000     -10.275879      -279.6209
  41   2.0000     -10.275709      -279.6163
  42   2.0000     -10.275577      -279.6127
  43   2.0000     -10.275378      -279.6073
  44   2.0000     -10.275363      -279.6068
  45   2.0000     -10.274227      -279.5759
  46   2.0000     -10.273008      -279.5428
  47   2.0000     -10.269336      -279.4428
  48   2.0000     -10.268622      -279.4234
  49   2.0000     -10.268522      -279.4207
  50   2.0000     -10.268465      -279.4192
  51   2.0000     -10.267958      -279.4053
  52   2.0000     -10.267628      -279.3964
  53   2.0000     -10.267587      -279.3952
  54   2.0000     -10.267101      -279.3820
  55   2.0000     -10.266479      -279.3651
  56   2.0000     -10.266117      -279.3552
  57   2.0000     -10.265766      -279.3457
  58   2.0000     -10.265587      -279.3408
  59   2.0000     -10.264836      -279.3204
  60   2.0000     -10.264801      -279.3194
  61   2.0000     -10.263250      -279.2772
  62   2.0000     -10.262911      -279.2680
  63   2.0000     -10.262266      -279.2505
  64   2.0000     -10.262049      -279.2445
  65   2.0000     -10.262013      -279.2436
  66   2.0000     -10.261876      -279.2398
  67   2.0000     -10.255540      -279.0674
  68   2.0000     -10.250602      -278.9331
  69   2.0000     -10.245070      -278.7825
  70   2.0000      -8.063181      -219.4103
  71   2.0000      -8.033716      -218.6085
  72   2.0000      -8.030733      -218.5274
  73   2.0000      -6.032697      -164.1580
  74   2.0000      -6.028393      -164.0409
  75   2.0000      -6.024850      -163.9445
  76   2.0000      -6.003497      -163.3635
  77   2.0000      -6.000483      -163.2814
  78   2.0000      -5.999464      -163.2537
  79   2.0000      -5.996535      -163.1740
  80   2.0000      -5.994615      -163.1218
  81   2.0000      -5.991558      -163.0386
  82   2.0000      -1.147400       -31.2224
  83   2.0000      -1.127923       -30.6923
  84   2.0000      -1.027296       -27.9542
  85   2.0000      -1.020792       -27.7772
  86   2.0000      -1.008982       -27.4558
  87   2.0000      -0.994878       -27.0720
  88   2.0000      -0.987597       -26.8739
  89   2.0000      -0.986820       -26.8527
  90   2.0000      -0.985601       -26.8196
  91   2.0000      -0.984470       -26.7888
  92   2.0000      -0.965682       -26.2775
  93   2.0000      -0.958061       -26.0702
  94   2.0000      -0.957589       -26.0573
  95   2.0000      -0.937075       -25.4991
  96   2.0000      -0.928589       -25.2682
  97   2.0000      -0.913386       -24.8545
  98   2.0000      -0.899927       -24.4883
  99   2.0000      -0.897147       -24.4126
 100   2.0000      -0.893939       -24.3253
 101   2.0000      -0.881655       -23.9910
 102   2.0000      -0.877549       -23.8793
 103   2.0000      -0.868127       -23.6229
 104   2.0000      -0.862930       -23.4815
 105   2.0000      -0.858301       -23.3556
 106   2.0000      -0.847419       -23.0594
 107   2.0000      -0.836534       -22.7632
 108   2.0000      -0.835499       -22.7351
 109   2.0000      -0.834134       -22.6979
 110   2.0000      -0.832940       -22.6654
 111   2.0000      -0.827256       -22.5108
 112   2.0000      -0.823434       -22.4068
 113   2.0000      -0.813466       -22.1355
 114   2.0000      -0.809583       -22.0299
 115   2.0000      -0.797336       -21.6966
 116   2.0000      -0.793513       -21.5926
 117   2.0000      -0.779838       -21.2205
 118   2.0000      -0.772774       -21.0282
 119   2.0000      -0.761050       -20.7092
 120   2.0000      -0.759319       -20.6621
 121   2.0000      -0.756107       -20.5747
 122   2.0000      -0.748185       -20.3591
 123   2.0000      -0.746031       -20.3005
 124   2.0000      -0.728953       -19.8358
 125   2.0000      -0.715174       -19.4609
 126   2.0000      -0.705630       -19.2012
 127   2.0000      -0.702335       -19.1115
 128   2.0000      -0.690598       -18.7921
 129   2.0000      -0.689499       -18.7622
 130   2.0000      -0.686537       -18.6816
 131   2.0000      -0.680937       -18.5292
 132   2.0000      -0.675660       -18.3857
 133   2.0000      -0.671144       -18.2628
 134   2.0000      -0.667225       -18.1561
 135   2.0000      -0.662292       -18.0219
 136   2.0000      -0.658783       -17.9264
 137   2.0000      -0.651830       -17.7372
 138   2.0000      -0.646376       -17.5888
 139   2.0000      -0.633656       -17.2427
 140   2.0000      -0.631916       -17.1953
 141   2.0000      -0.624405       -16.9909
 142   2.0000      -0.623268       -16.9600
 143   2.0000      -0.622596       -16.9417
 144   2.0000      -0.618328       -16.8256
 145   2.0000      -0.612886       -16.6775
 146   2.0000      -0.606567       -16.5055
 147   2.0000      -0.604461       -16.4482
 148   2.0000      -0.597931       -16.2705
 149   2.0000      -0.595614       -16.2075
 150   2.0000      -0.589352       -16.0371
 151   2.0000      -0.586869       -15.9695
 152   2.0000      -0.578030       -15.7290
 153   2.0000      -0.577445       -15.7131
 154   2.0000      -0.569085       -15.4856
 155   2.0000      -0.562278       -15.3004
 156   2.0000      -0.556561       -15.1448
 157   2.0000      -0.552023       -15.0213
 158   2.0000      -0.551415       -15.0048
 159   2.0000      -0.543984       -14.8026
 160   2.0000      -0.539776       -14.6881
 161   2.0000      -0.539005       -14.6671
 162   2.0000      -0.538319       -14.6484
 163   2.0000      -0.532583       -14.4923
 164   2.0000      -0.530120       -14.4253
 165   2.0000      -0.529490       -14.4081
 166   2.0000      -0.527006       -14.3406
 167   2.0000      -0.524317       -14.2674
 168   2.0000      -0.522803       -14.2262
 169   2.0000      -0.519355       -14.1324
 170   2.0000      -0.516872       -14.0648
 171   2.0000      -0.511918       -13.9300
 172   2.0000      -0.510411       -13.8890
 173   2.0000      -0.507445       -13.8083
 174   2.0000      -0.506623       -13.7859
 175   2.0000      -0.504707       -13.7338
 176   2.0000      -0.501464       -13.6455
 177   2.0000      -0.498961       -13.5774
 178   2.0000      -0.494223       -13.4485
 179   2.0000      -0.494042       -13.4436
 180   2.0000      -0.490375       -13.3438
 181   2.0000      -0.490205       -13.3392
 182   2.0000      -0.489531       -13.3208
 183   2.0000      -0.487833       -13.2746
 184   2.0000      -0.486691       -13.2435
 185   2.0000      -0.480870       -13.0851
 186   2.0000      -0.475657       -12.9433
 187   2.0000      -0.473142       -12.8749
 188   2.0000      -0.470789       -12.8108
 189   2.0000      -0.470098       -12.7920
 190   2.0000      -0.467476       -12.7207
 191   2.0000      -0.462647       -12.5893
 192   2.0000      -0.458362       -12.4727
 193   2.0000      -0.456788       -12.4298
 194   2.0000      -0.454812       -12.3761
 195   2.0000      -0.454167       -12.3585
 196   2.0000      -0.451344       -12.2817
 197   2.0000      -0.449154       -12.2221
 198   2.0000      -0.447871       -12.1872
 199   2.0000      -0.446501       -12.1499
 200   2.0000      -0.444319       -12.0905
 201   2.0000      -0.443914       -12.0795
 202   2.0000      -0.441712       -12.0196
 203   2.0000      -0.438068       -11.9204
 204   2.0000      -0.435084       -11.8392
 205   2.0000      -0.434716       -11.8292
 206   2.0000      -0.433553       -11.7976
 207   2.0000      -0.432240       -11.7618
 208   2.0000      -0.427940       -11.6448
 209   2.0000      -0.426970       -11.6184
 210   2.0000      -0.424890       -11.5618
 211   2.0000      -0.423110       -11.5134
 212   2.0000      -0.421432       -11.4677
 213   2.0000      -0.420330       -11.4378
 214   2.0000      -0.418505       -11.3881
 215   2.0000      -0.414983       -11.2923
 216   2.0000      -0.412098       -11.2137
 217   2.0000      -0.410262       -11.1638
 218   2.0000      -0.408967       -11.1286
 219   2.0000      -0.407353       -11.0846
 220   2.0000      -0.403675       -10.9846
 221   2.0000      -0.403125       -10.9696
 222   2.0000      -0.396111       -10.7787
 223   2.0000      -0.389677       -10.6036
 224   2.0000      -0.386892       -10.5279
 225   2.0000      -0.386087       -10.5060
 226   2.0000      -0.383833       -10.4446
 227   2.0000      -0.381122       -10.3709
 228   2.0000      -0.378083       -10.2882
 229   2.0000      -0.374493       -10.1905
 230   2.0000      -0.365201        -9.9376
 231   2.0000      -0.364099        -9.9076
 232   2.0000      -0.347042        -9.4435
 233   2.0000      -0.335622        -9.1327
 234   2.0000      -0.332379        -9.0445
 235   2.0000      -0.328257        -8.9323
 236   2.0000      -0.319528        -8.6948
 237   2.0000      -0.316803        -8.6206
 238   2.0000      -0.314757        -8.5650
 239   2.0000      -0.312829        -8.5125
 240   2.0000      -0.310188        -8.4406
 241   2.0000      -0.294958        -8.0262
 242   2.0000      -0.289477        -7.8771
 243   2.0000      -0.287692        -7.8285
 244   2.0000      -0.266582        -7.2541
 245   2.0000      -0.264084        -7.1861
 246   2.0000      -0.241287        -6.5658
 247   2.0000      -0.195002        -5.3063
 248   0.0000      -0.097379        -2.6498
 249   0.0000      -0.094413        -2.5691
 250   0.0000      -0.070596        -1.9210
 251   0.0000      -0.057269        -1.5584
 252   0.0000      -0.030679        -0.8348

MULLIKEN ATOMIC CHARGES
-----------------------
   0 C :    0.309708
   1 C :   -0.344693
   2 C :   -0.186045
   3 N :    0.155633
   4 C :   -0.189648
   5 N :    0.164072
   6 C :    0.024814
   7 C :   -0.014820
   8 C :   -0.064992
   9 C :    0.119413
  10 C :   -0.094887
  11 C :   -0.027435
  12 S :    0.141611
  13 C :   -0.046393
  14 C :    0.022219
  15 C :    0.143105
  16 O :   -0.131756
  17 C :   -0.055012
  18 C :    0.024460
  19 C :   -0.051253
  20 N :   -0.025932
  21 C :   -0.003274
  22 C :    0.011908
  23 N :   -0.055500
  24 N :   -0.035045
  25 C :    0.108882
  26 C :   -0.097505
  27 C :    0.008669
  28 C :    0.113667
  29 C :   -0.043170
  30 C :   -0.007262
  31 C :    0.094582
  32 C :    0.035338
  33 C :   -0.129945
  34 C :    0.081224
  35 C :    0.029465
  36 C :    0.051261
  37 C :    0.025103
  38 C :   -0.120651
  39 C :    0.136218
  40 C :   -0.013268
  41 C :   -0.042223
  42 C :   -0.017730
  43 C :    0.023453
  44 C :   -0.017050
  45 C :   -0.016386
  46 C :    0.032409
  47 C :    0.026924
  48 C :   -0.046032
  49 S :    0.050602
  50 C :   -0.028038
  51 C :    0.018254
  52 C :    0.038300
  53 C :   -0.025538
  54 S :    0.038955
  55 C :   -0.013089
  56 C :    0.052923
  57 C :   -0.031337
  58 C :    0.063592
  59 C :   -0.002412
  60 C :    0.052995
  61 C :   -0.019245
  62 C :    0.056324
  63 C :   -0.018551
  64 C :    0.045027
  65 C :    0.002959
  66 C :    0.036059
  67 C :   -0.020918
  68 C :    0.008162
  69 C :   -0.017844
  70 H :   -0.009059
  71 H :   -0.006742
  72 H :    0.039658
  73 H :   -0.004589
  74 H :    0.044342
  75 H :    0.019955
  76 H :   -0.039016
  77 H :   -0.033234
  78 H :   -0.000684
  79 H :   -0.008971
  80 H :    0.005048
  81 H :    0.001779
  82 H :    0.012810
  83 H :    0.022242
  84 H :   -0.003502
  85 H :    0.006737
  86 H :    0.021208
  87 H :    0.008930
  88 H :    0.022286
  89 H :   -0.040164
  90 H :   -0.032228
  91 H :   -0.038038
  92 H :   -0.032747
  93 H :   -0.001796
  94 H :   -0.023628
  95 H :   -0.017648
  96 H :   -0.017181
  97 H :   -0.016840
  98 H :   -0.016567
  99 H :   -0.026726
 100 H :   -0.029091
 101 H :   -0.025048
 102 H :   -0.023623
 103 H :   -0.028153
 104 H :   -0.021802
 105 H :   -0.006085
 106 H :   -0.022558
 107 H :    0.007998
 108 H :    0.019315
Sum of atomic charges:   -0.0000000

LOEWDIN ATOMIC CHARGES
----------------------
   0 C :    0.074586
   1 C :   -0.129121
   2 C :   -0.016990
   3 N :   -0.047662
   4 C :   -0.020621
   5 N :   -0.041473
   6 C :   -0.022525
   7 C :   -0.051037
   8 C :    0.025353
   9 C :   -0.032268
  10 C :   -0.144018
  11 C :   -0.008157
  12 S :    0.430036
  13 C :   -0.147092
  14 C :   -0.057571
  15 C :    0.084311
  16 O :   -0.126726
  17 C :   -0.056333
  18 C :    0.061102
  19 C :   -0.010247
  20 N :   -0.041111
  21 C :    0.025685
  22 C :   -0.007291
  23 N :   -0.010975
  24 N :   -0.034272
  25 C :   -0.046268
  26 C :   -0.014298
  27 C :    0.003644
  28 C :   -0.003081
  29 C :   -0.020118
  30 C :    0.009335
  31 C :   -0.024280
  32 C :    0.004314
  33 C :   -0.034225
  34 C :   -0.009289
  35 C :   -0.059148
  36 C :   -0.015610
  37 C :   -0.056342
  38 C :   -0.024557
  39 C :   -0.019637
  40 C :   -0.014990
  41 C :   -0.014755
  42 C :   -0.026669
  43 C :   -0.026235
  44 C :   -0.064038
  45 C :   -0.141333
  46 C :   -0.042039
  47 C :   -0.030434
  48 C :   -0.187401
  49 S :    0.357963
  50 C :   -0.174844
  51 C :   -0.045022
  52 C :   -0.028319
  53 C :   -0.158951
  54 S :    0.369862
  55 C :   -0.043881
  56 C :   -0.070819
  57 C :    0.022837
  58 C :   -0.068957
  59 C :    0.079444
  60 C :   -0.073838
  61 C :    0.046035
  62 C :   -0.067306
  63 C :    0.030785
  64 C :   -0.064218
  65 C :    0.081719
  66 C :   -0.068510
  67 C :    0.036224
  68 C :   -0.025193
  69 C :   -0.049351
  70 H :    0.041695
  71 H :    0.040764
  72 H :    0.029906
  73 H :    0.035985
  74 H :    0.052224
  75 H :    0.026516
  76 H :    0.023219
  77 H :    0.027692
  78 H :    0.033554
  79 H :    0.017978
  80 H :    0.026755
  81 H :    0.019380
  82 H :    0.027745
  83 H :    0.024950
  84 H :    0.019263
  85 H :    0.020015
  86 H :    0.025157
  87 H :    0.023876
  88 H :    0.026358
  89 H :    0.022738
  90 H :    0.025916
  91 H :    0.026660
  92 H :    0.024597
  93 H :    0.018500
  94 H :    0.030046
  95 H :    0.031535
  96 H :    0.030660
  97 H :    0.030273
  98 H :    0.031735
  99 H :    0.033953
 100 H :    0.023440
 101 H :    0.034644
 102 H :    0.025174
 103 H :    0.023808
 104 H :    0.035960
 105 H :    0.014321
 106 H :    0.026868
 107 H :    0.018548
 108 H :    0.023803

  Mayer bond orders larger than 0.100000
B(  0-C ,  1-C ) :   1.6500 B(  0-C ,  6-C ) :   1.0172 B(  0-C , 17-C ) :   1.0412
B(  1-C ,  2-C ) :   1.1432 B(  1-C ,  4-C ) :   1.1435 B(  2-C ,  3-N ) :   2.9706
B(  4-C ,  5-N ) :   2.9733 B(  6-C ,  7-C ) :   1.2638 B(  6-C , 11-C ) :   1.3999
B(  7-C ,  8-C ) :   1.4238 B(  7-C , 15-C ) :   0.9393 B(  8-C ,  9-C ) :   1.2506
B(  8-C , 70-H ) :   1.0166 B(  9-C , 10-C ) :   1.2938 B(  9-C , 14-C ) :   1.1714
B( 10-C , 11-C ) :   1.3348 B( 10-C , 12-S ) :   1.0991 B( 11-C , 71-H ) :   0.9822
B( 12-S , 13-C ) :   1.1258 B( 13-C , 14-C ) :   1.6278 B( 13-C , 72-H ) :   0.9688
B( 14-C , 73-H ) :   1.0002 B( 15-C , 16-O ) :   2.2569 B( 15-C , 17-C ) :   0.9161
B( 17-C , 18-C ) :   1.7331 B( 18-C , 19-C ) :   1.0246 B( 18-C , 74-H ) :   0.9341
B( 19-C , 20-N ) :   1.4752 B( 19-C , 24-N ) :   1.4289 B( 20-N , 21-C ) :   1.6045
B( 21-C , 22-C ) :   1.2421 B( 21-C , 75-H ) :   0.9738 B( 22-C , 23-N ) :   1.5392
B( 22-C , 25-C ) :   1.0003 B( 23-N , 24-N ) :   1.3893 B( 25-C , 26-C ) :   1.3005
B( 25-C , 30-C ) :   1.3726 B( 26-C , 27-C ) :   1.4035 B( 26-C , 76-H ) :   0.9941
B( 27-C , 28-C ) :   1.3708 B( 27-C , 33-C ) :   0.9255 B( 28-C , 29-C ) :   1.3246
B( 28-C , 31-C ) :   1.0036 B( 29-C , 30-C ) :   1.3633 B( 29-C , 77-H ) :   0.9952
B( 30-C , 78-H ) :   0.9874 B( 31-C , 32-C ) :   1.3802 B( 31-C , 41-C ) :   1.3193
B( 32-C , 33-C ) :   0.9165 B( 32-C , 38-C ) :   1.3847 B( 33-C , 34-C ) :   1.0153
B( 33-C , 36-C ) :   1.0293 B( 34-C , 35-C ) :   1.1147 B( 34-C , 79-H ) :   0.9359
B( 34-C , 80-H ) :   0.9388 B( 35-C , 81-H ) :   0.9633 B( 35-C , 82-H ) :   0.9593
B( 35-C , 83-H ) :   0.9608 B( 36-C , 37-C ) :   1.1046 B( 36-C , 84-H ) :   0.9398
B( 36-C , 85-H ) :   0.9383 B( 37-C , 86-H ) :   0.9633 B( 37-C , 87-H ) :   0.9646
B( 37-C , 88-H ) :   0.9651 B( 38-C , 39-C ) :   1.2744 B( 38-C , 89-H ) :   1.0062
B( 39-C , 40-C ) :   1.3324 B( 39-C , 42-C ) :   1.0778 B( 40-C , 41-C ) :   1.4113
B( 40-C , 90-H ) :   0.9845 B( 41-C , 91-H ) :   0.9887 B( 42-C , 43-C ) :   1.6381
B( 42-C , 92-H ) :   0.9899 B( 43-C , 44-C ) :   1.1568 B( 43-C , 93-H ) :   0.9612
B( 44-C , 45-C ) :   1.5545 B( 44-C , 94-H ) :   0.9858 B( 45-C , 46-C ) :   1.1468
B( 45-C , 49-S ) :   1.0326 B( 46-C , 47-C ) :   1.5814 B( 46-C , 95-H ) :   0.9983
B( 47-C , 48-C ) :   1.1980 B( 47-C , 96-H ) :   0.9930 B( 48-C , 49-S ) :   1.0360
B( 48-C , 50-C ) :   1.5031 B( 50-C , 51-C ) :   1.1891 B( 50-C , 54-S ) :   1.0434
B( 51-C , 52-C ) :   1.5893 B( 51-C , 97-H ) :   0.9931 B( 52-C , 53-C ) :   1.1409
B( 52-C , 98-H ) :   0.9992 B( 53-C , 54-S ) :   1.0169 B( 53-C , 55-C ) :   1.5806
B( 55-C , 56-C ) :   1.1320 B( 55-C , 99-H ) :   0.9688 B( 56-C , 57-C ) :   1.3970
B( 56-C , 67-C ) :   1.1692 B( 57-C , 58-C ) :   1.1418 B( 57-C ,100-H ) :   1.0186
B( 58-C , 59-C ) :   1.3818 B( 58-C , 66-C ) :   1.1435 B( 59-C , 60-C ) :   1.1759
B( 59-C ,101-H ) :   1.0050 B( 60-C , 61-C ) :   1.3568 B( 60-C , 64-C ) :   1.1399
B( 61-C , 62-C ) :   1.1935 B( 61-C ,102-H ) :   1.0126 B( 62-C , 63-C ) :   1.4644
B( 62-C , 68-C ) :   1.0744 B( 63-C , 64-C ) :   1.1291 B( 63-C ,103-H ) :   1.0107
B( 64-C , 65-C ) :   1.4113 B( 65-C , 66-C ) :   1.1554 B( 65-C ,104-H ) :   1.0037
B( 66-C , 67-C ) :   1.4052 B( 67-C ,105-H ) :   0.9902 B( 68-C , 69-C ) :   1.9466
B( 68-C ,106-H ) :   0.9655 B( 69-C ,107-H ) :   0.9522 B( 69-C ,108-H ) :   0.9494

-----------------------------------------------------------------------------
         ABSORPTION SPECTRUM VIA TRANSITION ELECTRIC DIPOLE MOMENTS
-----------------------------------------------------------------------------
State   Energy  Wavelength   fosc         T2         TX        TY        TZ
        (cm-1)    (nm)                  (au**2)     (au)      (au)      (au)
-----------------------------------------------------------------------------
   0    4737.7   2110.7   0.004441467   0.30863  -0.08949  -0.22320  -0.50080
   1   13484.7    741.6   1.297385873  31.67402  -0.04162   3.44154   4.45288
   2   13675.7    731.2   0.043399188   1.04474  -0.03437   0.66704   0.77370
   3   15840.6    631.3   0.293852473   6.10708  -0.97229   0.31197  -2.25042
   4   19366.3    516.4   0.026005190   0.44207   0.19054  -0.63279   0.07307
   5   22204.8    450.4   0.081007481   1.20103   0.24397  -0.96359  -0.46153
   6   22467.0    445.1   0.186185524   2.72821   0.92064  -0.99986   0.93856
   7   22637.0    441.8   1.046660380  15.22169  -1.83802   3.30353  -0.96440
   8   23971.8    417.2   0.029208186   0.40113   0.03224  -0.59329  -0.21931
   9   24113.2    414.7   0.031159880   0.42542   0.22920  -0.49312  -0.36016
  10   25646.7    389.9   1.310442360  16.82139   2.51163  -2.81012   1.61752
  11   26565.0    376.4   0.242832546   3.00935  -0.70557   1.34008  -0.84600
  12   26719.6    374.3   0.128253215   1.58021   0.84288  -0.55536  -0.74922
  13   26752.5    373.8   0.053546748   0.65894   0.22399   0.41709  -0.65939
  14   27951.5    357.8   0.194284421   2.28828   0.65182  -1.32051   0.34591
  15   28170.4    355.0   0.109412772   1.27865  -0.37982   1.05648  -0.13502
  16   28587.1    349.8   0.102903070   1.18504  -0.62404   0.83355  -0.31752
  17   29284.7    341.5   0.084514289   0.95009  -0.43386   0.06044   0.87075
  18   29681.6    336.9   0.036449117   0.40427  -0.40752   0.28007  -0.39970
  19   29823.8    335.3   0.198780720   2.19425   0.78940  -0.64326   1.07578
  20   30047.6    332.8   0.008256947   0.09047   0.29967  -0.02376   0.01009
  21   30742.8    325.3   0.014111066   0.15111   0.36706   0.07027   0.10694
  22   31102.7    321.5   0.011849199   0.12542  -0.09960  -0.23585   0.24469
  23   31879.3    313.7   0.007026287   0.07256   0.02869  -0.23298   0.13212
  24   32088.4    311.6   0.013505731   0.13856   0.20509  -0.05424   0.30587
  25   32634.4    306.4   0.016220980   0.16364  -0.31131  -0.23979   0.09603
  26   32719.1    305.6   0.024604392   0.24756   0.23699  -0.09681   0.42665
  27   32873.4    304.2   0.001391674   0.01394   0.03839   0.10711   0.03146
  28   33104.0    302.1   0.193365543   1.92298  -0.34373   1.31983  -0.25074
  29   33598.4    297.6   0.175780921   1.72238  -0.50513  -0.33361   1.16444
  30   33698.0    296.8   0.043886451   0.42875   0.02682  -0.38360   0.52998
  31   33787.0    296.0   0.499445075   4.86647   0.90519   0.41977  -1.96746
  32   34047.8    293.7   0.003548087   0.03431  -0.14800   0.09077  -0.06453
  33   34188.6    292.5   0.092603685   0.89171   0.03338  -0.39657   0.85635
  34   34694.4    288.2   0.053173854   0.50456   0.21491  -0.20567   0.64504
  35   34804.4    287.3   0.014921815   0.14114  -0.10977   0.29229  -0.20895
  36   35144.6    284.5   0.013268392   0.12429   0.05399  -0.24028   0.25227
  37   35190.5    284.2   0.007069622   0.06614  -0.01178   0.17093  -0.19179
  38   35715.4    280.0   0.052301557   0.48210  -0.37054   0.53702   0.23751
  39   36777.0    271.9   0.110992604   0.99356  -0.09158   0.84993  -0.51262
  40   36949.3    270.6   0.012004306   0.10696   0.14085  -0.01071   0.29496
  41   37114.8    269.4   0.036674718   0.32531   0.02704  -0.49629  -0.27977
  42   37182.6    268.9   0.058578545   0.51865   0.39966  -0.26906   0.53529
  43   37500.9    266.7   0.329126977   2.88933  -0.98748   1.31982  -0.41506
  44   37696.0    265.3   0.025890760   0.22611   0.19208  -0.39851   0.17437
  45   37813.0    264.5   0.006402682   0.05574   0.12824  -0.02889   0.19612
  46   38055.7    262.8   0.025490898   0.22052  -0.19906   0.40406   0.13276
  47   38162.5    262.0   0.029342308   0.25312  -0.40069   0.26453   0.15032
  48   38327.0    260.9   0.048107160   0.41322   0.43820  -0.38410  -0.27142
  49   38493.6    259.8   0.180631320   1.54483  -0.69462   1.03037   0.02568
  50   38983.1    256.5   0.227653507   1.92253  -0.66882   1.20697   0.13584
  51   39140.9    255.5   0.044585215   0.37500   0.37798  -0.47080   0.10240
  52   39497.2    253.2   0.074509019   0.62104   0.07383  -0.65537   0.43136
  53   39790.8    251.3   0.008722934   0.07217   0.07633   0.08743  -0.24228
  54   39893.9    250.7   0.005352420   0.04417   0.02364  -0.02253  -0.20761
  55   40051.9    249.7   0.006248767   0.05136  -0.07871   0.04192  -0.20835

FINAL SINGLE POINT ENERGY     -3887.516203367244

DIPOLE MOMENT
-------------
                                X             Y             Z
Electronic contribution:     30.37685     -66.64037       7.78831
Nuclear contribution   :    -32.57158      68.99653      -5.58506
                        -----------------------------------------
Total Dipole Moment    :     -2.19474       2.35616       2.20326
                        -----------------------------------------
Magnitude (a.u.)       :      3.90163
Magnitude (Debye)      :      9.91716

Rotational constants in cm-1:     0.000992     0.000234     0.000196
Rotational constants in MHz :    29.737280     7.006510     5.862658

                             ****ORCA TERMINATED NORMALLY****
TOTAL RUN TIME: 0 days 0 hours 13 minutes 54 seconds 421 msec
