                         Program Version 4.2.0 -  RELEASE  -
|  1> # ORCA input file
|  2> # SCF done       -183.452940821868          0.000343711789
|  3> ! CAM-B3LYP def2-SVP def2/J RIJCOSX Grid4 TightSCF
|  4> %maxcore 5000
|  5> %tddft
|  6>     Mode sTDDFT
|  7>     Ethresh 5.0
|  8>     maxcore 5000
|  9> end
| 10>
| 11> %pal
| 12>   nprocs 6
| 13>   end
| 14> * xyz 0 1
| 15>    C      -12.63359         6.82502       -14.88857
| 16>    C      -13.44195         7.16249       -13.82524
| 17>    C      -14.66156         7.85371       -13.94531
| 18>    N      -15.66011         8.42153       -13.97698
| 19>    C      -13.14628         6.87160       -12.48305
| 20>    N      -12.95190         6.66413       -11.36866
| 21>    C      -12.89776         7.12074       -16.29066
| 22>    C      -11.81742         6.63965       -17.07739
| 23>    C      -11.77675         6.77413       -18.44324
| 24>    C      -12.85204         7.41540       -19.06846
| 25>    C      -13.92457         7.89190       -18.27773
| 26>    C      -13.96714         7.75517       -16.89557
| 27>    S      -15.14609         8.65260       -19.25146
| 28>    C      -14.21116         8.32577       -20.68756
| 29>    C      -13.04480         7.67936       -20.45174
| 30>   Br      -14.86263         8.87016       -22.36042
| 31>    C      -10.82583         6.01997       -16.18813
| 32>    O       -9.76162         5.49867       -16.50113
| 33>    C      -11.36406         6.14474       -14.82989
| 34>    C      -10.69440         5.65376       -13.73637
| 35>    N       -9.49401         5.07348       -13.87382
| 36>    C       -8.70634         4.55044       -12.88688
| 37>    S       -7.66599         3.22735       -13.33525
| 38>    C       -7.17240         3.06945       -11.68299
| 39>    N       -6.23784         2.07965       -11.36524
| 40>    O       -5.90411         1.96847       -10.19829
| 41>    O       -5.82536         1.39575       -12.28881
| 42>    C       -7.77171         3.98059       -10.85358
| 43>    C       -8.63926         4.86313       -11.52667
| 44>    C       -9.25704         5.96831       -10.81754
| 45>    C       -9.53835         7.16969       -11.34850
| 46>    C      -10.11974         8.31555       -10.69848
| 47>    C      -10.84135         8.38320        -9.56973
| 48>    C      -11.20472         7.22309        -8.70206
| 49>    C      -11.38686         9.71477        -9.10670
| 50>    N      -10.90128        10.09393        -7.79780
| 51>    C       -9.64629        10.55407        -7.56916
| 52>    C       -8.71231        10.83894        -8.50417
| 53>    C       -7.44675        11.41609        -8.21853
| 54>    S       -6.97076        11.87742        -6.59515
| 55>    C       -6.45598        11.69559        -9.14566
| 56>    C       -5.31942        12.27345        -8.57832
| 57>    C       -4.02291        12.81757        -8.99351
| 58>    C       -3.54487        12.90765       -10.25162
| 59>    C       -2.26837        13.62061       -10.58967
| 60>    N       -1.19675        12.65221       -10.78800
| 61>    C       -4.28833        12.27096       -11.40036
| 62>    N       -3.52225        12.25606       -12.63850
| 63>    C       -5.45813        12.43880        -7.18938
| 64>    C       -4.29626        13.03096        -6.67993
| 65>    S       -3.67012        13.48103        -5.15180
| 66>    C       -3.39692        13.26616        -7.74412
| 67>    C       -2.18885        13.77369        -7.29129
| 68>    C       -2.15557        13.96937        -5.91133
| 69>    C       -1.07894        14.48598        -5.17812
| 70>    C       -1.06902        14.66134        -3.81838
| 71>    C       -0.02607        15.17462        -3.03874
| 72>    C        1.21086        15.65380        -3.41649
| 73>    C        2.18832        16.14270        -2.51575
| 74>    C        3.33988        16.57707        -3.09868
| 75>    C        3.34506        16.46073        -4.50690
| 76>    S        1.82955        15.77314        -5.05470
| 77>    C        4.34400        16.81105        -5.38830
| 78>    C        5.61361        17.36742        -5.08017
| 79>    C        6.39311        17.61319        -6.15859
| 80>    C        5.79367        17.26716        -7.41378
| 81>    S        4.17617        16.60883        -7.12151
| 82>    C        6.31890        17.39711        -8.64080
| 83>    H      -10.94205         6.39799       -19.01382
| 84>    H      -14.80724         8.13394       -16.33780
| 85>    H      -12.34805         7.39962       -21.22075
| 86>    H      -11.10415         5.71421       -12.73913
| 87>    H       -9.19600         4.95701       -14.85450
| 88>    H       -7.56353         4.02364        -9.79967
| 89>    H       -9.37733         5.79504        -9.76133
| 90>    H       -9.28480         7.34130       -12.38853
| 91>    H       -9.98857         9.23611       -11.25627
| 92>    H      -11.47433         6.36887        -9.31861
| 93>    H      -12.05584         7.47224        -8.07205
| 94>    H      -10.37380         6.94158        -8.05455
| 95>    H      -12.47817         9.65378        -9.05018
| 96>    H      -11.12742        10.50780        -9.81231
| 97>    H      -11.39860         9.71732        -7.00787
| 98>    H       -9.42395        10.74429        -6.52703
| 99>    H       -8.89583        10.62843        -9.54587
|100>    H       -6.59817        11.46658       -10.18490
|101>    H       -1.98401        14.29267        -9.78027
|102>    H       -2.45371        14.24456       -11.48235
|103>    H       -1.48561        11.99312       -11.50540
|104>    H       -0.36060        13.12406       -11.11676
|105>    H       -5.26242        12.78190       -11.50818
|106>    H       -4.49167        11.22965       -11.13283
|107>    H       -3.49794        13.17780       -13.06160
|108>    H       -3.95374        11.62696       -13.30544
|109>    H       -1.32216        13.97983        -7.89089
|110>    H       -0.21017        14.74820        -5.76408
|111>    H       -1.96159        14.36869        -3.27821
|112>    H       -0.20806        15.20825        -1.97103
|113>    H        2.00703        16.15718        -1.45494
|114>    H        4.17820        16.97679        -2.55711
|115>    H        5.90549        17.56585        -4.06403
|116>    H        7.38330        18.03131        -6.12028
|117>    H        7.30600        17.80266        -8.77491
|118>    H        5.77783        17.10349        -9.52131
|119> *
|120>
|121>                          ****END OF INPUT****

CARTESIAN COORDINATES (ANGSTROEM)
---------------------------------
  C    -12.633590    6.825020  -14.888570
  C    -13.441950    7.162490  -13.825240
  C    -14.661560    7.853710  -13.945310
  N    -15.660110    8.421530  -13.976980
  C    -13.146280    6.871600  -12.483050
  N    -12.951900    6.664130  -11.368660
  C    -12.897760    7.120740  -16.290660
  C    -11.817420    6.639650  -17.077390
  C    -11.776750    6.774130  -18.443240
  C    -12.852040    7.415400  -19.068460
  C    -13.924570    7.891900  -18.277730
  C    -13.967140    7.755170  -16.895570
  S    -15.146090    8.652600  -19.251460
  C    -14.211160    8.325770  -20.687560
  C    -13.044800    7.679360  -20.451740
  Br   -14.862630    8.870160  -22.360420
  C    -10.825830    6.019970  -16.188130
  O     -9.761620    5.498670  -16.501130
  C    -11.364060    6.144740  -14.829890
  C    -10.694400    5.653760  -13.736370
  N     -9.494010    5.073480  -13.873820
  C     -8.706340    4.550440  -12.886880
  S     -7.665990    3.227350  -13.335250
  C     -7.172400    3.069450  -11.682990
  N     -6.237840    2.079650  -11.365240
  O     -5.904110    1.968470  -10.198290
  O     -5.825360    1.395750  -12.288810
  C     -7.771710    3.980590  -10.853580
  C     -8.639260    4.863130  -11.526670
  C     -9.257040    5.968310  -10.817540
  C     -9.538350    7.169690  -11.348500
  C    -10.119740    8.315550  -10.698480
  C    -10.841350    8.383200   -9.569730
  C    -11.204720    7.223090   -8.702060
  C    -11.386860    9.714770   -9.106700
  N    -10.901280   10.093930   -7.797800
  C     -9.646290   10.554070   -7.569160
  C     -8.712310   10.838940   -8.504170
  C     -7.446750   11.416090   -8.218530
  S     -6.970760   11.877420   -6.595150
  C     -6.455980   11.695590   -9.145660
  C     -5.319420   12.273450   -8.578320
  C     -4.022910   12.817570   -8.993510
  C     -3.544870   12.907650  -10.251620
  C     -2.268370   13.620610  -10.589670
  N     -1.196750   12.652210  -10.788000
  C     -4.288330   12.270960  -11.400360
  N     -3.522250   12.256060  -12.638500
  C     -5.458130   12.438800   -7.189380
  C     -4.296260   13.030960   -6.679930
  S     -3.670120   13.481030   -5.151800
  C     -3.396920   13.266160   -7.744120
  C     -2.188850   13.773690   -7.291290
  C     -2.155570   13.969370   -5.911330
  C     -1.078940   14.485980   -5.178120
  C     -1.069020   14.661340   -3.818380
  C     -0.026070   15.174620   -3.038740
  C      1.210860   15.653800   -3.416490
  C      2.188320   16.142700   -2.515750
  C      3.339880   16.577070   -3.098680
  C      3.345060   16.460730   -4.506900
  S      1.829550   15.773140   -5.054700
  C      4.344000   16.811050   -5.388300
  C      5.613610   17.367420   -5.080170
  C      6.393110   17.613190   -6.158590
  C      5.793670   17.267160   -7.413780
  S      4.176170   16.608830   -7.121510
  C      6.318900   17.397110   -8.640800
  H    -10.942050    6.397990  -19.013820
  H    -14.807240    8.133940  -16.337800
  H    -12.348050    7.399620  -21.220750
  H    -11.104150    5.714210  -12.739130
  H     -9.196000    4.957010  -14.854500
  H     -7.563530    4.023640   -9.799670
  H     -9.377330    5.795040   -9.761330
  H     -9.284800    7.341300  -12.388530
  H     -9.988570    9.236110  -11.256270
  H    -11.474330    6.368870   -9.318610
  H    -12.055840    7.472240   -8.072050
  H    -10.373800    6.941580   -8.054550
  H    -12.478170    9.653780   -9.050180
  H    -11.127420   10.507800   -9.812310
  H    -11.398600    9.717320   -7.007870
  H     -9.423950   10.744290   -6.527030
  H     -8.895830   10.628430   -9.545870
  H     -6.598170   11.466580  -10.184900
  H     -1.984010   14.292670   -9.780270
  H     -2.453710   14.244560  -11.482350
  H     -1.485610   11.993120  -11.505400
  H     -0.360600   13.124060  -11.116760
  H     -5.262420   12.781900  -11.508180
  H     -4.491670   11.229650  -11.132830
  H     -3.497940   13.177800  -13.061600
  H     -3.953740   11.626960  -13.305440
  H     -1.322160   13.979830   -7.890890
  H     -0.210170   14.748200   -5.764080
  H     -1.961590   14.368690   -3.278210
  H     -0.208060   15.208250   -1.971030
  H      2.007030   16.157180   -1.454940
  H      4.178200   16.976790   -2.557110
  H      5.905490   17.565850   -4.064030
  H      7.383300   18.031310   -6.120280
  H      7.306000   17.802660   -8.774910
  H      5.777830   17.103490   -9.521310

 Total Charge           Charge          ....    0
 Multiplicity           Mult            ....    1
 Number of Electrons    NEL             ....  546
 Basis Dimension        Dim             .... 1174

ORBITAL ENERGIES
----------------

  NO   OCC          E(Eh)            E(eV)
   0   2.0000    -482.893734    -13140.2065
   1   2.0000     -88.993341     -2421.6319
   2   2.0000     -88.985354     -2421.4146
   3   2.0000     -88.940973     -2420.2069
   4   2.0000     -88.938425     -2420.1376
   5   2.0000     -88.926968     -2419.8258
   6   2.0000     -88.921147     -2419.6674
   7   2.0000     -62.571411     -1702.6547
   8   2.0000     -56.405376     -1534.8683
   9   2.0000     -56.402636     -1534.7937
  10   2.0000     -56.402608     -1534.7930
  11   2.0000     -19.242917      -523.6264
  12   2.0000     -19.242484      -523.6146
  13   2.0000     -19.238683      -523.5112
  14   2.0000     -14.654235      -398.7620
  15   2.0000     -14.499755      -394.5584
  16   2.0000     -14.430973      -392.6867
  17   2.0000     -14.429765      -392.6539
  18   2.0000     -14.423407      -392.4809
  19   2.0000     -14.395602      -391.7242
  20   2.0000     -14.361771      -390.8037
  21   2.0000     -10.385958      -282.6163
  22   2.0000     -10.375595      -282.3343
  23   2.0000     -10.374308      -282.2993
  24   2.0000     -10.368415      -282.1389
  25   2.0000     -10.355874      -281.7976
  26   2.0000     -10.351751      -281.6855
  27   2.0000     -10.349894      -281.6349
  28   2.0000     -10.336072      -281.2588
  29   2.0000     -10.333704      -281.1944
  30   2.0000     -10.326839      -281.0076
  31   2.0000     -10.319807      -280.8162
  32   2.0000     -10.318296      -280.7751
  33   2.0000     -10.317206      -280.7454
  34   2.0000     -10.314662      -280.6762
  35   2.0000     -10.313753      -280.6515
  36   2.0000     -10.312242      -280.6104
  37   2.0000     -10.308632      -280.5121
  38   2.0000     -10.306082      -280.4427
  39   2.0000     -10.305817      -280.4355
  40   2.0000     -10.304965      -280.4124
  41   2.0000     -10.304293      -280.3941
  42   2.0000     -10.295852      -280.1644
  43   2.0000     -10.291145      -280.0363
  44   2.0000     -10.290826      -280.0276
  45   2.0000     -10.290415      -280.0164
  46   2.0000     -10.289794      -279.9995
  47   2.0000     -10.289589      -279.9939
  48   2.0000     -10.286135      -279.9000
  49   2.0000     -10.284864      -279.8654
  50   2.0000     -10.283062      -279.8164
  51   2.0000     -10.281370      -279.7703
  52   2.0000     -10.279811      -279.7279
  53   2.0000     -10.276893      -279.6485
  54   2.0000     -10.275945      -279.6227
  55   2.0000     -10.275586      -279.6129
  56   2.0000     -10.273489      -279.5558
  57   2.0000     -10.271172      -279.4928
  58   2.0000     -10.266747      -279.3724
  59   2.0000     -10.266425      -279.3636
  60   2.0000     -10.265317      -279.3335
  61   2.0000     -10.265163      -279.3293
  62   2.0000     -10.264909      -279.3224
  63   2.0000     -10.261206      -279.2216
  64   2.0000     -10.260830      -279.2114
  65   2.0000     -10.257575      -279.1228
  66   2.0000     -10.256402      -279.0909
  67   2.0000     -10.253989      -279.0252
  68   2.0000     -10.252410      -278.9822
  69   2.0000     -10.252342      -278.9804
  70   2.0000     -10.250996      -278.9438
  71   2.0000     -10.249587      -278.9055
  72   2.0000      -8.800825      -239.4826
  73   2.0000      -8.089007      -220.1131
  74   2.0000      -8.081360      -219.9050
  75   2.0000      -8.035860      -218.6669
  76   2.0000      -8.033258      -218.5961
  77   2.0000      -8.022696      -218.3087
  78   2.0000      -8.017900      -218.1781
  79   2.0000      -6.637152      -180.6061
  80   2.0000      -6.622550      -180.2087
  81   2.0000      -6.622329      -180.2027
  82   2.0000      -6.058600      -164.8629
  83   2.0000      -6.054172      -164.7424
  84   2.0000      -6.051046      -164.6573
  85   2.0000      -6.050584      -164.6448
  86   2.0000      -6.046748      -164.5404
  87   2.0000      -6.042588      -164.4272
  88   2.0000      -6.005241      -163.4109
  89   2.0000      -6.002566      -163.3381
  90   2.0000      -6.001291      -163.3034
  91   2.0000      -5.998645      -163.2314
  92   2.0000      -5.997839      -163.2095
  93   2.0000      -5.995328      -163.1412
  94   2.0000      -5.992454      -163.0630
  95   2.0000      -5.988415      -162.9531
  96   2.0000      -5.987756      -162.9351
  97   2.0000      -5.983802      -162.8275
  98   2.0000      -5.983677      -162.8241
  99   2.0000      -5.978414      -162.6809
 100   2.0000      -2.753046       -74.9142
 101   2.0000      -2.748895       -74.8012
 102   2.0000      -2.748752       -74.7974
 103   2.0000      -2.737135       -74.4812
 104   2.0000      -2.737122       -74.4809
 105   2.0000      -1.322387       -35.9840
 106   2.0000      -1.153018       -31.3752
 107   2.0000      -1.141493       -31.0616
 108   2.0000      -1.104927       -30.0666
 109   2.0000      -1.034182       -28.1415
 110   2.0000      -1.029322       -28.0093
 111   2.0000      -1.024551       -27.8794
 112   2.0000      -1.014727       -27.6121
 113   2.0000      -1.005781       -27.3687
 114   2.0000      -1.000123       -27.2147
 115   2.0000      -0.990508       -26.9531
 116   2.0000      -0.978857       -26.6361
 117   2.0000      -0.973875       -26.5005
 118   2.0000      -0.952156       -25.9095
 119   2.0000      -0.951930       -25.9033
 120   2.0000      -0.949993       -25.8506
 121   2.0000      -0.941701       -25.6250
 122   2.0000      -0.929841       -25.3023
 123   2.0000      -0.919578       -25.0230
 124   2.0000      -0.914730       -24.8911
 125   2.0000      -0.904930       -24.6244
 126   2.0000      -0.900077       -24.4923
 127   2.0000      -0.896880       -24.4053
 128   2.0000      -0.885741       -24.1022
 129   2.0000      -0.880970       -23.9724
 130   2.0000      -0.862966       -23.4825
 131   2.0000      -0.857828       -23.3427
 132   2.0000      -0.852596       -23.2003
 133   2.0000      -0.847065       -23.0498
 134   2.0000      -0.840132       -22.8612
 135   2.0000      -0.832980       -22.6665
 136   2.0000      -0.826779       -22.4978
 137   2.0000      -0.817166       -22.2362
 138   2.0000      -0.809769       -22.0349
 139   2.0000      -0.808066       -21.9886
 140   2.0000      -0.801467       -21.8090
 141   2.0000      -0.798250       -21.7215
 142   2.0000      -0.789947       -21.4956
 143   2.0000      -0.784801       -21.3555
 144   2.0000      -0.772988       -21.0341
 145   2.0000      -0.771135       -20.9837
 146   2.0000      -0.762795       -20.7567
 147   2.0000      -0.742804       -20.2127
 148   2.0000      -0.734264       -19.9803
 149   2.0000      -0.729487       -19.8504
 150   2.0000      -0.729170       -19.8417
 151   2.0000      -0.721236       -19.6258
 152   2.0000      -0.710032       -19.3210
 153   2.0000      -0.701872       -19.0989
 154   2.0000      -0.699142       -19.0246
 155   2.0000      -0.680957       -18.5298
 156   2.0000      -0.676513       -18.4089
 157   2.0000      -0.670994       -18.2587
 158   2.0000      -0.659924       -17.9574
 159   2.0000      -0.654135       -17.7999
 160   2.0000      -0.649366       -17.6702
 161   2.0000      -0.646028       -17.5793
 162   2.0000      -0.641420       -17.4539
 163   2.0000      -0.635600       -17.2955
 164   2.0000      -0.634798       -17.2737
 165   2.0000      -0.631933       -17.1958
 166   2.0000      -0.627712       -17.0809
 167   2.0000      -0.618759       -16.8373
 168   2.0000      -0.613957       -16.7066
 169   2.0000      -0.611047       -16.6274
 170   2.0000      -0.609416       -16.5830
 171   2.0000      -0.603306       -16.4168
 172   2.0000      -0.601813       -16.3762
 173   2.0000      -0.597748       -16.2655
 174   2.0000      -0.595518       -16.2049
 175   2.0000      -0.589808       -16.0495
 176   2.0000      -0.585913       -15.9435
 177   2.0000      -0.584634       -15.9087
 178   2.0000      -0.581892       -15.8341
 179   2.0000      -0.579682       -15.7739
 180   2.0000      -0.570050       -15.5118
 181   2.0000      -0.567087       -15.4312
 182   2.0000      -0.563315       -15.3286
 183   2.0000      -0.562295       -15.3008
 184   2.0000      -0.561234       -15.2719
 185   2.0000      -0.556232       -15.1359
 186   2.0000      -0.551066       -14.9953
 187   2.0000      -0.548608       -14.9284
 188   2.0000      -0.546261       -14.8645
 189   2.0000      -0.539156       -14.6712
 190   2.0000      -0.536068       -14.5871
 191   2.0000      -0.529311       -14.4033
 192   2.0000      -0.528485       -14.3808
 193   2.0000      -0.527122       -14.3437
 194   2.0000      -0.520869       -14.1736
 195   2.0000      -0.519145       -14.1267
 196   2.0000      -0.516781       -14.0623
 197   2.0000      -0.513248       -13.9662
 198   2.0000      -0.511315       -13.9136
 199   2.0000      -0.508695       -13.8423
 200   2.0000      -0.507808       -13.8182
 201   2.0000      -0.506424       -13.7805
 202   2.0000      -0.502118       -13.6633
 203   2.0000      -0.500836       -13.6284
 204   2.0000      -0.498330       -13.5603
 205   2.0000      -0.494724       -13.4621
 206   2.0000      -0.491469       -13.3736
 207   2.0000      -0.488979       -13.3058
 208   2.0000      -0.486707       -13.2440
 209   2.0000      -0.483970       -13.1695
 210   2.0000      -0.478473       -13.0199
 211   2.0000      -0.476710       -12.9719
 212   2.0000      -0.474437       -12.9101
 213   2.0000      -0.472762       -12.8645
 214   2.0000      -0.469979       -12.7888
 215   2.0000      -0.469399       -12.7730
 216   2.0000      -0.467078       -12.7098
 217   2.0000      -0.463232       -12.6052
 218   2.0000      -0.461545       -12.5593
 219   2.0000      -0.459229       -12.4963
 220   2.0000      -0.457421       -12.4471
 221   2.0000      -0.455442       -12.3932
 222   2.0000      -0.452324       -12.3084
 223   2.0000      -0.450895       -12.2695
 224   2.0000      -0.450278       -12.2527
 225   2.0000      -0.449184       -12.2229
 226   2.0000      -0.445575       -12.1247
 227   2.0000      -0.443700       -12.0737
 228   2.0000      -0.441170       -12.0049
 229   2.0000      -0.439393       -11.9565
 230   2.0000      -0.438778       -11.9398
 231   2.0000      -0.436949       -11.8900
 232   2.0000      -0.433046       -11.7838
 233   2.0000      -0.429395       -11.6844
 234   2.0000      -0.427397       -11.6301
 235   2.0000      -0.425415       -11.5761
 236   2.0000      -0.421226       -11.4621
 237   2.0000      -0.420895       -11.4531
 238   2.0000      -0.410198       -11.1620
 239   2.0000      -0.409096       -11.1321
 240   2.0000      -0.405161       -11.0250
 241   2.0000      -0.403522       -10.9804
 242   2.0000      -0.401264       -10.9189
 243   2.0000      -0.398334       -10.8392
 244   2.0000      -0.393928       -10.7193
 245   2.0000      -0.390465       -10.6251
 246   2.0000      -0.388829       -10.5806
 247   2.0000      -0.386881       -10.5276
 248   2.0000      -0.382921       -10.4198
 249   2.0000      -0.382034       -10.3957
 250   2.0000      -0.379597       -10.3294
 251   2.0000      -0.374505       -10.1908
 252   2.0000      -0.372311       -10.1311
 253   2.0000      -0.370484       -10.0814
 254   2.0000      -0.362468        -9.8632
 255   2.0000      -0.357568        -9.7299
 256   2.0000      -0.352842        -9.6013
 257   2.0000      -0.344412        -9.3719
 258   2.0000      -0.334323        -9.0974
 259   2.0000      -0.327857        -8.9214
 260   2.0000      -0.320663        -8.7257
 261   2.0000      -0.320151        -8.7118
 262   2.0000      -0.308859        -8.4045
 263   2.0000      -0.307527        -8.3682
 264   2.0000      -0.306126        -8.3301
 265   2.0000      -0.302994        -8.2449
 266   2.0000      -0.296868        -8.0782
 267   2.0000      -0.286900        -7.8069
 268   2.0000      -0.274262        -7.4631
 269   2.0000      -0.269782        -7.3411
 270   2.0000      -0.260596        -7.0912
 271   2.0000      -0.220092        -5.9890
 272   2.0000      -0.182600        -4.9688
 273   0.0000      -0.095882        -2.6091
 274   0.0000      -0.075685        -2.0595
 275   0.0000      -0.058315        -1.5868
 276   0.0000      -0.050101        -1.3633
 277   0.0000      -0.025751        -0.7007

MULLIKEN ATOMIC CHARGES
-----------------------
   0 C :    0.336661
   1 C :   -0.352755
   2 C :   -0.189061
   3 N :    0.151853
   4 C :   -0.189507
   5 N :    0.146846
   6 C :    0.002167
   7 C :   -0.008273
   8 C :   -0.067223
   9 C :    0.113618
  10 C :   -0.091707
  11 C :   -0.017347
  12 S :    0.192642
  13 C :   -0.123672
  14 C :    0.040015
  15 Br:    0.030510
  16 C :    0.171118
  17 O :   -0.210960
  18 C :   -0.141398
  19 C :    0.019275
  20 N :   -0.001734
  21 C :   -0.137154
  22 S :    0.197536
  23 C :   -0.003474
  24 N :    0.279576
  25 O :   -0.243678
  26 O :   -0.261234
  27 C :   -0.004570
  28 C :    0.116108
  29 C :   -0.028852
  30 C :   -0.007808
  31 C :    0.003964
  32 C :   -0.154500
  33 C :    0.092721
  34 C :    0.186028
  35 N :   -0.160895
  36 C :    0.046706
  37 C :   -0.041479
  38 C :   -0.013080
  39 S :    0.108738
  40 C :   -0.111535
  41 C :    0.069728
  42 C :    0.185636
  43 C :   -0.302250
  44 C :    0.212877
  45 N :   -0.224957
  46 C :    0.102034
  47 N :   -0.201892
  48 C :   -0.123698
  49 C :   -0.115068
  50 S :    0.123285
  51 C :    0.071768
  52 C :   -0.068784
  53 C :   -0.050546
  54 C :    0.008922
  55 C :   -0.016392
  56 C :    0.002508
  57 C :   -0.029532
  58 C :    0.034718
  59 C :    0.014582
  60 C :   -0.026465
  61 S :    0.044988
  62 C :   -0.070187
  63 C :    0.026964
  64 C :    0.049257
  65 C :   -0.064014
  66 S :    0.067675
  67 C :   -0.035056
  68 H :   -0.007949
  69 H :   -0.003483
  70 H :   -0.001262
  71 H :    0.063503
  72 H :    0.166142
  73 H :    0.016589
  74 H :   -0.010799
  75 H :    0.001209
  76 H :   -0.022564
  77 H :    0.043720
  78 H :   -0.004551
  79 H :    0.037841
  80 H :    0.027669
  81 H :    0.007968
  82 H :    0.122195
  83 H :    0.005269
  84 H :   -0.045093
  85 H :   -0.043494
  86 H :   -0.006233
  87 H :   -0.036773
  88 H :    0.088112
  89 H :    0.086403
  90 H :    0.025815
  91 H :    0.036185
  92 H :    0.100046
  93 H :    0.099984
  94 H :   -0.010498
  95 H :   -0.003374
  96 H :   -0.020083
  97 H :   -0.021725
  98 H :   -0.018779
  99 H :   -0.022632
 100 H :   -0.016538
 101 H :   -0.019334
 102 H :    0.012200
 103 H :    0.014029
Sum of atomic charges:   -0.0000000

LOEWDIN ATOMIC CHARGES
----------------------
   0 C :    0.083271
   1 C :   -0.155032
   2 C :   -0.021201
   3 N :   -0.056102
   4 C :   -0.010557
   5 N :   -0.053750
   6 C :   -0.020810
   7 C :   -0.051029
   8 C :    0.024488
   9 C :   -0.032562
  10 C :   -0.143983
  11 C :   -0.006204
  12 S :    0.437526
  13 C :   -0.269553
  14 C :   -0.069849
  15 Br:    0.141519
  16 C :    0.093763
  17 O :   -0.172503
  18 C :   -0.151469
  19 C :    0.126270
  20 N :    0.066063
  21 C :   -0.120472
  22 S :    0.472825
  23 C :   -0.203514
  24 N :    0.275180
  25 O :   -0.210591
  26 O :   -0.226760
  27 C :    0.002703
  28 C :   -0.080641
  29 C :   -0.037832
  30 C :   -0.018087
  31 C :   -0.063705
  32 C :   -0.002041
  33 C :   -0.054041
  34 C :    0.042926
  35 N :   -0.010413
  36 C :    0.023912
  37 C :   -0.139167
  38 C :   -0.144730
  39 S :    0.410674
  40 C :   -0.085646
  41 C :   -0.046589
  42 C :   -0.027840
  43 C :    0.011851
  44 C :    0.025110
  45 N :   -0.121724
  46 C :    0.016517
  47 N :   -0.103643
  48 C :   -0.207998
  49 C :   -0.183755
  50 S :    0.421452
  51 C :   -0.057721
  52 C :   -0.035749
  53 C :   -0.174242
  54 C :   -0.032622
  55 C :   -0.068836
  56 C :   -0.053633
  57 C :   -0.159249
  58 C :   -0.029233
  59 C :   -0.052788
  60 C :   -0.176041
  61 S :    0.377308
  62 C :   -0.187854
  63 C :   -0.025859
  64 C :   -0.042123
  65 C :   -0.137868
  66 S :    0.342271
  67 C :   -0.092188
  68 H :    0.042307
  69 H :    0.042258
  70 H :    0.039829
  71 H :    0.045800
  72 H :    0.083601
  73 H :    0.048137
  74 H :    0.032794
  75 H :    0.026556
  76 H :    0.022950
  77 H :    0.036948
  78 H :    0.024490
  79 H :    0.035522
  80 H :    0.034618
  81 H :    0.025890
  82 H :    0.075304
  83 H :    0.020174
  84 H :    0.023244
  85 H :    0.019185
  86 H :    0.020987
  87 H :   -0.000727
  88 H :    0.042260
  89 H :    0.052189
  90 H :    0.019190
  91 H :    0.036424
  92 H :    0.055023
  93 H :    0.059867
  94 H :    0.031864
  95 H :    0.017653
  96 H :    0.019658
  97 H :    0.032744
  98 H :    0.030811
  99 H :    0.027732
 100 H :    0.030659
 101 H :    0.030229
 102 H :    0.025265
 103 H :    0.022733

  Mayer bond orders larger than 0.100000
B(  0-C ,  1-C ) :   1.6119 B(  0-C ,  6-C ) :   1.0048 B(  0-C , 18-C ) :   1.1082
B(  1-C ,  2-C ) :   1.1458 B(  1-C ,  4-C ) :   1.1556 B(  2-C ,  3-N ) :   2.9677
B(  4-C ,  5-N ) :   2.9347 B(  6-C ,  7-C ) :   1.2697 B(  6-C , 11-C ) :   1.4225
B(  7-C ,  8-C ) :   1.4266 B(  7-C , 16-C ) :   0.9757 B(  8-C ,  9-C ) :   1.2424
B(  8-C , 68-H ) :   1.0172 B(  9-C , 10-C ) :   1.3088 B(  9-C , 14-C ) :   1.1642
B( 10-C , 11-C ) :   1.3225 B( 10-C , 12-S ) :   1.0899 B( 11-C , 69-H ) :   0.9788
B( 12-S , 13-C ) :   1.0883 B( 13-C , 14-C ) :   1.6169 B( 13-C , 15-Br) :   1.0231
B( 14-C , 70-H ) :   1.0000 B( 16-C , 17-O ) :   2.0659 B( 16-C , 18-C ) :   0.9902
B( 17-O , 72-H ) :   0.1373 B( 18-C , 19-C ) :   1.4515 B( 19-C , 20-N ) :   1.3536
B( 19-C , 71-H ) :   0.9295 B( 20-N , 21-C ) :   1.1205 B( 20-N , 72-H ) :   0.8345
B( 21-C , 22-S ) :   1.1461 B( 21-C , 28-C ) :   1.4177 B( 22-S , 23-C ) :   1.0995
B( 23-C , 24-N ) :   0.9653 B( 23-C , 27-C ) :   1.4815 B( 24-N , 25-O ) :   1.5381
B( 24-N , 26-O ) :   1.5108 B( 25-O , 26-O ) :   0.2649 B( 27-C , 28-C ) :   1.2243
B( 27-C , 73-H ) :   1.0065 B( 28-C , 29-C ) :   1.0493 B( 29-C , 30-C ) :   1.7472
B( 29-C , 74-H ) :   0.9625 B( 30-C , 31-C ) :   1.1342 B( 30-C , 75-H ) :   0.9526
B( 31-C , 32-C ) :   1.8238 B( 31-C , 76-H ) :   0.9417 B( 32-C , 33-C ) :   1.0709
B( 32-C , 34-C ) :   1.0405 B( 33-C , 77-H ) :   0.9285 B( 33-C , 78-H ) :   0.9432
B( 33-C , 79-H ) :   0.9380 B( 34-C , 35-N ) :   1.0327 B( 34-C , 80-H ) :   0.9327
B( 34-C , 81-H ) :   0.9309 B( 35-N , 36-C ) :   1.2034 B( 35-N , 82-H ) :   0.9387
B( 36-C , 37-C ) :   1.6485 B( 36-C , 83-H ) :   0.9613 B( 37-C , 38-C ) :   1.1674
B( 37-C , 84-H ) :   0.9587 B( 38-C , 39-S ) :   1.0947 B( 38-C , 40-C ) :   1.4593
B( 39-S , 48-C ) :   1.0571 B( 40-C , 41-C ) :   1.2335 B( 40-C , 85-H ) :   1.0039
B( 41-C , 42-C ) :   1.0188 B( 41-C , 48-C ) :   1.4589 B( 42-C , 43-C ) :   1.8006
B( 42-C , 51-C ) :   1.0003 B( 43-C , 44-C ) :   1.0553 B( 43-C , 46-C ) :   1.0160
B( 44-C , 45-N ) :   1.0888 B( 44-C , 86-H ) :   0.9168 B( 44-C , 87-H ) :   0.9057
B( 45-N , 88-H ) :   0.9556 B( 45-N , 89-H ) :   0.9660 B( 46-C , 47-N ) :   1.1037
B( 46-C , 90-H ) :   0.9258 B( 46-C , 91-H ) :   0.9290 B( 47-N , 92-H ) :   0.9655
B( 47-N , 93-H ) :   0.9663 B( 48-C , 49-C ) :   1.2585 B( 49-C , 50-S ) :   1.0894
B( 49-C , 51-C ) :   1.4248 B( 50-S , 53-C ) :   1.0636 B( 51-C , 52-C ) :   1.2836
B( 52-C , 53-C ) :   1.4060 B( 52-C , 94-H ) :   0.9980 B( 53-C , 54-C ) :   1.2498
B( 54-C , 55-C ) :   1.5443 B( 54-C , 95-H ) :   0.9514 B( 55-C , 56-C ) :   1.2399
B( 55-C , 96-H ) :   0.9625 B( 56-C , 57-C ) :   1.5503 B( 56-C , 97-H ) :   0.9607
B( 57-C , 58-C ) :   1.1599 B( 57-C , 61-S ) :   1.0301 B( 58-C , 59-C ) :   1.5848
B( 58-C , 98-H ) :   0.9986 B( 59-C , 60-C ) :   1.1818 B( 59-C , 99-H ) :   0.9920
B( 60-C , 61-S ) :   1.0375 B( 60-C , 62-C ) :   1.5383 B( 62-C , 63-C ) :   1.1640
B( 62-C , 66-S ) :   1.0360 B( 63-C , 64-C ) :   1.6489 B( 63-C ,100-H ) :   0.9923
B( 64-C , 65-C ) :   1.0849 B( 64-C ,101-H ) :   0.9923 B( 65-C , 66-S ) :   1.0111
B( 65-C , 67-C ) :   1.8583 B( 67-C ,102-H ) :   0.9494 B( 67-C ,103-H ) :   0.9410

-----------------------------------------------------------------------------
         ABSORPTION SPECTRUM VIA TRANSITION ELECTRIC DIPOLE MOMENTS
-----------------------------------------------------------------------------
State   Energy  Wavelength   fosc         T2         TX        TY        TZ
        (cm-1)    (nm)                  (au**2)     (au)      (au)      (au)
-----------------------------------------------------------------------------
   0   10890.7    918.2   0.003576704   0.10812  -0.25023  -0.16435  -0.13598
   1   13812.0    724.0   1.525206687  36.35365   5.44103   2.47968   0.77461
   2   15612.6    640.5   0.000538235   0.01135   0.09582   0.00750  -0.04595
   3   18666.8    535.7   0.002182633   0.03849  -0.07813  -0.01956  -0.17890
   4   19654.4    508.8   0.040463485   0.67777  -0.56588  -0.16398   0.57503
   5   20619.9    485.0   0.001496642   0.02389   0.08661   0.06470   0.11049
   6   20656.6    484.1   0.264491930   4.21531  -1.47430   0.64872  -1.27316
   7   21976.7    455.0   0.154037434   2.30749   0.29196  -0.15662  -1.48247
   8   23304.1    429.1   0.001201778   0.01698   0.07232   0.09200   0.05730
   9   24352.3    410.6   0.003241354   0.04382   0.08557   0.18405   0.05120
  10   25367.0    394.2   0.124180526   1.61161  -0.42806   0.16428  -1.18380
  11   27321.1    366.0   0.121717695   1.46666  -0.46873  -0.48042  -1.00804
  12   27540.1    363.1   0.008971180   0.10724   0.20946  -0.02583   0.25040
  13   28018.0    356.9   0.500870432   5.88523   1.86279  -1.29601   0.85768
  14   28565.3    350.1   0.012197907   0.14058   0.04533   0.04879  -0.36898
  15   28861.4    346.5   0.374081023   4.26702  -0.52300   0.55076  -1.92098
  16   28890.1    346.1   0.060100737   0.68487  -0.13172   0.15190  -0.80277
  17   28927.5    345.7   0.394673941   4.49162   0.14249   0.01376  -2.11450
  18   30381.9    329.1   0.041665417   0.45148   0.59568   0.28885   0.11493
  19   30516.8    327.7   0.026939882   0.29062   0.13160   0.05696   0.51967
  20   30923.9    323.4   0.008146561   0.08673  -0.01081  -0.27519  -0.10431
  21   30974.0    322.9   0.075515919   0.80263  -0.35773   0.62597   0.53181
  22   32122.4    311.3   0.279459983   2.86409  -0.30265  -0.28177  -1.64107
  23   32198.4    310.6   0.017479603   0.17872   0.16925  -0.38304  -0.05791
  24   32357.6    309.0   0.384788131   3.91490  -0.96084   1.06639  -1.36180
  25   32833.4    304.6   0.002777058   0.02784   0.03229   0.13523   0.09227
  26   33097.3    302.1   0.000182594   0.00182  -0.03035  -0.02863  -0.00866
  27   33324.4    300.1   0.007562985   0.07471   0.21893   0.11064   0.12059
  28   33488.6    298.6   0.024263345   0.23852  -0.38589  -0.29930   0.00563
  29   33575.5    297.8   0.002306213   0.02261  -0.07532  -0.11611  -0.05880
  30   33597.3    297.6   0.031398506   0.30767  -0.32428  -0.33873  -0.29625
  31   33782.2    296.0   0.213829127   2.08379  -0.42240   0.56482   1.25950
  32   34007.4    294.1   0.207576728   2.00947   0.25566   0.54933  -1.28154
  33   34104.3    293.2   0.327130576   3.15782  -1.60506  -0.53200   0.54643
  34   34508.3    289.8   0.024099460   0.22991  -0.35887   0.27243  -0.16403
  35   35020.1    285.6   0.005358944   0.05038  -0.18016   0.13384   0.00254
  36   35522.4    281.5   0.189745249   1.75851   0.24600   0.04913  -1.30214
  37   36192.7    276.3   0.000065060   0.00059  -0.00865  -0.02274  -0.00011
  38   36989.2    270.3   0.000229370   0.00204   0.01816  -0.00122   0.04135
  39   37109.8    269.5   0.035935235   0.31879  -0.30316  -0.47178  -0.06566
  40   37316.9    268.0   0.000400756   0.00354   0.03450   0.02151  -0.04339
  41   37480.4    266.8   0.000050941   0.00045   0.01109   0.00453  -0.01743
  42   37523.4    266.5   0.017535589   0.15385   0.09288  -0.37158  -0.08453
  43   37547.9    266.3   0.053454043   0.46867  -0.16230   0.65901   0.08965
  44   37625.8    265.8   0.002867855   0.02509  -0.05301   0.14928  -0.00003
  45   37731.2    265.0   0.096375663   0.84090   0.66451  -0.50749   0.37653
  46   37844.8    264.2   0.108939655   0.94767  -0.78838  -0.19172   0.53792
  47   38197.6    261.8   0.110879181   0.95563   0.36524  -0.46740  -0.77703
  48   38431.7    260.2   0.090502791   0.77526   0.20898  -0.58906  -0.62016
  49   38549.0    259.4   0.008427535   0.07197   0.12694   0.16801   0.16623
  50   38586.0    259.2   0.036277148   0.30951  -0.55185  -0.06880   0.01535
  51   38949.3    256.7   0.018711366   0.15815  -0.23566  -0.05647   0.31532
  52   39109.9    255.7   0.002747510   0.02313   0.07907   0.03190  -0.12593
  53   39330.7    254.3   0.000091661   0.00077  -0.01865   0.01970  -0.00562
  54   39366.9    254.0   0.300855684   2.51595   0.38736   0.17479  -1.52819
  55   39519.5    253.0   0.324077721   2.69969   1.33158  -0.96241  -0.01894
  56   39716.5    251.8   0.000292381   0.00242  -0.01837   0.00206  -0.04563
  57   39790.2    251.3   0.073112931   0.60491   0.04794  -0.15246  -0.76117
  58   40318.9    248.0   0.000097597   0.00080   0.02341  -0.00352  -0.01538

FINAL SINGLE POINT ENERGY     -7532.892965139836

DIPOLE MOMENT
-------------
                                X             Y             Z
Electronic contribution:   -134.93734     -51.15515    -160.03574
Nuclear contribution   :    132.47022      51.39123     157.06807
                        -----------------------------------------
Total Dipole Moment    :     -2.46712       0.23609      -2.96767
                        -----------------------------------------
Magnitude (a.u.)       :      3.86645
Magnitude (Debye)      :      9.82774

Rotational constants in cm-1:     0.001072     0.000200     0.000191
Rotational constants in MHz :    32.130240     5.987437     5.723390

                             ****ORCA TERMINATED NORMALLY****
TOTAL RUN TIME: 0 days 0 hours 9 minutes 35 seconds 655 msec
