                         Program Version 4.2.0 -  RELEASE  -
|  1> # ORCA input file
|  2> # SCF done       -168.247022022413          0.000627528798
|  3> ! CAM-B3LYP def2-SVP def2/J RIJCOSX Grid4 TightSCF
|  4> %maxcore 5000
|  5> %tddft
|  6>     Mode sTDDFT
|  7>     Ethresh 5.0
|  8>     maxcore 5000
|  9> end
| 10>
| 11> %pal
| 12>   nprocs 6
| 13>   end
| 14> * xyz 0 1
| 15>    C        6.60847        -1.85767        -7.14716
| 16>    C        6.97070        -2.05306        -5.87328
| 17>    C        7.99343        -1.36575        -5.13520
| 18>    C        8.13099        -1.77553        -3.85693
| 19>    C        7.23352        -2.81556        -3.47434
| 20>    S        6.20725        -3.25750        -4.82166
| 21>    C        7.13536        -3.41438        -2.24409
| 22>    C        7.87441        -3.13017        -1.06760
| 23>    C        7.51911        -3.88253         0.00210
| 24>    C        6.45871        -4.80280        -0.24104
| 25>    S        5.98136        -4.69706        -1.92556
| 26>    C        5.96603        -5.66501         0.69746
| 27>    C        4.87805        -6.56866         0.64350
| 28>    S        4.99222        -7.97886         1.67564
| 29>    C        3.44281        -8.55811         1.15235
| 30>    C        2.87461        -7.69353         0.22989
| 31>    C        3.66531        -6.56415        -0.03717
| 32>    C        3.12493        -5.41376        -0.84482
| 33>    C        3.45651        -4.15791        -0.20747
| 34>    N        3.67417        -3.16645         0.31745
| 35>    C        1.59707        -5.51806        -0.97499
| 36>    C        1.22965        -6.89760        -1.50129
| 37>    C        1.55363        -7.96301        -0.44298
| 38>    C        1.61574        -9.26208        -1.08250
| 39>    N        1.69556       -10.26121        -1.63069
| 40>    C        2.91336        -9.75107         1.71060
| 41>    O        1.61747       -10.10394         1.45652
| 42>    C        1.39740       -11.24891         2.12576
| 43>    C        0.30922       -12.09691         2.29064
| 44>    C        0.63340       -13.14909         3.13436
| 45>    S        2.29967       -13.08056         3.70821
| 46>    C        2.55600       -11.63049         2.82426
| 47>    C        3.52875       -10.66382         2.55550
| 48>    C       -0.21638       -14.19118         3.56499
| 49>    S        0.33031       -15.43475         4.65043
| 50>    C       -1.20995       -16.26536         4.65576
| 51>    C       -2.13054       -15.54613         3.88076
| 52>    C       -1.55578       -14.40273         3.26335
| 53>    S       -2.69738       -13.51000         2.31503
| 54>    C       -3.93386       -14.63102         2.81242
| 55>    N       -5.23900       -14.39082         2.33728
| 56>    O       -6.12143       -15.14017         2.70043
| 57>    O       -5.37912       -13.43595         1.59709
| 58>    C       -3.51747       -15.63707         3.63610
| 59>    C       -1.34514       -17.43553         5.41538
| 60>    C       -2.24248       -18.45473         5.20580
| 61>    C       -2.49670       -19.55397         6.11019
| 62>    C       -2.11704       -19.62745         7.42747
| 63>    C       -2.39997       -20.72053         8.27118
| 64>    N       -2.59227       -21.58664         9.00005
| 65>    C       -1.42227       -18.61635         8.12247
| 66>    N       -0.87719       -17.82989         8.75782
| 67>    C       -3.30772       -20.53705         5.40108
| 68>    C       -3.56158       -20.05499         4.09353
| 69>    C       -2.90870       -18.74339         3.91626
| 70>    O       -2.85973       -18.09662         2.88924
| 71>    C       -4.30982       -20.75309         3.17780
| 72>    C       -4.83962       -21.98593         3.57399
| 73>    C       -4.58007       -22.46059         4.88169
| 74>    C       -3.81923       -21.75503         5.80649
| 75>    S       -5.32596       -24.00441         5.16075
| 76>    C       -5.97003       -23.99047         3.54028
| 77>    C       -5.64365       -22.88787         2.82500
| 78>   Br       -7.00967       -25.43346         2.94647
| 79>    H        7.10090        -1.11478        -7.74956
| 80>    H        5.82438        -2.43032        -7.60745
| 81>    H        8.57724        -0.59168        -5.60067
| 82>    H        8.84475        -1.37042        -3.16208
| 83>    H        8.63807        -2.37394        -1.04861
| 84>    H        7.96223        -3.80072         0.97852
| 85>    H        6.53388        -5.70941         1.61943
| 86>    H        3.56986        -5.41235        -1.84896
| 87>    H        1.24028        -4.74399        -1.65600
| 88>    H        1.13189        -5.35326         0.00035
| 89>    H        1.79556        -7.10266        -2.41382
| 90>    H        0.16777        -6.94374        -1.74706
| 91>    H        0.76078        -7.99803         0.31537
| 92>    H       -0.65203       -11.96570         1.83222
| 93>    H        4.53762       -10.61499         2.90863
| 94>    H       -4.18768       -16.36960         4.04245
| 95>    H       -0.62548       -17.54719         6.21742
| 96>    H       -4.48643       -20.35831         2.18966
| 97>    H       -3.64622       -22.16060         6.78927
| 98>    H       -5.95596       -22.71553         1.81124
| 99> *
|100>
|101>                          ****END OF INPUT****

CARTESIAN COORDINATES (ANGSTROEM)
---------------------------------
  C      6.608470   -1.857670   -7.147160
  C      6.970700   -2.053060   -5.873280
  C      7.993430   -1.365750   -5.135200
  C      8.130990   -1.775530   -3.856930
  C      7.233520   -2.815560   -3.474340
  S      6.207250   -3.257500   -4.821660
  C      7.135360   -3.414380   -2.244090
  C      7.874410   -3.130170   -1.067600
  C      7.519110   -3.882530    0.002100
  C      6.458710   -4.802800   -0.241040
  S      5.981360   -4.697060   -1.925560
  C      5.966030   -5.665010    0.697460
  C      4.878050   -6.568660    0.643500
  S      4.992220   -7.978860    1.675640
  C      3.442810   -8.558110    1.152350
  C      2.874610   -7.693530    0.229890
  C      3.665310   -6.564150   -0.037170
  C      3.124930   -5.413760   -0.844820
  C      3.456510   -4.157910   -0.207470
  N      3.674170   -3.166450    0.317450
  C      1.597070   -5.518060   -0.974990
  C      1.229650   -6.897600   -1.501290
  C      1.553630   -7.963010   -0.442980
  C      1.615740   -9.262080   -1.082500
  N      1.695560  -10.261210   -1.630690
  C      2.913360   -9.751070    1.710600
  O      1.617470  -10.103940    1.456520
  C      1.397400  -11.248910    2.125760
  C      0.309220  -12.096910    2.290640
  C      0.633400  -13.149090    3.134360
  S      2.299670  -13.080560    3.708210
  C      2.556000  -11.630490    2.824260
  C      3.528750  -10.663820    2.555500
  C     -0.216380  -14.191180    3.564990
  S      0.330310  -15.434750    4.650430
  C     -1.209950  -16.265360    4.655760
  C     -2.130540  -15.546130    3.880760
  C     -1.555780  -14.402730    3.263350
  S     -2.697380  -13.510000    2.315030
  C     -3.933860  -14.631020    2.812420
  N     -5.239000  -14.390820    2.337280
  O     -6.121430  -15.140170    2.700430
  O     -5.379120  -13.435950    1.597090
  C     -3.517470  -15.637070    3.636100
  C     -1.345140  -17.435530    5.415380
  C     -2.242480  -18.454730    5.205800
  C     -2.496700  -19.553970    6.110190
  C     -2.117040  -19.627450    7.427470
  C     -2.399970  -20.720530    8.271180
  N     -2.592270  -21.586640    9.000050
  C     -1.422270  -18.616350    8.122470
  N     -0.877190  -17.829890    8.757820
  C     -3.307720  -20.537050    5.401080
  C     -3.561580  -20.054990    4.093530
  C     -2.908700  -18.743390    3.916260
  O     -2.859730  -18.096620    2.889240
  C     -4.309820  -20.753090    3.177800
  C     -4.839620  -21.985930    3.573990
  C     -4.580070  -22.460590    4.881690
  C     -3.819230  -21.755030    5.806490
  S     -5.325960  -24.004410    5.160750
  C     -5.970030  -23.990470    3.540280
  C     -5.643650  -22.887870    2.825000
  Br    -7.009670  -25.433460    2.946470
  H      7.100900   -1.114780   -7.749560
  H      5.824380   -2.430320   -7.607450
  H      8.577240   -0.591680   -5.600670
  H      8.844750   -1.370420   -3.162080
  H      8.638070   -2.373940   -1.048610
  H      7.962230   -3.800720    0.978520
  H      6.533880   -5.709410    1.619430
  H      3.569860   -5.412350   -1.848960
  H      1.240280   -4.743990   -1.656000
  H      1.131890   -5.353260    0.000350
  H      1.795560   -7.102660   -2.413820
  H      0.167770   -6.943740   -1.747060
  H      0.760780   -7.998030    0.315370
  H     -0.652030  -11.965700    1.832220
  H      4.537620  -10.614990    2.908630
  H     -4.187680  -16.369600    4.042450
  H     -0.625480  -17.547190    6.217420
  H     -4.486430  -20.358310    2.189660
  H     -3.646220  -22.160600    6.789270
  H     -5.955960  -22.715530    1.811240

 Total Charge           Charge          ....    0
 Multiplicity           Mult            ....    1
 Number of Electrons    NEL             ....  516
 Basis Dimension        Dim             .... 1042

ORBITAL ENERGIES
----------------

  NO   OCC          E(Eh)            E(eV)
   0   2.0000    -482.883605    -13139.9309
   1   2.0000     -88.987696     -2421.4783
   2   2.0000     -88.982331     -2421.3323
   3   2.0000     -88.979567     -2421.2571
   4   2.0000     -88.973474     -2421.0913
   5   2.0000     -88.970965     -2421.0231
   6   2.0000     -88.954367     -2420.5714
   7   2.0000     -88.947977     -2420.3975
   8   2.0000     -62.561331     -1702.3804
   9   2.0000     -56.395282     -1534.5936
  10   2.0000     -56.392563     -1534.5196
  11   2.0000     -56.392532     -1534.5188
  12   2.0000     -19.313249      -525.5402
  13   2.0000     -19.249008      -523.7921
  14   2.0000     -19.248172      -523.7694
  15   2.0000     -19.214973      -522.8660
  16   2.0000     -14.658498      -398.8780
  17   2.0000     -14.413008      -392.1979
  18   2.0000     -14.412218      -392.1764
  19   2.0000     -14.399413      -391.8280
  20   2.0000     -14.399388      -391.8273
  21   2.0000     -10.366391      -282.0838
  22   2.0000     -10.362881      -281.9883
  23   2.0000     -10.358059      -281.8571
  24   2.0000     -10.356819      -281.8234
  25   2.0000     -10.348309      -281.5918
  26   2.0000     -10.347678      -281.5746
  27   2.0000     -10.339191      -281.3437
  28   2.0000     -10.338612      -281.3279
  29   2.0000     -10.332104      -281.1508
  30   2.0000     -10.329228      -281.0726
  31   2.0000     -10.328161      -281.0435
  32   2.0000     -10.326905      -281.0094
  33   2.0000     -10.326274      -280.9922
  34   2.0000     -10.324997      -280.9574
  35   2.0000     -10.323437      -280.9150
  36   2.0000     -10.322223      -280.8820
  37   2.0000     -10.321631      -280.8659
  38   2.0000     -10.321494      -280.8621
  39   2.0000     -10.320934      -280.8469
  40   2.0000     -10.317365      -280.7498
  41   2.0000     -10.316546      -280.7275
  42   2.0000     -10.316429      -280.7243
  43   2.0000     -10.316114      -280.7157
  44   2.0000     -10.315835      -280.7081
  45   2.0000     -10.315438      -280.6973
  46   2.0000     -10.315317      -280.6940
  47   2.0000     -10.308595      -280.5111
  48   2.0000     -10.307034      -280.4687
  49   2.0000     -10.305940      -280.4389
  50   2.0000     -10.305465      -280.4260
  51   2.0000     -10.303521      -280.3731
  52   2.0000     -10.302630      -280.3488
  53   2.0000     -10.301457      -280.3169
  54   2.0000     -10.300226      -280.2834
  55   2.0000     -10.298969      -280.2492
  56   2.0000     -10.298374      -280.2330
  57   2.0000     -10.297951      -280.2215
  58   2.0000     -10.297871      -280.2193
  59   2.0000     -10.296411      -280.1796
  60   2.0000     -10.295997      -280.1683
  61   2.0000     -10.295599      -280.1575
  62   2.0000     -10.294634      -280.1312
  63   2.0000     -10.294598      -280.1302
  64   2.0000     -10.291742      -280.0525
  65   2.0000     -10.290577      -280.0208
  66   2.0000     -10.289920      -280.0030
  67   2.0000     -10.280123      -279.7364
  68   2.0000      -8.790771      -239.2090
  69   2.0000      -8.082977      -219.9490
  70   2.0000      -8.077172      -219.7910
  71   2.0000      -8.074626      -219.7217
  72   2.0000      -8.069539      -219.5833
  73   2.0000      -8.066540      -219.5017
  74   2.0000      -8.050286      -219.0594
  75   2.0000      -8.044804      -218.9103
  76   2.0000      -6.627092      -180.3323
  77   2.0000      -6.612495      -179.9351
  78   2.0000      -6.612295      -179.9297
  79   2.0000      -6.052328      -164.6922
  80   2.0000      -6.048093      -164.5770
  81   2.0000      -6.047089      -164.5497
  82   2.0000      -6.045022      -164.4934
  83   2.0000      -6.044297      -164.4737
  84   2.0000      -6.042744      -164.4314
  85   2.0000      -6.040219      -164.3627
  86   2.0000      -6.039201      -164.3350
  87   2.0000      -6.038141      -164.3062
  88   2.0000      -6.035938      -164.2462
  89   2.0000      -6.035931      -164.2460
  90   2.0000      -6.034956      -164.2195
  91   2.0000      -6.031902      -164.1364
  92   2.0000      -6.030762      -164.1054
  93   2.0000      -6.028310      -164.0386
  94   2.0000      -6.020087      -163.8149
  95   2.0000      -6.016128      -163.7072
  96   2.0000      -6.014618      -163.6661
  97   2.0000      -6.011032      -163.5685
  98   2.0000      -6.010737      -163.5605
  99   2.0000      -6.005286      -163.4121
 100   2.0000      -2.742925       -74.6388
 101   2.0000      -2.738868       -74.5284
 102   2.0000      -2.738743       -74.5250
 103   2.0000      -2.727121       -74.2087
 104   2.0000      -2.727115       -74.2086
 105   2.0000      -1.330575       -36.2068
 106   2.0000      -1.230057       -33.4715
 107   2.0000      -1.149778       -31.2871
 108   2.0000      -1.130579       -30.7646
 109   2.0000      -1.038014       -28.2458
 110   2.0000      -1.020859       -27.7790
 111   2.0000      -1.018568       -27.7166
 112   2.0000      -1.010995       -27.5106
 113   2.0000      -1.003867       -27.3166
 114   2.0000      -1.001075       -27.2406
 115   2.0000      -0.991442       -26.9785
 116   2.0000      -0.990158       -26.9436
 117   2.0000      -0.988460       -26.8974
 118   2.0000      -0.986287       -26.8382
 119   2.0000      -0.979522       -26.6542
 120   2.0000      -0.977555       -26.6006
 121   2.0000      -0.947769       -25.7901
 122   2.0000      -0.942151       -25.6372
 123   2.0000      -0.925278       -25.1781
 124   2.0000      -0.919453       -25.0196
 125   2.0000      -0.906363       -24.6634
 126   2.0000      -0.904655       -24.6169
 127   2.0000      -0.893303       -24.3080
 128   2.0000      -0.892386       -24.2831
 129   2.0000      -0.884224       -24.0610
 130   2.0000      -0.882979       -24.0271
 131   2.0000      -0.869364       -23.6566
 132   2.0000      -0.858826       -23.3698
 133   2.0000      -0.855743       -23.2859
 134   2.0000      -0.853640       -23.2287
 135   2.0000      -0.851992       -23.1839
 136   2.0000      -0.844212       -22.9722
 137   2.0000      -0.830240       -22.5920
 138   2.0000      -0.827482       -22.5169
 139   2.0000      -0.821994       -22.3676
 140   2.0000      -0.804109       -21.8809
 141   2.0000      -0.793461       -21.5912
 142   2.0000      -0.784218       -21.3396
 143   2.0000      -0.779274       -21.2051
 144   2.0000      -0.764458       -20.8020
 145   2.0000      -0.757017       -20.5995
 146   2.0000      -0.737590       -20.0708
 147   2.0000      -0.726848       -19.7785
 148   2.0000      -0.709520       -19.3070
 149   2.0000      -0.707421       -19.2499
 150   2.0000      -0.694543       -18.8995
 151   2.0000      -0.693203       -18.8630
 152   2.0000      -0.687848       -18.7173
 153   2.0000      -0.683207       -18.5910
 154   2.0000      -0.672809       -18.3081
 155   2.0000      -0.669570       -18.2199
 156   2.0000      -0.658286       -17.9129
 157   2.0000      -0.657326       -17.8868
 158   2.0000      -0.656512       -17.8646
 159   2.0000      -0.649015       -17.6606
 160   2.0000      -0.640011       -17.4156
 161   2.0000      -0.636171       -17.3111
 162   2.0000      -0.633629       -17.2419
 163   2.0000      -0.626594       -17.0505
 164   2.0000      -0.625650       -17.0248
 165   2.0000      -0.622654       -16.9433
 166   2.0000      -0.619476       -16.8568
 167   2.0000      -0.607472       -16.5302
 168   2.0000      -0.606451       -16.5024
 169   2.0000      -0.603548       -16.4234
 170   2.0000      -0.598992       -16.2994
 171   2.0000      -0.595678       -16.2092
 172   2.0000      -0.594370       -16.1736
 173   2.0000      -0.590052       -16.0561
 174   2.0000      -0.583191       -15.8694
 175   2.0000      -0.580793       -15.8042
 176   2.0000      -0.579616       -15.7721
 177   2.0000      -0.557873       -15.1805
 178   2.0000      -0.554644       -15.0926
 179   2.0000      -0.553245       -15.0546
 180   2.0000      -0.547328       -14.8935
 181   2.0000      -0.541495       -14.7348
 182   2.0000      -0.540640       -14.7116
 183   2.0000      -0.539172       -14.6716
 184   2.0000      -0.534914       -14.5557
 185   2.0000      -0.533329       -14.5126
 186   2.0000      -0.530668       -14.4402
 187   2.0000      -0.528798       -14.3893
 188   2.0000      -0.524823       -14.2812
 189   2.0000      -0.522140       -14.2081
 190   2.0000      -0.515865       -14.0374
 191   2.0000      -0.511196       -13.9104
 192   2.0000      -0.509856       -13.8739
 193   2.0000      -0.508393       -13.8341
 194   2.0000      -0.507215       -13.8020
 195   2.0000      -0.503872       -13.7111
 196   2.0000      -0.501206       -13.6385
 197   2.0000      -0.495121       -13.4729
 198   2.0000      -0.493323       -13.4240
 199   2.0000      -0.492939       -13.4135
 200   2.0000      -0.491871       -13.3845
 201   2.0000      -0.487771       -13.2729
 202   2.0000      -0.485405       -13.2085
 203   2.0000      -0.481051       -13.0901
 204   2.0000      -0.478887       -13.0312
 205   2.0000      -0.475745       -12.9457
 206   2.0000      -0.471352       -12.8261
 207   2.0000      -0.468160       -12.7393
 208   2.0000      -0.465557       -12.6685
 209   2.0000      -0.459721       -12.5096
 210   2.0000      -0.458905       -12.4874
 211   2.0000      -0.456426       -12.4200
 212   2.0000      -0.451104       -12.2752
 213   2.0000      -0.447706       -12.1827
 214   2.0000      -0.446540       -12.1510
 215   2.0000      -0.444581       -12.0977
 216   2.0000      -0.442670       -12.0457
 217   2.0000      -0.441334       -12.0093
 218   2.0000      -0.439310       -11.9542
 219   2.0000      -0.437841       -11.9143
 220   2.0000      -0.436934       -11.8896
 221   2.0000      -0.434496       -11.8232
 222   2.0000      -0.430957       -11.7269
 223   2.0000      -0.429893       -11.6980
 224   2.0000      -0.429028       -11.6744
 225   2.0000      -0.427395       -11.6300
 226   2.0000      -0.425388       -11.5754
 227   2.0000      -0.423071       -11.5123
 228   2.0000      -0.417941       -11.3728
 229   2.0000      -0.414159       -11.2698
 230   2.0000      -0.408746       -11.1225
 231   2.0000      -0.407356       -11.0847
 232   2.0000      -0.404315       -11.0020
 233   2.0000      -0.400243       -10.8912
 234   2.0000      -0.398934       -10.8555
 235   2.0000      -0.395055       -10.7500
 236   2.0000      -0.393362       -10.7039
 237   2.0000      -0.390667       -10.6306
 238   2.0000      -0.387285       -10.5386
 239   2.0000      -0.385804       -10.4983
 240   2.0000      -0.383684       -10.4406
 241   2.0000      -0.375400       -10.2152
 242   2.0000      -0.373042       -10.1510
 243   2.0000      -0.366525        -9.9737
 244   2.0000      -0.355004        -9.6602
 245   2.0000      -0.345970        -9.4143
 246   2.0000      -0.344226        -9.3669
 247   2.0000      -0.336594        -9.1592
 248   2.0000      -0.334544        -9.1034
 249   2.0000      -0.332942        -9.0598
 250   2.0000      -0.327210        -8.9038
 251   2.0000      -0.326000        -8.8709
 252   2.0000      -0.317779        -8.6472
 253   2.0000      -0.313385        -8.5276
 254   2.0000      -0.293321        -7.9817
 255   2.0000      -0.288797        -7.8586
 256   2.0000      -0.253753        -6.9050
 257   2.0000      -0.226005        -6.1499
 258   0.0000      -0.110961        -3.0194
 259   0.0000      -0.078245        -2.1291
 260   0.0000      -0.070105        -1.9076
 261   0.0000      -0.048436        -1.3180
 262   0.0000      -0.036965        -1.0059

MULLIKEN ATOMIC CHARGES
-----------------------
   0 C :   -0.025266
   1 C :   -0.063673
   2 C :    0.058097
   3 C :    0.029885
   4 C :   -0.056845
   5 S :    0.081568
   6 C :   -0.050160
   7 C :    0.036333
   8 C :    0.041173
   9 C :   -0.007584
  10 S :    0.065356
  11 C :   -0.024056
  12 C :   -0.112388
  13 S :    0.144022
  14 C :   -0.122790
  15 C :   -0.044013
  16 C :   -0.030477
  17 C :    0.045132
  18 C :   -0.304339
  19 N :    0.128819
  20 C :    0.058376
  21 C :    0.100173
  22 C :    0.069355
  23 C :   -0.306228
  24 N :    0.121420
  25 C :    0.173728
  26 O :   -0.214805
  27 C :    0.228096
  28 C :   -0.064060
  29 C :   -0.102687
  30 S :    0.156066
  31 C :   -0.011720
  32 C :   -0.124180
  33 C :   -0.084509
  34 S :    0.186903
  35 C :   -0.133147
  36 C :    0.158651
  37 C :   -0.073298
  38 S :    0.162974
  39 C :    0.010475
  40 N :    0.266720
  41 O :   -0.230568
  42 O :   -0.245969
  43 C :    0.049647
  44 C :    0.021185
  45 C :   -0.110358
  46 C :    0.302282
  47 C :   -0.347066
  48 C :   -0.183752
  49 N :    0.146449
  50 C :   -0.203844
  51 N :    0.156514
  52 C :    0.019885
  53 C :   -0.017463
  54 C :    0.124745
  55 O :   -0.155337
  56 C :   -0.067996
  57 C :    0.116408
  58 C :   -0.090078
  59 C :   -0.022973
  60 S :    0.186677
  61 C :   -0.123879
  62 C :    0.040398
  63 Br:    0.023653
  64 H :    0.025213
  65 H :    0.026198
  66 H :   -0.006384
  67 H :   -0.007139
  68 H :   -0.009231
  69 H :   -0.008259
  70 H :   -0.003905
  71 H :    0.058008
  72 H :    0.029234
  73 H :    0.019882
  74 H :    0.017832
  75 H :    0.027370
  76 H :    0.045019
  77 H :    0.006197
  78 H :    0.001691
  79 H :    0.015913
  80 H :    0.026672
  81 H :   -0.010057
  82 H :   -0.006833
  83 H :   -0.003078
Sum of atomic charges:   -0.0000000

LOEWDIN ATOMIC CHARGES
----------------------
   0 C :   -0.066071
   1 C :   -0.139476
   2 C :   -0.022893
   3 C :   -0.025638
   4 C :   -0.166790
   5 S :    0.353167
   6 C :   -0.181152
   7 C :   -0.022764
   8 C :   -0.028071
   9 C :   -0.125275
  10 S :    0.393316
  11 C :   -0.095510
  12 C :   -0.151124
  13 S :    0.452613
  14 C :   -0.188219
  15 C :   -0.039875
  16 C :   -0.062309
  17 C :   -0.054860
  18 C :   -0.036962
  19 N :   -0.066382
  20 C :   -0.006450
  21 C :   -0.008800
  22 C :   -0.044789
  23 C :   -0.036618
  24 N :   -0.070854
  25 C :    0.041211
  26 O :    0.017724
  27 C :    0.008298
  28 C :   -0.047454
  29 C :   -0.189166
  30 S :    0.429346
  31 C :   -0.189843
  32 C :   -0.075766
  33 C :   -0.171634
  34 S :    0.479077
  35 C :   -0.179472
  36 C :   -0.038463
  37 C :   -0.189640
  38 S :    0.447026
  39 C :   -0.166197
  40 N :    0.272914
  41 O :   -0.197631
  42 O :   -0.212370
  43 C :    0.013445
  44 C :    0.041026
  45 C :   -0.106974
  46 C :    0.074028
  47 C :   -0.144485
  48 C :   -0.018625
  49 N :   -0.055580
  50 C :   -0.025129
  51 N :   -0.054578
  52 C :   -0.021111
  53 C :   -0.050343
  54 C :    0.076054
  55 O :   -0.144433
  56 C :    0.022203
  57 C :   -0.032715
  58 C :   -0.144305
  59 C :   -0.009901
  60 S :    0.432894
  61 C :   -0.271757
  62 C :   -0.069556
  63 Br:    0.136873
  64 H :    0.031103
  65 H :    0.028366
  66 H :    0.035727
  67 H :    0.034108
  68 H :    0.033956
  69 H :    0.035383
  70 H :    0.035361
  71 H :    0.041781
  72 H :    0.037628
  73 H :    0.033557
  74 H :    0.034841
  75 H :    0.037627
  76 H :    0.057976
  77 H :    0.031906
  78 H :    0.034361
  79 H :    0.046196
  80 H :    0.045422
  81 H :    0.041328
  82 H :    0.041009
  83 H :    0.039157

  Mayer bond orders larger than 0.100000
B(  0-C ,  1-C ) :   1.8694 B(  0-C , 64-H ) :   0.9507 B(  0-C , 65-H ) :   0.9423
B(  1-C ,  2-C ) :   1.0768 B(  1-C ,  5-S ) :   1.0050 B(  2-C ,  3-C ) :   1.6690
B(  2-C , 66-H ) :   0.9935 B(  3-C ,  4-C ) :   1.1436 B(  3-C , 67-H ) :   0.9923
B(  4-C ,  5-S ) :   1.0496 B(  4-C ,  6-C ) :   1.5700 B(  6-C ,  7-C ) :   1.1626
B(  6-C , 10-S ) :   1.0292 B(  7-C ,  8-C ) :   1.6208 B(  7-C , 68-H ) :   0.9922
B(  8-C ,  9-C ) :   1.1232 B(  8-C , 69-H ) :   0.9983 B(  9-C , 10-S ) :   1.0424
B(  9-C , 11-C ) :   1.6453 B( 11-C , 12-C ) :   1.1152 B( 11-C , 70-H ) :   0.9406
B( 12-C , 13-S ) :   1.1170 B( 12-C , 14-C ) :   0.1106 B( 12-C , 16-C ) :   1.5002
B( 13-S , 14-C ) :   1.1326 B( 14-C , 15-C ) :   1.5095 B( 14-C , 25-C ) :   1.1135
B( 15-C , 16-C ) :   1.3605 B( 15-C , 22-C ) :   0.9979 B( 16-C , 17-C ) :   0.9893
B( 17-C , 18-C ) :   1.0472 B( 17-C , 20-C ) :   1.1090 B( 17-C , 71-H ) :   0.8130
B( 18-C , 19-N ) :   3.1079 B( 20-C , 21-C ) :   1.1202 B( 20-C , 72-H ) :   0.9343
B( 20-C , 73-H ) :   0.9173 B( 21-C , 22-C ) :   1.1019 B( 21-C , 74-H ) :   0.9103
B( 21-C , 75-H ) :   0.9299 B( 22-C , 23-C ) :   1.0373 B( 22-C , 76-H ) :   0.8182
B( 23-C , 24-N ) :   3.1178 B( 25-C , 26-O ) :   1.1074 B( 25-C , 32-C ) :   1.4789
B( 26-O , 27-C ) :   1.1183 B( 27-C , 28-C ) :   1.2877 B( 27-C , 31-C ) :   1.3728
B( 28-C , 29-C ) :   1.4502 B( 28-C , 77-H ) :   0.9938 B( 29-C , 30-S ) :   1.0811
B( 29-C , 33-C ) :   1.1995 B( 30-S , 31-C ) :   1.0679 B( 31-C , 32-C ) :   1.2470
B( 32-C , 78-H ) :   1.0100 B( 33-C , 34-S ) :   1.1693 B( 33-C , 35-C ) :   0.1018
B( 33-C , 37-C ) :   1.4828 B( 34-S , 35-C ) :   1.0919 B( 35-C , 36-C ) :   1.3280
B( 35-C , 44-C ) :   1.2469 B( 36-C , 37-C ) :   1.2865 B( 36-C , 43-C ) :   1.1401
B( 37-C , 38-S ) :   1.0376 B( 38-S , 39-C ) :   1.0822 B( 39-C , 40-N ) :   0.9364
B( 39-C , 43-C ) :   1.5816 B( 40-N , 41-O ) :   1.5538 B( 40-N , 42-O ) :   1.5280
B( 41-O , 42-O ) :   0.2750 B( 43-C , 79-H ) :   0.9871 B( 44-C , 45-C ) :   1.5324
B( 44-C , 80-H ) :   0.9319 B( 45-C , 46-C ) :   1.0863 B( 45-C , 54-C ) :   0.9610
B( 46-C , 47-C ) :   1.6267 B( 46-C , 52-C ) :   1.0015 B( 47-C , 48-C ) :   1.1422
B( 47-C , 50-C ) :   1.1428 B( 48-C , 49-N ) :   2.9686 B( 50-C , 51-N ) :   2.9899
B( 52-C , 53-C ) :   1.2732 B( 52-C , 59-C ) :   1.4119 B( 53-C , 54-C ) :   0.9391
B( 53-C , 56-C ) :   1.4264 B( 54-C , 55-O ) :   2.1968 B( 56-C , 57-C ) :   1.2418
B( 56-C , 81-H ) :   1.0172 B( 57-C , 58-C ) :   1.3089 B( 57-C , 62-C ) :   1.1633
B( 58-C , 59-C ) :   1.3251 B( 58-C , 60-S ) :   1.0869 B( 59-C , 82-H ) :   0.9807
B( 60-S , 61-C ) :   1.0872 B( 61-C , 62-C ) :   1.6175 B( 61-C , 63-Br) :   1.0185
B( 62-C , 83-H ) :   1.0002

-----------------------------------------------------------------------------
         ABSORPTION SPECTRUM VIA TRANSITION ELECTRIC DIPOLE MOMENTS
-----------------------------------------------------------------------------
State   Energy  Wavelength   fosc         T2         TX        TY        TZ
        (cm-1)    (nm)                  (au**2)     (au)      (au)      (au)
-----------------------------------------------------------------------------
   0   13506.8    740.4   1.974786279  48.13313  -2.91666  -5.50569   3.05182
   1   18347.0    545.0   0.176595999   3.16877  -0.69581  -0.44879   1.57582
   2   19692.2    507.8   0.769633755  12.86664  -1.13749  -2.44161   2.36881
   3   22960.8    435.5   0.061945046   0.88817   0.38143   0.78117  -0.36393
   4   24364.5    410.4   0.115250160   1.55725   0.87172   0.49592   0.74258
   5   25256.7    395.9   0.007149109   0.09319  -0.16575   0.09388   0.23854
   6   25696.0    389.2   0.138325670   1.77220   1.05785   0.16197   0.79179
   7   26137.9    382.6   0.295163863   3.71765  -1.02694  -1.41502  -0.81286
   8   26490.1    377.5   0.011489697   0.14279  -0.22188   0.28199   0.11850
   9   28050.3    356.5   0.006215349   0.07295   0.22975   0.08886   0.11074
  10   28758.4    347.7   0.045034740   0.51554  -0.21816   0.48446  -0.48295
  11   29097.3    343.7   0.057171193   0.64685   0.26335  -0.12905   0.74889
  12   30801.3    324.7   0.017639257   0.18853  -0.34831  -0.17141   0.19450
  13   31385.9    318.6   0.451127688   4.73196   1.02518   1.58266   1.08450
  14   31781.9    314.6   0.070032944   0.72543  -0.66233  -0.23322  -0.48204
  15   32107.8    311.5   0.185528138   1.90228  -1.32182   0.31744  -0.23306
  16   32282.7    309.8   0.067384379   0.68717  -0.67981  -0.31863   0.35144
  17   32374.5    308.9   0.134725179   1.37000   0.39662   0.07905   1.09838
  18   32863.6    304.3   0.029764894   0.29817  -0.28110  -0.30010  -0.35930
  19   32983.9    303.2   0.026848666   0.26798  -0.23473  -0.33125  -0.32118
  20   34153.0    292.8   0.157396184   1.51719   0.79070   0.69525   0.63923
  21   34747.3    287.8   0.065970059   0.62503  -0.20564  -0.71646   0.26349
  22   35119.2    284.7   0.094256106   0.88357   0.21121  -0.33473   0.85259
  23   35281.3    283.4   0.036413858   0.33978  -0.10797   0.34335  -0.45851
  24   35388.7    282.6   0.076139073   0.70830  -0.39805  -0.14277  -0.72765
  25   36012.3    277.7   0.068400450   0.62529   0.18571   0.60641  -0.47231
  26   36300.9    275.5   0.069389935   0.62930  -0.09488   0.17697  -0.76745
  27   36597.7    273.2   0.026688833   0.24008   0.26610   0.41057   0.02643
  28   36895.5    271.0   0.002592299   0.02313  -0.00210   0.00578  -0.15196
  29   37243.0    268.5   0.018231493   0.16116  -0.29382   0.23802  -0.13482
  30   38440.1    260.1   0.044169613   0.37828  -0.51439  -0.17713  -0.28689
  31   38530.7    259.5   0.045811978   0.39142  -0.53405   0.24095  -0.21945
  32   39061.3    256.0   0.114462887   0.96470   0.56373   0.60694  -0.52777
  33   39602.0    252.5   0.068976185   0.57340   0.33376   0.64866  -0.20308
  34   39765.8    251.5   0.057254574   0.47400  -0.37858  -0.03032  -0.57424
  35   39928.4    250.4   0.104891205   0.86483  -0.72947   0.26089  -0.51443
  36   40206.5    248.7   0.047344557   0.38766  -0.57618  -0.01747  -0.23530

FINAL SINGLE POINT ENERGY     -7734.931561923314

DIPOLE MOMENT
-------------
                                X             Y             Z
Electronic contribution:   -104.55967    -192.27874      46.91825
Nuclear contribution   :    107.09881     194.99911     -49.36371
                        -----------------------------------------
Total Dipole Moment    :      2.53914       2.72038      -2.44546
                        -----------------------------------------
Magnitude (a.u.)       :      4.45286
Magnitude (Debye)      :     11.31827

Rotational constants in cm-1:     0.002609     0.000201     0.000194
Rotational constants in MHz :    78.213397     6.032016     5.829526

                             ****ORCA TERMINATED NORMALLY****
TOTAL RUN TIME: 0 days 0 hours 7 minutes 47 seconds 99 msec
