                         Program Version 4.2.0 -  RELEASE  -
|  1> # ORCA input file
|  2> # SCF done       -178.648762878717          0.000285848435
|  3> ! CAM-B3LYP def2-SVP def2/J RIJCOSX Grid4 TightSCF
|  4> %maxcore 5000
|  5> %tddft
|  6>     Mode sTDDFT
|  7>     Ethresh 5.0
|  8>     maxcore 5000
|  9> end
| 10>
| 11> %pal
| 12>   nprocs 6
| 13>   end
| 14> * xyz 0 1
| 15>    C      -14.13023        -3.61222         2.38802
| 16>    C      -15.25190        -3.25897         3.12177
| 17>    C      -16.48010        -3.82203         2.77206
| 18>    C      -17.63879        -3.47540         3.51086
| 19>    N      -18.57074        -3.19041         4.11141
| 20>    C      -16.59055        -4.72713         1.69855
| 21>    C      -17.85048        -5.28293         1.37064
| 22>    N      -18.86152        -5.74206         1.09065
| 23>    C      -15.45968        -5.07325         0.95758
| 24>    C      -14.25150        -4.51394         1.31531
| 25>    C      -12.92718        -4.72380         0.67653
| 26>    O      -12.71680        -5.37884        -0.31219
| 27>    C      -11.98396        -3.87826         1.46044
| 28>    C      -12.72926        -3.21185         2.51318
| 29>    C      -12.22457        -2.40661         3.49998
| 30>    C      -13.00547        -1.80669         4.51220
| 31>    N      -13.58369        -1.28710         5.35612
| 32>    C      -10.86380        -2.07030         3.67138
| 33>    N       -9.78093        -1.75860         3.89070
| 34>    C      -10.66968        -3.66575         1.16848
| 35>    C       -9.86598        -4.39350         0.26144
| 36>    S       -8.28139        -3.75373        -0.22223
| 37>    C       -8.09990        -5.24426        -1.11911
| 38>    N       -9.13676        -6.03655        -0.98443
| 39>    N      -10.08420        -5.57439        -0.24144
| 40>    C       -6.93899        -5.57994        -1.88777
| 41>    C       -6.90882        -6.78960        -2.55064
| 42>    C       -5.76148        -7.15949        -3.27330
| 43>    C       -5.45666        -8.30919        -3.99523
| 44>    C       -6.30275        -9.50876        -4.23942
| 45>    C       -6.58390       -10.26310        -2.92146
| 46>    N       -6.85899       -11.65080        -3.22360
| 47>    C       -7.60782        -9.14253        -4.97170
| 48>    N       -8.29713       -10.34784        -5.40596
| 49>    C       -4.09632        -8.15697        -4.45726
| 50>    C       -3.29414        -8.99822        -5.13570
| 51>    C       -1.87857        -8.64877        -5.44240
| 52>    C       -1.46563        -7.27565        -5.00547
| 53>    C       -2.28542        -6.44382        -4.33618
| 54>    C       -3.60271        -6.84581        -4.01277
| 55>    C       -4.62093        -6.24854        -3.29740
| 56>    C       -4.69902        -5.00452        -2.62850
| 57>    C       -5.82571        -4.68213        -1.94584
| 58>    C       -1.61399        -8.78265        -6.91593
| 59>    C       -0.67969        -9.58690        -7.43019
| 60>    C       -0.41396        -9.66965        -8.83450
| 61>    S        0.77566       -10.77783        -9.48838
| 62>    C        0.31138       -10.14241       -11.05947
| 63>    N       -0.60720        -9.22011       -10.96816
| 64>    N       -0.99766        -8.95866        -9.75726
| 65>    C        0.94807       -10.55884       -12.25860
| 66>    C        0.53621       -10.31747       -13.52660
| 67>    C        1.50792       -10.44314       -14.65184
| 68>    O        2.57651       -11.00096       -14.63193
| 69>    C        0.89625        -9.68053       -15.76363
| 70>    C        1.44150        -9.37121       -16.99222
| 71>    C        0.68287        -8.59915       -17.87344
| 72>    C       -0.60043        -8.15345       -17.49989
| 73>    C       -1.14777        -8.48057       -16.25839
| 74>    C       -0.39447        -9.25249       -15.38956
| 75>    C       -0.70032        -9.77381       -14.05844
| 76>    C       -1.95126        -9.93668       -13.53586
| 77>    C       -2.22295       -10.71021       -12.38544
| 78>    N       -2.50671       -11.40118       -11.51483
| 79>    C       -3.12743        -9.45632       -14.15102
| 80>    N       -4.10537        -9.07749       -14.61526
| 81>    C       -1.34716        -7.35435       -18.40172
| 82>    N       -1.95405        -6.70545       -19.12337
| 83>    C        1.20763        -8.25607       -19.14308
| 84>    N        1.64987        -7.98792       -20.16461
| 85>    H      -15.20922        -2.56606         3.94675
| 86>    H      -15.52510        -5.76209         0.12911
| 87>    H      -10.14910        -2.86369         1.67520
| 88>    H       -7.76627        -7.43831        -2.48163
| 89>    H       -5.75189       -10.20630        -4.87795
| 90>    H       -7.39903        -9.75390        -2.38447
| 91>    H       -5.69047       -10.22342        -2.28774
| 92>    H       -7.66019       -11.69764        -3.84791
| 93>    H       -7.06410       -12.17241        -2.37946
| 94>    H       -7.35870        -8.46216        -5.80432
| 95>    H       -8.27646        -8.60690        -4.29510
| 96>    H       -7.76519       -10.81499        -6.13375
| 97>    H       -9.20709       -10.11497        -5.78813
| 98>    H       -3.62964        -9.96974        -5.47118
| 99>    H       -1.24479        -9.38294        -4.92012
|100>    H       -0.45756        -6.98710        -5.25955
|101>    H       -1.94324        -5.46729        -4.02669
|102>    H       -3.85849        -4.32795        -2.66167
|103>    H       -5.90211        -3.74021        -1.42265
|104>    H       -2.20357        -8.15694        -7.56936
|105>    H       -0.07638       -10.22437        -6.79830
|106>    H        1.90922       -11.04788       -12.14875
|107>    H        2.42851        -9.71433       -17.26302
|108>    H       -2.13055        -8.11878       -16.00000
|109> *
|110>
|111>                          ****END OF INPUT****

CARTESIAN COORDINATES (ANGSTROEM)
---------------------------------
  C    -14.130230   -3.612220    2.388020
  C    -15.251900   -3.258970    3.121770
  C    -16.480100   -3.822030    2.772060
  C    -17.638790   -3.475400    3.510860
  N    -18.570740   -3.190410    4.111410
  C    -16.590550   -4.727130    1.698550
  C    -17.850480   -5.282930    1.370640
  N    -18.861520   -5.742060    1.090650
  C    -15.459680   -5.073250    0.957580
  C    -14.251500   -4.513940    1.315310
  C    -12.927180   -4.723800    0.676530
  O    -12.716800   -5.378840   -0.312190
  C    -11.983960   -3.878260    1.460440
  C    -12.729260   -3.211850    2.513180
  C    -12.224570   -2.406610    3.499980
  C    -13.005470   -1.806690    4.512200
  N    -13.583690   -1.287100    5.356120
  C    -10.863800   -2.070300    3.671380
  N     -9.780930   -1.758600    3.890700
  C    -10.669680   -3.665750    1.168480
  C     -9.865980   -4.393500    0.261440
  S     -8.281390   -3.753730   -0.222230
  C     -8.099900   -5.244260   -1.119110
  N     -9.136760   -6.036550   -0.984430
  N    -10.084200   -5.574390   -0.241440
  C     -6.938990   -5.579940   -1.887770
  C     -6.908820   -6.789600   -2.550640
  C     -5.761480   -7.159490   -3.273300
  C     -5.456660   -8.309190   -3.995230
  C     -6.302750   -9.508760   -4.239420
  C     -6.583900  -10.263100   -2.921460
  N     -6.858990  -11.650800   -3.223600
  C     -7.607820   -9.142530   -4.971700
  N     -8.297130  -10.347840   -5.405960
  C     -4.096320   -8.156970   -4.457260
  C     -3.294140   -8.998220   -5.135700
  C     -1.878570   -8.648770   -5.442400
  C     -1.465630   -7.275650   -5.005470
  C     -2.285420   -6.443820   -4.336180
  C     -3.602710   -6.845810   -4.012770
  C     -4.620930   -6.248540   -3.297400
  C     -4.699020   -5.004520   -2.628500
  C     -5.825710   -4.682130   -1.945840
  C     -1.613990   -8.782650   -6.915930
  C     -0.679690   -9.586900   -7.430190
  C     -0.413960   -9.669650   -8.834500
  S      0.775660  -10.777830   -9.488380
  C      0.311380  -10.142410  -11.059470
  N     -0.607200   -9.220110  -10.968160
  N     -0.997660   -8.958660   -9.757260
  C      0.948070  -10.558840  -12.258600
  C      0.536210  -10.317470  -13.526600
  C      1.507920  -10.443140  -14.651840
  O      2.576510  -11.000960  -14.631930
  C      0.896250   -9.680530  -15.763630
  C      1.441500   -9.371210  -16.992220
  C      0.682870   -8.599150  -17.873440
  C     -0.600430   -8.153450  -17.499890
  C     -1.147770   -8.480570  -16.258390
  C     -0.394470   -9.252490  -15.389560
  C     -0.700320   -9.773810  -14.058440
  C     -1.951260   -9.936680  -13.535860
  C     -2.222950  -10.710210  -12.385440
  N     -2.506710  -11.401180  -11.514830
  C     -3.127430   -9.456320  -14.151020
  N     -4.105370   -9.077490  -14.615260
  C     -1.347160   -7.354350  -18.401720
  N     -1.954050   -6.705450  -19.123370
  C      1.207630   -8.256070  -19.143080
  N      1.649870   -7.987920  -20.164610
  H    -15.209220   -2.566060    3.946750
  H    -15.525100   -5.762090    0.129110
  H    -10.149100   -2.863690    1.675200
  H     -7.766270   -7.438310   -2.481630
  H     -5.751890  -10.206300   -4.877950
  H     -7.399030   -9.753900   -2.384470
  H     -5.690470  -10.223420   -2.287740
  H     -7.660190  -11.697640   -3.847910
  H     -7.064100  -12.172410   -2.379460
  H     -7.358700   -8.462160   -5.804320
  H     -8.276460   -8.606900   -4.295100
  H     -7.765190  -10.814990   -6.133750
  H     -9.207090  -10.114970   -5.788130
  H     -3.629640   -9.969740   -5.471180
  H     -1.244790   -9.382940   -4.920120
  H     -0.457560   -6.987100   -5.259550
  H     -1.943240   -5.467290   -4.026690
  H     -3.858490   -4.327950   -2.661670
  H     -5.902110   -3.740210   -1.422650
  H     -2.203570   -8.156940   -7.569360
  H     -0.076380  -10.224370   -6.798300
  H      1.909220  -11.047880  -12.148750
  H      2.428510   -9.714330  -17.263020
  H     -2.130550   -8.118780  -16.000000

 Total Charge           Charge          ....    0
 Multiplicity           Mult            ....    1
 Number of Electrons    NEL             ....  482
 Basis Dimension        Dim             .... 1108

ORBITAL ENERGIES
----------------

  NO   OCC          E(Eh)            E(eV)
   0   2.0000     -89.002749     -2421.8879
   1   2.0000     -88.989265     -2421.5210
   2   2.0000     -19.250702      -523.8382
   3   2.0000     -19.233759      -523.3772
   4   2.0000     -14.473431      -393.8421
   5   2.0000     -14.462827      -393.5535
   6   2.0000     -14.458994      -393.4492
   7   2.0000     -14.450582      -393.2203
   8   2.0000     -14.441020      -392.9601
   9   2.0000     -14.438242      -392.8845
  10   2.0000     -14.436768      -392.8444
  11   2.0000     -14.435352      -392.8059
  12   2.0000     -14.434692      -392.7879
  13   2.0000     -14.434421      -392.7806
  14   2.0000     -14.429155      -392.6373
  15   2.0000     -14.427738      -392.5987
  16   2.0000     -14.396350      -391.7446
  17   2.0000     -14.361839      -390.8055
  18   2.0000     -10.401395      -283.0364
  19   2.0000     -10.386765      -282.6382
  20   2.0000     -10.375615      -282.3348
  21   2.0000     -10.372535      -282.2510
  22   2.0000     -10.370816      -282.2043
  23   2.0000     -10.369312      -282.1633
  24   2.0000     -10.368699      -282.1466
  25   2.0000     -10.367832      -282.1231
  26   2.0000     -10.366944      -282.0989
  27   2.0000     -10.365080      -282.0482
  28   2.0000     -10.362081      -281.9666
  29   2.0000     -10.360602      -281.9263
  30   2.0000     -10.360243      -281.9166
  31   2.0000     -10.355893      -281.7982
  32   2.0000     -10.350643      -281.6553
  33   2.0000     -10.349842      -281.6335
  34   2.0000     -10.343676      -281.4657
  35   2.0000     -10.343095      -281.4499
  36   2.0000     -10.341847      -281.4160
  37   2.0000     -10.341129      -281.3964
  38   2.0000     -10.340952      -281.3916
  39   2.0000     -10.339507      -281.3523
  40   2.0000     -10.338456      -281.3237
  41   2.0000     -10.336685      -281.2755
  42   2.0000     -10.335089      -281.2321
  43   2.0000     -10.334901      -281.2270
  44   2.0000     -10.334142      -281.2063
  45   2.0000     -10.333780      -281.1964
  46   2.0000     -10.331099      -281.1235
  47   2.0000     -10.330412      -281.1048
  48   2.0000     -10.325576      -280.9732
  49   2.0000     -10.324993      -280.9573
  50   2.0000     -10.324609      -280.9469
  51   2.0000     -10.324079      -280.9325
  52   2.0000     -10.323397      -280.9139
  53   2.0000     -10.319607      -280.8108
  54   2.0000     -10.317826      -280.7623
  55   2.0000     -10.313817      -280.6532
  56   2.0000     -10.302726      -280.3514
  57   2.0000     -10.295780      -280.1624
  58   2.0000     -10.295216      -280.1471
  59   2.0000     -10.293671      -280.1050
  60   2.0000     -10.291096      -280.0350
  61   2.0000     -10.289792      -279.9995
  62   2.0000     -10.288904      -279.9753
  63   2.0000     -10.288821      -279.9731
  64   2.0000     -10.284902      -279.8664
  65   2.0000     -10.283728      -279.8345
  66   2.0000     -10.281627      -279.7773
  67   2.0000     -10.281610      -279.7768
  68   2.0000     -10.279967      -279.7321
  69   2.0000     -10.275408      -279.6081
  70   2.0000      -8.099072      -220.3870
  71   2.0000      -8.085252      -220.0109
  72   2.0000      -6.067637      -165.1088
  73   2.0000      -6.064294      -165.0178
  74   2.0000      -6.061609      -164.9448
  75   2.0000      -6.053822      -164.7329
  76   2.0000      -6.050519      -164.6430
  77   2.0000      -6.047786      -164.5686
  78   2.0000      -1.173450       -31.9312
  79   2.0000      -1.166527       -31.7428
  80   2.0000      -1.162594       -31.6358
  81   2.0000      -1.150373       -31.3032
  82   2.0000      -1.052007       -28.6266
  83   2.0000      -1.045250       -28.4427
  84   2.0000      -1.035427       -28.1754
  85   2.0000      -1.031766       -28.0758
  86   2.0000      -1.019713       -27.7478
  87   2.0000      -1.016424       -27.6583
  88   2.0000      -1.014849       -27.6155
  89   2.0000      -1.013746       -27.5854
  90   2.0000      -1.013039       -27.5662
  91   2.0000      -1.007626       -27.4189
  92   2.0000      -1.003098       -27.2957
  93   2.0000      -0.991010       -26.9668
  94   2.0000      -0.983378       -26.7591
  95   2.0000      -0.980653       -26.6849
  96   2.0000      -0.976392       -26.5690
  97   2.0000      -0.968799       -26.3623
  98   2.0000      -0.957206       -26.0469
  99   2.0000      -0.950975       -25.8773
 100   2.0000      -0.945126       -25.7182
 101   2.0000      -0.941205       -25.6115
 102   2.0000      -0.935202       -25.4481
 103   2.0000      -0.928937       -25.2777
 104   2.0000      -0.914106       -24.8741
 105   2.0000      -0.912354       -24.8264
 106   2.0000      -0.905949       -24.6521
 107   2.0000      -0.904936       -24.6246
 108   2.0000      -0.894763       -24.3477
 109   2.0000      -0.891699       -24.2644
 110   2.0000      -0.870844       -23.6969
 111   2.0000      -0.857051       -23.3215
 112   2.0000      -0.844671       -22.9847
 113   2.0000      -0.842913       -22.9368
 114   2.0000      -0.833751       -22.6875
 115   2.0000      -0.823096       -22.3976
 116   2.0000      -0.817997       -22.2588
 117   2.0000      -0.810631       -22.0584
 118   2.0000      -0.774503       -21.0753
 119   2.0000      -0.773191       -21.0396
 120   2.0000      -0.765832       -20.8393
 121   2.0000      -0.761129       -20.7114
 122   2.0000      -0.759402       -20.6644
 123   2.0000      -0.746781       -20.3210
 124   2.0000      -0.735850       -20.0235
 125   2.0000      -0.729639       -19.8545
 126   2.0000      -0.723816       -19.6960
 127   2.0000      -0.720264       -19.5994
 128   2.0000      -0.714849       -19.4520
 129   2.0000      -0.712059       -19.3761
 130   2.0000      -0.695171       -18.9166
 131   2.0000      -0.691809       -18.8251
 132   2.0000      -0.688029       -18.7222
 133   2.0000      -0.687237       -18.7007
 134   2.0000      -0.679529       -18.4909
 135   2.0000      -0.669392       -18.2151
 136   2.0000      -0.665339       -18.1048
 137   2.0000      -0.663753       -18.0616
 138   2.0000      -0.658252       -17.9119
 139   2.0000      -0.651797       -17.7363
 140   2.0000      -0.634609       -17.2686
 141   2.0000      -0.629474       -17.1289
 142   2.0000      -0.621707       -16.9175
 143   2.0000      -0.620529       -16.8855
 144   2.0000      -0.613417       -16.6919
 145   2.0000      -0.611601       -16.6425
 146   2.0000      -0.600285       -16.3346
 147   2.0000      -0.595095       -16.1934
 148   2.0000      -0.592140       -16.1130
 149   2.0000      -0.582294       -15.8450
 150   2.0000      -0.579270       -15.7627
 151   2.0000      -0.576524       -15.6880
 152   2.0000      -0.573889       -15.6163
 153   2.0000      -0.572779       -15.5861
 154   2.0000      -0.571175       -15.5425
 155   2.0000      -0.569367       -15.4933
 156   2.0000      -0.568282       -15.4637
 157   2.0000      -0.566459       -15.4141
 158   2.0000      -0.563866       -15.3436
 159   2.0000      -0.563263       -15.3272
 160   2.0000      -0.555948       -15.1281
 161   2.0000      -0.551160       -14.9978
 162   2.0000      -0.546265       -14.8646
 163   2.0000      -0.543317       -14.7844
 164   2.0000      -0.539343       -14.6763
 165   2.0000      -0.536037       -14.5863
 166   2.0000      -0.535313       -14.5666
 167   2.0000      -0.533270       -14.5110
 168   2.0000      -0.530993       -14.4490
 169   2.0000      -0.528376       -14.3779
 170   2.0000      -0.527415       -14.3517
 171   2.0000      -0.526174       -14.3179
 172   2.0000      -0.522229       -14.2106
 173   2.0000      -0.521274       -14.1846
 174   2.0000      -0.519408       -14.1338
 175   2.0000      -0.514905       -14.0113
 176   2.0000      -0.512582       -13.9481
 177   2.0000      -0.511749       -13.9254
 178   2.0000      -0.507197       -13.8015
 179   2.0000      -0.504226       -13.7207
 180   2.0000      -0.499197       -13.5838
 181   2.0000      -0.497685       -13.5427
 182   2.0000      -0.491541       -13.3755
 183   2.0000      -0.484779       -13.1915
 184   2.0000      -0.479730       -13.0541
 185   2.0000      -0.476313       -12.9611
 186   2.0000      -0.472663       -12.8618
 187   2.0000      -0.468231       -12.7412
 188   2.0000      -0.467673       -12.7260
 189   2.0000      -0.466838       -12.7033
 190   2.0000      -0.465257       -12.6603
 191   2.0000      -0.462436       -12.5835
 192   2.0000      -0.462170       -12.5763
 193   2.0000      -0.461797       -12.5661
 194   2.0000      -0.460055       -12.5187
 195   2.0000      -0.459968       -12.5164
 196   2.0000      -0.458971       -12.4892
 197   2.0000      -0.458006       -12.4630
 198   2.0000      -0.455614       -12.3979
 199   2.0000      -0.454644       -12.3715
 200   2.0000      -0.453075       -12.3288
 201   2.0000      -0.452108       -12.3025
 202   2.0000      -0.451041       -12.2734
 203   2.0000      -0.450354       -12.2548
 204   2.0000      -0.448969       -12.2171
 205   2.0000      -0.447446       -12.1756
 206   2.0000      -0.445626       -12.1261
 207   2.0000      -0.441053       -12.0017
 208   2.0000      -0.435979       -11.8636
 209   2.0000      -0.434380       -11.8201
 210   2.0000      -0.431850       -11.7512
 211   2.0000      -0.430392       -11.7116
 212   2.0000      -0.428276       -11.6540
 213   2.0000      -0.427164       -11.6237
 214   2.0000      -0.426780       -11.6133
 215   2.0000      -0.421486       -11.4692
 216   2.0000      -0.418417       -11.3857
 217   2.0000      -0.415647       -11.3103
 218   2.0000      -0.412720       -11.2307
 219   2.0000      -0.407933       -11.1004
 220   2.0000      -0.405167       -11.0251
 221   2.0000      -0.400196       -10.8899
 222   2.0000      -0.398364       -10.8400
 223   2.0000      -0.386900       -10.5281
 224   2.0000      -0.386471       -10.5164
 225   2.0000      -0.379020       -10.3137
 226   2.0000      -0.375438       -10.2162
 227   2.0000      -0.369573       -10.0566
 228   2.0000      -0.368730       -10.0337
 229   2.0000      -0.357824        -9.7369
 230   2.0000      -0.355750        -9.6804
 231   2.0000      -0.354619        -9.6497
 232   2.0000      -0.347240        -9.4489
 233   2.0000      -0.340880        -9.2758
 234   2.0000      -0.334224        -9.0947
 235   2.0000      -0.327061        -8.8998
 236   2.0000      -0.318746        -8.6735
 237   2.0000      -0.318002        -8.6533
 238   2.0000      -0.303602        -8.2614
 239   2.0000      -0.290986        -7.9181
 240   2.0000      -0.240720        -6.5503
 241   0.0000      -0.122823        -3.3422
 242   0.0000      -0.120227        -3.2715
 243   0.0000      -0.103774        -2.8238
 244   0.0000      -0.096856        -2.6356
 245   0.0000      -0.085927        -2.3382

MULLIKEN ATOMIC CHARGES
-----------------------
   0 C :    0.049657
   1 C :   -0.041683
   2 C :   -0.061327
   3 C :   -0.175478
   4 N :    0.203182
   5 C :   -0.063478
   6 C :   -0.174315
   7 N :    0.199365
   8 C :   -0.032340
   9 C :   -0.013302
  10 C :    0.148267
  11 O :   -0.081589
  12 C :   -0.074053
  13 C :    0.309800
  14 C :   -0.332784
  15 C :   -0.186992
  16 N :    0.172439
  17 C :   -0.191498
  18 N :    0.169930
  19 C :    0.054164
  20 C :   -0.134364
  21 S :    0.105397
  22 C :   -0.089242
  23 N :   -0.056224
  24 N :    0.024107
  25 C :    0.130628
  26 C :   -0.086980
  27 C :    0.053508
  28 C :   -0.005690
  29 C :   -0.064011
  30 C :    0.157469
  31 N :   -0.227262
  32 C :    0.135647
  33 N :   -0.217596
  34 C :    0.107486
  35 C :   -0.131570
  36 C :    0.125327
  37 C :   -0.044492
  38 C :    0.033096
  39 C :    0.012262
  40 C :    0.032006
  41 C :    0.000609
  42 C :   -0.022722
  43 C :   -0.018073
  44 C :    0.062176
  45 C :   -0.082806
  46 S :    0.138891
  47 C :   -0.119242
  48 N :   -0.048921
  49 N :   -0.039892
  50 C :    0.111019
  51 C :   -0.111508
  52 C :    0.143349
  53 O :   -0.117266
  54 C :    0.002371
  55 C :   -0.027655
  56 C :   -0.069263
  57 C :   -0.060003
  58 C :   -0.031136
  59 C :    0.035978
  60 C :    0.275781
  61 C :   -0.266222
  62 C :   -0.186180
  63 N :    0.174172
  64 C :   -0.189250
  65 N :    0.179541
  66 C :   -0.175305
  67 N :    0.205464
  68 C :   -0.173548
  69 N :    0.202340
  70 H :    0.021491
  71 H :    0.018952
  72 H :    0.022941
  73 H :    0.001200
  74 H :   -0.032365
  75 H :   -0.014931
  76 H :   -0.004572
  77 H :    0.083512
  78 H :    0.084315
  79 H :   -0.001103
  80 H :   -0.000239
  81 H :    0.103366
  82 H :    0.102232
  83 H :    0.008635
  84 H :    0.044122
  85 H :   -0.007266
  86 H :   -0.029902
  87 H :   -0.028856
  88 H :   -0.015197
  89 H :    0.042840
  90 H :   -0.004590
  91 H :    0.030135
  92 H :    0.019346
  93 H :    0.025768
Sum of atomic charges:   -0.0000000

LOEWDIN ATOMIC CHARGES
----------------------
   0 C :   -0.001146
   1 C :    0.034485
   2 C :   -0.024738
   3 C :   -0.031741
   4 N :   -0.011076
   5 C :   -0.026692
   6 C :   -0.031731
   7 N :   -0.012707
   8 C :    0.049160
   9 C :   -0.026713
  10 C :    0.075096
  11 O :   -0.089899
  12 C :   -0.075159
  13 C :    0.068030
  14 C :   -0.119751
  15 C :   -0.021575
  16 N :   -0.031527
  17 C :   -0.022344
  18 N :   -0.033756
  19 C :    0.043560
  20 C :   -0.172595
  21 S :    0.407945
  22 C :   -0.113482
  23 N :   -0.077514
  24 N :   -0.015333
  25 C :   -0.069875
  26 C :    0.040582
  27 C :   -0.026550
  28 C :   -0.002421
  29 C :   -0.042666
  30 C :    0.034007
  31 N :   -0.129858
  32 C :    0.028758
  33 N :   -0.098902
  34 C :   -0.015158
  35 C :    0.076238
  36 C :   -0.029706
  37 C :   -0.034615
  38 C :   -0.008132
  39 C :   -0.038878
  40 C :   -0.025622
  41 C :   -0.002143
  42 C :   -0.034293
  43 C :    0.057205
  44 C :   -0.075917
  45 C :   -0.125252
  46 S :    0.424068
  47 C :   -0.166595
  48 N :   -0.044575
  49 N :   -0.071066
  50 C :    0.039370
  51 C :   -0.060577
  52 C :    0.085516
  53 O :   -0.118233
  54 C :   -0.035245
  55 C :    0.052223
  56 C :   -0.028945
  57 C :   -0.019417
  58 C :    0.033656
  59 C :    0.008592
  60 C :    0.059475
  61 C :   -0.091505
  62 C :   -0.015841
  63 N :   -0.035303
  64 C :   -0.020378
  65 N :   -0.025654
  66 C :   -0.031491
  67 N :   -0.006911
  68 C :   -0.032821
  69 N :   -0.010749
  70 H :    0.052183
  71 H :    0.054833
  72 H :    0.047182
  73 H :    0.031602
  74 H :    0.021918
  75 H :    0.001063
  76 H :    0.015787
  77 H :    0.035418
  78 H :    0.050642
  79 H :    0.004382
  80 H :    0.019527
  81 H :    0.057763
  82 H :    0.060296
  83 H :    0.036165
  84 H :    0.061289
  85 H :    0.026865
  86 H :    0.032568
  87 H :    0.030822
  88 H :    0.020780
  89 H :    0.042453
  90 H :    0.032352
  91 H :    0.051891
  92 H :    0.055422
  93 H :    0.053600

  Mayer bond orders larger than 0.100000
B(  0-C ,  1-C ) :   1.3500 B(  0-C ,  9-C ) :   1.3383 B(  0-C , 13-C ) :   0.9619
B(  1-C ,  2-C ) :   1.3981 B(  1-C , 70-H ) :   0.9859 B(  2-C ,  3-C ) :   1.0868
B(  2-C ,  5-C ) :   1.4010 B(  3-C ,  4-N ) :   3.0440 B(  5-C ,  6-C ) :   1.0864
B(  5-C ,  8-C ) :   1.3636 B(  6-C ,  7-N ) :   3.0444 B(  8-C ,  9-C ) :   1.3672
B(  8-C , 71-H ) :   1.0150 B(  9-C , 10-C ) :   0.9110 B( 10-C , 11-O ) :   2.3059
B( 10-C , 12-C ) :   0.9165 B( 12-C , 13-C ) :   1.0785 B( 12-C , 19-C ) :   1.6390
B( 13-C , 14-C ) :   1.6531 B( 14-C , 15-C ) :   1.1462 B( 14-C , 17-C ) :   1.1413
B( 15-C , 16-N ) :   2.9618 B( 17-C , 18-N ) :   2.9755 B( 19-C , 20-C ) :   1.1617
B( 19-C , 72-H ) :   0.9177 B( 20-C , 21-S ) :   1.0574 B( 20-C , 24-N ) :   1.6221
B( 21-S , 22-C ) :   1.1436 B( 21-S , 24-N ) :   0.1104 B( 22-C , 23-N ) :   1.6255
B( 22-C , 25-C ) :   1.0587 B( 23-N , 24-N ) :   1.2767 B( 25-C , 26-C ) :   1.5361
B( 25-C , 42-C ) :   1.0918 B( 26-C , 27-C ) :   1.1091 B( 26-C , 73-H ) :   0.9916
B( 27-C , 28-C ) :   1.4517 B( 27-C , 40-C ) :   1.1163 B( 28-C , 29-C ) :   1.0295
B( 28-C , 34-C ) :   1.1172 B( 29-C , 30-C ) :   1.0215 B( 29-C , 32-C ) :   1.0387
B( 29-C , 74-H ) :   0.8788 B( 30-C , 31-N ) :   1.1104 B( 30-C , 75-H ) :   0.9262
B( 30-C , 76-H ) :   0.9459 B( 31-N , 77-H ) :   0.9410 B( 31-N , 78-H ) :   0.9665
B( 32-C , 33-N ) :   1.0858 B( 32-C , 79-H ) :   0.9481 B( 32-C , 80-H ) :   0.9338
B( 33-N , 77-H ) :   0.1030 B( 33-N , 81-H ) :   0.9637 B( 33-N , 82-H ) :   0.9662
B( 34-C , 35-C ) :   1.6462 B( 34-C , 39-C ) :   1.0413 B( 35-C , 36-C ) :   0.9590
B( 35-C , 83-H ) :   0.9790 B( 36-C , 37-C ) :   0.9815 B( 36-C , 43-C ) :   0.9520
B( 36-C , 84-H ) :   0.8653 B( 37-C , 38-C ) :   1.7092 B( 37-C , 85-H ) :   0.9744
B( 38-C , 39-C ) :   1.1347 B( 38-C , 86-H ) :   0.9885 B( 39-C , 40-C ) :   1.4459
B( 40-C , 41-C ) :   1.1435 B( 41-C , 42-C ) :   1.6314 B( 41-C , 87-H ) :   0.9909
B( 42-C , 88-H ) :   0.9785 B( 43-C , 44-C ) :   1.8119 B( 43-C , 89-H ) :   0.9696
B( 44-C , 45-C ) :   1.0720 B( 44-C , 90-H ) :   0.9495 B( 45-C , 46-S ) :   1.1264
B( 45-C , 49-N ) :   1.6691 B( 46-S , 47-C ) :   1.0909 B( 46-S , 48-N ) :   0.1079
B( 47-C , 48-N ) :   1.6134 B( 47-C , 50-C ) :   1.0863 B( 48-N , 49-N ) :   1.2618
B( 50-C , 51-C ) :   1.7219 B( 50-C , 91-H ) :   0.9332 B( 51-C , 52-C ) :   0.9334
B( 51-C , 60-C ) :   1.0179 B( 52-C , 53-O ) :   2.2928 B( 52-C , 54-C ) :   0.9001
B( 54-C , 55-C ) :   1.3659 B( 54-C , 59-C ) :   1.3334 B( 55-C , 56-C ) :   1.3714
B( 55-C , 92-H ) :   1.0140 B( 56-C , 57-C ) :   1.4006 B( 56-C , 68-C ) :   1.0886
B( 57-C , 58-C ) :   1.3913 B( 57-C , 66-C ) :   1.0868 B( 58-C , 59-C ) :   1.3590
B( 58-C , 93-H ) :   0.9896 B( 59-C , 60-C ) :   0.9796 B( 60-C , 61-C ) :   1.7178
B( 61-C , 62-C ) :   1.1517 B( 61-C , 64-C ) :   1.1366 B( 62-C , 63-N ) :   3.0068
B( 64-C , 65-N ) :   2.9836 B( 66-C , 67-N ) :   3.0438 B( 68-C , 69-N ) :   3.0452

-----------------------------------------------------------------------------
         ABSORPTION SPECTRUM VIA TRANSITION ELECTRIC DIPOLE MOMENTS
-----------------------------------------------------------------------------
State   Energy  Wavelength   fosc         T2         TX        TY        TZ
        (cm-1)    (nm)                  (au**2)     (au)      (au)      (au)
-----------------------------------------------------------------------------
   0   12480.2    801.3   0.191164114   5.04266  -1.01883   1.39186   1.43783
   1   15197.0    658.0   0.010737817   0.23261  -0.40598   0.12812  -0.22667
   2   16019.0    624.3   0.422179713   8.67638   2.33499  -0.53032  -1.71550
   3   20609.7    485.2   0.085935548   1.37271  -0.99516   0.24532   0.56761
   4   21039.9    475.3   0.032629185   0.51055  -0.18426   0.32505   0.60905
   5   21157.5    472.6   0.024277135   0.37775  -0.42237   0.09095   0.43713
   6   23243.3    430.2   0.045444864   0.64367   0.37756  -0.63087  -0.32112
   7   23955.7    417.4   0.820148876  11.27091  -1.56456   1.25883   2.69043
   8   24201.0    413.2   0.183988801   2.50284  -1.45274   0.61020   0.14157
   9   25389.0    393.9   0.183029288   2.37329   0.18677   0.20844   1.51491
  10   26500.4    377.4   0.054054055   0.67151   0.38224  -0.38658  -0.61315
  11   26815.5    372.9   0.047432355   0.58232   0.68344  -0.01274  -0.33922
  12   27275.7    366.6   0.002076566   0.02506  -0.00319   0.01541  -0.15753
  13   27996.3    357.2   0.239712576   2.81881   1.30544  -0.57679  -0.88428
  14   28074.2    356.2   0.012253440   0.14369   0.36461   0.04573   0.09306
  15   28224.5    354.3   0.000632866   0.00738  -0.02917  -0.06646   0.04598
  16   28924.9    345.7   0.005870586   0.06682   0.00030   0.10009   0.23833
  17   29090.9    343.8   0.002917884   0.03302  -0.06921  -0.16754  -0.01272
  18   29700.8    336.7   0.038126241   0.42260  -0.40671   0.25127   0.44051
  19   29933.4    334.1   0.153844351   1.69200   0.61359  -0.31978  -1.10147
  20   30788.0    324.8   0.181277483   1.93838  -1.33432   0.06130   0.39269
  21   30969.2    322.9   0.321380782   3.41637  -1.84018  -0.08815   0.14943
  22   31577.4    316.7   0.540645253   5.63652   0.88839  -0.16595  -2.19539
  23   32024.2    312.3   0.113315249   1.16489  -0.38082   0.96063   0.31155
  24   32097.7    311.5   0.044476077   0.45617   0.61325   0.17444  -0.22285
  25   32448.3    308.2   0.002856645   0.02898   0.06320   0.05041  -0.14982
  26   32954.5    303.4   0.005186637   0.05181  -0.07150   0.02337   0.21484
  27   33006.4    303.0   0.000762814   0.00761   0.01297   0.08625  -0.00129
  28   33183.0    301.4   0.022140634   0.21966  -0.03335  -0.34473  -0.31577
  29   33225.2    301.0   0.032683340   0.32384  -0.08438  -0.53895  -0.16203
  30   33893.3    295.0   0.062126664   0.60345  -0.34577   0.28863   0.63291
  31   34163.2    292.7   0.001068342   0.01030   0.06184   0.00909  -0.07993
  32   34329.8    291.3   0.203483767   1.95134  -0.90553  -0.29489   1.02196
  33   34771.5    287.6   0.005744107   0.05438  -0.06703  -0.20095  -0.09751
  34   35054.4    285.3   0.247953278   2.32864  -1.35500  -0.66236  -0.23214
  35   35539.9    281.4   0.209190292   1.93776  -1.11111  -0.70757  -0.45006
  36   35591.9    281.0   0.040255718   0.37235  -0.38219  -0.00207   0.47569
  37   35826.8    279.1   0.272088395   2.50022  -1.54217   0.06146   0.34373
  38   36418.6    274.6   0.176329201   1.59396   0.26684   0.85522   0.88958
  39   36446.2    274.4   0.072406350   0.65403  -0.09746  -0.47935  -0.64401
  40   36812.0    271.7   0.179612959   1.60629   0.49998   0.39425  -1.09584
  41   36965.4    270.5   0.140123113   1.24793   0.85018   0.15806  -0.70721
  42   37165.9    269.1   0.006534612   0.05788   0.00013   0.21594   0.10608
  43   37315.2    268.0   0.040315709   0.35568   0.58505  -0.06704   0.09439
  44   37972.1    263.4   0.064213447   0.55672   0.43996  -0.29386   0.52612
  45   38221.3    261.6   0.000163162   0.00141  -0.01364   0.02398   0.02538
  46   38405.9    260.4   0.027852183   0.23875   0.48189  -0.06094  -0.05303
  47   38825.8    257.6   0.005375489   0.04558  -0.06744   0.04693  -0.19705
  48   38852.7    257.4   0.116728893   0.98908  -0.03086   0.20576  -0.97252
  49   39239.7    254.8   0.054393792   0.45635  -0.29172  -0.40247  -0.45746
  50   39453.2    253.5   0.039201439   0.32711  -0.54185   0.15431   0.09846
  51   39578.5    252.7   0.035589261   0.29603  -0.22934   0.16455   0.46514
  52   39709.3    251.8   0.001304561   0.01082   0.03717  -0.08788  -0.04137
  53   40051.9    249.7   0.050338052   0.41376   0.09953  -0.40727  -0.48784
  54   40141.6    249.1   0.005468218   0.04485  -0.07202   0.11152   0.16499

FINAL SINGLE POINT ENERGY     -3705.115724203582

DIPOLE MOMENT
-------------
                                X             Y             Z
Electronic contribution:     -8.79942      24.41867     -16.46711
Nuclear contribution   :     13.84805     -26.00404      16.51920
                        -----------------------------------------
Total Dipole Moment    :      5.04863      -1.58537       0.05208
                        -----------------------------------------
Magnitude (a.u.)       :      5.29195
Magnitude (Debye)      :     13.45107

Rotational constants in cm-1:     0.002030     0.000199     0.000192
Rotational constants in MHz :    60.844933     5.959153     5.759320

                             ****ORCA TERMINATED NORMALLY****
TOTAL RUN TIME: 0 days 0 hours 8 minutes 53 seconds 711 msec
