                         Program Version 4.2.0 -  RELEASE  -
|  1> # ORCA input file
|  2> # SCF done       -189.838331457692          0.000591749969
|  3> ! CAM-B3LYP def2-SVP def2/J RIJCOSX Grid4 TightSCF
|  4> %maxcore 5000
|  5> %tddft
|  6>     Mode sTDDFT
|  7>     Ethresh 5.0
|  8>     maxcore 5000
|  9> end
| 10>
| 11> %pal
| 12>   nprocs 6
| 13>   end
| 14> * xyz 0 1
| 15>    C       -2.90633        -3.05452       -16.38127
| 16>    O       -1.73466        -3.11232       -16.69398
| 17>    C       -4.03181        -2.76514       -17.26535
| 18>    C       -5.23580        -2.77795       -16.57836
| 19>    C       -6.33758        -2.50162       -17.41207
| 20>    C       -5.93426        -2.29005       -18.69707
| 21>    S       -4.22943        -2.41809       -18.92648
| 22>    C       -4.97311        -3.07851       -15.18404
| 23>    C       -5.95083        -3.15692       -14.22550
| 24>    C       -7.31025        -2.94952       -14.54256
| 25>    N       -8.42319        -2.78574       -14.77009
| 26>    C       -5.78083        -3.43495       -12.85490
| 27>    N       -5.74085        -3.65113       -11.72708
| 28>    C       -3.53344        -3.25751       -15.04671
| 29>    C       -2.93398        -3.57016       -13.85514
| 30>    C       -1.58910        -3.77707       -13.50156
| 31>    S       -1.27864        -4.18772       -11.82019
| 32>    C        0.42524        -4.27822       -12.10597
| 33>    C        0.71976        -4.00051       -13.43450
| 34>    C       -0.39445        -3.72387       -14.20753
| 35>    C        1.33564        -4.60452       -11.07335
| 36>    C        1.06323        -4.90314        -9.75221
| 37>    C        2.19820        -5.19158        -9.00232
| 38>    C        3.37257        -5.11922        -9.73086
| 39>    S        3.04985        -4.68176       -11.38166
| 40>    C        4.69528        -5.36284        -9.28079
| 41>    S        6.06407        -5.17208       -10.33765
| 42>    C        7.17197        -5.65827        -9.08478
| 43>    C        6.48281        -5.94127        -7.91850
| 44>    C        5.10621        -5.77521        -8.02641
| 45>    C        8.56067        -5.71818        -9.36944
| 46>    C        9.51038        -6.16119        -8.50895
| 47>    C       10.89772        -6.23152        -8.79247
| 48>    N       11.77549        -6.76874        -7.86972
| 49>    C       13.03047        -6.72687        -8.38660
| 50>    C       14.36121        -7.04430        -8.13544
| 51>    C       15.07695        -6.63954        -9.26814
| 52>    N       14.20242        -6.08884       -10.18584
| 53>    C       12.94530        -6.13549        -9.67220
| 54>    C       11.61235        -5.82851        -9.92692
| 55>    C       16.46625        -6.71814        -9.54335
| 56>    C       17.38182        -7.28871        -8.72208
| 57>    C       18.77668        -7.36009        -8.97106
| 58>    S       19.79893        -8.19008        -7.83050
| 59>    C       21.22305        -7.84064        -8.76555
| 60>    C       20.89395        -7.11798        -9.89749
| 61>    C       19.53290        -6.85310       -10.01275
| 62>    C       22.50680        -8.27280        -8.34332
| 63>    C       23.73236        -7.99804        -8.92270
| 64>    C       24.80579        -8.57095        -8.24827
| 65>    C       24.43190        -9.30416        -7.13711
| 66>    S       22.70259        -9.27108        -6.93442
| 67>    C       25.26583       -10.01143        -6.23517
| 68>    S       24.60544       -10.97428        -4.95427
| 69>    C       26.19866       -11.43365        -4.40566
| 70>    C       27.17062       -10.83857        -5.19826
| 71>    C       26.65321       -10.05168        -6.21538
| 72>    C       26.34052       -12.28156        -3.28850
| 73>    C       27.53004       -12.75743        -2.81998
| 74>    C       27.60694       -13.56567        -1.67303
| 75>    C       28.71064       -14.05965        -1.03513
| 76>    C       28.50028       -15.13524        -0.01922
| 77>    O       27.43883       -15.50322         0.43330
| 78>    C       29.84326       -15.63622         0.25081
| 79>    C       30.79503       -14.90855        -0.45062
| 80>    C       30.13434       -13.84356        -1.19196
| 81>    C       30.81634       -12.79528        -1.75779
| 82>    C       32.22733       -12.75842        -1.77787
| 83>    N       33.37272       -12.70043        -1.82691
| 84>    C       30.28056       -11.61513        -2.30613
| 85>    N       29.94934       -10.60796        -2.74898
| 86>    C       32.10548       -15.37142        -0.22101
| 87>    C       32.10548       -16.43142         0.63666
| 88>    S       30.53635       -16.88392         1.19052
| 89>    H       -7.36271        -2.45978       -17.09489
| 90>    H       -6.55388        -2.06084       -19.54189
| 91>    H       -3.60874        -3.68468       -13.01446
| 92>    H        1.72887        -4.00691       -13.80781
| 93>    H       -0.35892        -3.48965       -15.25524
| 94>    H        0.06146        -4.90867        -9.36000
| 95>    H        2.17349        -5.44475        -7.95841
| 96>    H        6.96763        -6.25564        -7.01224
| 97>    H        4.42032        -5.95324        -7.21806
| 98>    H        8.85434        -5.39434       -10.35730
| 99>    H        9.21230        -6.50508        -7.52706
|100>    H       11.50519        -7.13790        -6.97463
|101>    H       14.77570        -7.49979        -7.25961
|102>    H       14.47244        -5.72835       -11.08457
|103>    H       11.19594        -5.37203       -10.80149
|104>    H       16.79061        -6.28754       -10.48160
|105>    H       17.04881        -7.73493        -7.79628
|106>    H       21.62556        -6.79821       -10.61737
|107>    H       19.10798        -6.30090       -10.83124
|108>    H       23.83892        -7.39356        -9.80475
|109>    H       25.82888        -8.46093        -8.55849
|110>    H       28.22324       -10.95576        -5.01561
|111>    H       27.25994        -9.51095        -6.91840
|112>    H       25.43003       -12.55086        -2.76781
|113>    H       28.43555       -12.51584        -3.35041
|114>    H       26.66516       -13.90028        -1.24788
|115>    H       32.99622       -14.96187        -0.65939
|116>    H       32.95666       -16.98266         0.98574
|117> *
|118>
|119>                          ****END OF INPUT****

CARTESIAN COORDINATES (ANGSTROEM)
---------------------------------
  C     -2.906330   -3.054520  -16.381270
  O     -1.734660   -3.112320  -16.693980
  C     -4.031810   -2.765140  -17.265350
  C     -5.235800   -2.777950  -16.578360
  C     -6.337580   -2.501620  -17.412070
  C     -5.934260   -2.290050  -18.697070
  S     -4.229430   -2.418090  -18.926480
  C     -4.973110   -3.078510  -15.184040
  C     -5.950830   -3.156920  -14.225500
  C     -7.310250   -2.949520  -14.542560
  N     -8.423190   -2.785740  -14.770090
  C     -5.780830   -3.434950  -12.854900
  N     -5.740850   -3.651130  -11.727080
  C     -3.533440   -3.257510  -15.046710
  C     -2.933980   -3.570160  -13.855140
  C     -1.589100   -3.777070  -13.501560
  S     -1.278640   -4.187720  -11.820190
  C      0.425240   -4.278220  -12.105970
  C      0.719760   -4.000510  -13.434500
  C     -0.394450   -3.723870  -14.207530
  C      1.335640   -4.604520  -11.073350
  C      1.063230   -4.903140   -9.752210
  C      2.198200   -5.191580   -9.002320
  C      3.372570   -5.119220   -9.730860
  S      3.049850   -4.681760  -11.381660
  C      4.695280   -5.362840   -9.280790
  S      6.064070   -5.172080  -10.337650
  C      7.171970   -5.658270   -9.084780
  C      6.482810   -5.941270   -7.918500
  C      5.106210   -5.775210   -8.026410
  C      8.560670   -5.718180   -9.369440
  C      9.510380   -6.161190   -8.508950
  C     10.897720   -6.231520   -8.792470
  N     11.775490   -6.768740   -7.869720
  C     13.030470   -6.726870   -8.386600
  C     14.361210   -7.044300   -8.135440
  C     15.076950   -6.639540   -9.268140
  N     14.202420   -6.088840  -10.185840
  C     12.945300   -6.135490   -9.672200
  C     11.612350   -5.828510   -9.926920
  C     16.466250   -6.718140   -9.543350
  C     17.381820   -7.288710   -8.722080
  C     18.776680   -7.360090   -8.971060
  S     19.798930   -8.190080   -7.830500
  C     21.223050   -7.840640   -8.765550
  C     20.893950   -7.117980   -9.897490
  C     19.532900   -6.853100  -10.012750
  C     22.506800   -8.272800   -8.343320
  C     23.732360   -7.998040   -8.922700
  C     24.805790   -8.570950   -8.248270
  C     24.431900   -9.304160   -7.137110
  S     22.702590   -9.271080   -6.934420
  C     25.265830  -10.011430   -6.235170
  S     24.605440  -10.974280   -4.954270
  C     26.198660  -11.433650   -4.405660
  C     27.170620  -10.838570   -5.198260
  C     26.653210  -10.051680   -6.215380
  C     26.340520  -12.281560   -3.288500
  C     27.530040  -12.757430   -2.819980
  C     27.606940  -13.565670   -1.673030
  C     28.710640  -14.059650   -1.035130
  C     28.500280  -15.135240   -0.019220
  O     27.438830  -15.503220    0.433300
  C     29.843260  -15.636220    0.250810
  C     30.795030  -14.908550   -0.450620
  C     30.134340  -13.843560   -1.191960
  C     30.816340  -12.795280   -1.757790
  C     32.227330  -12.758420   -1.777870
  N     33.372720  -12.700430   -1.826910
  C     30.280560  -11.615130   -2.306130
  N     29.949340  -10.607960   -2.748980
  C     32.105480  -15.371420   -0.221010
  C     32.105480  -16.431420    0.636660
  S     30.536350  -16.883920    1.190520
  H     -7.362710   -2.459780  -17.094890
  H     -6.553880   -2.060840  -19.541890
  H     -3.608740   -3.684680  -13.014460
  H      1.728870   -4.006910  -13.807810
  H     -0.358920   -3.489650  -15.255240
  H      0.061460   -4.908670   -9.360000
  H      2.173490   -5.444750   -7.958410
  H      6.967630   -6.255640   -7.012240
  H      4.420320   -5.953240   -7.218060
  H      8.854340   -5.394340  -10.357300
  H      9.212300   -6.505080   -7.527060
  H     11.505190   -7.137900   -6.974630
  H     14.775700   -7.499790   -7.259610
  H     14.472440   -5.728350  -11.084570
  H     11.195940   -5.372030  -10.801490
  H     16.790610   -6.287540  -10.481600
  H     17.048810   -7.734930   -7.796280
  H     21.625560   -6.798210  -10.617370
  H     19.107980   -6.300900  -10.831240
  H     23.838920   -7.393560   -9.804750
  H     25.828880   -8.460930   -8.558490
  H     28.223240  -10.955760   -5.015610
  H     27.259940   -9.510950   -6.918400
  H     25.430030  -12.550860   -2.767810
  H     28.435550  -12.515840   -3.350410
  H     26.665160  -13.900280   -1.247880
  H     32.996220  -14.961870   -0.659390
  H     32.956660  -16.982660    0.985740

 Total Charge           Charge          ....    0
 Multiplicity           Mult            ....    1
 Number of Electrons    NEL             ....  562
 Basis Dimension        Dim             .... 1208

ORBITAL ENERGIES
----------------

  NO   OCC          E(Eh)            E(eV)
   0   2.0000     -88.982552     -2421.3383
   1   2.0000     -88.981181     -2421.3010
   2   2.0000     -88.965309     -2420.8691
   3   2.0000     -88.964768     -2420.8544
   4   2.0000     -88.964105     -2420.8364
   5   2.0000     -88.963226     -2420.8125
   6   2.0000     -88.958175     -2420.6750
   7   2.0000     -88.957160     -2420.6474
   8   2.0000     -19.215196      -522.8721
   9   2.0000     -19.208017      -522.6767
  10   2.0000     -14.457489      -393.4083
  11   2.0000     -14.457391      -393.4056
  12   2.0000     -14.413891      -392.2219
  13   2.0000     -14.413105      -392.2005
  14   2.0000     -14.409761      -392.1095
  15   2.0000     -14.409019      -392.0893
  16   2.0000     -10.373646      -282.2813
  17   2.0000     -10.365339      -282.0552
  18   2.0000     -10.340673      -281.3840
  19   2.0000     -10.339530      -281.3529
  20   2.0000     -10.338706      -281.3305
  21   2.0000     -10.337787      -281.3055
  22   2.0000     -10.324747      -280.9506
  23   2.0000     -10.321310      -280.8571
  24   2.0000     -10.317401      -280.7508
  25   2.0000     -10.316787      -280.7340
  26   2.0000     -10.316753      -280.7331
  27   2.0000     -10.316637      -280.7300
  28   2.0000     -10.315770      -280.7064
  29   2.0000     -10.314780      -280.6794
  30   2.0000     -10.314661      -280.6762
  31   2.0000     -10.312890      -280.6280
  32   2.0000     -10.312281      -280.6114
  33   2.0000     -10.311464      -280.5892
  34   2.0000     -10.311265      -280.5838
  35   2.0000     -10.308892      -280.5192
  36   2.0000     -10.308167      -280.4995
  37   2.0000     -10.307619      -280.4846
  38   2.0000     -10.307583      -280.4836
  39   2.0000     -10.307335      -280.4768
  40   2.0000     -10.306976      -280.4671
  41   2.0000     -10.306640      -280.4579
  42   2.0000     -10.305686      -280.4320
  43   2.0000     -10.305211      -280.4190
  44   2.0000     -10.305075      -280.4153
  45   2.0000     -10.304903      -280.4107
  46   2.0000     -10.304340      -280.3954
  47   2.0000     -10.304055      -280.3876
  48   2.0000     -10.303857      -280.3822
  49   2.0000     -10.294267      -280.1212
  50   2.0000     -10.292856      -280.0829
  51   2.0000     -10.292003      -280.0596
  52   2.0000     -10.291685      -280.0510
  53   2.0000     -10.291538      -280.0470
  54   2.0000     -10.287282      -279.9312
  55   2.0000     -10.286132      -279.8999
  56   2.0000     -10.285759      -279.8897
  57   2.0000     -10.285594      -279.8852
  58   2.0000     -10.284907      -279.8666
  59   2.0000     -10.283958      -279.8407
  60   2.0000     -10.282035      -279.7884
  61   2.0000     -10.281661      -279.7782
  62   2.0000     -10.281047      -279.7615
  63   2.0000     -10.280779      -279.7542
  64   2.0000     -10.280723      -279.7527
  65   2.0000     -10.280542      -279.7478
  66   2.0000     -10.280320      -279.7417
  67   2.0000     -10.280274      -279.7405
  68   2.0000     -10.279366      -279.7158
  69   2.0000     -10.278984      -279.7054
  70   2.0000     -10.274620      -279.5866
  71   2.0000     -10.274181      -279.5747
  72   2.0000     -10.263358      -279.2802
  73   2.0000     -10.262567      -279.2587
  74   2.0000      -8.077577      -219.8020
  75   2.0000      -8.076181      -219.7641
  76   2.0000      -8.061171      -219.3556
  77   2.0000      -8.060381      -219.3341
  78   2.0000      -8.059776      -219.3176
  79   2.0000      -8.059099      -219.2992
  80   2.0000      -8.054172      -219.1652
  81   2.0000      -8.053110      -219.1363
  82   2.0000      -6.046732      -164.5399
  83   2.0000      -6.045353      -164.5024
  84   2.0000      -6.042308      -164.4196
  85   2.0000      -6.040911      -164.3815
  86   2.0000      -6.040315      -164.3653
  87   2.0000      -6.038936      -164.3278
  88   2.0000      -6.030378      -164.0949
  89   2.0000      -6.029760      -164.0781
  90   2.0000      -6.029006      -164.0576
  91   2.0000      -6.028449      -164.0424
  92   2.0000      -6.026344      -163.9852
  93   2.0000      -6.025616      -163.9653
  94   2.0000      -6.024966      -163.9477
  95   2.0000      -6.024317      -163.9300
  96   2.0000      -6.023413      -163.9054
  97   2.0000      -6.023323      -163.9029
  98   2.0000      -6.022366      -163.8769
  99   2.0000      -6.022320      -163.8757
 100   2.0000      -6.021848      -163.8628
 101   2.0000      -6.021044      -163.8409
 102   2.0000      -6.019380      -163.7957
 103   2.0000      -6.018314      -163.7667
 104   2.0000      -6.016231      -163.7100
 105   2.0000      -6.015180      -163.6814
 106   2.0000      -1.131220       -30.7821
 107   2.0000      -1.124173       -30.5903
 108   2.0000      -1.088748       -29.6263
 109   2.0000      -1.052615       -28.6431
 110   2.0000      -1.021754       -27.8033
 111   2.0000      -1.020143       -27.7595
 112   2.0000      -1.005873       -27.3712
 113   2.0000      -1.005207       -27.3531
 114   2.0000      -1.004625       -27.3372
 115   2.0000      -1.004232       -27.3265
 116   2.0000      -0.991297       -26.9746
 117   2.0000      -0.990827       -26.9618
 118   2.0000      -0.989739       -26.9322
 119   2.0000      -0.989659       -26.9300
 120   2.0000      -0.974083       -26.5061
 121   2.0000      -0.973094       -26.4792
 122   2.0000      -0.957691       -26.0601
 123   2.0000      -0.956817       -26.0363
 124   2.0000      -0.919137       -25.0110
 125   2.0000      -0.906844       -24.6765
 126   2.0000      -0.904080       -24.6013
 127   2.0000      -0.900200       -24.4957
 128   2.0000      -0.895017       -24.3546
 129   2.0000      -0.888938       -24.1892
 130   2.0000      -0.877572       -23.8800
 131   2.0000      -0.869530       -23.6611
 132   2.0000      -0.863944       -23.5091
 133   2.0000      -0.858849       -23.3705
 134   2.0000      -0.851129       -23.1604
 135   2.0000      -0.849862       -23.1259
 136   2.0000      -0.849311       -23.1109
 137   2.0000      -0.846760       -23.0415
 138   2.0000      -0.845691       -23.0124
 139   2.0000      -0.838059       -22.8047
 140   2.0000      -0.836422       -22.7602
 141   2.0000      -0.830865       -22.6090
 142   2.0000      -0.825281       -22.4570
 143   2.0000      -0.819687       -22.3048
 144   2.0000      -0.814364       -22.1600
 145   2.0000      -0.796356       -21.6699
 146   2.0000      -0.784817       -21.3560
 147   2.0000      -0.768891       -20.9226
 148   2.0000      -0.763712       -20.7817
 149   2.0000      -0.759720       -20.6730
 150   2.0000      -0.753532       -20.5046
 151   2.0000      -0.744058       -20.2468
 152   2.0000      -0.734145       -19.9771
 153   2.0000      -0.707666       -19.2566
 154   2.0000      -0.700745       -19.0682
 155   2.0000      -0.695779       -18.9331
 156   2.0000      -0.693725       -18.8772
 157   2.0000      -0.692306       -18.8386
 158   2.0000      -0.683893       -18.6097
 159   2.0000      -0.682712       -18.5775
 160   2.0000      -0.680140       -18.5076
 161   2.0000      -0.678732       -18.4692
 162   2.0000      -0.675357       -18.3774
 163   2.0000      -0.669590       -18.2205
 164   2.0000      -0.661058       -17.9883
 165   2.0000      -0.659525       -17.9466
 166   2.0000      -0.651429       -17.7263
 167   2.0000      -0.638643       -17.3784
 168   2.0000      -0.635707       -17.2985
 169   2.0000      -0.631445       -17.1825
 170   2.0000      -0.628974       -17.1153
 171   2.0000      -0.625686       -17.0258
 172   2.0000      -0.622320       -16.9342
 173   2.0000      -0.619912       -16.8687
 174   2.0000      -0.617463       -16.8020
 175   2.0000      -0.616575       -16.7779
 176   2.0000      -0.615804       -16.7569
 177   2.0000      -0.604794       -16.4573
 178   2.0000      -0.602442       -16.3933
 179   2.0000      -0.600174       -16.3316
 180   2.0000      -0.592438       -16.1211
 181   2.0000      -0.590250       -16.0615
 182   2.0000      -0.585704       -15.9378
 183   2.0000      -0.576977       -15.7003
 184   2.0000      -0.572074       -15.5669
 185   2.0000      -0.567621       -15.4457
 186   2.0000      -0.555739       -15.1224
 187   2.0000      -0.554324       -15.0839
 188   2.0000      -0.550000       -14.9663
 189   2.0000      -0.547854       -14.9079
 190   2.0000      -0.539072       -14.6689
 191   2.0000      -0.537983       -14.6393
 192   2.0000      -0.534336       -14.5400
 193   2.0000      -0.533858       -14.5270
 194   2.0000      -0.530262       -14.4292
 195   2.0000      -0.527498       -14.3539
 196   2.0000      -0.524596       -14.2750
 197   2.0000      -0.521657       -14.1950
 198   2.0000      -0.520383       -14.1603
 199   2.0000      -0.517438       -14.0802
 200   2.0000      -0.511557       -13.9202
 201   2.0000      -0.510179       -13.8827
 202   2.0000      -0.508078       -13.8255
 203   2.0000      -0.506888       -13.7931
 204   2.0000      -0.506351       -13.7785
 205   2.0000      -0.501944       -13.6586
 206   2.0000      -0.499039       -13.5795
 207   2.0000      -0.497707       -13.5433
 208   2.0000      -0.496131       -13.5004
 209   2.0000      -0.494492       -13.4558
 210   2.0000      -0.493589       -13.4312
 211   2.0000      -0.492344       -13.3974
 212   2.0000      -0.489267       -13.3136
 213   2.0000      -0.488596       -13.2954
 214   2.0000      -0.487089       -13.2544
 215   2.0000      -0.484164       -13.1748
 216   2.0000      -0.480883       -13.0855
 217   2.0000      -0.478957       -13.0331
 218   2.0000      -0.475653       -12.9432
 219   2.0000      -0.475227       -12.9316
 220   2.0000      -0.472286       -12.8516
 221   2.0000      -0.471857       -12.8399
 222   2.0000      -0.469089       -12.7646
 223   2.0000      -0.468549       -12.7499
 224   2.0000      -0.465055       -12.6548
 225   2.0000      -0.461074       -12.5465
 226   2.0000      -0.459925       -12.5152
 227   2.0000      -0.458338       -12.4720
 228   2.0000      -0.456600       -12.4247
 229   2.0000      -0.452923       -12.3247
 230   2.0000      -0.449740       -12.2381
 231   2.0000      -0.448144       -12.1946
 232   2.0000      -0.447289       -12.1713
 233   2.0000      -0.446038       -12.1373
 234   2.0000      -0.443384       -12.0651
 235   2.0000      -0.443094       -12.0572
 236   2.0000      -0.441192       -12.0054
 237   2.0000      -0.438673       -11.9369
 238   2.0000      -0.437771       -11.9124
 239   2.0000      -0.436719       -11.8837
 240   2.0000      -0.435322       -11.8457
 241   2.0000      -0.434974       -11.8363
 242   2.0000      -0.433449       -11.7948
 243   2.0000      -0.430954       -11.7268
 244   2.0000      -0.424784       -11.5590
 245   2.0000      -0.424541       -11.5524
 246   2.0000      -0.423808       -11.5324
 247   2.0000      -0.423556       -11.5255
 248   2.0000      -0.420008       -11.4290
 249   2.0000      -0.419139       -11.4054
 250   2.0000      -0.419035       -11.4025
 251   2.0000      -0.409844       -11.1524
 252   2.0000      -0.407939       -11.1006
 253   2.0000      -0.406031       -11.0487
 254   2.0000      -0.405092       -11.0231
 255   2.0000      -0.404341       -11.0027
 256   2.0000      -0.401571       -10.9273
 257   2.0000      -0.391728       -10.6594
 258   2.0000      -0.380024       -10.3410
 259   2.0000      -0.366499        -9.9729
 260   2.0000      -0.353202        -9.6111
 261   2.0000      -0.341063        -9.2808
 262   2.0000      -0.339572        -9.2402
 263   2.0000      -0.338640        -9.2149
 264   2.0000      -0.337920        -9.1953
 265   2.0000      -0.336457        -9.1555
 266   2.0000      -0.335277        -9.1234
 267   2.0000      -0.331426        -9.0185
 268   2.0000      -0.330949        -9.0056
 269   2.0000      -0.330716        -8.9993
 270   2.0000      -0.324942        -8.8421
 271   2.0000      -0.323040        -8.7904
 272   2.0000      -0.318305        -8.6615
 273   2.0000      -0.308558        -8.3963
 274   2.0000      -0.305907        -8.3242
 275   2.0000      -0.294965        -8.0264
 276   2.0000      -0.288319        -7.8456
 277   2.0000      -0.277356        -7.5473
 278   2.0000      -0.253321        -6.8932
 279   2.0000      -0.237876        -6.4729
 280   2.0000      -0.207663        -5.6508
 281   0.0000      -0.087940        -2.3930
 282   0.0000      -0.084037        -2.2868
 283   0.0000      -0.067888        -1.8473
 284   0.0000      -0.065073        -1.7707
 285   0.0000      -0.052915        -1.4399

MULLIKEN ATOMIC CHARGES
-----------------------
   0 C :    0.140941
   1 O :   -0.158083
   2 C :   -0.169226
   3 C :    0.003278
   4 C :    0.022939
   5 C :   -0.060703
   6 S :    0.204892
   7 C :    0.309994
   8 C :   -0.351872
   9 C :   -0.191658
  10 N :    0.147768
  11 C :   -0.175146
  12 N :    0.148203
  13 C :   -0.109796
  14 C :    0.054040
  15 C :   -0.115705
  16 S :    0.139086
  17 C :   -0.016595
  18 C :   -0.022707
  19 C :    0.043782
  20 C :   -0.047843
  21 C :    0.003626
  22 C :   -0.003662
  23 C :   -0.021229
  24 S :    0.128550
  25 C :   -0.055428
  26 S :    0.121514
  27 C :   -0.062017
  28 C :    0.003087
  29 C :    0.005069
  30 C :    0.044157
  31 C :    0.009627
  32 C :    0.102916
  33 N :   -0.038841
  34 C :    0.114485
  35 C :   -0.177564
  36 C :    0.101244
  37 N :   -0.039006
  38 C :    0.114074
  39 C :   -0.176535
  40 C :    0.009522
  41 C :    0.045528
  42 C :   -0.063411
  43 S :    0.120637
  44 C :   -0.052364
  45 C :    0.002095
  46 C :    0.003790
  47 C :   -0.022158
  48 C :   -0.006783
  49 C :    0.006012
  50 C :   -0.040210
  51 S :    0.127553
  52 C :   -0.034333
  53 S :    0.137776
  54 C :   -0.096586
  55 C :    0.051097
  56 C :   -0.007384
  57 C :    0.080477
  58 C :   -0.001098
  59 C :    0.017801
  60 C :   -0.131352
  61 C :    0.113571
  62 O :   -0.147267
  63 C :   -0.157220
  64 C :   -0.020203
  65 C :    0.317402
  66 C :   -0.343682
  67 C :   -0.190384
  68 N :    0.141061
  69 C :   -0.201113
  70 N :    0.164780
  71 C :    0.032717
  72 C :   -0.063918
  73 S :    0.203617
  74 H :    0.016680
  75 H :    0.040801
  76 H :   -0.002003
  77 H :   -0.006067
  78 H :    0.016510
  79 H :   -0.003843
  80 H :   -0.016437
  81 H :   -0.024440
  82 H :   -0.020042
  83 H :   -0.022208
  84 H :   -0.035152
  85 H :    0.118922
  86 H :   -0.037082
  87 H :    0.118817
  88 H :   -0.037475
  89 H :   -0.035013
  90 H :   -0.021918
  91 H :   -0.021260
  92 H :   -0.024814
  93 H :   -0.018719
  94 H :   -0.015951
  95 H :    0.001786
  96 H :   -0.013119
  97 H :   -0.001582
  98 H :    0.011457
  99 H :    0.010875
 100 H :    0.015846
 101 H :    0.039799
Sum of atomic charges:   -0.0000000

LOEWDIN ATOMIC CHARGES
----------------------
   0 C :    0.071535
   1 O :   -0.146714
   2 C :   -0.207893
   3 C :   -0.042342
   4 C :   -0.044555
   5 C :   -0.153306
   6 S :    0.497771
   7 C :    0.078989
   8 C :   -0.144473
   9 C :   -0.015969
  10 N :   -0.058454
  11 C :   -0.024616
  12 N :   -0.051872
  13 C :   -0.104876
  14 C :    0.042883
  15 C :   -0.188045
  16 S :    0.451067
  17 C :   -0.152385
  18 C :   -0.071114
  19 C :   -0.000264
  20 C :   -0.197932
  21 C :   -0.039941
  22 C :   -0.059071
  23 C :   -0.167674
  24 S :    0.435224
  25 C :   -0.199050
  26 S :    0.425441
  27 C :   -0.158626
  28 C :   -0.064521
  29 C :   -0.043527
  30 C :   -0.053969
  31 C :   -0.024432
  32 C :   -0.005202
  33 N :    0.068543
  34 C :   -0.020555
  35 C :   -0.094966
  36 C :   -0.003545
  37 N :    0.067963
  38 C :   -0.021288
  39 C :   -0.093604
  40 C :   -0.026803
  41 C :   -0.051786
  42 C :   -0.160959
  43 S :    0.425492
  44 C :   -0.196732
  45 C :   -0.046466
  46 C :   -0.063379
  47 C :   -0.172395
  48 C :   -0.058902
  49 C :   -0.040033
  50 C :   -0.196006
  51 S :    0.425390
  52 C :   -0.164328
  53 S :    0.437046
  54 C :   -0.189147
  55 C :   -0.012594
  56 C :   -0.055199
  57 C :    0.020519
  58 C :   -0.045122
  59 C :    0.064177
  60 C :   -0.107338
  61 C :    0.064658
  62 O :   -0.149212
  63 C :   -0.210927
  64 C :   -0.039121
  65 C :    0.075391
  66 C :   -0.145649
  67 C :   -0.016648
  68 N :   -0.058681
  69 C :   -0.020281
  70 N :   -0.056502
  71 C :   -0.046958
  72 C :   -0.153407
  73 S :    0.497578
  74 H :    0.043012
  75 H :    0.030078
  76 H :    0.042347
  77 H :    0.028551
  78 H :    0.035699
  79 H :    0.031181
  80 H :    0.030892
  81 H :    0.026515
  82 H :    0.029729
  83 H :    0.026447
  84 H :    0.025250
  85 H :    0.087726
  86 H :    0.022269
  87 H :    0.087695
  88 H :    0.022279
  89 H :    0.025089
  90 H :    0.026487
  91 H :    0.029189
  92 H :    0.026463
  93 H :    0.030247
  94 H :    0.031664
  95 H :    0.037886
  96 H :    0.032414
  97 H :    0.034822
  98 H :    0.030529
  99 H :    0.043069
 100 H :    0.042409
 101 H :    0.029755

  Mayer bond orders larger than 0.100000
B(  0-C ,  1-O ) :   2.1479 B(  0-C ,  2-C ) :   1.0645 B(  0-C , 13-C ) :   0.9358
B(  2-C ,  3-C ) :   1.4692 B(  2-C ,  6-S ) :   1.1280 B(  3-C ,  4-C ) :   1.2642
B(  3-C ,  7-C ) :   0.9938 B(  4-C ,  5-C ) :   1.5463 B(  4-C , 74-H ) :   0.9962
B(  5-C ,  6-S ) :   1.1821 B(  5-C , 75-H ) :   0.9618 B(  7-C ,  8-C ) :   1.6266
B(  7-C , 13-C ) :   1.0900 B(  8-C ,  9-C ) :   1.1528 B(  8-C , 11-C ) :   1.1327
B(  9-C , 10-N ) :   2.9836 B( 11-C , 12-N ) :   2.9611 B( 13-C , 14-C ) :   1.6012
B( 14-C , 15-C ) :   1.2331 B( 14-C , 76-H ) :   0.9074 B( 15-C , 16-S ) :   1.0845
B( 15-C , 19-C ) :   1.4247 B( 16-S , 17-C ) :   1.1675 B( 17-C , 18-C ) :   1.4179
B( 17-C , 20-C ) :   1.1727 B( 18-C , 19-C ) :   1.3123 B( 18-C , 77-H ) :   0.9950
B( 19-C , 78-H ) :   0.9759 B( 20-C , 21-C ) :   1.4763 B( 20-C , 23-C ) :   0.1048
B( 20-C , 24-S ) :   1.1084 B( 21-C , 22-C ) :   1.2878 B( 21-C , 79-H ) :   0.9936
B( 22-C , 23-C ) :   1.4992 B( 22-C , 80-H ) :   0.9958 B( 23-C , 24-S ) :   1.1313
B( 23-C , 25-C ) :   1.1248 B( 25-C , 26-S ) :   1.1128 B( 25-C , 27-C ) :   0.1040
B( 25-C , 29-C ) :   1.5001 B( 26-S , 27-C ) :   1.1216 B( 27-C , 28-C ) :   1.4787
B( 27-C , 30-C ) :   1.1237 B( 28-C , 29-C ) :   1.2916 B( 28-C , 81-H ) :   0.9910
B( 29-C , 82-H ) :   0.9951 B( 30-C , 31-C ) :   1.6861 B( 30-C , 83-H ) :   0.9618
B( 31-C , 32-C ) :   1.1238 B( 31-C , 84-H ) :   0.9599 B( 32-C , 33-N ) :   1.1653
B( 32-C , 39-C ) :   1.4027 B( 33-N , 34-C ) :   1.1674 B( 33-N , 85-H ) :   0.9375
B( 34-C , 35-C ) :   1.2584 B( 34-C , 38-C ) :   1.3119 B( 35-C , 36-C ) :   1.4047
B( 35-C , 86-H ) :   1.0303 B( 36-C , 37-N ) :   1.1670 B( 36-C , 40-C ) :   1.1227
B( 37-N , 38-C ) :   1.1648 B( 37-N , 87-H ) :   0.9376 B( 38-C , 39-C ) :   1.2600
B( 39-C , 88-H ) :   1.0305 B( 40-C , 41-C ) :   1.6868 B( 40-C , 89-H ) :   0.9613
B( 41-C , 42-C ) :   1.1228 B( 41-C , 90-H ) :   0.9610 B( 42-C , 43-S ) :   1.1209
B( 42-C , 44-C ) :   0.1047 B( 42-C , 46-C ) :   1.4818 B( 43-S , 44-C ) :   1.1138
B( 44-C , 45-C ) :   1.5031 B( 44-C , 47-C ) :   1.1220 B( 45-C , 46-C ) :   1.2883
B( 45-C , 91-H ) :   0.9948 B( 46-C , 92-H ) :   0.9913 B( 47-C , 48-C ) :   1.5041
B( 47-C , 50-C ) :   0.1123 B( 47-C , 51-S ) :   1.1269 B( 48-C , 49-C ) :   1.2795
B( 48-C , 93-H ) :   0.9959 B( 49-C , 50-C ) :   1.5037 B( 49-C , 94-H ) :   0.9957
B( 50-C , 51-S ) :   1.1057 B( 50-C , 52-C ) :   1.1290 B( 52-C , 53-S ) :   1.1517
B( 52-C , 54-C ) :   0.1004 B( 52-C , 56-C ) :   1.4618 B( 53-S , 54-C ) :   1.0884
B( 54-C , 55-C ) :   1.4443 B( 54-C , 57-C ) :   1.1499 B( 55-C , 56-C ) :   1.3240
B( 55-C , 95-H ) :   0.9854 B( 56-C , 96-H ) :   0.9966 B( 57-C , 58-C ) :   1.6171
B( 57-C , 97-H ) :   0.9709 B( 58-C , 59-C ) :   1.1767 B( 58-C , 98-H ) :   0.9598
B( 59-C , 60-C ) :   1.5827 B( 59-C , 99-H ) :   0.9504 B( 60-C , 61-C ) :   0.9546
B( 60-C , 65-C ) :   1.0454 B( 61-C , 62-O ) :   2.2257 B( 61-C , 63-C ) :   1.0345
B( 63-C , 64-C ) :   1.4619 B( 63-C , 73-S ) :   1.1277 B( 64-C , 65-C ) :   1.0141
B( 64-C , 71-C ) :   1.2703 B( 65-C , 66-C ) :   1.6260 B( 66-C , 67-C ) :   1.1320
B( 66-C , 69-C ) :   1.1620 B( 67-C , 68-N ) :   2.9883 B( 69-C , 70-N ) :   2.9886
B( 71-C , 72-C ) :   1.5409 B( 71-C ,100-H ) :   0.9932 B( 72-C , 73-S ) :   1.1863
B( 72-C ,101-H ) :   0.9627

-----------------------------------------------------------------------------
         ABSORPTION SPECTRUM VIA TRANSITION ELECTRIC DIPOLE MOMENTS
-----------------------------------------------------------------------------
State   Energy  Wavelength   fosc         T2         TX        TY        TZ
        (cm-1)    (nm)                  (au**2)     (au)      (au)      (au)
-----------------------------------------------------------------------------
   0   14867.6    672.6   3.821195331  84.61225   8.24796  -2.58231   3.14883
   1   16853.1    593.4   0.170196776   3.32465  -1.70989  -0.59851   0.20664
   2   20352.8    491.3   0.162139969   2.62266  -0.75301  -0.33967   1.39293
   3   21284.4    469.8   0.109394416   1.69204   1.14295  -0.38777   0.48511
   4   22172.9    451.0   0.203948815   3.02813  -1.54568   0.78805  -0.13408
   5   22865.5    437.3   0.637317981   9.17596   2.80230  -0.42082   1.07051
   6   23050.3    433.8   0.526680364   7.52221   0.02362   1.25082  -2.44072
   7   25714.4    388.9   0.004398804   0.05632   0.01914  -0.19485  -0.13411
   8   26504.6    377.3   0.133510123   1.65832  -0.67750   0.50631  -0.97106
   9   26628.9    375.5   0.036825495   0.45527  -0.35330   0.40221  -0.41071
  10   27988.8    357.3   0.035728486   0.42025   0.54842  -0.16327   0.30466
  11   28264.9    353.8   0.032519746   0.37877  -0.58786  -0.01422  -0.18164
  12   29466.3    339.4   0.001540373   0.01721  -0.11113   0.04008   0.05705
  13   30427.6    328.6   0.045665767   0.49408  -0.19493  -0.54225   0.40255
  14   30573.6    327.1   0.055916834   0.60210   0.43821   0.49908  -0.40124
  15   30730.3    325.4   0.000210618   0.00226  -0.03549  -0.03139  -0.00336
  16   30976.4    322.8   0.038287911   0.40692   0.19637   0.11811  -0.59532
  17   31267.8    319.8   0.039699824   0.41799   0.14359  -0.62027   0.11240
  18   31912.8    313.4   0.120829769   1.24648  -0.08811  -0.57019   0.95582
  19   32264.7    309.9   0.026082511   0.26613  -0.39477   0.28681   0.16742
  20   32658.4    306.2   0.032511914   0.32774  -0.55748  -0.04326   0.12281
  21   32968.1    303.3   0.025275001   0.25239  -0.40538   0.03864  -0.29421
  22   33013.9    302.9   0.031119236   0.31032   0.52710  -0.14855  -0.10203
  23   33205.8    301.2   0.028811336   0.28564  -0.47534  -0.14709  -0.19509
  24   33265.5    300.6   0.002840371   0.02811   0.13438   0.09765  -0.02272
  25   33656.7    297.1   0.271531203   2.65597  -0.15877   0.75406  -1.43602
  26   33916.0    294.8   0.034992459   0.33966  -0.04014   0.56709  -0.12829
  27   34385.8    290.8   0.004699980   0.04500   0.05421   0.19599  -0.06040
  28   35460.9    282.0   0.052170305   0.48434   0.03695  -0.25178   0.64775
  29   35764.7    279.6   0.108317071   0.99705  -0.18378   0.50437  -0.84196
  30   36102.4    277.0   0.023914555   0.21807  -0.22529   0.20769   0.35240
  31   36134.4    276.7   0.009411741   0.08575   0.19023  -0.21623  -0.05295
  32   36282.4    275.6   0.025942025   0.23539  -0.31972   0.34107   0.12977
  33   36369.2    275.0   0.119133987   1.07840   0.73215   0.18226  -0.71354
  34   36640.4    272.9   0.040912807   0.36760  -0.35451   0.34095  -0.35450
  35   37022.8    270.1   0.157547547   1.40094   1.13830   0.06124  -0.31852
  36   37122.2    269.4   0.094559852   0.83859  -0.12209  -0.46677   0.77833
  37   37319.2    268.0   0.109672017   0.96747  -0.77118   0.19724   0.57780
  38   37502.6    266.6   0.156935945   1.37764   0.21354   1.14608  -0.13621
  39   37597.1    266.0   0.313716716   2.74700   0.55005   0.48255  -1.48714
  40   37728.2    265.1   0.553831058   4.83266  -1.08883  -1.29850   1.40037
  41   38181.6    261.9   0.040354525   0.34795  -0.52852   0.26171  -0.01093
  42   38244.6    261.5   0.098393284   0.84697  -0.91468   0.00187  -0.10160
  43   38734.0    258.2   0.013726609   0.11667  -0.25218   0.05695  -0.22322
  44   38822.6    257.6   0.049336288   0.41837  -0.62378   0.17041  -0.01495
  45   39188.5    255.2   0.036458496   0.30628   0.33795   0.15350  -0.41050
  46   39462.0    253.4   0.036147424   0.30156  -0.19768  -0.24152   0.45183
  47   39942.0    250.4   0.021721846   0.17904   0.39563  -0.14728  -0.02865
  48   40203.4    248.7   0.060381580   0.49444   0.65579   0.01042  -0.25354

FINAL SINGLE POINT ENERGY     -5886.940852323459

DIPOLE MOMENT
-------------
                                X             Y             Z
Electronic contribution:    -23.48237      -4.16602      -1.24700
Nuclear contribution   :     24.74244       3.84708      -0.27498
                        -----------------------------------------
Total Dipole Moment    :      1.26007      -0.31894      -1.52198
                        -----------------------------------------
Magnitude (a.u.)       :      2.00148
Magnitude (Debye)      :      5.08736

Rotational constants in cm-1:     0.002520     0.000071     0.000070
Rotational constants in MHz :    75.561039     2.136165     2.091809

                             ****ORCA TERMINATED NORMALLY****
TOTAL RUN TIME: 0 days 0 hours 11 minutes 31 seconds 587 msec
