                         Program Version 4.2.0 -  RELEASE  -
|  1> # ORCA input file
|  2> # SCF done       -172.733062069028          0.000924538862
|  3> ! CAM-B3LYP def2-SVP def2/J RIJCOSX Grid4 TightSCF
|  4> %maxcore 5000
|  5> %tddft
|  6>     Mode sTDDFT
|  7>     Ethresh 5.0
|  8>     maxcore 5000
|  9> end
| 10>
| 11> %pal
| 12>   nprocs 6
| 13>   end
| 14> * xyz 0 1
| 15>    C        1.43437        -3.62712        -1.99843
| 16>    O        2.51723        -3.98771        -2.44256
| 17>    C        0.60298        -2.56002        -2.53104
| 18>    C       -0.48366        -2.31196        -1.70534
| 19>    C       -1.30387        -1.27869        -2.19507
| 20>    C       -0.81450        -0.77976        -3.36780
| 21>    S        0.63570        -1.53415        -3.90058
| 22>    C       -0.42898        -3.23422        -0.58386
| 23>    C       -1.36968        -3.28411         0.41384
| 24>    C       -2.45116        -2.37965         0.44966
| 25>    N       -3.33648        -1.65113         0.50331
| 26>    C       -1.40737        -4.19604         1.48575
| 27>    N       -1.51956        -4.91076         2.37821
| 28>    C        0.73755        -4.07906        -0.77615
| 29>    C        1.14041        -5.04070         0.12682
| 30>    C        2.09007        -6.07007        -0.00947
| 31>    C        2.56382        -6.57522        -1.20750
| 32>    C        3.46467        -7.61765        -1.33831
| 33>    C        3.87031        -8.42595        -0.17936
| 34>    C        3.52531        -8.13736         1.09521
| 35>    S        2.57363        -6.78294         1.54182
| 36>    C        4.61886        -9.50537        -0.72026
| 37>    C        4.69986        -9.37845        -2.11195
| 38>    C        5.45025       -10.42307        -2.69892
| 39>    C        5.90380       -11.29686        -1.76501
| 40>    S        5.44994       -10.89130        -0.14013
| 41>    C        4.02046        -8.18472        -2.51555
| 42>    C        3.96355        -7.65812        -3.82784
| 43>    C        3.74030        -6.33655        -4.06520
| 44>    C        3.48676        -5.68103        -5.28895
| 45>    N        3.14325        -4.34686        -5.23582
| 46>    C        2.85827        -3.92458        -6.48759
| 47>    C        2.43772        -2.83149        -7.22981
| 48>    C        2.39811        -3.26056        -8.56615
| 49>    N        2.78524        -4.58763        -8.63204
| 50>    C        3.06679        -5.02112        -7.37491
| 51>    C        3.45318        -6.12262        -6.62341
| 52>    C        2.03596        -2.53771        -9.72315
| 53>    C        1.66135        -1.22996        -9.70704
| 54>    C        1.27130        -0.45122       -10.82367
| 55>    C        0.92234         0.87677       -10.66701
| 56>    C        0.48926         1.72032       -11.67832
| 57>    C        0.34351         1.24812       -13.05443
| 58>    C        0.64717        -0.00709       -13.45344
| 59>    S        1.22929        -1.22840       -12.39776
| 60>    C       -0.18315         2.35545       -13.77617
| 61>    C       -0.37966         3.44093       -12.92011
| 62>    C       -0.90147         4.55853       -13.60833
| 63>    C       -1.08665         4.29632       -14.92903
| 64>    S       -0.63847         2.69354       -15.39748
| 65>    C        0.04729         3.06505       -11.59420
| 66>    C        0.01651         3.78743       -10.39568
| 67>    C       -0.57163         5.00278       -10.15779
| 68>    C       -0.57001         5.65427        -8.91650
| 69>    C       -0.25700         5.20101        -7.65300
| 70>    C        0.10311         6.22117        -6.62744
| 71>    O       -0.01070         7.42360        -6.72284
| 72>    C        0.65308         5.43617        -5.52036
| 73>    C        0.55897         4.07892        -5.78484
| 74>    C       -0.11632         3.89596        -7.06268
| 75>    C       -0.68238         2.69725        -7.44405
| 76>    C       -0.41152         1.50040        -6.76367
| 77>    N       -0.16088         0.49739        -6.25885
| 78>    C       -1.60766         2.54256        -8.49175
| 79>    N       -2.39720         2.35945        -9.30541
| 80>    C        1.07037         3.28492        -4.74065
| 81>    C        1.54216         4.06209        -3.72388
| 82>    S        1.36802         5.75526        -4.00125
| 83>    H       -2.19844        -0.91795        -1.72260
| 84>    H       -1.22963        -0.00009        -3.97589
| 85>    H        0.66286        -5.00579         1.09938
| 86>    H        2.13739        -6.15226        -2.10190
| 87>    H        3.84240        -8.73911         1.93253
| 88>    H        5.64231       -10.52464        -3.75155
| 89>    H        6.49416       -12.17864        -1.92041
| 90>    H        4.13215        -8.34297        -4.64785
| 91>    H        3.73532        -5.66957        -3.21604
| 92>    H        3.02562        -3.85184        -4.35995
| 93>    H        2.17491        -1.85804        -6.87022
| 94>    H        2.83511        -5.12382        -9.48095
| 95>    H        3.69172        -7.11050        -6.96217
| 96>    H        2.06408        -3.07045       -10.66580
| 97>    H        1.63786        -0.71283        -8.75862
| 98>    H        0.98575         1.26165        -9.65853
| 99>    H        0.53407        -0.33865       -14.47332
|100>    H       -1.13004         5.51206       -13.16982
|101>    H       -1.46886         4.95841       -15.68119
|102>    H        0.54615         3.32828        -9.57213
|103>    H       -1.02719         5.53348       -10.97956
|104>    H       -0.78072         6.71991        -8.94013
|105>    H        1.10436         2.21110        -4.73431
|106>    H        1.98925         3.73051        -2.80717
|107> *
|108>
|109>                          ****END OF INPUT****

CARTESIAN COORDINATES (ANGSTROEM)
---------------------------------
  C      1.434370   -3.627120   -1.998430
  O      2.517230   -3.987710   -2.442560
  C      0.602980   -2.560020   -2.531040
  C     -0.483660   -2.311960   -1.705340
  C     -1.303870   -1.278690   -2.195070
  C     -0.814500   -0.779760   -3.367800
  S      0.635700   -1.534150   -3.900580
  C     -0.428980   -3.234220   -0.583860
  C     -1.369680   -3.284110    0.413840
  C     -2.451160   -2.379650    0.449660
  N     -3.336480   -1.651130    0.503310
  C     -1.407370   -4.196040    1.485750
  N     -1.519560   -4.910760    2.378210
  C      0.737550   -4.079060   -0.776150
  C      1.140410   -5.040700    0.126820
  C      2.090070   -6.070070   -0.009470
  C      2.563820   -6.575220   -1.207500
  C      3.464670   -7.617650   -1.338310
  C      3.870310   -8.425950   -0.179360
  C      3.525310   -8.137360    1.095210
  S      2.573630   -6.782940    1.541820
  C      4.618860   -9.505370   -0.720260
  C      4.699860   -9.378450   -2.111950
  C      5.450250  -10.423070   -2.698920
  C      5.903800  -11.296860   -1.765010
  S      5.449940  -10.891300   -0.140130
  C      4.020460   -8.184720   -2.515550
  C      3.963550   -7.658120   -3.827840
  C      3.740300   -6.336550   -4.065200
  C      3.486760   -5.681030   -5.288950
  N      3.143250   -4.346860   -5.235820
  C      2.858270   -3.924580   -6.487590
  C      2.437720   -2.831490   -7.229810
  C      2.398110   -3.260560   -8.566150
  N      2.785240   -4.587630   -8.632040
  C      3.066790   -5.021120   -7.374910
  C      3.453180   -6.122620   -6.623410
  C      2.035960   -2.537710   -9.723150
  C      1.661350   -1.229960   -9.707040
  C      1.271300   -0.451220  -10.823670
  C      0.922340    0.876770  -10.667010
  C      0.489260    1.720320  -11.678320
  C      0.343510    1.248120  -13.054430
  C      0.647170   -0.007090  -13.453440
  S      1.229290   -1.228400  -12.397760
  C     -0.183150    2.355450  -13.776170
  C     -0.379660    3.440930  -12.920110
  C     -0.901470    4.558530  -13.608330
  C     -1.086650    4.296320  -14.929030
  S     -0.638470    2.693540  -15.397480
  C      0.047290    3.065050  -11.594200
  C      0.016510    3.787430  -10.395680
  C     -0.571630    5.002780  -10.157790
  C     -0.570010    5.654270   -8.916500
  C     -0.257000    5.201010   -7.653000
  C      0.103110    6.221170   -6.627440
  O     -0.010700    7.423600   -6.722840
  C      0.653080    5.436170   -5.520360
  C      0.558970    4.078920   -5.784840
  C     -0.116320    3.895960   -7.062680
  C     -0.682380    2.697250   -7.444050
  C     -0.411520    1.500400   -6.763670
  N     -0.160880    0.497390   -6.258850
  C     -1.607660    2.542560   -8.491750
  N     -2.397200    2.359450   -9.305410
  C      1.070370    3.284920   -4.740650
  C      1.542160    4.062090   -3.723880
  S      1.368020    5.755260   -4.001250
  H     -2.198440   -0.917950   -1.722600
  H     -1.229630   -0.000090   -3.975890
  H      0.662860   -5.005790    1.099380
  H      2.137390   -6.152260   -2.101900
  H      3.842400   -8.739110    1.932530
  H      5.642310  -10.524640   -3.751550
  H      6.494160  -12.178640   -1.920410
  H      4.132150   -8.342970   -4.647850
  H      3.735320   -5.669570   -3.216040
  H      3.025620   -3.851840   -4.359950
  H      2.174910   -1.858040   -6.870220
  H      2.835110   -5.123820   -9.480950
  H      3.691720   -7.110500   -6.962170
  H      2.064080   -3.070450  -10.665800
  H      1.637860   -0.712830   -8.758620
  H      0.985750    1.261650   -9.658530
  H      0.534070   -0.338650  -14.473320
  H     -1.130040    5.512060  -13.169820
  H     -1.468860    4.958410  -15.681190
  H      0.546150    3.328280   -9.572130
  H     -1.027190    5.533480  -10.979560
  H     -0.780720    6.719910   -8.940130
  H      1.104360    2.211100   -4.734310
  H      1.989250    3.730510   -2.807170

 Total Charge           Charge          ....    0
 Multiplicity           Mult            ....    1
 Number of Electrons    NEL             ....  502
 Basis Dimension        Dim             .... 1096

ORBITAL ENERGIES
----------------

  NO   OCC          E(Eh)            E(eV)
   0   2.0000     -88.982265     -2421.3305
   1   2.0000     -88.980764     -2421.2897
   2   2.0000     -88.978923     -2421.2396
   3   2.0000     -88.967641     -2420.9326
   4   2.0000     -88.962989     -2420.8060
   5   2.0000     -88.958465     -2420.6829
   6   2.0000     -19.224770      -523.1326
   7   2.0000     -19.202853      -522.5362
   8   2.0000     -14.461066      -393.5056
   9   2.0000     -14.445669      -393.0867
  10   2.0000     -14.420346      -392.3976
  11   2.0000     -14.411773      -392.1643
  12   2.0000     -14.407873      -392.0582
  13   2.0000     -14.405445      -391.9921
  14   2.0000     -10.379639      -282.4443
  15   2.0000     -10.360174      -281.9147
  16   2.0000     -10.338129      -281.3148
  17   2.0000     -10.337079      -281.2862
  18   2.0000     -10.336942      -281.2825
  19   2.0000     -10.332693      -281.1669
  20   2.0000     -10.331479      -281.1338
  21   2.0000     -10.330422      -281.1051
  22   2.0000     -10.328136      -281.0429
  23   2.0000     -10.326890      -281.0090
  24   2.0000     -10.316136      -280.7163
  25   2.0000     -10.315453      -280.6978
  26   2.0000     -10.314428      -280.6699
  27   2.0000     -10.313141      -280.6348
  28   2.0000     -10.310868      -280.5730
  29   2.0000     -10.310606      -280.5659
  30   2.0000     -10.309756      -280.5427
  31   2.0000     -10.307455      -280.4801
  32   2.0000     -10.305673      -280.4316
  33   2.0000     -10.304065      -280.3879
  34   2.0000     -10.303979      -280.3855
  35   2.0000     -10.303830      -280.3815
  36   2.0000     -10.303546      -280.3737
  37   2.0000     -10.302841      -280.3546
  38   2.0000     -10.302487      -280.3449
  39   2.0000     -10.299990      -280.2770
  40   2.0000     -10.298428      -280.2345
  41   2.0000     -10.298307      -280.2312
  42   2.0000     -10.298114      -280.2259
  43   2.0000     -10.297618      -280.2124
  44   2.0000     -10.297305      -280.2039
  45   2.0000     -10.297032      -280.1965
  46   2.0000     -10.296473      -280.1813
  47   2.0000     -10.296195      -280.1737
  48   2.0000     -10.294295      -280.1220
  49   2.0000     -10.293917      -280.1117
  50   2.0000     -10.293213      -280.0926
  51   2.0000     -10.292088      -280.0620
  52   2.0000     -10.290478      -280.0181
  53   2.0000     -10.289151      -279.9820
  54   2.0000     -10.289068      -279.9798
  55   2.0000     -10.285102      -279.8719
  56   2.0000     -10.284476      -279.8548
  57   2.0000     -10.281563      -279.7756
  58   2.0000     -10.279148      -279.7098
  59   2.0000     -10.278648      -279.6962
  60   2.0000     -10.277322      -279.6602
  61   2.0000     -10.276569      -279.6397
  62   2.0000     -10.276520      -279.6383
  63   2.0000     -10.275732      -279.6169
  64   2.0000     -10.275484      -279.6101
  65   2.0000     -10.268264      -279.4137
  66   2.0000     -10.266102      -279.3548
  67   2.0000     -10.265680      -279.3434
  68   2.0000      -8.077646      -219.8039
  69   2.0000      -8.074950      -219.7306
  70   2.0000      -8.073930      -219.7028
  71   2.0000      -8.063177      -219.4102
  72   2.0000      -8.058433      -219.2811
  73   2.0000      -8.053787      -219.1547
  74   2.0000      -6.047032      -164.5481
  75   2.0000      -6.044105      -164.4685
  76   2.0000      -6.043057      -164.4399
  77   2.0000      -6.042590      -164.4272
  78   2.0000      -6.039793      -164.3511
  79   2.0000      -6.039626      -164.3466
  80   2.0000      -6.038678      -164.3208
  81   2.0000      -6.037864      -164.2986
  82   2.0000      -6.036702      -164.2670
  83   2.0000      -6.032794      -164.1607
  84   2.0000      -6.028344      -164.0396
  85   2.0000      -6.027906      -164.0277
  86   2.0000      -6.024796      -163.9430
  87   2.0000      -6.023594      -163.9103
  88   2.0000      -6.023223      -163.9002
  89   2.0000      -6.020442      -163.8246
  90   2.0000      -6.018951      -163.7840
  91   2.0000      -6.015909      -163.7012
  92   2.0000      -1.137657       -30.9572
  93   2.0000      -1.118637       -30.4397
  94   2.0000      -1.089309       -29.6416
  95   2.0000      -1.051993       -28.6262
  96   2.0000      -1.020510       -27.7695
  97   2.0000      -1.019158       -27.7327
  98   2.0000      -1.010125       -27.4869
  99   2.0000      -1.010103       -27.4863
 100   2.0000      -1.005370       -27.3575
 101   2.0000      -1.002599       -27.2821
 102   2.0000      -0.989455       -26.9245
 103   2.0000      -0.988178       -26.8897
 104   2.0000      -0.977334       -26.5946
 105   2.0000      -0.974356       -26.5136
 106   2.0000      -0.956285       -26.0218
 107   2.0000      -0.953288       -25.9403
 108   2.0000      -0.935441       -25.4546
 109   2.0000      -0.932711       -25.3804
 110   2.0000      -0.915687       -24.9171
 111   2.0000      -0.907631       -24.6979
 112   2.0000      -0.900358       -24.5000
 113   2.0000      -0.894732       -24.3469
 114   2.0000      -0.889570       -24.2064
 115   2.0000      -0.886247       -24.1160
 116   2.0000      -0.881005       -23.9734
 117   2.0000      -0.863112       -23.4865
 118   2.0000      -0.857001       -23.3202
 119   2.0000      -0.853443       -23.2234
 120   2.0000      -0.852516       -23.1981
 121   2.0000      -0.845849       -23.0167
 122   2.0000      -0.845406       -23.0047
 123   2.0000      -0.842967       -22.9383
 124   2.0000      -0.826585       -22.4925
 125   2.0000      -0.815331       -22.1863
 126   2.0000      -0.809767       -22.0349
 127   2.0000      -0.797770       -21.7084
 128   2.0000      -0.790264       -21.5042
 129   2.0000      -0.771478       -20.9930
 130   2.0000      -0.765254       -20.8236
 131   2.0000      -0.758825       -20.6487
 132   2.0000      -0.754395       -20.5281
 133   2.0000      -0.747802       -20.3487
 134   2.0000      -0.740189       -20.1416
 135   2.0000      -0.718709       -19.5571
 136   2.0000      -0.715980       -19.4828
 137   2.0000      -0.705573       -19.1996
 138   2.0000      -0.694228       -18.8909
 139   2.0000      -0.692696       -18.8492
 140   2.0000      -0.687098       -18.6969
 141   2.0000      -0.679819       -18.4988
 142   2.0000      -0.674900       -18.3650
 143   2.0000      -0.667292       -18.1579
 144   2.0000      -0.665544       -18.1104
 145   2.0000      -0.659209       -17.9380
 146   2.0000      -0.656810       -17.8727
 147   2.0000      -0.655616       -17.8402
 148   2.0000      -0.654784       -17.8176
 149   2.0000      -0.642329       -17.4787
 150   2.0000      -0.640666       -17.4334
 151   2.0000      -0.631494       -17.1838
 152   2.0000      -0.623061       -16.9544
 153   2.0000      -0.620645       -16.8886
 154   2.0000      -0.617230       -16.7957
 155   2.0000      -0.608769       -16.5655
 156   2.0000      -0.604574       -16.4513
 157   2.0000      -0.601114       -16.3571
 158   2.0000      -0.598117       -16.2756
 159   2.0000      -0.591553       -16.0970
 160   2.0000      -0.581446       -15.8220
 161   2.0000      -0.578068       -15.7300
 162   2.0000      -0.575207       -15.6522
 163   2.0000      -0.569293       -15.4912
 164   2.0000      -0.564675       -15.3656
 165   2.0000      -0.561593       -15.2817
 166   2.0000      -0.560668       -15.2566
 167   2.0000      -0.555268       -15.1096
 168   2.0000      -0.547240       -14.8911
 169   2.0000      -0.540515       -14.7081
 170   2.0000      -0.538595       -14.6559
 171   2.0000      -0.535156       -14.5623
 172   2.0000      -0.533977       -14.5303
 173   2.0000      -0.530938       -14.4475
 174   2.0000      -0.529117       -14.3980
 175   2.0000      -0.525482       -14.2991
 176   2.0000      -0.524091       -14.2612
 177   2.0000      -0.521821       -14.1995
 178   2.0000      -0.518952       -14.1214
 179   2.0000      -0.516754       -14.0616
 180   2.0000      -0.515486       -14.0271
 181   2.0000      -0.512097       -13.9349
 182   2.0000      -0.510574       -13.8934
 183   2.0000      -0.508235       -13.8298
 184   2.0000      -0.505589       -13.7578
 185   2.0000      -0.502778       -13.6813
 186   2.0000      -0.498129       -13.5548
 187   2.0000      -0.497537       -13.5387
 188   2.0000      -0.493525       -13.4295
 189   2.0000      -0.491524       -13.3751
 190   2.0000      -0.484185       -13.1753
 191   2.0000      -0.482245       -13.1226
 192   2.0000      -0.478531       -13.0215
 193   2.0000      -0.474151       -12.9023
 194   2.0000      -0.471758       -12.8372
 195   2.0000      -0.469377       -12.7724
 196   2.0000      -0.468915       -12.7598
 197   2.0000      -0.467014       -12.7081
 198   2.0000      -0.465587       -12.6693
 199   2.0000      -0.463607       -12.6154
 200   2.0000      -0.461886       -12.5685
 201   2.0000      -0.460568       -12.5327
 202   2.0000      -0.459886       -12.5141
 203   2.0000      -0.457614       -12.4523
 204   2.0000      -0.449392       -12.2286
 205   2.0000      -0.444290       -12.0897
 206   2.0000      -0.443200       -12.0601
 207   2.0000      -0.442361       -12.0373
 208   2.0000      -0.441746       -12.0205
 209   2.0000      -0.441528       -12.0146
 210   2.0000      -0.439403       -11.9568
 211   2.0000      -0.438501       -11.9322
 212   2.0000      -0.434461       -11.8223
 213   2.0000      -0.433618       -11.7993
 214   2.0000      -0.433382       -11.7929
 215   2.0000      -0.430358       -11.7106
 216   2.0000      -0.427496       -11.6328
 217   2.0000      -0.427188       -11.6244
 218   2.0000      -0.425090       -11.5673
 219   2.0000      -0.424041       -11.5387
 220   2.0000      -0.421761       -11.4767
 221   2.0000      -0.419033       -11.4025
 222   2.0000      -0.418830       -11.3969
 223   2.0000      -0.416686       -11.3386
 224   2.0000      -0.415205       -11.2983
 225   2.0000      -0.411060       -11.1855
 226   2.0000      -0.409400       -11.1403
 227   2.0000      -0.405418       -11.0320
 228   2.0000      -0.404252       -11.0002
 229   2.0000      -0.401064       -10.9135
 230   2.0000      -0.392895       -10.6912
 231   2.0000      -0.375732       -10.2242
 232   2.0000      -0.374140       -10.1809
 233   2.0000      -0.367612       -10.0032
 234   2.0000      -0.354125        -9.6362
 235   2.0000      -0.344272        -9.3681
 236   2.0000      -0.341351        -9.2886
 237   2.0000      -0.336054        -9.1445
 238   2.0000      -0.333306        -9.0697
 239   2.0000      -0.328995        -8.9524
 240   2.0000      -0.322635        -8.7793
 241   2.0000      -0.321210        -8.7406
 242   2.0000      -0.308741        -8.4013
 243   2.0000      -0.305523        -8.3137
 244   2.0000      -0.301088        -8.1930
 245   2.0000      -0.290364        -7.9012
 246   2.0000      -0.285789        -7.7767
 247   2.0000      -0.279985        -7.6188
 248   2.0000      -0.257826        -7.0158
 249   2.0000      -0.236454        -6.4342
 250   2.0000      -0.208381        -5.6703
 251   0.0000      -0.096067        -2.6141
 252   0.0000      -0.082896        -2.2557
 253   0.0000      -0.071612        -1.9487
 254   0.0000      -0.064170        -1.7461
 255   0.0000      -0.042536        -1.1575

MULLIKEN ATOMIC CHARGES
-----------------------
   0 C :    0.154034
   1 O :   -0.223551
   2 C :   -0.175096
   3 C :    0.007565
   4 C :    0.023107
   5 C :   -0.050343
   6 S :    0.204242
   7 C :    0.295363
   8 C :   -0.343544
   9 C :   -0.191942
  10 N :    0.151994
  11 C :   -0.191689
  12 N :    0.154945
  13 C :   -0.101288
  14 C :    0.038479
  15 C :   -0.127171
  16 C :    0.022469
  17 C :   -0.002389
  18 C :    0.065869
  19 C :   -0.122511
  20 S :    0.134158
  21 C :   -0.098453
  22 C :    0.048716
  23 C :    0.019626
  24 C :   -0.070412
  25 S :    0.135768
  26 C :    0.092354
  27 C :   -0.034915
  28 C :   -0.023432
  29 C :    0.100743
  30 N :   -0.029896
  31 C :    0.121562
  32 C :   -0.164367
  33 C :    0.094006
  34 N :   -0.038952
  35 C :    0.116559
  36 C :   -0.173627
  37 C :    0.026570
  38 C :   -0.043089
  39 C :   -0.004374
  40 C :   -0.059249
  41 C :    0.098069
  42 C :    0.064641
  43 C :   -0.120883
  44 S :    0.124561
  45 C :   -0.117578
  46 C :    0.067878
  47 C :   -0.005888
  48 C :   -0.065545
  49 S :    0.129789
  50 C :    0.087533
  51 C :    0.012835
  52 C :   -0.003590
  53 C :    0.050340
  54 C :   -0.165691
  55 C :    0.114473
  56 O :   -0.150838
  57 C :   -0.152896
  58 C :   -0.019718
  59 C :    0.300731
  60 C :   -0.395597
  61 C :   -0.133512
  62 N :    0.091008
  63 C :   -0.217787
  64 N :    0.183614
  65 C :    0.020851
  66 C :   -0.065924
  67 S :    0.203285
  68 H :    0.015322
  69 H :    0.044612
  70 H :    0.019340
  71 H :    0.005626
  72 H :    0.036873
  73 H :   -0.015616
  74 H :    0.029270
  75 H :   -0.022757
  76 H :    0.020479
  77 H :    0.122402
  78 H :   -0.025634
  79 H :    0.119603
  80 H :   -0.039281
  81 H :   -0.017045
  82 H :   -0.000006
  83 H :   -0.025278
  84 H :    0.037090
  85 H :   -0.012126
  86 H :    0.026913
  87 H :   -0.014497
  88 H :   -0.032182
  89 H :    0.019098
  90 H :   -0.001890
  91 H :    0.037680
Sum of atomic charges:   -0.0000000

LOEWDIN ATOMIC CHARGES
----------------------
   0 C :    0.077897
   1 O :   -0.178059
   2 C :   -0.221391
   3 C :   -0.037735
   4 C :   -0.047982
   5 C :   -0.139806
   6 S :    0.511014
   7 C :    0.077071
   8 C :   -0.142211
   9 C :   -0.016849
  10 N :   -0.056456
  11 C :   -0.025680
  12 N :   -0.050687
  13 C :   -0.112961
  14 C :    0.039229
  15 C :   -0.199030
  16 C :    0.041906
  17 C :   -0.042225
  18 C :   -0.060720
  19 C :   -0.133456
  20 S :    0.442521
  21 C :   -0.181727
  22 C :   -0.049041
  23 C :   -0.057947
  24 C :   -0.162951
  25 S :    0.427319
  26 C :   -0.004256
  27 C :   -0.037108
  28 C :   -0.012852
  29 C :    0.004617
  30 N :    0.077700
  31 C :   -0.014149
  32 C :   -0.076589
  33 C :   -0.006129
  34 N :    0.065930
  35 C :   -0.012043
  36 C :   -0.094590
  37 C :   -0.020787
  38 C :   -0.059317
  39 C :   -0.138132
  40 C :   -0.031868
  41 C :    0.021238
  42 C :   -0.047011
  43 C :   -0.140768
  44 S :    0.463061
  45 C :   -0.204187
  46 C :   -0.030225
  47 C :   -0.062007
  48 C :   -0.163707
  49 S :    0.425482
  50 C :   -0.063129
  51 C :    0.055375
  52 C :   -0.077054
  53 C :    0.069249
  54 C :   -0.127281
  55 C :    0.066663
  56 O :   -0.150047
  57 C :   -0.210015
  58 C :   -0.044676
  59 C :    0.075200
  60 C :   -0.178449
  61 C :    0.001461
  62 N :   -0.105549
  63 C :   -0.025621
  64 N :   -0.044575
  65 C :   -0.055323
  66 C :   -0.157950
  67 S :    0.497869
  68 H :    0.042769
  69 H :    0.028923
  70 H :    0.040309
  71 H :    0.043105
  72 H :    0.036949
  73 H :    0.031797
  74 H :    0.024499
  75 H :    0.026690
  76 H :    0.035957
  77 H :    0.070233
  78 H :    0.025239
  79 H :    0.088210
  80 H :    0.022648
  81 H :    0.020980
  82 H :    0.037951
  83 H :    0.036405
  84 H :    0.036971
  85 H :    0.030284
  86 H :    0.024283
  87 H :    0.031065
  88 H :    0.028004
  89 H :    0.044415
  90 H :    0.035231
  91 H :    0.028590

  Mayer bond orders larger than 0.100000
B(  0-C ,  1-O ) :   1.9719 B(  0-C ,  2-C ) :   1.0628 B(  0-C , 13-C ) :   1.0194
B(  1-O , 77-H ) :   0.1005 B(  2-C ,  3-C ) :   1.4494 B(  2-C ,  6-S ) :   1.1099
B(  3-C ,  4-C ) :   1.2716 B(  3-C ,  7-C ) :   0.9913 B(  4-C ,  5-C ) :   1.5217
B(  4-C , 68-H ) :   0.9985 B(  5-C ,  6-S ) :   1.1958 B(  5-C , 69-H ) :   0.9650
B(  7-C ,  8-C ) :   1.6338 B(  7-C , 13-C ) :   1.1051 B(  8-C ,  9-C ) :   1.1523
B(  8-C , 11-C ) :   1.1329 B(  9-C , 10-N ) :   2.9875 B( 11-C , 12-N ) :   2.9791
B( 13-C , 14-C ) :   1.5318 B( 14-C , 15-C ) :   1.2451 B( 14-C , 70-H ) :   0.9203
B( 15-C , 16-C ) :   1.4281 B( 15-C , 20-S ) :   1.0248 B( 16-C , 17-C ) :   1.3458
B( 16-C , 71-H ) :   0.9568 B( 17-C , 18-C ) :   1.0392 B( 17-C , 26-C ) :   1.3051
B( 18-C , 19-C ) :   1.6007 B( 18-C , 21-C ) :   1.1920 B( 19-C , 20-S ) :   1.1503
B( 19-C , 72-H ) :   0.9429 B( 21-C , 22-C ) :   1.4116 B( 21-C , 25-S ) :   1.0899
B( 22-C , 23-C ) :   1.2102 B( 22-C , 26-C ) :   1.1280 B( 23-C , 24-C ) :   1.6006
B( 23-C , 73-H ) :   0.9988 B( 24-C , 25-S ) :   1.1405 B( 24-C , 74-H ) :   0.9663
B( 26-C , 27-C ) :   1.1947 B( 27-C , 28-C ) :   1.5932 B( 27-C , 75-H ) :   0.9649
B( 28-C , 29-C ) :   1.1333 B( 28-C , 76-H ) :   0.9539 B( 29-C , 30-N ) :   1.1991
B( 29-C , 36-C ) :   1.3674 B( 30-N , 31-C ) :   1.1899 B( 30-N , 77-H ) :   0.8944
B( 31-C , 32-C ) :   1.2825 B( 31-C , 35-C ) :   1.2730 B( 32-C , 33-C ) :   1.3782
B( 32-C , 78-H ) :   1.0277 B( 33-C , 34-N ) :   1.1559 B( 33-C , 37-C ) :   1.1633
B( 34-N , 35-C ) :   1.1660 B( 34-N , 79-H ) :   0.9373 B( 35-C , 36-C ) :   1.2830
B( 36-C , 80-H ) :   1.0334 B( 37-C , 38-C ) :   1.5843 B( 37-C , 81-H ) :   0.9543
B( 38-C , 39-C ) :   1.1835 B( 38-C , 82-H ) :   0.9883 B( 39-C , 40-C ) :   1.4573
B( 39-C , 44-S ) :   1.0638 B( 40-C , 41-C ) :   1.2621 B( 40-C , 83-H ) :   0.9779
B( 41-C , 42-C ) :   1.0750 B( 41-C , 50-C ) :   1.2964 B( 42-C , 43-C ) :   1.5940
B( 42-C , 45-C ) :   1.1670 B( 43-C , 44-S ) :   1.1439 B( 43-C , 84-H ) :   0.9407
B( 45-C , 46-C ) :   1.4595 B( 45-C , 49-S ) :   1.0792 B( 46-C , 47-C ) :   1.2257
B( 46-C , 50-C ) :   1.0585 B( 47-C , 48-C ) :   1.5817 B( 47-C , 85-H ) :   1.0009
B( 48-C , 49-S ) :   1.1593 B( 48-C , 86-H ) :   0.9642 B( 50-C , 51-C ) :   1.3064
B( 51-C , 52-C ) :   1.4571 B( 51-C , 87-H ) :   0.9363 B( 52-C , 53-C ) :   1.2816
B( 52-C , 88-H ) :   0.9707 B( 53-C , 54-C ) :   1.5201 B( 53-C , 89-H ) :   0.9311
B( 54-C , 55-C ) :   0.9712 B( 54-C , 59-C ) :   1.1081 B( 55-C , 56-O ) :   2.2238
B( 55-C , 57-C ) :   1.0151 B( 57-C , 58-C ) :   1.4756 B( 57-C , 67-S ) :   1.1306
B( 58-C , 59-C ) :   1.0132 B( 58-C , 65-C ) :   1.2696 B( 59-C , 60-C ) :   1.5615
B( 60-C , 61-C ) :   1.1552 B( 60-C , 63-C ) :   1.1659 B( 61-C , 62-N ) :   2.9021
B( 63-C , 64-N ) :   3.0041 B( 65-C , 66-C ) :   1.5380 B( 65-C , 90-H ) :   0.9950
B( 66-C , 67-S ) :   1.1905 B( 66-C , 91-H ) :   0.9628

-----------------------------------------------------------------------------
         ABSORPTION SPECTRUM VIA TRANSITION ELECTRIC DIPOLE MOMENTS
-----------------------------------------------------------------------------
State   Energy  Wavelength   fosc         T2         TX        TY        TZ
        (cm-1)    (nm)                  (au**2)     (au)      (au)      (au)
-----------------------------------------------------------------------------
   0    9744.6   1026.2   0.442712499  14.95660   0.12010  -2.54054   2.91339
   1   13085.0    764.2   0.494523266  12.44199   1.65561  -2.25936  -2.14389
   2   14140.5    707.2   0.002853513   0.06643   0.16774   0.19558  -0.00677
   3   17298.6    578.1   0.456962195   8.69652  -0.55832   1.94164  -2.14822
   4   18109.5    552.2   0.368243820   6.69431  -1.05936   2.16041   0.95116
   5   19986.8    500.3   0.603297402   9.93720   1.30677  -1.98807   2.06813
   6   20547.6    486.7   0.048932984   0.78400   0.30210  -0.22960  -0.80001
   7   21972.8    455.1   0.012174922   0.18241   0.13920   0.15049  -0.37468
   8   22410.0    446.2   0.102268299   1.50236  -0.19943   1.04228   0.61339
   9   23011.5    434.6   0.094657869   1.35421  -0.65433   0.72646  -0.63112
  10   23594.6    423.8   0.381897480   5.32856  -0.57098   0.68434  -2.12937
  11   24418.9    409.5   0.187141897   2.52301   0.40114  -0.41747  -1.47913
  12   25104.9    398.3   0.761108871   9.98075   1.20609  -2.32840   1.76201
  13   25676.2    389.5   0.039013811   0.50022  -0.08082   0.65224  -0.26130
  14   26758.1    373.7   0.092410895   1.13696  -0.42277   0.97830  -0.03383
  15   26889.9    371.9   0.020290863   0.24842   0.04375   0.49318  -0.05726
  16   27092.7    369.1   0.023254477   0.28257   0.08574  -0.40748   0.33043
  17   28548.4    350.3   0.068928605   0.79486  -0.19885   0.86651  -0.06693
  18   28753.2    347.8   0.142163676   1.62771   0.26888  -1.10837   0.57177
  19   29095.6    343.7   0.051466135   0.58233  -0.30915  -0.67236  -0.18625
  20   29227.5    342.1   0.089066353   1.00322   0.40610  -0.34806   0.84685
  21   29529.0    338.6   0.041618844   0.46400   0.09786   0.61555   0.27480
  22   29784.2    335.7   0.009994027   0.11047   0.30383   0.13313  -0.02075
  23   30034.0    333.0   0.014507578   0.15902   0.10761   0.32610   0.20273
  24   30142.4    331.8   0.046420116   0.50699  -0.09972  -0.57331   0.41033
  25   30321.4    329.8   0.010089303   0.10954  -0.00364   0.25054   0.21624
  26   30946.4    323.1   0.030534576   0.32483  -0.27491   0.44389  -0.22851
  27   31227.3    320.2   0.004263326   0.04495  -0.15432   0.14403   0.01959
  28   31580.2    316.7   0.074043511   0.77188  -0.16181  -0.12117   0.85499
  29   31712.7    315.3   0.128588341   1.33489  -0.43149  -0.05309  -1.07046
  30   32344.2    309.2   0.002669765   0.02717   0.01534   0.13759  -0.08949
  31   32847.4    304.4   0.115979558   1.16240   0.53236  -0.92541  -0.15036
  32   33115.6    302.0   0.033667532   0.33470  -0.25603  -0.49038  -0.16932
  33   33264.0    300.6   0.029343326   0.29041  -0.47802   0.22481   0.10663
  34   33729.3    296.5   0.074332572   0.72552   0.74657   0.38689  -0.13588
  35   34177.0    292.6   0.520038202   5.00930  -1.50840  -0.07050   1.65198
  36   34450.0    290.3   0.037961083   0.36276   0.32841  -0.48309  -0.14677
  37   34469.1    290.1   0.072991335   0.69714  -0.29189  -0.16751   0.76412
  38   34985.0    285.8   0.151806455   1.42851   0.92582   0.69054   0.30744
  39   35210.5    284.0   0.216830893   2.02733   0.05988   1.30076   0.57599
  40   35291.1    283.4   0.353502439   3.29763  -0.79441   1.42102   0.80451
  41   35720.3    280.0   0.077114029   0.71071  -0.44507   0.48262  -0.52887
  42   35798.4    279.3   0.061124209   0.56212   0.02275  -0.28197  -0.69433
  43   36029.8    277.5   0.149640705   1.36730   0.20924   0.88825   0.73112
  44   36180.7    276.4   0.045731827   0.41612  -0.18920  -0.50470  -0.35440
  45   36294.0    275.5   0.049421171   0.44828  -0.13564   0.31509  -0.57498
  46   36399.9    274.7   0.023949625   0.21661   0.10671  -0.02457   0.45235
  47   36481.9    274.1   0.027117616   0.24471  -0.02582  -0.46468  -0.16767
  48   36643.1    272.9   0.040180789   0.36100   0.11308  -0.59003   0.00835
  49   36821.8    271.6   0.260907155   2.33269   0.78117  -1.07729   0.74960
  50   37085.7    269.6   0.006947394   0.06167  -0.09831   0.22779   0.01088
  51   37388.6    267.5   0.148599501   1.30844  -0.17823  -0.89630  -0.68798
  52   37804.1    264.5   0.053984397   0.47012  -0.33048  -0.37059   0.47282
  53   37871.7    264.0   0.147998630   1.28653   0.40783  -0.97769   0.40538
  54   38179.4    261.9   0.006415158   0.05532  -0.06241   0.19047  -0.12305
  55   38531.7    259.5   0.012946205   0.11061   0.02200  -0.09500   0.31797
  56   38801.8    257.7   0.007772936   0.06595   0.13350   0.14386   0.16562
  57   38955.0    256.7   0.010737457   0.09074   0.21040  -0.16726   0.13601
  58   39078.7    255.9   0.108143538   0.91104  -0.17663   0.82622  -0.44408
  59   39443.1    253.5   0.069670549   0.58150   0.24486  -0.60699   0.39129
  60   39632.1    252.3   0.033678525   0.27976   0.13815   0.33974   0.38112
  61   39741.2    251.6   0.019099482   0.15822   0.20095  -0.19041   0.28562
  62   39771.4    251.4   0.016472297   0.13635  -0.21751   0.25763  -0.15057
  63   40110.4    249.3   0.084008767   0.68951   0.06446  -0.80240   0.20376
  64   40190.7    248.8   0.149285723   1.22284  -0.23199   0.99938   0.41263

FINAL SINGLE POINT ENERGY     -4936.132373018321

DIPOLE MOMENT
-------------
                                X             Y             Z
Electronic contribution:     -6.18001       3.94995      16.49420
Nuclear contribution   :      9.50125      -6.23944     -19.32728
                        -----------------------------------------
Total Dipole Moment    :      3.32124      -2.28949      -2.83308
                        -----------------------------------------
Magnitude (a.u.)       :      4.92938
Magnitude (Debye)      :     12.52948

Rotational constants in cm-1:     0.001404     0.000410     0.000339
Rotational constants in MHz :    42.076463    12.296497    10.150644

                             ****ORCA TERMINATED NORMALLY****
TOTAL RUN TIME: 0 days 0 hours 13 minutes 44 seconds 910 msec
