                         Program Version 4.2.0 -  RELEASE  -
|  1> # ORCA input file
|  2> # SCF done       -198.562905541897          0.000583599307
|  3> ! CAM-B3LYP def2-SVP def2/J RIJCOSX Grid4 TightSCF
|  4> %maxcore 5000
|  5> %tddft
|  6>     Mode sTDDFT
|  7>     Ethresh 5.0
|  8>     maxcore 5000
|  9> end
| 10>
| 11> %pal
| 12>   nprocs 6
| 13>   end
| 14> * xyz 0 1
| 15>    C       -3.64119       -12.28380         7.10065
| 16>    S       -4.45958       -11.46746         5.83230
| 17>    C       -3.19347       -10.28267         5.69209
| 18>    C       -2.20224       -10.53723         6.62672
| 19>    C       -2.45175       -11.68563         7.40659
| 20>    O       -1.61215       -12.20429         8.34620
| 21>    C       -0.36673       -11.75920         8.58482
| 22>    O        0.31263       -12.37623         9.37422
| 23>    C        0.19355       -10.51852         7.96622
| 24>    O        1.26623       -10.06815         8.31641
| 25>    S       -0.76204        -9.55584         6.80784
| 26>    C       -3.05742        -9.29387         4.69003
| 27>    C       -3.80253        -9.06736         3.58275
| 28>    C       -3.31816        -8.23934         2.51793
| 29>    C       -1.98929        -7.92698         2.40083
| 30>    C       -1.39879        -7.22786         1.35412
| 31>    C       -2.20743        -6.57727         0.31644
| 32>    C       -3.54340        -6.75781         0.21496
| 33>    S       -4.47071        -7.74365         1.28105
| 34>    C       -1.27179        -5.82795        -0.44800
| 35>    C        0.01935        -6.01204         0.06473
| 36>    C        0.99073        -5.30041        -0.67363
| 37>    C        0.43178        -4.60874        -1.70022
| 38>    S       -1.28673        -4.79242        -1.82159
| 39>    C       -0.04335        -6.91745         1.17529
| 40>    C        1.00610        -7.41493         2.01258
| 41>    C        0.93026        -8.65237         2.55666
| 42>    C        1.65463        -9.21752         3.66426
| 43>    C        1.25250       -10.46372         4.11566
| 44>    C        1.78403       -11.01381         5.29243
| 45>    C        1.50344       -12.19105         5.99944
| 46>    C        0.62080       -13.35252         5.66028
| 47>    C       -0.60289       -13.01536         4.79741
| 48>    N       -1.68642       -13.92959         5.12179
| 49>    C        1.47002       -14.45015         4.98399
| 50>    N        0.70328       -15.67990         4.85667
| 51>    C        2.38816       -12.21580         7.13156
| 52>    C        2.55283       -13.12852         8.11128
| 53>    C        3.44932       -12.87191         9.26308
| 54>    C        4.25596       -11.61458         9.16716
| 55>    C        4.09903       -10.72417         8.17232
| 56>    C        3.14736       -10.96071         7.15159
| 57>    C        2.79270       -10.25299         6.00809
| 58>    C        3.21645        -9.00300         5.51359
| 59>    C        2.66098        -8.50098         4.37774
| 60>    C        4.34800       -14.02813         9.59974
| 61>    C        4.77183       -14.90358         8.68387
| 62>    C        5.67166       -16.01039         8.89754
| 63>    C        6.14465       -16.42278        10.11298
| 64>    C        7.03775       -17.48160        10.31419
| 65>    C        7.62667       -18.18572         9.16340
| 66>    C        7.27899       -17.96689         7.87604
| 67>    S        6.11324       -16.80771         7.39611
| 68>    C        8.57551       -19.09018         9.71101
| 69>    C        8.57837       -18.97546        11.09917
| 70>    C        9.50617       -19.84892        11.70733
| 71>    C       10.17151       -20.58793        10.78131
| 72>    S        9.70092       -20.26234         9.14632
| 73>    C        7.59862       -17.99346        11.49659
| 74>    C        7.34163       -17.72282        12.86349
| 75>    C        6.27667       -17.07062        13.39690
| 76>    C        6.06745       -16.85208        14.78382
| 77>    S        4.66222       -15.98058        15.31068
| 78>    C        5.07140       -16.12549        16.99577
| 79>    C        6.25656       -16.82472        17.12673
| 80>    C        6.81244       -17.22889        15.89772
| 81>    O        7.96527       -17.94145        15.73964
| 82>    C        8.76929       -18.38630        16.70863
| 83>    O        9.74138       -19.02608        16.40692
| 84>    C        8.48886       -18.10273        18.17494
| 85>    O        9.23523       -18.48449        19.03308
| 86>    S        7.04230       -17.19900        18.65775
| 87>    C        4.18000       -15.53994        17.95485
| 88>    C        4.30752       -15.55181        19.28083
| 89>    H       -4.05378       -13.16814         7.53795
| 90>    H       -2.15557        -8.71267         4.83662
| 91>    H       -4.75805        -9.55566         3.45277
| 92>    H       -1.32936        -8.26068         3.18535
| 93>    H       -4.13737        -6.30523        -0.56354
| 94>    H        2.04417        -5.29816        -0.45893
| 95>    H        0.92649        -3.98428        -2.41851
| 96>    H        1.83464        -6.75157         2.22181
| 97>    H        0.16740        -9.31052         2.15715
| 98>    H        0.49906       -10.99865         3.55916
| 99>    H        0.23272       -13.77136         6.59744
|100>    H       -0.31812       -13.05411         3.73356
|101>    H       -0.94937       -12.00227         5.01817
|102>    H       -1.36265       -14.87743         4.94600
|103>    H       -2.48081       -13.75569         4.51374
|104>    H        2.40281       -14.58088         5.55856
|105>    H        1.74522       -14.11737         3.97903
|106>    H        0.53382       -16.07787         5.77544
|107>    H        1.21876       -16.36356         4.31313
|108>    H        2.00679       -14.06070         8.12849
|109>    H        2.75290       -12.73068        10.10841
|110>    H        4.97349       -11.45057         9.95694
|111>    H        4.68142        -9.81526         8.14583
|112>    H        3.96947        -8.44870         6.05381
|113>    H        2.97107        -7.53707         4.00461
|114>    H        4.68648       -14.07723        10.62402
|115>    H        4.43680       -14.78414         7.66059
|116>    H        5.81855       -15.86210        10.97460
|117>    H        7.71273       -18.51839         7.05687
|118>    H        9.68199       -19.92807        12.76488
|119>    H       10.93100       -21.32561        10.95211
|120>    H        8.07480       -18.13533        13.54077
|121>    H        5.48339       -16.69946        12.76573
|122>    H        3.32601       -15.04884        17.50571
|123>    H        5.13161       -16.02428        19.78373
|124>    H        3.57110       -15.07783        19.90506
|125> *
|126>
|127>                          ****END OF INPUT****

CARTESIAN COORDINATES (ANGSTROEM)
---------------------------------
  C     -3.641190  -12.283800    7.100650
  S     -4.459580  -11.467460    5.832300
  C     -3.193470  -10.282670    5.692090
  C     -2.202240  -10.537230    6.626720
  C     -2.451750  -11.685630    7.406590
  O     -1.612150  -12.204290    8.346200
  C     -0.366730  -11.759200    8.584820
  O      0.312630  -12.376230    9.374220
  C      0.193550  -10.518520    7.966220
  O      1.266230  -10.068150    8.316410
  S     -0.762040   -9.555840    6.807840
  C     -3.057420   -9.293870    4.690030
  C     -3.802530   -9.067360    3.582750
  C     -3.318160   -8.239340    2.517930
  C     -1.989290   -7.926980    2.400830
  C     -1.398790   -7.227860    1.354120
  C     -2.207430   -6.577270    0.316440
  C     -3.543400   -6.757810    0.214960
  S     -4.470710   -7.743650    1.281050
  C     -1.271790   -5.827950   -0.448000
  C      0.019350   -6.012040    0.064730
  C      0.990730   -5.300410   -0.673630
  C      0.431780   -4.608740   -1.700220
  S     -1.286730   -4.792420   -1.821590
  C     -0.043350   -6.917450    1.175290
  C      1.006100   -7.414930    2.012580
  C      0.930260   -8.652370    2.556660
  C      1.654630   -9.217520    3.664260
  C      1.252500  -10.463720    4.115660
  C      1.784030  -11.013810    5.292430
  C      1.503440  -12.191050    5.999440
  C      0.620800  -13.352520    5.660280
  C     -0.602890  -13.015360    4.797410
  N     -1.686420  -13.929590    5.121790
  C      1.470020  -14.450150    4.983990
  N      0.703280  -15.679900    4.856670
  C      2.388160  -12.215800    7.131560
  C      2.552830  -13.128520    8.111280
  C      3.449320  -12.871910    9.263080
  C      4.255960  -11.614580    9.167160
  C      4.099030  -10.724170    8.172320
  C      3.147360  -10.960710    7.151590
  C      2.792700  -10.252990    6.008090
  C      3.216450   -9.003000    5.513590
  C      2.660980   -8.500980    4.377740
  C      4.348000  -14.028130    9.599740
  C      4.771830  -14.903580    8.683870
  C      5.671660  -16.010390    8.897540
  C      6.144650  -16.422780   10.112980
  C      7.037750  -17.481600   10.314190
  C      7.626670  -18.185720    9.163400
  C      7.278990  -17.966890    7.876040
  S      6.113240  -16.807710    7.396110
  C      8.575510  -19.090180    9.711010
  C      8.578370  -18.975460   11.099170
  C      9.506170  -19.848920   11.707330
  C     10.171510  -20.587930   10.781310
  S      9.700920  -20.262340    9.146320
  C      7.598620  -17.993460   11.496590
  C      7.341630  -17.722820   12.863490
  C      6.276670  -17.070620   13.396900
  C      6.067450  -16.852080   14.783820
  S      4.662220  -15.980580   15.310680
  C      5.071400  -16.125490   16.995770
  C      6.256560  -16.824720   17.126730
  C      6.812440  -17.228890   15.897720
  O      7.965270  -17.941450   15.739640
  C      8.769290  -18.386300   16.708630
  O      9.741380  -19.026080   16.406920
  C      8.488860  -18.102730   18.174940
  O      9.235230  -18.484490   19.033080
  S      7.042300  -17.199000   18.657750
  C      4.180000  -15.539940   17.954850
  C      4.307520  -15.551810   19.280830
  H     -4.053780  -13.168140    7.537950
  H     -2.155570   -8.712670    4.836620
  H     -4.758050   -9.555660    3.452770
  H     -1.329360   -8.260680    3.185350
  H     -4.137370   -6.305230   -0.563540
  H      2.044170   -5.298160   -0.458930
  H      0.926490   -3.984280   -2.418510
  H      1.834640   -6.751570    2.221810
  H      0.167400   -9.310520    2.157150
  H      0.499060  -10.998650    3.559160
  H      0.232720  -13.771360    6.597440
  H     -0.318120  -13.054110    3.733560
  H     -0.949370  -12.002270    5.018170
  H     -1.362650  -14.877430    4.946000
  H     -2.480810  -13.755690    4.513740
  H      2.402810  -14.580880    5.558560
  H      1.745220  -14.117370    3.979030
  H      0.533820  -16.077870    5.775440
  H      1.218760  -16.363560    4.313130
  H      2.006790  -14.060700    8.128490
  H      2.752900  -12.730680   10.108410
  H      4.973490  -11.450570    9.956940
  H      4.681420   -9.815260    8.145830
  H      3.969470   -8.448700    6.053810
  H      2.971070   -7.537070    4.004610
  H      4.686480  -14.077230   10.624020
  H      4.436800  -14.784140    7.660590
  H      5.818550  -15.862100   10.974600
  H      7.712730  -18.518390    7.056870
  H      9.681990  -19.928070   12.764880
  H     10.931000  -21.325610   10.952110
  H      8.074800  -18.135330   13.540770
  H      5.483390  -16.699460   12.765730
  H      3.326010  -15.048840   17.505710
  H      5.131610  -16.024280   19.783730
  H      3.571100  -15.077830   19.905060

 Total Charge           Charge          ....    0
 Multiplicity           Mult            ....    1
 Number of Electrons    NEL             ....  574
 Basis Dimension        Dim             .... 1248

ORBITAL ENERGIES
----------------

  NO   OCC          E(Eh)            E(eV)
   0   2.0000     -88.971209     -2421.0297
   1   2.0000     -88.969151     -2420.9737
   2   2.0000     -88.966372     -2420.8981
   3   2.0000     -88.965401     -2420.8716
   4   2.0000     -88.964869     -2420.8572
   5   2.0000     -88.953978     -2420.5608
   6   2.0000     -88.948853     -2420.4213
   7   2.0000     -88.948365     -2420.4081
   8   2.0000     -19.303625      -525.2783
   9   2.0000     -19.290814      -524.9297
  10   2.0000     -19.240332      -523.5560
  11   2.0000     -19.226504      -523.1798
  12   2.0000     -19.224071      -523.1136
  13   2.0000     -19.215762      -522.8875
  14   2.0000     -14.390110      -391.5748
  15   2.0000     -14.360862      -390.7789
  16   2.0000     -10.429901      -283.8120
  17   2.0000     -10.420035      -283.5436
  18   2.0000     -10.406374      -283.1718
  19   2.0000     -10.386247      -282.6242
  20   2.0000     -10.355316      -281.7825
  21   2.0000     -10.348681      -281.6019
  22   2.0000     -10.323306      -280.9114
  23   2.0000     -10.321944      -280.8744
  24   2.0000     -10.320273      -280.8289
  25   2.0000     -10.317390      -280.7505
  26   2.0000     -10.315007      -280.6856
  27   2.0000     -10.313957      -280.6570
  28   2.0000     -10.313657      -280.6489
  29   2.0000     -10.310846      -280.5724
  30   2.0000     -10.309833      -280.5448
  31   2.0000     -10.299554      -280.2651
  32   2.0000     -10.293342      -280.0961
  33   2.0000     -10.293221      -280.0928
  34   2.0000     -10.289754      -279.9984
  35   2.0000     -10.289677      -279.9964
  36   2.0000     -10.289249      -279.9847
  37   2.0000     -10.289195      -279.9832
  38   2.0000     -10.289150      -279.9820
  39   2.0000     -10.288525      -279.9650
  40   2.0000     -10.288501      -279.9643
  41   2.0000     -10.288492      -279.9641
  42   2.0000     -10.287137      -279.9272
  43   2.0000     -10.286997      -279.9234
  44   2.0000     -10.284529      -279.8563
  45   2.0000     -10.281602      -279.7766
  46   2.0000     -10.279053      -279.7073
  47   2.0000     -10.278584      -279.6945
  48   2.0000     -10.277402      -279.6623
  49   2.0000     -10.277336      -279.6605
  50   2.0000     -10.274134      -279.5734
  51   2.0000     -10.274069      -279.5716
  52   2.0000     -10.273202      -279.5480
  53   2.0000     -10.272912      -279.5401
  54   2.0000     -10.272059      -279.5169
  55   2.0000     -10.272050      -279.5167
  56   2.0000     -10.271635      -279.5054
  57   2.0000     -10.268630      -279.4236
  58   2.0000     -10.267544      -279.3941
  59   2.0000     -10.267001      -279.3793
  60   2.0000     -10.266373      -279.3622
  61   2.0000     -10.265850      -279.3480
  62   2.0000     -10.265809      -279.3469
  63   2.0000     -10.265269      -279.3322
  64   2.0000     -10.264601      -279.3140
  65   2.0000     -10.263840      -279.2933
  66   2.0000     -10.263505      -279.2842
  67   2.0000     -10.263259      -279.2775
  68   2.0000     -10.262396      -279.2540
  69   2.0000     -10.262379      -279.2535
  70   2.0000     -10.259467      -279.1743
  71   2.0000     -10.258121      -279.1377
  72   2.0000     -10.256121      -279.0832
  73   2.0000     -10.255557      -279.0679
  74   2.0000      -8.066800      -219.5088
  75   2.0000      -8.065364      -219.4697
  76   2.0000      -8.062114      -219.3813
  77   2.0000      -8.060787      -219.3452
  78   2.0000      -8.060174      -219.3285
  79   2.0000      -8.049278      -219.0320
  80   2.0000      -8.044195      -218.8937
  81   2.0000      -8.043731      -218.8810
  82   2.0000      -6.036202      -164.2534
  83   2.0000      -6.035113      -164.2238
  84   2.0000      -6.031815      -164.1340
  85   2.0000      -6.031318      -164.1205
  86   2.0000      -6.030727      -164.1044
  87   2.0000      -6.030104      -164.0875
  88   2.0000      -6.029700      -164.0765
  89   2.0000      -6.028855      -164.0535
  90   2.0000      -6.027542      -164.0178
  91   2.0000      -6.026305      -163.9841
  92   2.0000      -6.026111      -163.9788
  93   2.0000      -6.025315      -163.9571
  94   2.0000      -6.023977      -163.9208
  95   2.0000      -6.022727      -163.8867
  96   2.0000      -6.022069      -163.8688
  97   2.0000      -6.019159      -163.7896
  98   2.0000      -6.015022      -163.6771
  99   2.0000      -6.013656      -163.6399
 100   2.0000      -6.013215      -163.6279
 101   2.0000      -6.009932      -163.5386
 102   2.0000      -6.009436      -163.5251
 103   2.0000      -6.008962      -163.5122
 104   2.0000      -6.006202      -163.4371
 105   2.0000      -6.005712      -163.4237
 106   2.0000      -1.232392       -33.5351
 107   2.0000      -1.218212       -33.1492
 108   2.0000      -1.163741       -31.6670
 109   2.0000      -1.144036       -31.1308
 110   2.0000      -1.127238       -30.6737
 111   2.0000      -1.112586       -30.2750
 112   2.0000      -1.003166       -27.2975
 113   2.0000      -0.998711       -27.1763
 114   2.0000      -0.998062       -27.1587
 115   2.0000      -0.995912       -27.1001
 116   2.0000      -0.981145       -26.6983
 117   2.0000      -0.970834       -26.4177
 118   2.0000      -0.967232       -26.3197
 119   2.0000      -0.962954       -26.2033
 120   2.0000      -0.942424       -25.6447
 121   2.0000      -0.939269       -25.5588
 122   2.0000      -0.929731       -25.2993
 123   2.0000      -0.923961       -25.1423
 124   2.0000      -0.920226       -25.0406
 125   2.0000      -0.913161       -24.8484
 126   2.0000      -0.909618       -24.7520
 127   2.0000      -0.903240       -24.5784
 128   2.0000      -0.897579       -24.4244
 129   2.0000      -0.891990       -24.2723
 130   2.0000      -0.874412       -23.7940
 131   2.0000      -0.871216       -23.7070
 132   2.0000      -0.866477       -23.5780
 133   2.0000      -0.858430       -23.3591
 134   2.0000      -0.849219       -23.1084
 135   2.0000      -0.842564       -22.9273
 136   2.0000      -0.837923       -22.8010
 137   2.0000      -0.836480       -22.7618
 138   2.0000      -0.831562       -22.6280
 139   2.0000      -0.831202       -22.6182
 140   2.0000      -0.823894       -22.4193
 141   2.0000      -0.814577       -22.1658
 142   2.0000      -0.807714       -21.9790
 143   2.0000      -0.805194       -21.9104
 144   2.0000      -0.791813       -21.5463
 145   2.0000      -0.787317       -21.4240
 146   2.0000      -0.767008       -20.8713
 147   2.0000      -0.764830       -20.8121
 148   2.0000      -0.759679       -20.6719
 149   2.0000      -0.755752       -20.5651
 150   2.0000      -0.749949       -20.4071
 151   2.0000      -0.742864       -20.2144
 152   2.0000      -0.736162       -20.0320
 153   2.0000      -0.728538       -19.8245
 154   2.0000      -0.726484       -19.7686
 155   2.0000      -0.720675       -19.6106
 156   2.0000      -0.715633       -19.4734
 157   2.0000      -0.710435       -19.3319
 158   2.0000      -0.700038       -19.0490
 159   2.0000      -0.686292       -18.6749
 160   2.0000      -0.680816       -18.5259
 161   2.0000      -0.673013       -18.3136
 162   2.0000      -0.668725       -18.1969
 163   2.0000      -0.662448       -18.0261
 164   2.0000      -0.659791       -17.9538
 165   2.0000      -0.653447       -17.7812
 166   2.0000      -0.652435       -17.7537
 167   2.0000      -0.648691       -17.6518
 168   2.0000      -0.640805       -17.4372
 169   2.0000      -0.639103       -17.3909
 170   2.0000      -0.633235       -17.2312
 171   2.0000      -0.631244       -17.1770
 172   2.0000      -0.617913       -16.8143
 173   2.0000      -0.615768       -16.7559
 174   2.0000      -0.611659       -16.6441
 175   2.0000      -0.604489       -16.4490
 176   2.0000      -0.592867       -16.1327
 177   2.0000      -0.590657       -16.0726
 178   2.0000      -0.589982       -16.0542
 179   2.0000      -0.584810       -15.9135
 180   2.0000      -0.584473       -15.9043
 181   2.0000      -0.582510       -15.8509
 182   2.0000      -0.580824       -15.8050
 183   2.0000      -0.572008       -15.5651
 184   2.0000      -0.568325       -15.4649
 185   2.0000      -0.567745       -15.4491
 186   2.0000      -0.564980       -15.3739
 187   2.0000      -0.562992       -15.3198
 188   2.0000      -0.561275       -15.2731
 189   2.0000      -0.559385       -15.2216
 190   2.0000      -0.558360       -15.1937
 191   2.0000      -0.555955       -15.1283
 192   2.0000      -0.546705       -14.8766
 193   2.0000      -0.544812       -14.8251
 194   2.0000      -0.542741       -14.7687
 195   2.0000      -0.539594       -14.6831
 196   2.0000      -0.535065       -14.5599
 197   2.0000      -0.533120       -14.5069
 198   2.0000      -0.529753       -14.4153
 199   2.0000      -0.527357       -14.3501
 200   2.0000      -0.523024       -14.2322
 201   2.0000      -0.520267       -14.1572
 202   2.0000      -0.517935       -14.0937
 203   2.0000      -0.515847       -14.0369
 204   2.0000      -0.514721       -14.0063
 205   2.0000      -0.512642       -13.9497
 206   2.0000      -0.510867       -13.9014
 207   2.0000      -0.509679       -13.8691
 208   2.0000      -0.508220       -13.8294
 209   2.0000      -0.507428       -13.8078
 210   2.0000      -0.506087       -13.7713
 211   2.0000      -0.503966       -13.7136
 212   2.0000      -0.499659       -13.5964
 213   2.0000      -0.498315       -13.5599
 214   2.0000      -0.497055       -13.5255
 215   2.0000      -0.495576       -13.4853
 216   2.0000      -0.494670       -13.4606
 217   2.0000      -0.489753       -13.3269
 218   2.0000      -0.488119       -13.2824
 219   2.0000      -0.485383       -13.2079
 220   2.0000      -0.478729       -13.0269
 221   2.0000      -0.477661       -12.9978
 222   2.0000      -0.471787       -12.8380
 223   2.0000      -0.469470       -12.7749
 224   2.0000      -0.467288       -12.7156
 225   2.0000      -0.467234       -12.7141
 226   2.0000      -0.463594       -12.6150
 227   2.0000      -0.461294       -12.5525
 228   2.0000      -0.459789       -12.5115
 229   2.0000      -0.456488       -12.4217
 230   2.0000      -0.455409       -12.3923
 231   2.0000      -0.452333       -12.3086
 232   2.0000      -0.449717       -12.2374
 233   2.0000      -0.446127       -12.1397
 234   2.0000      -0.445170       -12.1137
 235   2.0000      -0.441696       -12.0192
 236   2.0000      -0.441617       -12.0170
 237   2.0000      -0.435886       -11.8611
 238   2.0000      -0.434158       -11.8140
 239   2.0000      -0.433002       -11.7826
 240   2.0000      -0.430397       -11.7117
 241   2.0000      -0.429126       -11.6771
 242   2.0000      -0.428386       -11.6570
 243   2.0000      -0.427066       -11.6210
 244   2.0000      -0.423954       -11.5364
 245   2.0000      -0.423530       -11.5248
 246   2.0000      -0.422640       -11.5006
 247   2.0000      -0.421788       -11.4774
 248   2.0000      -0.417146       -11.3511
 249   2.0000      -0.412744       -11.2313
 250   2.0000      -0.412271       -11.2185
 251   2.0000      -0.409828       -11.1520
 252   2.0000      -0.404931       -11.0187
 253   2.0000      -0.402926       -10.9642
 254   2.0000      -0.402251       -10.9458
 255   2.0000      -0.401298       -10.9199
 256   2.0000      -0.399190       -10.8625
 257   2.0000      -0.395679       -10.7670
 258   2.0000      -0.391760       -10.6603
 259   2.0000      -0.389196       -10.5906
 260   2.0000      -0.388548       -10.5729
 261   2.0000      -0.384907       -10.4738
 262   2.0000      -0.378838       -10.3087
 263   2.0000      -0.378199       -10.2913
 264   2.0000      -0.377259       -10.2657
 265   2.0000      -0.358708        -9.7609
 266   2.0000      -0.354913        -9.6577
 267   2.0000      -0.352694        -9.5973
 268   2.0000      -0.348766        -9.4904
 269   2.0000      -0.347005        -9.4425
 270   2.0000      -0.338091        -9.1999
 271   2.0000      -0.333177        -9.0662
 272   2.0000      -0.326336        -8.8801
 273   2.0000      -0.324009        -8.8167
 274   2.0000      -0.319767        -8.7013
 275   2.0000      -0.312180        -8.4948
 276   2.0000      -0.303687        -8.2637
 277   2.0000      -0.296960        -8.0807
 278   2.0000      -0.288669        -7.8551
 279   2.0000      -0.284886        -7.7521
 280   2.0000      -0.283739        -7.7209
 281   2.0000      -0.280636        -7.6365
 282   2.0000      -0.267673        -7.2838
 283   2.0000      -0.262546        -7.1442
 284   2.0000      -0.225670        -6.1408
 285   2.0000      -0.221746        -6.0340
 286   2.0000      -0.213828        -5.8185
 287   0.0000      -0.068087        -1.8527
 288   0.0000      -0.061875        -1.6837
 289   0.0000      -0.048397        -1.3169
 290   0.0000      -0.044895        -1.2217
 291   0.0000      -0.036986        -1.0064

MULLIKEN ATOMIC CHARGES
-----------------------
   0 C :   -0.109921
   1 S :    0.130559
   2 C :   -0.111217
   3 C :   -0.096092
   4 C :    0.252696
   5 O :   -0.195689
   6 C :    0.239104
   7 O :   -0.172848
   8 C :   -0.001722
   9 O :   -0.167233
  10 S :    0.113937
  11 C :   -0.018626
  12 C :    0.021876
  13 C :   -0.091290
  14 C :   -0.043593
  15 C :    0.024446
  16 C :    0.078544
  17 C :   -0.141332
  18 S :    0.126112
  19 C :   -0.118683
  20 C :    0.066734
  21 C :    0.006395
  22 C :   -0.072600
  23 S :    0.121251
  24 C :    0.047001
  25 C :   -0.017066
  26 C :   -0.034932
  27 C :    0.128544
  28 C :   -0.137611
  29 C :    0.071072
  30 C :   -0.072529
  31 C :   -0.080824
  32 C :    0.132829
  33 N :   -0.206544
  34 C :    0.144952
  35 N :   -0.214922
  36 C :    0.021942
  37 C :   -0.110750
  38 C :    0.189566
  39 C :   -0.018077
  40 C :    0.024265
  41 C :    0.109253
  42 C :    0.021067
  43 C :   -0.002210
  44 C :   -0.015598
  45 C :   -0.085237
  46 C :    0.067597
  47 C :   -0.071630
  48 C :   -0.034760
  49 C :    0.038386
  50 C :    0.058491
  51 C :   -0.133902
  52 S :    0.128705
  53 C :   -0.110399
  54 C :    0.045744
  55 C :    0.006773
  56 C :   -0.069897
  57 S :    0.118832
  58 C :    0.072426
  59 C :   -0.024962
  60 C :    0.024453
  61 C :   -0.124419
  62 S :    0.144560
  63 C :   -0.183439
  64 C :   -0.028315
  65 C :    0.160852
  66 O :   -0.209886
  67 C :    0.212852
  68 O :   -0.130233
  69 C :    0.016351
  70 O :   -0.122443
  71 S :    0.099044
  72 C :    0.046613
  73 C :   -0.041478
  74 H :    0.024356
  75 H :    0.024641
  76 H :   -0.010875
  77 H :   -0.014411
  78 H :    0.033371
  79 H :   -0.019309
  80 H :    0.024405
  81 H :   -0.011076
  82 H :   -0.003749
  83 H :   -0.048083
  84 H :   -0.011748
  85 H :   -0.004023
  86 H :    0.005306
  87 H :    0.076815
  88 H :    0.080611
  89 H :   -0.014976
  90 H :   -0.004472
  91 H :    0.100116
  92 H :    0.097736
  93 H :   -0.007893
  94 H :    0.063712
  95 H :   -0.013413
  96 H :   -0.036397
  97 H :   -0.038099
  98 H :   -0.034758
  99 H :    0.003644
 100 H :    0.000726
 101 H :   -0.034312
 102 H :    0.032745
 103 H :   -0.002057
 104 H :    0.026986
 105 H :    0.001266
 106 H :   -0.034884
 107 H :   -0.008144
 108 H :    0.033376
 109 H :    0.031953
Sum of atomic charges:   -0.0000000

LOEWDIN ATOMIC CHARGES
----------------------
   0 C :   -0.178352
   1 S :    0.446876
   2 C :   -0.202255
   3 C :   -0.220837
   4 C :   -0.004137
   5 O :   -0.015269
   6 C :    0.059379
   7 O :   -0.132694
   8 C :   -0.122338
   9 O :   -0.112428
  10 S :    0.390485
  11 C :   -0.041217
  12 C :   -0.042947
  13 C :   -0.181071
  14 C :   -0.017633
  15 C :   -0.020693
  16 C :   -0.052399
  17 C :   -0.140936
  18 S :    0.433565
  19 C :   -0.206305
  20 C :   -0.040584
  21 C :   -0.064680
  22 C :   -0.167992
  23 S :    0.414878
  24 C :   -0.052968
  25 C :   -0.019248
  26 C :   -0.028065
  27 C :   -0.016623
  28 C :   -0.035432
  29 C :   -0.011670
  30 C :   -0.068181
  31 C :   -0.043286
  32 C :    0.025490
  33 N :   -0.122497
  34 C :    0.026085
  35 N :   -0.106142
  36 C :   -0.038903
  37 C :    0.073378
  38 C :   -0.030598
  39 C :    0.001938
  40 C :   -0.017760
  41 C :    0.019945
  42 C :   -0.042159
  43 C :    0.001286
  44 C :   -0.032487
  45 C :    0.004950
  46 C :   -0.054174
  47 C :   -0.166377
  48 C :   -0.023528
  49 C :   -0.015813
  50 C :   -0.043916
  51 C :   -0.147396
  52 S :    0.452183
  53 C :   -0.209575
  54 C :   -0.035785
  55 C :   -0.062145
  56 C :   -0.163659
  57 S :    0.413044
  58 C :   -0.061202
  59 C :    0.003016
  60 C :   -0.074992
  61 C :   -0.175696
  62 S :    0.457404
  63 C :   -0.196855
  64 C :   -0.218874
  65 C :   -0.016281
  66 O :   -0.011389
  67 C :    0.046220
  68 O :   -0.106043
  69 C :   -0.105635
  70 O :   -0.099101
  71 S :    0.394540
  72 C :   -0.046813
  73 C :   -0.045896
  74 H :    0.032016
  75 H :    0.028241
  76 H :    0.025394
  77 H :    0.037344
  78 H :    0.034479
  79 H :    0.030279
  80 H :    0.022044
  81 H :    0.024776
  82 H :    0.029491
  83 H :    0.021581
  84 H :    0.019348
  85 H :    0.001381
  86 H :    0.011667
  87 H :    0.036309
  88 H :    0.046171
  89 H :   -0.002428
  90 H :    0.018560
  91 H :    0.055307
  92 H :    0.057665
  93 H :    0.028659
  94 H :    0.078786
  95 H :    0.026154
  96 H :    0.030083
  97 H :    0.027709
  98 H :    0.023491
  99 H :    0.024726
 100 H :    0.025685
 101 H :    0.032496
 102 H :    0.035081
 103 H :    0.035150
 104 H :    0.023358
 105 H :    0.032387
 106 H :    0.020927
 107 H :    0.031106
 108 H :    0.011418
 109 H :    0.030429

  Mayer bond orders larger than 0.100000
B(  0-C ,  1-S ) :   1.1421 B(  0-C ,  4-C ) :   1.5776 B(  0-C , 74-H ) :   0.9646
B(  1-S ,  2-C ) :   1.1192 B(  2-C ,  3-C ) :   1.5028 B(  2-C , 11-C ) :   1.1656
B(  3-C ,  4-C ) :   1.2472 B(  3-C , 10-S ) :   0.9933 B(  4-C ,  5-O ) :   1.0370
B(  5-O ,  6-C ) :   1.1153 B(  6-C ,  7-O ) :   2.1054 B(  6-C ,  8-C ) :   0.8453
B(  8-C ,  9-O ) :   2.0027 B(  8-C , 10-S ) :   1.0201 B(  9-O , 10-S ) :   0.1117
B( 11-C , 12-C ) :   1.7119 B( 11-C , 75-H ) :   0.9484 B( 12-C , 13-C ) :   1.0825
B( 12-C , 76-H ) :   0.9733 B( 13-C , 14-C ) :   1.5495 B( 13-C , 18-S ) :   1.0353
B( 14-C , 15-C ) :   1.2429 B( 14-C , 77-H ) :   0.9541 B( 15-C , 16-C ) :   1.0481
B( 15-C , 24-C ) :   1.4331 B( 16-C , 17-C ) :   1.6083 B( 16-C , 19-C ) :   1.1763
B( 17-C , 18-S ) :   1.1426 B( 17-C , 78-H ) :   0.9392 B( 19-C , 20-C ) :   1.4340
B( 19-C , 23-S ) :   1.0713 B( 20-C , 21-C ) :   1.2169 B( 20-C , 24-C ) :   1.1064
B( 21-C , 22-C ) :   1.5818 B( 21-C , 79-H ) :   1.0003 B( 22-C , 23-S ) :   1.1533
B( 22-C , 80-H ) :   0.9669 B( 24-C , 25-C ) :   1.0954 B( 25-C , 26-C ) :   1.6819
B( 25-C , 81-H ) :   0.9566 B( 26-C , 27-C ) :   1.0831 B( 26-C , 82-H ) :   0.9800
B( 27-C , 28-C ) :   1.4366 B( 27-C , 44-C ) :   1.1689 B( 28-C , 29-C ) :   1.1540
B( 28-C , 83-H ) :   1.0035 B( 29-C , 30-C ) :   1.3622 B( 29-C , 42-C ) :   1.1652
B( 30-C , 31-C ) :   1.0322 B( 30-C , 36-C ) :   1.1107 B( 31-C , 32-C ) :   1.0344
B( 31-C , 34-C ) :   1.0574 B( 31-C , 84-H ) :   0.8749 B( 32-C , 33-N ) :   1.1046
B( 32-C , 85-H ) :   0.9126 B( 32-C , 86-H ) :   0.9477 B( 33-N , 87-H ) :   0.9438
B( 33-N , 88-H ) :   0.9579 B( 34-C , 35-N ) :   1.0805 B( 34-C , 89-H ) :   0.9478
B( 34-C , 90-H ) :   0.9290 B( 35-N , 91-H ) :   0.9629 B( 35-N , 92-H ) :   0.9674
B( 36-C , 37-C ) :   1.6279 B( 36-C , 41-C ) :   1.0708 B( 37-C , 38-C ) :   0.9766
B( 37-C , 93-H ) :   0.9653 B( 38-C , 39-C ) :   0.9921 B( 38-C , 45-C ) :   0.9623
B( 38-C , 94-H ) :   0.8098 B( 39-C , 40-C ) :   1.7265 B( 39-C , 95-H ) :   0.9697
B( 40-C , 41-C ) :   1.1292 B( 40-C , 96-H ) :   0.9862 B( 41-C , 42-C ) :   1.3495
B( 42-C , 43-C ) :   1.1735 B( 43-C , 44-C ) :   1.5687 B( 43-C , 97-H ) :   0.9908
B( 44-C , 98-H ) :   0.9827 B( 45-C , 46-C ) :   1.8673 B( 45-C , 99-H ) :   0.9635
B( 46-C , 47-C ) :   1.0549 B( 46-C ,100-H ) :   0.9443 B( 47-C , 48-C ) :   1.5809
B( 47-C , 52-S ) :   1.0639 B( 48-C , 49-C ) :   1.2282 B( 48-C ,101-H ) :   0.9635
B( 49-C , 50-C ) :   1.0536 B( 49-C , 58-C ) :   1.3886 B( 50-C , 51-C ) :   1.6024
B( 50-C , 53-C ) :   1.1861 B( 51-C , 52-S ) :   1.1363 B( 51-C ,102-H ) :   0.9420
B( 53-C , 54-C ) :   1.4456 B( 53-C , 57-S ) :   1.0660 B( 54-C , 55-C ) :   1.2228
B( 54-C , 58-C ) :   1.1004 B( 55-C , 56-C ) :   1.5845 B( 55-C ,103-H ) :   0.9967
B( 56-C , 57-S ) :   1.1535 B( 56-C ,104-H ) :   0.9659 B( 58-C , 59-C ) :   1.1638
B( 59-C , 60-C ) :   1.6324 B( 59-C ,105-H ) :   0.9618 B( 60-C , 61-C ) :   1.1355
B( 60-C ,106-H ) :   0.9469 B( 61-C , 62-S ) :   1.1263 B( 61-C , 63-C ) :   0.1047
B( 61-C , 65-C ) :   1.4892 B( 62-S , 63-C ) :   1.1243 B( 63-C , 64-C ) :   1.5543
B( 63-C , 72-C ) :   1.1203 B( 64-C , 65-C ) :   1.2620 B( 64-C , 71-S ) :   0.9568
B( 65-C , 66-O ) :   1.0451 B( 66-O , 67-C ) :   1.0913 B( 67-C , 68-O ) :   2.2141
B( 67-C , 69-C ) :   0.8083 B( 69-C , 70-O ) :   2.1656 B( 69-C , 71-S ) :   1.0494
B( 70-O , 71-S ) :   0.1398 B( 72-C , 73-C ) :   1.9235 B( 72-C ,107-H ) :   0.9467
B( 73-C ,108-H ) :   0.9532 B( 73-C ,109-H ) :   0.9449

-----------------------------------------------------------------------------
         ABSORPTION SPECTRUM VIA TRANSITION ELECTRIC DIPOLE MOMENTS
-----------------------------------------------------------------------------
State   Energy  Wavelength   fosc         T2         TX        TY        TZ
        (cm-1)    (nm)                  (au**2)     (au)      (au)      (au)
-----------------------------------------------------------------------------
   0   14786.5    676.3   0.021559784   0.48002  -0.19015  -0.66009   0.09023
   1   16988.1    588.6   0.173001022   3.35259  -1.77409  -0.01386  -0.45277
   2   19118.0    523.1   0.590514987  10.16866  -0.75799   0.84442  -2.98011
   3   19925.9    501.9   0.259147167   4.28159  -1.59046  -0.30977   1.28688
   4   20500.4    487.8   0.109863854   1.76428   0.73118  -1.03081  -0.40878
   5   21240.6    470.8   0.022649392   0.35105   0.44078   0.09681  -0.38391
   6   21721.2    460.4   0.001200551   0.01820   0.02989   0.07879   0.10533
   7   21844.8    457.8   0.019835653   0.29893  -0.28466   0.44119  -0.15251
   8   22334.0    447.7   0.002921546   0.04306  -0.12741   0.15736   0.04549
   9   22916.4    436.4   0.314955434   4.52457   0.23839  -0.92078   1.90261
  10   23640.8    423.0   0.297486183   4.14267  -0.00338   0.36730  -2.00194
  11   24670.2    405.3   0.246610663   3.29090  -0.59729  -0.85482   1.48439
  12   26524.3    377.0   0.475676436   5.90396   0.78355  -1.54946   1.69976
  13   26604.6    375.9   0.018213304   0.22538   0.17791  -0.37188   0.23543
  14   28130.7    355.5   0.119669738   1.40049   0.08086  -0.12057  -1.17448
  15   28526.2    350.6   0.117888382   1.36051  -0.87360   0.73646  -0.23443
  16   28607.0    349.6   0.046596272   0.53623   0.39288  -0.52547  -0.32522
  17   28842.9    346.7   0.015702488   0.17923  -0.00833   0.00043   0.42327
  18   29106.2    343.6   0.476038178   5.38433   1.03051  -1.03896  -1.80082
  19   29345.2    340.8   0.060090068   0.67413   0.12518  -0.54598   0.60030
  20   29526.1    338.7   0.088206255   0.98349   0.23711  -0.28618   0.91944
  21   30042.7    332.9   0.099842648   1.09409   0.72895  -0.45976   0.59274
  22   30124.3    332.0   0.008104014   0.08856  -0.12194   0.17383  -0.20851
  23   30221.8    330.9   0.002097658   0.02285  -0.12734  -0.05737   0.05782
  24   31095.5    321.6   0.151909411   1.60828   1.05193  -0.28574   0.64814
  25   31390.6    318.6   0.029538702   0.30979  -0.39330   0.32879  -0.21681
  26   31964.1    312.9   0.129814866   1.33702  -0.31366   0.82062  -0.75181
  27   32211.2    310.5   0.102589403   1.04851  -0.67004   0.59141   0.49979
  28   32359.9    309.0   0.056642925   0.57625   0.05740   0.56740  -0.50101
  29   32462.9    308.0   0.022742596   0.23064  -0.28122   0.24685   0.30102
  30   32572.4    307.0   0.008830901   0.08925   0.20332  -0.05556  -0.21173
  31   32688.4    305.9   0.026555186   0.26744  -0.30308  -0.38575  -0.16367
  32   33136.6    301.8   0.113759766   1.13020   0.24254  -0.23607  -1.00779
  33   33272.6    300.5   0.962892451   9.52722   0.65847  -2.05418   2.20771
  34   33671.9    297.0   0.078627828   0.76875   0.14800  -0.33613   0.79616
  35   34380.7    290.9   0.054331956   0.52025  -0.55710   0.30943  -0.33785
  36   34524.4    289.6   0.159576156   1.52166   1.07586  -0.60164  -0.04699
  37   34562.9    289.3   0.069097202   0.65815  -0.71537  -0.22291   0.31098
  38   34796.9    287.4   0.143831073   1.36078   1.13063   0.28668  -0.01655
  39   34936.4    286.2   0.035830693   0.33764   0.52732   0.10196  -0.22175
  40   34979.0    285.9   0.045622944   0.42939  -0.00363   0.21647  -0.61848
  41   35308.7    283.2   0.007797870   0.07271   0.10069   0.17571   0.17803
  42   35407.7    282.4   0.062570461   0.58176   0.67432  -0.22487   0.27658
  43   35629.2    280.7   0.037040379   0.34225  -0.46430  -0.34430  -0.09018
  44   35832.3    279.1   0.000732995   0.00673  -0.06821  -0.03590  -0.02816
  45   36070.1    277.2   0.243042415   2.21825   0.97484  -0.99940   0.51879
  46   36200.9    276.2   0.004623871   0.04205   0.16856   0.10293  -0.05515
  47   36447.6    274.4   0.063204492   0.57089   0.74549  -0.07704   0.09590
  48   36779.7    271.9   0.421839947   3.77586  -1.28747   1.21922  -0.79485
  49   37042.5    270.0   0.417467569   3.71020   1.26582  -1.38539   0.43428
  50   37078.0    269.7   0.049339832   0.43808   0.33066   0.54454   0.17949
  51   37178.3    269.0   0.043301832   0.38344   0.15148   0.40952  -0.43907
  52   37366.0    267.6   0.105422786   0.92882   0.57679   0.15693  -0.75599
  53   37545.2    266.3   0.002110386   0.01850   0.05213  -0.09912   0.07722
  54   37800.8    264.5   0.024249224   0.21119   0.24789   0.06237  -0.38190
  55   37856.6    264.2   0.172541873   1.50047   0.51650   0.75597  -0.81377
  56   38017.8    263.0   0.026508626   0.22955  -0.09674   0.27689  -0.37884
  57   38511.4    259.7   0.055240302   0.47222  -0.67739  -0.00108  -0.11560
  58   38790.0    257.8   0.045818160   0.38886   0.16816  -0.02423   0.60000
  59   39052.4    256.1   0.010019053   0.08446  -0.22899  -0.17634   0.03046
  60   39258.7    254.7   0.096595490   0.81002  -0.56757   0.56585  -0.40951
  61   39459.2    253.4   0.140730123   1.17413   0.37295  -0.91655   0.44156
  62   39580.4    252.7   0.066445154   0.55266   0.47501  -0.53357   0.20575
  63   39787.7    251.3   0.184063375   1.52298   0.07003   0.58431  -1.08474
  64   40122.4    249.2   0.045278418   0.37152   0.14746  -0.55708   0.19859
  65   40188.6    248.8   0.008447519   0.06920   0.25576  -0.03081   0.05325
  66   40285.7    248.2   0.140441890   1.14768   0.85737  -0.62210  -0.15995

FINAL SINGLE POINT ENERGY     -5973.537853491405

DIPOLE MOMENT
-------------
                                X             Y             Z
Electronic contribution:     11.44000      -4.95109      27.52373
Nuclear contribution   :    -13.25617       5.39165     -29.68553
                        -----------------------------------------
Total Dipole Moment    :     -1.81617       0.44056      -2.16180
                        -----------------------------------------
Magnitude (a.u.)       :      2.85761
Magnitude (Debye)      :      7.26347

Rotational constants in cm-1:     0.001543     0.000245     0.000230
Rotational constants in MHz :    46.251579     7.341309     6.886464

                             ****ORCA TERMINATED NORMALLY****
TOTAL RUN TIME: 0 days 0 hours 12 minutes 46 seconds 161 msec
