                         Program Version 4.2.0 -  RELEASE  -
|  1> # ORCA input file
|  2> # SCF done       -200.948464101513          0.000808024405
|  3> ! CAM-B3LYP def2-SVP def2/J RIJCOSX Grid4 TightSCF
|  4> %maxcore 5000
|  5> %tddft
|  6>     Mode sTDDFT
|  7>     Ethresh 5.0
|  8>     maxcore 5000
|  9> end
| 10>
| 11> %pal
| 12>   nprocs 6
| 13>   end
| 14> * xyz 0 1
| 15>    C       -0.16152         7.38545        -5.31153
| 16>    C        0.40586         6.37642        -4.57296
| 17>    C        1.75038         6.39571        -4.15785
| 18>    N        2.85995         6.35436        -3.86039
| 19>    C       -0.25987         5.15812        -4.33809
| 20>    N       -0.79674         4.15468        -4.18427
| 21>    C        0.52953         8.58445        -5.76480
| 22>    C       -0.12742         9.06524        -6.93568
| 23>    C        0.32373        10.16836        -7.60049
| 24>    C        1.45069        10.86143        -7.09950
| 25>    C        2.08181        10.40713        -5.90530
| 26>    C        1.60568         9.24986        -5.24702
| 27>    C        3.18372        11.12601        -5.40063
| 28>    C        3.65134        12.23546        -6.05123
| 29>    C        3.03751        12.67671        -7.23269
| 30>    C        1.95978        12.00563        -7.74457
| 31>    C       -1.30485         8.21885        -7.21394
| 32>    O       -2.06213         8.27023        -8.15481
| 33>    C       -1.40985         7.30980        -6.03530
| 34>    C       -2.57833         6.66916        -5.74855
| 35>    C       -2.97495         6.21238        -4.46751
| 36>    O       -2.32095         6.67141        -3.37537
| 37>    C       -2.96053         6.23065        -2.27110
| 38>    C       -4.04956         5.46415        -2.64539
| 39>    C       -4.06454         5.44161        -4.04898
| 40>    C       -5.06076         4.72594        -4.87739
| 41>    O       -6.20030         4.57436        -4.53905
| 42>    O       -4.60898         4.24422        -6.04795
| 43>    C       -2.44440         6.62333        -0.98759
| 44>    C       -1.30082         7.38847        -0.93610
| 45>    C       -0.75889         7.77336         0.30274
| 46>    C        0.38765         8.48707         0.62449
| 47>    C        1.43058         9.01769        -0.30124
| 48>    C        2.07109         7.84503        -1.07035
| 49>    N        3.36426         8.22006        -1.59126
| 50>    C        0.85652        10.08533        -1.25023
| 51>    N        1.91419        10.71641        -2.02935
| 52>    C        0.45218         8.53239         2.06550
| 53>    C        1.36313         9.07381         2.89561
| 54>    C        1.25289         8.93678         4.37085
| 55>    C        0.02425         8.21571         4.84654
| 56>    C       -0.89075         7.70699         4.00184
| 57>    C       -0.71852         7.82100         2.60159
| 58>    C       -1.44668         7.36401         1.52281
| 59>    C       -2.63506         6.59903         1.43341
| 60>    C       -3.11351         6.23323         0.21823
| 61>    C        1.30573        10.24131         5.11431
| 62>    C        1.00053        11.42274         4.56740
| 63>    C        0.98477        12.69325         5.23255
| 64>    O        0.62231        13.72643         4.46192
| 65>    C        0.66399        14.87168         5.19829
| 66>    C        1.07804        14.55633         6.47900
| 67>    C        1.28808        13.16369         6.52172
| 68>    C        1.72675        12.42720         7.72525
| 69>    O        1.72853        11.22832         7.83498
| 70>    O        2.13563        13.18776         8.74747
| 71>    C        0.30288        16.06033         4.52101
| 72>    C        0.21625        17.34655         4.96616
| 73>    C       -0.19535        18.47099         4.13336
| 74>    C       -0.34010        18.48155         2.77071
| 75>    C       -0.72810        19.61871         2.02903
| 76>    N       -1.04027        20.50048         1.36386
| 77>    C       -0.09331        17.40291         1.89523
| 78>    N        0.09923        16.58905         1.10758
| 79>    C       -0.37279        19.62837         5.00153
| 80>    C        0.01463        19.26514         6.32209
| 81>    C        0.43035        17.85635         6.34507
| 82>    O        0.86201        17.25907         7.31157
| 83>    C       -0.02768        20.15145         7.36009
| 84>    C       -0.47735        21.46870         7.12194
| 85>    C       -0.87721        21.83931         5.80521
| 86>    C       -0.81720        20.90016         4.75003
| 87>    C       -1.32924        23.15539         5.57922
| 88>    C       -1.38288        24.06256         6.60239
| 89>    C       -0.98801        23.69651         7.89781
| 90>    C       -0.54470        22.42693         8.15225
| 91>    H       -0.17419        10.51521        -8.49368
| 92>    H        2.09036         8.93404        -4.33665
| 93>    H        3.65073        10.78048        -4.49039
| 94>    H        4.49833        12.77862        -5.65938
| 95>    H        3.42068        13.55249        -7.73435
| 96>    H        1.48104        12.34407        -8.65183
| 97>    H       -3.32097         6.63130        -6.53736
| 98>    H       -4.75090         4.96399        -2.01121
| 99>    H       -3.65381         4.34524        -6.15610
|100>    H       -0.82220         7.68048        -1.85693
|101>    H        2.22858         9.48496         0.28425
|102>    H        1.36268         7.51028        -1.84646
|103>    H        2.21642         7.00477        -0.38206
|104>    H        3.25901         9.05182        -2.16641
|105>    H        3.73751         7.46971        -2.16549
|106>    H        0.27944        10.80721        -0.64745
|107>    H        0.16441         9.62329        -1.95811
|108>    H        2.54131        11.22356        -1.41171
|109>    H        1.51500        11.38740        -2.67812
|110>    H        2.23054         9.60465         2.52686
|111>    H        2.12873         8.35221         4.69911
|112>    H       -0.08857         8.13619         5.91600
|113>    H       -1.76089         7.19217         4.38215
|114>    H       -3.14491         6.30579         2.33890
|115>    H       -4.01192         5.64326         0.13719
|116>    H        1.54756        10.17407         6.16396
|117>    H        0.72473        11.49081         3.52197
|118>    H        1.17810        15.28008         7.26293
|119>    H        2.09578        14.13648         8.56338
|120>    H        0.04672        15.87020         3.48595
|121>    H        0.27637        19.84918         8.35130
|122>    H       -1.13083        21.21356         3.76718
|123>    H       -1.63124        23.43349         4.58027
|124>    H       -1.73005        25.06820         6.41889
|125>    H       -1.03705        24.42506         8.69303
|126>    H       -0.23958        22.13896         9.14757
|127> *
|128>
|129>                          ****END OF INPUT****

CARTESIAN COORDINATES (ANGSTROEM)
---------------------------------
  C     -0.161520    7.385450   -5.311530
  C      0.405860    6.376420   -4.572960
  C      1.750380    6.395710   -4.157850
  N      2.859950    6.354360   -3.860390
  C     -0.259870    5.158120   -4.338090
  N     -0.796740    4.154680   -4.184270
  C      0.529530    8.584450   -5.764800
  C     -0.127420    9.065240   -6.935680
  C      0.323730   10.168360   -7.600490
  C      1.450690   10.861430   -7.099500
  C      2.081810   10.407130   -5.905300
  C      1.605680    9.249860   -5.247020
  C      3.183720   11.126010   -5.400630
  C      3.651340   12.235460   -6.051230
  C      3.037510   12.676710   -7.232690
  C      1.959780   12.005630   -7.744570
  C     -1.304850    8.218850   -7.213940
  O     -2.062130    8.270230   -8.154810
  C     -1.409850    7.309800   -6.035300
  C     -2.578330    6.669160   -5.748550
  C     -2.974950    6.212380   -4.467510
  O     -2.320950    6.671410   -3.375370
  C     -2.960530    6.230650   -2.271100
  C     -4.049560    5.464150   -2.645390
  C     -4.064540    5.441610   -4.048980
  C     -5.060760    4.725940   -4.877390
  O     -6.200300    4.574360   -4.539050
  O     -4.608980    4.244220   -6.047950
  C     -2.444400    6.623330   -0.987590
  C     -1.300820    7.388470   -0.936100
  C     -0.758890    7.773360    0.302740
  C      0.387650    8.487070    0.624490
  C      1.430580    9.017690   -0.301240
  C      2.071090    7.845030   -1.070350
  N      3.364260    8.220060   -1.591260
  C      0.856520   10.085330   -1.250230
  N      1.914190   10.716410   -2.029350
  C      0.452180    8.532390    2.065500
  C      1.363130    9.073810    2.895610
  C      1.252890    8.936780    4.370850
  C      0.024250    8.215710    4.846540
  C     -0.890750    7.706990    4.001840
  C     -0.718520    7.821000    2.601590
  C     -1.446680    7.364010    1.522810
  C     -2.635060    6.599030    1.433410
  C     -3.113510    6.233230    0.218230
  C      1.305730   10.241310    5.114310
  C      1.000530   11.422740    4.567400
  C      0.984770   12.693250    5.232550
  O      0.622310   13.726430    4.461920
  C      0.663990   14.871680    5.198290
  C      1.078040   14.556330    6.479000
  C      1.288080   13.163690    6.521720
  C      1.726750   12.427200    7.725250
  O      1.728530   11.228320    7.834980
  O      2.135630   13.187760    8.747470
  C      0.302880   16.060330    4.521010
  C      0.216250   17.346550    4.966160
  C     -0.195350   18.470990    4.133360
  C     -0.340100   18.481550    2.770710
  C     -0.728100   19.618710    2.029030
  N     -1.040270   20.500480    1.363860
  C     -0.093310   17.402910    1.895230
  N      0.099230   16.589050    1.107580
  C     -0.372790   19.628370    5.001530
  C      0.014630   19.265140    6.322090
  C      0.430350   17.856350    6.345070
  O      0.862010   17.259070    7.311570
  C     -0.027680   20.151450    7.360090
  C     -0.477350   21.468700    7.121940
  C     -0.877210   21.839310    5.805210
  C     -0.817200   20.900160    4.750030
  C     -1.329240   23.155390    5.579220
  C     -1.382880   24.062560    6.602390
  C     -0.988010   23.696510    7.897810
  C     -0.544700   22.426930    8.152250
  H     -0.174190   10.515210   -8.493680
  H      2.090360    8.934040   -4.336650
  H      3.650730   10.780480   -4.490390
  H      4.498330   12.778620   -5.659380
  H      3.420680   13.552490   -7.734350
  H      1.481040   12.344070   -8.651830
  H     -3.320970    6.631300   -6.537360
  H     -4.750900    4.963990   -2.011210
  H     -3.653810    4.345240   -6.156100
  H     -0.822200    7.680480   -1.856930
  H      2.228580    9.484960    0.284250
  H      1.362680    7.510280   -1.846460
  H      2.216420    7.004770   -0.382060
  H      3.259010    9.051820   -2.166410
  H      3.737510    7.469710   -2.165490
  H      0.279440   10.807210   -0.647450
  H      0.164410    9.623290   -1.958110
  H      2.541310   11.223560   -1.411710
  H      1.515000   11.387400   -2.678120
  H      2.230540    9.604650    2.526860
  H      2.128730    8.352210    4.699110
  H     -0.088570    8.136190    5.916000
  H     -1.760890    7.192170    4.382150
  H     -3.144910    6.305790    2.338900
  H     -4.011920    5.643260    0.137190
  H      1.547560   10.174070    6.163960
  H      0.724730   11.490810    3.521970
  H      1.178100   15.280080    7.262930
  H      2.095780   14.136480    8.563380
  H      0.046720   15.870200    3.485950
  H      0.276370   19.849180    8.351300
  H     -1.130830   21.213560    3.767180
  H     -1.631240   23.433490    4.580270
  H     -1.730050   25.068200    6.418890
  H     -1.037050   24.425060    8.693030
  H     -0.239580   22.138960    9.147570

 Total Charge           Charge          ....    0
 Multiplicity           Mult            ....    1
 Number of Electrons    NEL             ....  514
 Basis Dimension        Dim             .... 1244

ORBITAL ENERGIES
----------------

  NO   OCC          E(Eh)            E(eV)
   0   2.0000     -19.322506      -525.7921
   1   2.0000     -19.309639      -525.4420
   2   2.0000     -19.270340      -524.3726
   3   2.0000     -19.262019      -524.1462
   4   2.0000     -19.231540      -523.3168
   5   2.0000     -19.215536      -522.8813
   6   2.0000     -19.211374      -522.7681
   7   2.0000     -19.200943      -522.4842
   8   2.0000     -14.424908      -392.5217
   9   2.0000     -14.421207      -392.4210
  10   2.0000     -14.417942      -392.3321
  11   2.0000     -14.415783      -392.2734
  12   2.0000     -14.397427      -391.7739
  13   2.0000     -14.349754      -390.4767
  14   2.0000     -10.420761      -283.5633
  15   2.0000     -10.408291      -283.2240
  16   2.0000     -10.381766      -282.5022
  17   2.0000     -10.380009      -282.4544
  18   2.0000     -10.367872      -282.1241
  19   2.0000     -10.359183      -281.8877
  20   2.0000     -10.356938      -281.8266
  21   2.0000     -10.355506      -281.7876
  22   2.0000     -10.350128      -281.6413
  23   2.0000     -10.349517      -281.6247
  24   2.0000     -10.343032      -281.4482
  25   2.0000     -10.341184      -281.3979
  26   2.0000     -10.334288      -281.2103
  27   2.0000     -10.327591      -281.0280
  28   2.0000     -10.324440      -280.9423
  29   2.0000     -10.324165      -280.9348
  30   2.0000     -10.321498      -280.8622
  31   2.0000     -10.318361      -280.7769
  32   2.0000     -10.313088      -280.6334
  33   2.0000     -10.310655      -280.5672
  34   2.0000     -10.309997      -280.5493
  35   2.0000     -10.309312      -280.5306
  36   2.0000     -10.308967      -280.5213
  37   2.0000     -10.306912      -280.4653
  38   2.0000     -10.305297      -280.4214
  39   2.0000     -10.305085      -280.4156
  40   2.0000     -10.304842      -280.4090
  41   2.0000     -10.304384      -280.3965
  42   2.0000     -10.304326      -280.3950
  43   2.0000     -10.303087      -280.3613
  44   2.0000     -10.302558      -280.3469
  45   2.0000     -10.301803      -280.3263
  46   2.0000     -10.297551      -280.2106
  47   2.0000     -10.297237      -280.2021
  48   2.0000     -10.297087      -280.1980
  49   2.0000     -10.296830      -280.1910
  50   2.0000     -10.296335      -280.1775
  51   2.0000     -10.295578      -280.1569
  52   2.0000     -10.293504      -280.1005
  53   2.0000     -10.293022      -280.0874
  54   2.0000     -10.292603      -280.0760
  55   2.0000     -10.292308      -280.0679
  56   2.0000     -10.292127      -280.0630
  57   2.0000     -10.291417      -280.0437
  58   2.0000     -10.289963      -280.0041
  59   2.0000     -10.289290      -279.9858
  60   2.0000     -10.286192      -279.9015
  61   2.0000     -10.285728      -279.8889
  62   2.0000     -10.285437      -279.8810
  63   2.0000     -10.284059      -279.8435
  64   2.0000     -10.281508      -279.7741
  65   2.0000     -10.281275      -279.7677
  66   2.0000     -10.278685      -279.6972
  67   2.0000     -10.277612      -279.6680
  68   2.0000     -10.277374      -279.6616
  69   2.0000     -10.276948      -279.6500
  70   2.0000     -10.271411      -279.4993
  71   2.0000     -10.270766      -279.4817
  72   2.0000     -10.269435      -279.4455
  73   2.0000     -10.269047      -279.4350
  74   2.0000     -10.268599      -279.4228
  75   2.0000     -10.268392      -279.4172
  76   2.0000      -1.244520       -33.8651
  77   2.0000      -1.231563       -33.5125
  78   2.0000      -1.196147       -32.5488
  79   2.0000      -1.184091       -32.2208
  80   2.0000      -1.145728       -31.1768
  81   2.0000      -1.130672       -30.7672
  82   2.0000      -1.108949       -30.1760
  83   2.0000      -1.099200       -29.9107
  84   2.0000      -1.026558       -27.9341
  85   2.0000      -1.019602       -27.7448
  86   2.0000      -1.007049       -27.4032
  87   2.0000      -1.001105       -27.2415
  88   2.0000      -0.998959       -27.1831
  89   2.0000      -0.995857       -27.0986
  90   2.0000      -0.990940       -26.9648
  91   2.0000      -0.979887       -26.6641
  92   2.0000      -0.976697       -26.5773
  93   2.0000      -0.972619       -26.4663
  94   2.0000      -0.958095       -26.0711
  95   2.0000      -0.942657       -25.6510
  96   2.0000      -0.937672       -25.5154
  97   2.0000      -0.934872       -25.4392
  98   2.0000      -0.931961       -25.3599
  99   2.0000      -0.927887       -25.2491
 100   2.0000      -0.924271       -25.1507
 101   2.0000      -0.921242       -25.0683
 102   2.0000      -0.908415       -24.7192
 103   2.0000      -0.901341       -24.5267
 104   2.0000      -0.888868       -24.1873
 105   2.0000      -0.886964       -24.1355
 106   2.0000      -0.884373       -24.0650
 107   2.0000      -0.880641       -23.9635
 108   2.0000      -0.872315       -23.7369
 109   2.0000      -0.854616       -23.2553
 110   2.0000      -0.844544       -22.9812
 111   2.0000      -0.838469       -22.8159
 112   2.0000      -0.835931       -22.7468
 113   2.0000      -0.831252       -22.6195
 114   2.0000      -0.827990       -22.5308
 115   2.0000      -0.815398       -22.1881
 116   2.0000      -0.796532       -21.6748
 117   2.0000      -0.784873       -21.3575
 118   2.0000      -0.771350       -20.9895
 119   2.0000      -0.766320       -20.8526
 120   2.0000      -0.765290       -20.8246
 121   2.0000      -0.759893       -20.6777
 122   2.0000      -0.751724       -20.4555
 123   2.0000      -0.744757       -20.2659
 124   2.0000      -0.726807       -19.7774
 125   2.0000      -0.724081       -19.7032
 126   2.0000      -0.719977       -19.5916
 127   2.0000      -0.718410       -19.5489
 128   2.0000      -0.711253       -19.3542
 129   2.0000      -0.704878       -19.1807
 130   2.0000      -0.703152       -19.1337
 131   2.0000      -0.701089       -19.0776
 132   2.0000      -0.700201       -19.0534
 133   2.0000      -0.697254       -18.9732
 134   2.0000      -0.687617       -18.7110
 135   2.0000      -0.685126       -18.6432
 136   2.0000      -0.679697       -18.4955
 137   2.0000      -0.677970       -18.4485
 138   2.0000      -0.675065       -18.3694
 139   2.0000      -0.673738       -18.3333
 140   2.0000      -0.660776       -17.9806
 141   2.0000      -0.652372       -17.7519
 142   2.0000      -0.645009       -17.5516
 143   2.0000      -0.636493       -17.3199
 144   2.0000      -0.633140       -17.2286
 145   2.0000      -0.626788       -17.0558
 146   2.0000      -0.622928       -16.9507
 147   2.0000      -0.613931       -16.7059
 148   2.0000      -0.608933       -16.5699
 149   2.0000      -0.607023       -16.5179
 150   2.0000      -0.602607       -16.3978
 151   2.0000      -0.602081       -16.3834
 152   2.0000      -0.595838       -16.2136
 153   2.0000      -0.591758       -16.1025
 154   2.0000      -0.590446       -16.0669
 155   2.0000      -0.583341       -15.8735
 156   2.0000      -0.582407       -15.8481
 157   2.0000      -0.575362       -15.6564
 158   2.0000      -0.569460       -15.4958
 159   2.0000      -0.566957       -15.4277
 160   2.0000      -0.564193       -15.3525
 161   2.0000      -0.559346       -15.2206
 162   2.0000      -0.556288       -15.1374
 163   2.0000      -0.554887       -15.0992
 164   2.0000      -0.554188       -15.0802
 165   2.0000      -0.550814       -14.9884
 166   2.0000      -0.546679       -14.8759
 167   2.0000      -0.545964       -14.8564
 168   2.0000      -0.544659       -14.8209
 169   2.0000      -0.542170       -14.7532
 170   2.0000      -0.540096       -14.6968
 171   2.0000      -0.539584       -14.6828
 172   2.0000      -0.535697       -14.5770
 173   2.0000      -0.533387       -14.5142
 174   2.0000      -0.531528       -14.4636
 175   2.0000      -0.531050       -14.4506
 176   2.0000      -0.529047       -14.3961
 177   2.0000      -0.526579       -14.3289
 178   2.0000      -0.524501       -14.2724
 179   2.0000      -0.522208       -14.2100
 180   2.0000      -0.521056       -14.1787
 181   2.0000      -0.518865       -14.1190
 182   2.0000      -0.516729       -14.0609
 183   2.0000      -0.515512       -14.0278
 184   2.0000      -0.511879       -13.9289
 185   2.0000      -0.510584       -13.8937
 186   2.0000      -0.508358       -13.8331
 187   2.0000      -0.507042       -13.7973
 188   2.0000      -0.505379       -13.7521
 189   2.0000      -0.503743       -13.7075
 190   2.0000      -0.501162       -13.6373
 191   2.0000      -0.499353       -13.5881
 192   2.0000      -0.495164       -13.4741
 193   2.0000      -0.494854       -13.4657
 194   2.0000      -0.493089       -13.4176
 195   2.0000      -0.492020       -13.3885
 196   2.0000      -0.489089       -13.3088
 197   2.0000      -0.483368       -13.1531
 198   2.0000      -0.481302       -13.0969
 199   2.0000      -0.476605       -12.9691
 200   2.0000      -0.473071       -12.8729
 201   2.0000      -0.472161       -12.8482
 202   2.0000      -0.470757       -12.8100
 203   2.0000      -0.465501       -12.6669
 204   2.0000      -0.463408       -12.6100
 205   2.0000      -0.456683       -12.4270
 206   2.0000      -0.456578       -12.4241
 207   2.0000      -0.456454       -12.4207
 208   2.0000      -0.451621       -12.2892
 209   2.0000      -0.451338       -12.2815
 210   2.0000      -0.447823       -12.1859
 211   2.0000      -0.447512       -12.1774
 212   2.0000      -0.443940       -12.0802
 213   2.0000      -0.442608       -12.0440
 214   2.0000      -0.441285       -12.0080
 215   2.0000      -0.440374       -11.9832
 216   2.0000      -0.438792       -11.9401
 217   2.0000      -0.436836       -11.8869
 218   2.0000      -0.435647       -11.8546
 219   2.0000      -0.431190       -11.7333
 220   2.0000      -0.430812       -11.7230
 221   2.0000      -0.429701       -11.6928
 222   2.0000      -0.427456       -11.6317
 223   2.0000      -0.426755       -11.6126
 224   2.0000      -0.419661       -11.4196
 225   2.0000      -0.416823       -11.3423
 226   2.0000      -0.414282       -11.2732
 227   2.0000      -0.413310       -11.2467
 228   2.0000      -0.409690       -11.1482
 229   2.0000      -0.408360       -11.1120
 230   2.0000      -0.403961       -10.9923
 231   2.0000      -0.401926       -10.9370
 232   2.0000      -0.397820       -10.8252
 233   2.0000      -0.396708       -10.7950
 234   2.0000      -0.390984       -10.6392
 235   2.0000      -0.390422       -10.6239
 236   2.0000      -0.383773       -10.4430
 237   2.0000      -0.379918       -10.3381
 238   2.0000      -0.376289       -10.2393
 239   2.0000      -0.373048       -10.1511
 240   2.0000      -0.365349        -9.9416
 241   2.0000      -0.363766        -9.8986
 242   2.0000      -0.355764        -9.6808
 243   2.0000      -0.353162        -9.6100
 244   2.0000      -0.351556        -9.5663
 245   2.0000      -0.340672        -9.2702
 246   2.0000      -0.335919        -9.1408
 247   2.0000      -0.325695        -8.8626
 248   2.0000      -0.324863        -8.8400
 249   2.0000      -0.318235        -8.6596
 250   2.0000      -0.315633        -8.5888
 251   2.0000      -0.303566        -8.2604
 252   2.0000      -0.295471        -8.0402
 253   2.0000      -0.285912        -7.7801
 254   2.0000      -0.280699        -7.6382
 255   2.0000      -0.274744        -7.4762
 256   2.0000      -0.228384        -6.2147
 257   0.0000      -0.102899        -2.8000
 258   0.0000      -0.101196        -2.7537
 259   0.0000      -0.072787        -1.9806
 260   0.0000      -0.067944        -1.8488
 261   0.0000      -0.055321        -1.5054

MULLIKEN ATOMIC CHARGES
-----------------------
   0 C :    0.255296
   1 C :   -0.306600
   2 C :   -0.164984
   3 N :    0.143377
   4 C :   -0.196901
   5 N :    0.157145
   6 C :    0.035324
   7 C :    0.013843
   8 C :   -0.079548
   9 C :    0.085952
  10 C :    0.082822
  11 C :   -0.054937
  12 C :   -0.017140
  13 C :    0.034937
  14 C :    0.035887
  15 C :   -0.013185
  16 C :    0.141924
  17 O :   -0.136106
  18 C :   -0.120361
  19 C :   -0.040625
  20 C :    0.118122
  21 O :   -0.207171
  22 C :    0.200086
  23 C :   -0.073317
  24 C :   -0.000849
  25 C :    0.154821
  26 O :   -0.160965
  27 O :   -0.156367
  28 C :    0.095147
  29 C :   -0.088938
  30 C :    0.046204
  31 C :   -0.010776
  32 C :   -0.049137
  33 C :    0.155735
  34 N :   -0.221212
  35 C :    0.133066
  36 N :   -0.226934
  37 C :    0.095642
  38 C :   -0.147899
  39 C :    0.157402
  40 C :   -0.042429
  41 C :    0.025284
  42 C :    0.020112
  43 C :    0.028726
  44 C :    0.007387
  45 C :   -0.020881
  46 C :   -0.093982
  47 C :    0.009840
  48 C :    0.193833
  49 O :   -0.176757
  50 C :    0.150736
  51 C :   -0.096197
  52 C :   -0.089035
  53 C :    0.193855
  54 O :   -0.180032
  55 O :   -0.146795
  56 C :   -0.005928
  57 C :   -0.078451
  58 C :    0.316053
  59 C :   -0.355936
  60 C :   -0.183332
  61 N :    0.150017
  62 C :   -0.191660
  63 N :    0.155818
  64 C :    0.049640
  65 C :   -0.000851
  66 C :    0.163803
  67 O :   -0.168288
  68 C :   -0.082070
  69 C :    0.099074
  70 C :    0.096798
  71 C :   -0.082602
  72 C :   -0.018866
  73 C :    0.039022
  74 C :    0.035589
  75 C :   -0.016323
  76 H :   -0.011633
  77 H :   -0.033550
  78 H :   -0.014639
  79 H :   -0.005479
  80 H :   -0.004911
  81 H :   -0.017413
  82 H :    0.032166
  83 H :    0.005055
  84 H :    0.188731
  85 H :   -0.012246
  86 H :   -0.037030
  87 H :   -0.041463
  88 H :    0.001700
  89 H :    0.087778
  90 H :    0.096864
  91 H :    0.001044
  92 H :   -0.014310
  93 H :    0.104427
  94 H :    0.106637
  95 H :    0.001764
  96 H :    0.053820
  97 H :    0.000747
  98 H :   -0.032619
  99 H :   -0.032339
 100 H :   -0.025385
 101 H :    0.048790
 102 H :    0.011138
 103 H :    0.010248
 104 H :    0.185368
 105 H :    0.022168
 106 H :   -0.013872
 107 H :   -0.006551
 108 H :   -0.007644
 109 H :   -0.002805
 110 H :   -0.001713
 111 H :   -0.016791
Sum of atomic charges:   -0.0000000

LOEWDIN ATOMIC CHARGES
----------------------
   0 C :    0.070023
   1 C :   -0.138659
   2 C :   -0.009087
   3 N :   -0.051623
   4 C :   -0.018373
   5 N :   -0.058477
   6 C :   -0.024969
   7 C :   -0.056763
   8 C :    0.032493
   9 C :   -0.009662
  10 C :   -0.006658
  11 C :    0.018627
  12 C :   -0.007836
  13 C :   -0.014354
  14 C :   -0.013142
  15 C :   -0.008867
  16 C :    0.082941
  17 O :   -0.139351
  18 C :   -0.077588
  19 C :    0.021510
  20 C :    0.015594
  21 O :    0.031717
  22 C :    0.078793
  23 C :   -0.033627
  24 C :   -0.067988
  25 C :    0.078772
  26 O :   -0.142462
  27 O :   -0.022380
  28 C :   -0.048380
  29 C :    0.008518
  30 C :   -0.021069
  31 C :   -0.018844
  32 C :   -0.039353
  33 C :    0.033252
  34 N :   -0.123183
  35 C :    0.027401
  36 N :   -0.101765
  37 C :   -0.015383
  38 C :    0.066014
  39 C :   -0.032281
  40 C :   -0.023456
  41 C :   -0.015696
  42 C :   -0.034847
  43 C :   -0.028230
  44 C :   -0.001808
  45 C :   -0.023246
  46 C :    0.052523
  47 C :   -0.068319
  48 C :    0.103322
  49 O :    0.035732
  50 C :    0.010189
  51 C :   -0.011667
  52 C :   -0.134178
  53 C :    0.091836
  54 O :   -0.158090
  55 O :   -0.019449
  56 C :    0.055343
  57 C :   -0.091111
  58 C :    0.076984
  59 C :   -0.139219
  60 C :   -0.017039
  61 N :   -0.051669
  62 C :   -0.023579
  63 N :   -0.050789
  64 C :   -0.026450
  65 C :   -0.057141
  66 C :    0.091356
  67 O :   -0.154332
  68 C :    0.033379
  69 C :   -0.008264
  70 C :   -0.005530
  71 C :    0.021252
  72 C :   -0.004438
  73 C :   -0.011172
  74 C :   -0.010445
  75 C :   -0.009054
  76 H :    0.039531
  77 H :    0.034690
  78 H :    0.033244
  79 H :    0.032823
  80 H :    0.032835
  81 H :    0.031936
  82 H :    0.051176
  83 H :    0.041355
  84 H :    0.094048
  85 H :    0.021840
  86 H :    0.020215
  87 H :   -0.007695
  88 H :    0.019705
  89 H :    0.028236
  90 H :    0.044242
  91 H :    0.006268
  92 H :    0.014741
  93 H :    0.058810
  94 H :    0.059541
  95 H :    0.032697
  96 H :    0.070276
  97 H :    0.029724
  98 H :    0.031668
  99 H :    0.029955
 100 H :    0.028397
 101 H :    0.032571
 102 H :    0.038939
 103 H :    0.027253
 104 H :    0.096419
 105 H :    0.054640
 106 H :    0.038513
 107 H :    0.039580
 108 H :    0.035384
 109 H :    0.034168
 110 H :    0.033920
 111 H :    0.032128

  Mayer bond orders larger than 0.100000
B(  0-C ,  1-C ) :   1.6511 B(  0-C ,  6-C ) :   0.9917 B(  0-C , 18-C ) :   1.0555
B(  1-C ,  2-C ) :   1.1490 B(  1-C ,  4-C ) :   1.1568 B(  2-C ,  3-N ) :   2.9346
B(  4-C ,  5-N ) :   3.0054 B(  6-C ,  7-C ) :   1.2120 B(  6-C , 11-C ) :   1.4552
B(  7-C ,  8-C ) :   1.4767 B(  7-C , 16-C ) :   0.9166 B(  8-C ,  9-C ) :   1.1829
B(  8-C , 76-H ) :   1.0162 B(  9-C , 10-C ) :   1.2542 B(  9-C , 15-C ) :   1.2484
B( 10-C , 11-C ) :   1.2113 B( 10-C , 12-C ) :   1.2436 B( 11-C , 77-H ) :   0.9909
B( 12-C , 13-C ) :   1.4826 B( 12-C , 78-H ) :   0.9968 B( 13-C , 14-C ) :   1.2601
B( 13-C , 79-H ) :   0.9902 B( 14-C , 15-C ) :   1.4885 B( 14-C , 80-H ) :   0.9890
B( 15-C , 81-H ) :   0.9970 B( 16-C , 17-O ) :   2.2828 B( 16-C , 18-C ) :   0.9350
B( 18-C , 19-C ) :   1.6154 B( 19-C , 20-C ) :   1.1403 B( 19-C , 82-H ) :   0.9430
B( 20-C , 21-O ) :   1.1182 B( 20-C , 24-C ) :   1.3800 B( 21-O , 22-C ) :   1.1537
B( 22-C , 23-C ) :   1.4236 B( 22-C , 28-C ) :   1.0444 B( 23-C , 24-C ) :   1.2791
B( 23-C , 83-H ) :   1.0169 B( 24-C , 25-C ) :   0.8894 B( 25-C , 26-O ) :   2.2165
B( 25-C , 27-O ) :   1.2325 B( 27-O , 84-H ) :   0.9467 B( 28-C , 29-C ) :   1.5146
B( 28-C , 45-C ) :   1.1257 B( 29-C , 30-C ) :   1.1218 B( 29-C , 85-H ) :   0.9850
B( 30-C , 31-C ) :   1.4638 B( 30-C , 43-C ) :   1.1211 B( 31-C , 32-C ) :   1.0250
B( 31-C , 37-C ) :   1.1108 B( 32-C , 33-C ) :   1.0278 B( 32-C , 35-C ) :   1.0384
B( 32-C , 86-H ) :   0.8767 B( 33-C , 34-N ) :   1.1231 B( 33-C , 87-H ) :   0.9089
B( 33-C , 88-H ) :   0.9412 B( 34-N , 89-H ) :   0.9595 B( 34-N , 90-H ) :   0.9589
B( 35-C , 36-N ) :   1.0789 B( 35-C , 91-H ) :   0.9459 B( 35-C , 92-H ) :   0.9334
B( 36-N , 93-H ) :   0.9597 B( 36-N , 94-H ) :   0.9556 B( 37-C , 38-C ) :   1.6528
B( 37-C , 42-C ) :   1.0515 B( 38-C , 39-C ) :   0.9633 B( 38-C , 95-H ) :   0.9751
B( 39-C , 40-C ) :   0.9842 B( 39-C , 46-C ) :   0.9602 B( 39-C , 96-H ) :   0.8463
B( 40-C , 41-C ) :   1.7335 B( 40-C , 97-H ) :   0.9685 B( 41-C , 42-C ) :   1.1286
B( 41-C , 98-H ) :   0.9873 B( 42-C , 43-C ) :   1.4473 B( 43-C , 44-C ) :   1.1375
B( 44-C , 45-C ) :   1.6180 B( 44-C , 99-H ) :   0.9912 B( 45-C ,100-H ) :   0.9858
B( 46-C , 47-C ) :   1.7950 B( 46-C ,101-H ) :   0.9432 B( 47-C , 48-C ) :   1.1245
B( 47-C ,102-H ) :   0.9367 B( 48-C , 49-O ) :   1.2123 B( 48-C , 52-C ) :   1.3999
B( 49-O , 50-C ) :   1.0984 B( 50-C , 51-C ) :   1.4936 B( 50-C , 56-C ) :   1.1812
B( 51-C , 52-C ) :   1.1891 B( 51-C ,103-H ) :   0.9544 B( 52-C , 53-C ) :   0.9133
B( 53-C , 54-O ) :   2.0921 B( 53-C , 55-O ) :   1.2664 B( 54-O ,101-H ) :   0.1028
B( 55-O ,104-H ) :   0.9562 B( 56-C , 57-C ) :   1.5698 B( 56-C ,105-H ) :   0.9206
B( 57-C , 58-C ) :   1.0718 B( 57-C , 66-C ) :   0.9398 B( 58-C , 59-C ) :   1.6294
B( 58-C , 64-C ) :   0.9866 B( 59-C , 60-C ) :   1.1495 B( 59-C , 62-C ) :   1.1386
B( 60-C , 61-N ) :   2.9643 B( 62-C , 63-N ) :   2.9737 B( 64-C , 65-C ) :   1.2131
B( 64-C , 71-C ) :   1.4483 B( 65-C , 66-C ) :   0.9629 B( 65-C , 68-C ) :   1.4653
B( 66-C , 67-O ) :   2.1423 B( 67-O ,103-H ) :   0.1073 B( 68-C , 69-C ) :   1.1802
B( 68-C ,106-H ) :   1.0166 B( 69-C , 70-C ) :   1.2541 B( 69-C , 75-C ) :   1.2445
B( 70-C , 71-C ) :   1.2071 B( 70-C , 72-C ) :   1.2407 B( 71-C ,107-H ) :   0.9899
B( 72-C , 73-C ) :   1.4895 B( 72-C ,108-H ) :   0.9973 B( 73-C , 74-C ) :   1.2596
B( 73-C ,109-H ) :   0.9883 B( 74-C , 75-C ) :   1.4883 B( 74-C ,110-H ) :   0.9895
B( 75-C ,111-H ) :   0.9979

-----------------------------------------------------------------------------
         ABSORPTION SPECTRUM VIA TRANSITION ELECTRIC DIPOLE MOMENTS
-----------------------------------------------------------------------------
State   Energy  Wavelength   fosc         T2         TX        TY        TZ
        (cm-1)    (nm)                  (au**2)     (au)      (au)      (au)
-----------------------------------------------------------------------------
   0   11911.5    839.5   0.043390223   1.19923   0.04114   0.30197   1.05183
   1   15702.9    636.8   0.207385035   4.34783  -0.75528   0.00677   1.94354
   2   15972.4    626.1   0.069446420   1.43138  -0.07228  -1.16024  -0.28285
   3   20422.2    489.7   0.200670741   3.23487   1.17250  -0.17558  -1.35252
   4   21711.5    460.6   0.064673913   0.98065   0.10778  -0.11141  -0.97807
   5   23418.3    427.0   0.572503655   8.04820  -0.12817   2.83372   0.04249
   6   23659.7    422.7   0.443017509   6.16435  -0.33071   2.14477  -1.20621
   7   25061.4    399.0   0.022700967   0.29820   0.04444   0.04187   0.54266
   8   25372.4    394.1   0.075039053   0.97365  -0.29025  -0.88200   0.33388
   9   26405.2    378.7   0.087685426   1.09323  -0.18896  -0.02907  -1.02795
  10   26767.8    373.6   0.202154344   2.48625   0.22915  -1.52795  -0.31482
  11   27203.7    367.6   0.056197018   0.68008   0.62416   0.49811   0.20589
  12   27532.0    363.2   0.008451103   0.10105  -0.08506   0.22226  -0.21075
  13   28061.4    356.4   0.169359462   1.98690  -1.06646  -0.08140  -0.91812
  14   28284.2    353.6   0.044007270   0.51222   0.43046   0.01346   0.57161
  15   28674.2    348.7   0.057154253   0.65620   0.01422  -0.69498  -0.41592
  16   28901.7    346.0   0.007088288   0.08074   0.03145  -0.28232   0.00678
  17   29077.6    343.9   0.006409531   0.07257  -0.10147  -0.02353  -0.24843
  18   29372.7    340.5   0.007837408   0.08784   0.02763   0.21503   0.20209
  19   29433.5    339.7   0.006058081   0.06776   0.13757  -0.06858   0.21007
  20   29531.1    338.6   0.011924950   0.13294  -0.26599  -0.02438  -0.24818
  21   30515.5    327.7   0.441205636   4.75988  -0.34674  -1.34741  -1.68051
  22   30677.3    326.0   0.108805826   1.16764   0.60010  -0.86835   0.23128
  23   31313.4    319.4   0.261195344   2.74606  -0.26699  -1.18000   1.13242
  24   32668.6    306.1   0.065775795   0.66284  -0.79145   0.04746  -0.18492
  25   32934.5    303.6   0.105645857   1.05603   0.52750   0.88103  -0.03945
  26   33360.9    299.8   0.916204217   9.04129  -0.10090  -2.49656  -1.67281
  27   33509.0    298.4   0.561855244   5.52000  -1.19285  -1.56597   1.28252
  28   33674.1    297.0   0.014991929   0.14657  -0.11179  -0.30704   0.19950
  29   33685.9    296.9   0.005983818   0.05848  -0.05618  -0.04579  -0.23071
  30   34441.0    290.4   0.143325542   1.37001  -0.86285  -0.45169  -0.64921
  31   34626.4    288.8   0.048447811   0.46062  -0.53616  -0.22666  -0.34897
  32   34702.6    288.2   0.036590593   0.34712   0.41525   0.39797   0.12771
  33   34730.1    287.9   0.002049705   0.01943  -0.08215   0.08144   0.07776
  34   34926.8    286.3   0.021319451   0.20095  -0.22763   0.06632  -0.38045
  35   35412.6    282.4   0.013243564   0.12312   0.09214   0.12987   0.31267
  36   35498.7    281.7   0.000080333   0.00074   0.02190  -0.00347   0.01592
  37   35793.5    279.4   0.033123427   0.30465   0.29238   0.35968   0.29966
  38   36275.6    275.7   0.518119560   4.70209   1.57413   1.19059   0.89816
  39   36942.6    270.7   0.013671249   0.12183   0.27365   0.21158   0.04671
  40   37232.0    268.6   0.032774670   0.28980   0.08862   0.02380   0.53045
  41   37440.3    267.1   0.035420439   0.31145  -0.06080  -0.38203  -0.40225
  42   37533.0    266.4   0.062205879   0.54562   0.02798   0.48458  -0.55679
  43   37670.3    265.5   0.184737036   1.61447  -0.10079   0.86744   0.92296
  44   37972.4    263.3   0.017735550   0.15376  -0.07416  -0.38271  -0.04236
  45   37994.3    263.2   0.043830327   0.37978   0.06402   0.61044  -0.05516
  46   38570.9    259.3   0.095967023   0.81910   0.03932  -0.72064   0.54611
  47   38724.7    258.2   0.154794105   1.31596   0.43022  -0.93133   0.51331
  48   38818.8    257.6   0.039561675   0.33551  -0.01089   0.47037  -0.33785
  49   39377.6    254.0   0.015971473   0.13353   0.07779  -0.27097   0.23248
  50   39555.3    252.8   0.024951289   0.20767   0.23790  -0.10036   0.37549
  51   39934.9    250.4   0.075480669   0.62224  -0.36478  -0.50714  -0.48165
  52   40240.7    248.5   0.011137349   0.09112   0.26986  -0.10769   0.08183

FINAL SINGLE POINT ENERGY     -3310.335383331985

DIPOLE MOMENT
-------------
                                X             Y             Z
Electronic contribution:    -18.61508      -1.33834      -4.09050
Nuclear contribution   :     19.86451       5.95481       7.02890
                        -----------------------------------------
Total Dipole Moment    :      1.24943       4.61646       2.93840
                        -----------------------------------------
Magnitude (a.u.)       :      5.61311
Magnitude (Debye)      :     14.26739

Rotational constants in cm-1:     0.001238     0.000333     0.000299
Rotational constants in MHz :    37.104611     9.992528     8.949414

                             ****ORCA TERMINATED NORMALLY****
TOTAL RUN TIME: 0 days 0 hours 13 minutes 20 seconds 94 msec
