                         Program Version 4.2.0 -  RELEASE  -
|  1> # ORCA input file
|  2> # SCF done       -184.006226680957          0.000468564512
|  3> ! CAM-B3LYP def2-SVP def2/J RIJCOSX Grid4 TightSCF
|  4> %maxcore 5000
|  5> %tddft
|  6>     Mode sTDDFT
|  7>     Ethresh 5.0
|  8>     maxcore 5000
|  9> end
| 10>
| 11> %pal
| 12>   nprocs 6
| 13>   end
| 14> * xyz 0 1
| 15>    C       -4.42776         5.67072         2.12038
| 16>    N       -4.18122         6.71436         2.85561
| 17>    O       -4.79451         6.54953         4.03065
| 18>    C       -5.45081         5.37280         4.04501
| 19>    C       -6.31685         5.03815         5.16759
| 20>    O       -6.39796         5.65826         6.19400
| 21>    C       -5.23951         4.73586         2.82282
| 22>    C       -5.67683         3.46539         2.33984
| 23>    S       -5.96085         3.25476         0.63522
| 24>    C       -6.41235         1.58157         0.81983
| 25>    C       -6.31693         1.22610         2.14774
| 26>    C       -5.89838         2.27623         3.01940
| 27>    C       -5.74771         1.81441         4.35288
| 28>    C       -6.06877         0.49742         4.47640
| 29>    C       -6.02097        -0.29572         5.70935
| 30>    O       -5.66575         0.12509         6.78098
| 31>    O       -6.42504        -1.55195         5.48263
| 32>    C       -6.42466        -2.42321         6.60298
| 33>    S       -6.56984        -0.27005         2.98592
| 34>    C       -6.78153         0.78670        -0.29658
| 35>    C       -6.84060         1.16769        -1.60780
| 36>    C       -7.21568         0.12347        -2.48413
| 37>    C       -7.33372         0.16436        -3.88862
| 38>    C       -7.04380         1.35028        -4.66838
| 39>    C       -7.69801         1.79789        -5.78062
| 40>    C       -7.10917         2.95487        -6.33492
| 41>    C       -6.00022         3.39656        -5.67360
| 42>    S       -5.67448         2.37211        -4.31705
| 43>    C       -5.13692         4.56449        -5.97904
| 44>   Cl       -7.74841         3.72849        -7.73312
| 45>    C       -7.71699        -1.01934        -4.51063
| 46>    C       -7.96556        -2.22832        -3.81294
| 47>    C       -7.84594        -2.26999        -2.40899
| 48>    C       -7.48141        -1.08099        -1.78513
| 49>    S       -7.22235        -0.89156        -0.07204
| 50>    C       -8.05037        -3.47755        -1.63534
| 51>    C       -8.62254        -3.58901        -0.39984
| 52>    C       -8.59854        -4.90940         0.09768
| 53>    C       -8.00623        -5.81665        -0.73161
| 54>    S       -7.46685        -5.03000        -2.17555
| 55>    C       -7.79876        -7.27182        -0.52595
| 56>   Cl       -9.26532        -5.32308         1.62979
| 57>    C       -8.30823        -3.28167        -4.69273
| 58>    C       -8.29149        -2.92379        -6.01050
| 59>    S       -7.88118        -1.23613        -6.23150
| 60>    C       -8.54524        -3.74968        -7.13965
| 61>    C       -8.51331        -3.38401        -8.47026
| 62>    C       -8.78011        -4.46481        -9.31312
| 63>    C       -9.01648        -5.65830        -8.61382
| 64>    S       -8.91430        -5.45259        -6.92199
| 65>    C       -9.26132        -6.69999        -9.54944
| 66>    C       -9.17606        -6.15196       -10.84331
| 67>    C       -8.87469        -4.73364       -10.73952
| 68>    C       -8.71087        -3.84529       -11.76142
| 69>    C       -8.41828        -2.48356       -11.53627
| 70>    N       -8.18046        -1.37614       -11.35854
| 71>    C       -8.82338        -4.23510       -13.11243
| 72>    N       -8.91452        -4.55524       -14.20984
| 73>    C       -9.39243        -7.10118       -11.83681
| 74>    C       -9.63946        -8.35794       -11.30838
| 75>    S       -9.60649        -8.36792        -9.55030
| 76>    C       -9.89030        -9.52848       -12.07319
| 77>    C      -10.15326       -10.84130       -11.67316
| 78>    O      -10.32421       -11.60625       -12.77791
| 79>    N      -10.18309       -10.84727       -13.87202
| 80>    C       -9.92965        -9.63075       -13.49765
| 81>    C      -10.26187       -11.45576       -10.37760
| 82>    O      -10.12508       -10.86983        -9.32530
| 83>    H       -4.03069         5.58470         1.12935
| 84>    H       -6.94116         4.14762         4.96504
| 85>    H       -5.39906         2.40335         5.18116
| 86>    H       -6.80908        -3.37481         6.24567
| 87>    H       -7.06096        -2.02204         7.39433
| 88>    H       -5.41096        -2.53885         6.99188
| 89>    H       -6.61957         2.17081        -1.92317
| 90>    H       -8.58964         1.35083        -6.17868
| 91>    H       -5.47042         5.03224        -6.90187
| 92>    H       -4.09848         4.25552        -6.09186
| 93>    H       -5.18293         5.29850        -5.17473
| 94>    H       -9.08209        -2.77587         0.13008
| 95>    H       -6.74028        -7.49278        -0.38858
| 96>    H       -8.14936        -7.83624        -1.38839
| 97>    H       -8.34081        -7.59685         0.35829
| 98>    H       -8.55993        -4.27578        -4.37190
| 99>    H       -8.30102        -2.38002        -8.79121
|100>    H       -9.37207        -6.89951       -12.89196
|101>    H       -9.78134        -8.86187       -14.22761
|102>    H      -10.48679       -12.53381       -10.41998
|103> *
|104>
|105>                          ****END OF INPUT****

CARTESIAN COORDINATES (ANGSTROEM)
---------------------------------
  C     -4.427760    5.670720    2.120380
  N     -4.181220    6.714360    2.855610
  O     -4.794510    6.549530    4.030650
  C     -5.450810    5.372800    4.045010
  C     -6.316850    5.038150    5.167590
  O     -6.397960    5.658260    6.194000
  C     -5.239510    4.735860    2.822820
  C     -5.676830    3.465390    2.339840
  S     -5.960850    3.254760    0.635220
  C     -6.412350    1.581570    0.819830
  C     -6.316930    1.226100    2.147740
  C     -5.898380    2.276230    3.019400
  C     -5.747710    1.814410    4.352880
  C     -6.068770    0.497420    4.476400
  C     -6.020970   -0.295720    5.709350
  O     -5.665750    0.125090    6.780980
  O     -6.425040   -1.551950    5.482630
  C     -6.424660   -2.423210    6.602980
  S     -6.569840   -0.270050    2.985920
  C     -6.781530    0.786700   -0.296580
  C     -6.840600    1.167690   -1.607800
  C     -7.215680    0.123470   -2.484130
  C     -7.333720    0.164360   -3.888620
  C     -7.043800    1.350280   -4.668380
  C     -7.698010    1.797890   -5.780620
  C     -7.109170    2.954870   -6.334920
  C     -6.000220    3.396560   -5.673600
  S     -5.674480    2.372110   -4.317050
  C     -5.136920    4.564490   -5.979040
  Cl    -7.748410    3.728490   -7.733120
  C     -7.716990   -1.019340   -4.510630
  C     -7.965560   -2.228320   -3.812940
  C     -7.845940   -2.269990   -2.408990
  C     -7.481410   -1.080990   -1.785130
  S     -7.222350   -0.891560   -0.072040
  C     -8.050370   -3.477550   -1.635340
  C     -8.622540   -3.589010   -0.399840
  C     -8.598540   -4.909400    0.097680
  C     -8.006230   -5.816650   -0.731610
  S     -7.466850   -5.030000   -2.175550
  C     -7.798760   -7.271820   -0.525950
  Cl    -9.265320   -5.323080    1.629790
  C     -8.308230   -3.281670   -4.692730
  C     -8.291490   -2.923790   -6.010500
  S     -7.881180   -1.236130   -6.231500
  C     -8.545240   -3.749680   -7.139650
  C     -8.513310   -3.384010   -8.470260
  C     -8.780110   -4.464810   -9.313120
  C     -9.016480   -5.658300   -8.613820
  S     -8.914300   -5.452590   -6.921990
  C     -9.261320   -6.699990   -9.549440
  C     -9.176060   -6.151960  -10.843310
  C     -8.874690   -4.733640  -10.739520
  C     -8.710870   -3.845290  -11.761420
  C     -8.418280   -2.483560  -11.536270
  N     -8.180460   -1.376140  -11.358540
  C     -8.823380   -4.235100  -13.112430
  N     -8.914520   -4.555240  -14.209840
  C     -9.392430   -7.101180  -11.836810
  C     -9.639460   -8.357940  -11.308380
  S     -9.606490   -8.367920   -9.550300
  C     -9.890300   -9.528480  -12.073190
  C    -10.153260  -10.841300  -11.673160
  O    -10.324210  -11.606250  -12.777910
  N    -10.183090  -10.847270  -13.872020
  C     -9.929650   -9.630750  -13.497650
  C    -10.261870  -11.455760  -10.377600
  O    -10.125080  -10.869830   -9.325300
  H     -4.030690    5.584700    1.129350
  H     -6.941160    4.147620    4.965040
  H     -5.399060    2.403350    5.181160
  H     -6.809080   -3.374810    6.245670
  H     -7.060960   -2.022040    7.394330
  H     -5.410960   -2.538850    6.991880
  H     -6.619570    2.170810   -1.923170
  H     -8.589640    1.350830   -6.178680
  H     -5.470420    5.032240   -6.901870
  H     -4.098480    4.255520   -6.091860
  H     -5.182930    5.298500   -5.174730
  H     -9.082090   -2.775870    0.130080
  H     -6.740280   -7.492780   -0.388580
  H     -8.149360   -7.836240   -1.388390
  H     -8.340810   -7.596850    0.358290
  H     -8.559930   -4.275780   -4.371900
  H     -8.301020   -2.380020   -8.791210
  H     -9.372070   -6.899510  -12.891960
  H     -9.781340   -8.861870  -14.227610
  H    -10.486790  -12.533810  -10.419980

 Total Charge           Charge          ....    0
 Multiplicity           Mult            ....    1
 Number of Electrons    NEL             ....  546
 Basis Dimension        Dim             .... 1092

ORBITAL ENERGIES
----------------

  NO   OCC          E(Eh)            E(eV)
   0   2.0000    -101.588893     -2764.3743
   1   2.0000    -101.584733     -2764.2611
   2   2.0000     -88.992778     -2421.6166
   3   2.0000     -88.990564     -2421.5564
   4   2.0000     -88.985086     -2421.4073
   5   2.0000     -88.967617     -2420.9319
   6   2.0000     -88.965136     -2420.8644
   7   2.0000     -88.964153     -2420.8377
   8   2.0000     -88.962799     -2420.8008
   9   2.0000     -88.961984     -2420.7786
  10   2.0000     -19.333358      -526.0874
  11   2.0000     -19.327004      -525.9145
  12   2.0000     -19.270855      -524.3866
  13   2.0000     -19.241448      -523.5864
  14   2.0000     -19.225453      -523.1512
  15   2.0000     -19.212387      -522.7956
  16   2.0000     -14.485319      -394.1656
  17   2.0000     -14.477174      -393.9439
  18   2.0000     -14.433357      -392.7516
  19   2.0000     -14.431456      -392.6999
  20   2.0000     -10.412557      -283.3401
  21   2.0000     -10.386709      -282.6367
  22   2.0000     -10.374053      -282.2923
  23   2.0000     -10.366320      -282.0819
  24   2.0000     -10.356298      -281.8092
  25   2.0000     -10.354274      -281.7541
  26   2.0000     -10.353838      -281.7422
  27   2.0000     -10.334510      -281.2163
  28   2.0000     -10.334200      -281.2079
  29   2.0000     -10.333942      -281.2008
  30   2.0000     -10.331686      -281.1395
  31   2.0000     -10.331400      -281.1317
  32   2.0000     -10.330501      -281.1072
  33   2.0000     -10.330388      -281.1041
  34   2.0000     -10.330035      -281.0946
  35   2.0000     -10.329521      -281.0805
  36   2.0000     -10.329192      -281.0716
  37   2.0000     -10.329006      -281.0665
  38   2.0000     -10.324352      -280.9399
  39   2.0000     -10.323557      -280.9183
  40   2.0000     -10.323366      -280.9131
  41   2.0000     -10.322607      -280.8924
  42   2.0000     -10.322309      -280.8843
  43   2.0000     -10.321436      -280.8606
  44   2.0000     -10.321043      -280.8499
  45   2.0000     -10.319614      -280.8110
  46   2.0000     -10.314793      -280.6798
  47   2.0000     -10.314478      -280.6712
  48   2.0000     -10.313959      -280.6571
  49   2.0000     -10.311703      -280.5957
  50   2.0000     -10.310207      -280.5550
  51   2.0000     -10.308643      -280.5124
  52   2.0000     -10.308176      -280.4997
  53   2.0000     -10.307587      -280.4837
  54   2.0000     -10.306737      -280.4606
  55   2.0000     -10.306354      -280.4501
  56   2.0000     -10.305970      -280.4397
  57   2.0000     -10.304063      -280.3878
  58   2.0000     -10.304036      -280.3871
  59   2.0000     -10.303779      -280.3801
  60   2.0000     -10.297925      -280.2208
  61   2.0000     -10.297785      -280.2170
  62   2.0000     -10.286767      -279.9172
  63   2.0000     -10.285743      -279.8893
  64   2.0000     -10.285461      -279.8816
  65   2.0000     -10.283272      -279.8221
  66   2.0000     -10.282317      -279.7961
  67   2.0000     -10.279374      -279.7160
  68   2.0000      -9.543685      -259.6969
  69   2.0000      -9.539514      -259.5834
  70   2.0000      -8.087235      -220.0649
  71   2.0000      -8.083651      -219.9673
  72   2.0000      -8.079850      -219.8639
  73   2.0000      -8.062662      -219.3962
  74   2.0000      -8.060658      -219.3417
  75   2.0000      -8.059100      -219.2993
  76   2.0000      -8.058337      -219.2785
  77   2.0000      -8.057048      -219.2434
  78   2.0000      -7.313906      -199.0215
  79   2.0000      -7.309779      -198.9092
  80   2.0000      -7.303777      -198.7459
  81   2.0000      -7.303678      -198.7432
  82   2.0000      -7.299575      -198.6315
  83   2.0000      -7.299474      -198.6288
  84   2.0000      -6.056467      -164.8048
  85   2.0000      -6.052986      -164.7101
  86   2.0000      -6.052339      -164.6925
  87   2.0000      -6.049602      -164.6180
  88   2.0000      -6.049199      -164.6071
  89   2.0000      -6.048407      -164.5855
  90   2.0000      -6.046167      -164.5246
  91   2.0000      -6.045040      -164.4939
  92   2.0000      -6.041965      -164.4102
  93   2.0000      -6.032537      -164.1537
  94   2.0000      -6.029964      -164.0837
  95   2.0000      -6.028834      -164.0529
  96   2.0000      -6.028154      -164.0344
  97   2.0000      -6.027688      -164.0217
  98   2.0000      -6.026766      -163.9966
  99   2.0000      -6.025812      -163.9707
 100   2.0000      -6.024634      -163.9386
 101   2.0000      -6.023716      -163.9137
 102   2.0000      -6.023465      -163.9068
 103   2.0000      -6.022761      -163.8877
 104   2.0000      -6.022593      -163.8831
 105   2.0000      -6.020411      -163.8237
 106   2.0000      -6.020363      -163.8224
 107   2.0000      -6.018289      -163.7660
 108   2.0000      -1.274818       -34.6896
 109   2.0000      -1.270697       -34.5774
 110   2.0000      -1.201828       -32.7034
 111   2.0000      -1.154107       -31.4049
 112   2.0000      -1.138923       -30.9917
 113   2.0000      -1.106858       -30.1191
 114   2.0000      -1.046755       -28.4836
 115   2.0000      -1.030491       -28.0411
 116   2.0000      -1.024442       -27.8765
 117   2.0000      -1.020137       -27.7593
 118   2.0000      -1.010156       -27.4877
 119   2.0000      -1.007476       -27.4148
 120   2.0000      -1.005003       -27.3475
 121   2.0000      -0.999619       -27.2010
 122   2.0000      -0.988434       -26.8967
 123   2.0000      -0.980897       -26.6916
 124   2.0000      -0.975787       -26.5525
 125   2.0000      -0.965136       -26.2627
 126   2.0000      -0.961916       -26.1751
 127   2.0000      -0.949859       -25.8470
 128   2.0000      -0.945523       -25.7290
 129   2.0000      -0.935302       -25.4509
 130   2.0000      -0.933275       -25.3957
 131   2.0000      -0.919406       -25.0183
 132   2.0000      -0.906875       -24.6773
 133   2.0000      -0.901787       -24.5389
 134   2.0000      -0.877220       -23.8704
 135   2.0000      -0.871769       -23.7220
 136   2.0000      -0.865728       -23.5577
 137   2.0000      -0.861719       -23.4486
 138   2.0000      -0.859603       -23.3910
 139   2.0000      -0.854354       -23.2482
 140   2.0000      -0.848009       -23.0755
 141   2.0000      -0.842210       -22.9177
 142   2.0000      -0.821288       -22.3484
 143   2.0000      -0.815089       -22.1797
 144   2.0000      -0.814488       -22.1634
 145   2.0000      -0.811545       -22.0833
 146   2.0000      -0.806092       -21.9349
 147   2.0000      -0.801564       -21.8117
 148   2.0000      -0.788807       -21.4645
 149   2.0000      -0.778748       -21.1908
 150   2.0000      -0.774798       -21.0833
 151   2.0000      -0.764333       -20.7986
 152   2.0000      -0.753660       -20.5081
 153   2.0000      -0.751363       -20.4456
 154   2.0000      -0.740649       -20.1541
 155   2.0000      -0.728948       -19.8357
 156   2.0000      -0.721252       -19.6263
 157   2.0000      -0.708526       -19.2800
 158   2.0000      -0.704554       -19.1719
 159   2.0000      -0.698214       -18.9994
 160   2.0000      -0.693132       -18.8611
 161   2.0000      -0.683609       -18.6020
 162   2.0000      -0.675596       -18.3839
 163   2.0000      -0.670320       -18.2403
 164   2.0000      -0.658487       -17.9184
 165   2.0000      -0.650020       -17.6879
 166   2.0000      -0.649072       -17.6621
 167   2.0000      -0.647179       -17.6106
 168   2.0000      -0.638544       -17.3757
 169   2.0000      -0.637213       -17.3395
 170   2.0000      -0.635354       -17.2888
 171   2.0000      -0.625587       -17.0231
 172   2.0000      -0.620749       -16.8914
 173   2.0000      -0.615013       -16.7353
 174   2.0000      -0.614100       -16.7105
 175   2.0000      -0.611265       -16.6334
 176   2.0000      -0.605440       -16.4749
 177   2.0000      -0.597060       -16.2468
 178   2.0000      -0.594477       -16.1765
 179   2.0000      -0.589417       -16.0388
 180   2.0000      -0.588913       -16.0251
 181   2.0000      -0.585323       -15.9274
 182   2.0000      -0.583067       -15.8660
 183   2.0000      -0.580258       -15.7896
 184   2.0000      -0.576960       -15.6999
 185   2.0000      -0.568622       -15.4730
 186   2.0000      -0.563576       -15.3357
 187   2.0000      -0.557672       -15.1750
 188   2.0000      -0.554347       -15.0846
 189   2.0000      -0.551504       -15.0072
 190   2.0000      -0.549406       -14.9501
 191   2.0000      -0.547362       -14.8945
 192   2.0000      -0.543190       -14.7810
 193   2.0000      -0.531197       -14.4546
 194   2.0000      -0.530339       -14.4312
 195   2.0000      -0.528333       -14.3767
 196   2.0000      -0.525970       -14.3124
 197   2.0000      -0.524534       -14.2733
 198   2.0000      -0.523335       -14.2407
 199   2.0000      -0.520493       -14.1633
 200   2.0000      -0.517982       -14.0950
 201   2.0000      -0.517544       -14.0831
 202   2.0000      -0.510389       -13.8884
 203   2.0000      -0.508499       -13.8370
 204   2.0000      -0.507803       -13.8180
 205   2.0000      -0.507448       -13.8084
 206   2.0000      -0.506020       -13.7695
 207   2.0000      -0.502613       -13.6768
 208   2.0000      -0.500264       -13.6129
 209   2.0000      -0.499033       -13.5794
 210   2.0000      -0.496070       -13.4988
 211   2.0000      -0.494917       -13.4674
 212   2.0000      -0.492298       -13.3961
 213   2.0000      -0.489485       -13.3196
 214   2.0000      -0.487685       -13.2706
 215   2.0000      -0.486364       -13.2346
 216   2.0000      -0.484337       -13.1795
 217   2.0000      -0.482895       -13.1402
 218   2.0000      -0.480528       -13.0758
 219   2.0000      -0.474049       -12.8995
 220   2.0000      -0.473377       -12.8812
 221   2.0000      -0.472220       -12.8498
 222   2.0000      -0.470534       -12.8039
 223   2.0000      -0.468169       -12.7395
 224   2.0000      -0.464214       -12.6319
 225   2.0000      -0.463130       -12.6024
 226   2.0000      -0.462162       -12.5761
 227   2.0000      -0.458696       -12.4818
 228   2.0000      -0.454936       -12.3794
 229   2.0000      -0.448152       -12.1948
 230   2.0000      -0.445681       -12.1276
 231   2.0000      -0.442781       -12.0487
 232   2.0000      -0.441772       -12.0212
 233   2.0000      -0.440873       -11.9968
 234   2.0000      -0.439552       -11.9608
 235   2.0000      -0.436740       -11.8843
 236   2.0000      -0.433527       -11.7969
 237   2.0000      -0.430107       -11.7038
 238   2.0000      -0.429091       -11.6762
 239   2.0000      -0.427762       -11.6400
 240   2.0000      -0.424252       -11.5445
 241   2.0000      -0.422299       -11.4914
 242   2.0000      -0.421153       -11.4601
 243   2.0000      -0.417596       -11.3634
 244   2.0000      -0.414773       -11.2865
 245   2.0000      -0.405172       -11.0253
 246   2.0000      -0.403422       -10.9777
 247   2.0000      -0.397706       -10.8221
 248   2.0000      -0.393193       -10.6993
 249   2.0000      -0.390488       -10.6257
 250   2.0000      -0.387813       -10.5529
 251   2.0000      -0.386285       -10.5114
 252   2.0000      -0.382935       -10.4202
 253   2.0000      -0.381558       -10.3827
 254   2.0000      -0.379243       -10.3197
 255   2.0000      -0.373714       -10.1693
 256   2.0000      -0.364803        -9.9268
 257   2.0000      -0.357331        -9.7235
 258   2.0000      -0.353827        -9.6281
 259   2.0000      -0.350720        -9.5436
 260   2.0000      -0.349275        -9.5042
 261   2.0000      -0.343123        -9.3369
 262   2.0000      -0.336571        -9.1586
 263   2.0000      -0.326729        -8.8907
 264   2.0000      -0.324416        -8.8278
 265   2.0000      -0.323237        -8.7957
 266   2.0000      -0.319657        -8.6983
 267   2.0000      -0.311030        -8.4636
 268   2.0000      -0.307433        -8.3657
 269   2.0000      -0.298975        -8.1355
 270   2.0000      -0.270579        -7.3628
 271   2.0000      -0.266421        -7.2497
 272   2.0000      -0.241491        -6.5713
 273   0.0000      -0.106792        -2.9060
 274   0.0000      -0.079453        -2.1620
 275   0.0000      -0.068401        -1.8613
 276   0.0000      -0.049621        -1.3502
 277   0.0000      -0.033190        -0.9031

MULLIKEN ATOMIC CHARGES
-----------------------
   0 C :    0.003240
   1 N :    0.042627
   2 O :   -0.148545
   3 C :    0.063273
   4 C :    0.122411
   5 O :   -0.145680
   6 C :   -0.012637
   7 C :   -0.138493
   8 S :    0.169729
   9 C :   -0.107264
  10 C :   -0.069499
  11 C :    0.162952
  12 C :   -0.027727
  13 C :   -0.119419
  14 C :    0.202395
  15 O :   -0.188189
  16 O :   -0.306589
  17 C :    0.187724
  18 S :    0.169121
  19 C :   -0.022060
  20 C :   -0.100127
  21 C :    0.098022
  22 C :    0.139904
  23 C :   -0.211901
  24 C :    0.035236
  25 C :    0.089081
  26 C :   -0.265431
  27 S :    0.132302
  28 C :    0.119781
  29 Cl:   -0.082167
  30 C :   -0.138327
  31 C :    0.089765
  32 C :    0.147132
  33 C :   -0.140376
  34 S :    0.107642
  35 C :   -0.211544
  36 C :    0.032377
  37 C :    0.083872
  38 C :   -0.264255
  39 S :    0.134523
  40 C :    0.123418
  41 Cl:   -0.087560
  42 C :   -0.095942
  43 C :   -0.011143
  44 S :    0.120522
  45 C :   -0.045332
  46 C :   -0.059939
  47 C :    0.017299
  48 C :   -0.101599
  49 S :    0.192024
  50 C :   -0.079933
  51 C :    0.028597
  52 C :    0.301753
  53 C :   -0.295040
  54 C :   -0.189043
  55 N :    0.177205
  56 C :   -0.188271
  57 N :    0.166599
  58 C :   -0.073608
  59 C :   -0.050148
  60 S :    0.227515
  61 C :   -0.008715
  62 C :    0.051495
  63 O :   -0.168042
  64 N :    0.049771
  65 C :    0.005331
  66 C :    0.165874
  67 O :   -0.192111
  68 H :    0.021695
  69 H :    0.005859
  70 H :    0.013588
  71 H :    0.040011
  72 H :    0.038421
  73 H :    0.036619
  74 H :   -0.010806
  75 H :   -0.004445
  76 H :    0.026774
  77 H :    0.035359
  78 H :    0.035910
  79 H :   -0.003274
  80 H :    0.041002
  81 H :    0.029503
  82 H :    0.025886
  83 H :   -0.011359
  84 H :    0.016205
  85 H :    0.003588
  86 H :    0.032061
  87 H :    0.013544
Sum of atomic charges:   -0.0000000

LOEWDIN ATOMIC CHARGES
----------------------
   0 C :   -0.027972
   1 N :    0.000584
   2 O :    0.054132
   3 C :   -0.018133
   4 C :    0.082583
   5 O :   -0.103317
   6 C :   -0.082054
   7 C :   -0.175955
   8 S :    0.472812
   9 C :   -0.204178
  10 C :   -0.188031
  11 C :   -0.069414
  12 C :   -0.017145
  13 C :   -0.191584
  14 C :    0.066203
  15 O :   -0.166690
  16 O :   -0.096646
  17 C :    0.084509
  18 S :    0.422554
  19 C :   -0.169340
  20 C :   -0.070838
  21 C :   -0.038851
  22 C :   -0.054123
  23 C :   -0.174338
  24 C :   -0.073899
  25 C :   -0.176183
  26 C :   -0.197032
  27 S :    0.444149
  28 C :   -0.061153
  29 Cl:    0.133786
  30 C :   -0.140339
  31 C :   -0.039938
  32 C :   -0.053959
  33 C :   -0.141814
  34 S :    0.422333
  35 C :   -0.173001
  36 C :   -0.075882
  37 C :   -0.176904
  38 C :   -0.197731
  39 S :    0.446540
  40 C :   -0.060713
  41 Cl:    0.129461
  42 C :   -0.071654
  43 C :   -0.168323
  44 S :    0.428579
  45 C :   -0.174546
  46 C :   -0.032984
  47 C :   -0.066639
  48 C :   -0.179850
  49 S :    0.484596
  50 C :   -0.181144
  51 C :   -0.074768
  52 C :    0.082530
  53 C :   -0.103762
  54 C :   -0.018135
  55 N :   -0.030009
  56 C :   -0.015027
  57 N :   -0.036697
  58 C :   -0.018382
  59 C :   -0.178571
  60 S :    0.532808
  61 C :   -0.054045
  62 C :   -0.040283
  63 O :    0.031267
  64 N :    0.006489
  65 C :   -0.017430
  66 C :    0.099663
  67 O :   -0.145851
  68 H :    0.032874
  69 H :    0.008535
  70 H :    0.041856
  71 H :    0.028754
  72 H :    0.026095
  73 H :    0.025678
  74 H :    0.012910
  75 H :    0.027582
  76 H :    0.035188
  77 H :    0.039364
  78 H :    0.039297
  79 H :    0.027117
  80 H :    0.041267
  81 H :    0.037595
  82 H :    0.034643
  83 H :    0.011348
  84 H :    0.037973
  85 H :    0.038736
  86 H :    0.038474
  87 H :    0.014395

  Mayer bond orders larger than 0.100000
B(  0-C ,  1-N ) :   1.7279 B(  0-C ,  6-C ) :   1.2064 B(  0-C , 68-H ) :   0.9914
B(  1-N ,  2-O ) :   1.0535 B(  2-O ,  3-C ) :   1.1441 B(  3-C ,  4-C ) :   0.9900
B(  3-C ,  6-C ) :   1.4344 B(  4-C ,  5-O ) :   2.2033 B(  4-C , 69-H ) :   0.9658
B(  6-C ,  7-C ) :   1.0536 B(  7-C ,  8-S ) :   1.1469 B(  7-C ,  9-C ) :   0.1210
B(  7-C , 11-C ) :   1.4257 B(  8-S ,  9-C ) :   1.1323 B(  9-C , 10-C ) :   1.5172
B(  9-C , 19-C ) :   1.1566 B( 10-C , 11-C ) :   1.2296 B( 10-C , 18-S ) :   1.0414
B( 11-C , 12-C ) :   1.1118 B( 12-C , 13-C ) :   1.6512 B( 12-C , 70-H ) :   1.0009
B( 13-C , 14-C ) :   0.9486 B( 13-C , 18-S ) :   1.0565 B( 14-C , 15-O ) :   2.1523
B( 14-C , 16-O ) :   1.2363 B( 16-O , 17-C ) :   0.9166 B( 17-C , 71-H ) :   0.9814
B( 17-C , 72-H ) :   0.9763 B( 17-C , 73-H ) :   0.9775 B( 19-C , 20-C ) :   1.5601
B( 19-C , 34-S ) :   1.0638 B( 20-C , 21-C ) :   1.1898 B( 20-C , 74-H ) :   0.9715
B( 21-C , 22-C ) :   1.2908 B( 21-C , 33-C ) :   1.2638 B( 22-C , 23-C ) :   0.9878
B( 22-C , 30-C ) :   1.4205 B( 23-C , 24-C ) :   1.5499 B( 23-C , 27-S ) :   1.1276
B( 24-C , 25-C ) :   1.2224 B( 24-C , 75-H ) :   0.9946 B( 25-C , 26-C ) :   1.6040
B( 25-C , 29-Cl) :   1.0108 B( 26-C , 27-S ) :   1.1276 B( 26-C , 28-C ) :   1.0812
B( 28-C , 76-H ) :   0.9442 B( 28-C , 77-H ) :   0.9489 B( 28-C , 78-H ) :   0.9491
B( 30-C , 31-C ) :   1.2687 B( 30-C , 44-S ) :   1.0568 B( 31-C , 32-C ) :   1.2946
B( 31-C , 42-C ) :   1.1858 B( 32-C , 33-C ) :   1.4170 B( 32-C , 35-C ) :   0.9889
B( 33-C , 34-S ) :   1.0622 B( 35-C , 36-C ) :   1.5491 B( 35-C , 39-S ) :   1.1298
B( 36-C , 37-C ) :   1.2239 B( 36-C , 79-H ) :   0.9935 B( 37-C , 38-C ) :   1.6049
B( 37-C , 41-Cl) :   1.0084 B( 38-C , 39-S ) :   1.1285 B( 38-C , 40-C ) :   1.0821
B( 40-C , 80-H ) :   0.9488 B( 40-C , 81-H ) :   0.9478 B( 40-C , 82-H ) :   0.9445
B( 42-C , 43-C ) :   1.5741 B( 42-C , 83-H ) :   0.9677 B( 43-C , 44-S ) :   1.0701
B( 43-C , 45-C ) :   1.1513 B( 45-C , 46-C ) :   1.4690 B( 45-C , 49-S ) :   1.1076
B( 46-C , 47-C ) :   1.2837 B( 46-C , 84-H ) :   0.9902 B( 47-C , 48-C ) :   1.4523
B( 47-C , 52-C ) :   0.9956 B( 48-C , 49-S ) :   1.1236 B( 48-C , 50-C ) :   1.1760
B( 50-C , 51-C ) :   1.4176 B( 50-C , 60-S ) :   1.1085 B( 51-C , 52-C ) :   0.9924
B( 51-C , 58-C ) :   1.3040 B( 52-C , 53-C ) :   1.7126 B( 53-C , 54-C ) :   1.1306
B( 53-C , 56-C ) :   1.1350 B( 54-C , 55-N ) :   2.9944 B( 56-C , 57-N ) :   2.9880
B( 58-C , 59-C ) :   1.4443 B( 58-C , 85-H ) :   0.9955 B( 59-C , 60-S ) :   1.1088
B( 59-C , 61-C ) :   1.1153 B( 61-C , 62-C ) :   1.4392 B( 61-C , 65-C ) :   1.1996
B( 62-C , 63-O ) :   1.1057 B( 62-C , 66-C ) :   1.0513 B( 63-O , 64-N ) :   1.0474
B( 64-N , 65-C ) :   1.7387 B( 65-C , 86-H ) :   0.9869 B( 66-C , 67-O ) :   2.0834
B( 66-C , 87-H ) :   0.9545

-----------------------------------------------------------------------------
         ABSORPTION SPECTRUM VIA TRANSITION ELECTRIC DIPOLE MOMENTS
-----------------------------------------------------------------------------
State   Energy  Wavelength   fosc         T2         TX        TY        TZ
        (cm-1)    (nm)                  (au**2)     (au)      (au)      (au)
-----------------------------------------------------------------------------
   0   13281.7    752.9   0.153720603   3.81026  -0.37301  -1.28689  -1.41953
   1   19507.4    512.6   0.222484925   3.75472   0.30492   0.69722   1.78203
   2   21097.0    474.0   1.303240163  20.33666  -0.82076  -2.46981  -3.68280
   3   24244.0    412.5   0.522018775   7.08854   0.60267   2.19165   1.38636
   4   24799.1    403.2   0.019461182   0.25835  -0.01790  -0.15991   0.48214
   5   26243.1    381.1   0.332133475   4.16652   0.41595   1.98504   0.23047
   6   27051.9    369.7   0.394461747   4.80046  -0.09396  -1.34515   1.72691
   7   28151.0    355.2   0.028743761   0.33614   0.11777  -0.06031   0.56448
   8   28840.3    346.7   0.067872602   0.77477  -0.14099  -0.74397   0.44877
   9   30360.2    329.4   0.155695397   1.68829   0.19945   0.64686   1.10909
  10   30555.8    327.3   0.058112261   0.62611   0.39061   0.62825   0.28078
  11   31037.2    322.2   0.124566773   1.32128   0.12800   0.65753  -0.93410
  12   31407.2    318.4   0.148252422   1.55399   0.02008  -0.17842   1.23359
  13   31558.6    316.9   0.210107747   2.19180  -0.30768  -0.95680  -1.08704
  14   31612.8    316.3   0.005229964   0.05446  -0.09431  -0.13390  -0.16625
  15   31915.5    313.3   0.101602410   1.04804  -0.15212  -0.95778   0.32795
  16   32129.4    311.2   0.654391504   6.70518  -0.64591  -2.48017   0.36980
  17   32888.9    304.1   0.011177981   0.11189   0.02664   0.10085  -0.31782
  18   33206.2    301.1   0.162729618   1.61333  -0.11857  -0.51698  -1.15413
  19   33570.7    297.9   0.046678617   0.45775  -0.12393  -0.64337   0.16875
  20   33789.6    295.9   0.034204970   0.33326   0.04533  -0.04253  -0.57393
  21   34255.7    291.9   0.001784715   0.01715   0.01768  -0.02140  -0.12799
  22   34876.6    286.7   0.008204982   0.07745  -0.02499   0.08037   0.26526
  23   35179.2    284.3   0.005874182   0.05497   0.13921   0.00200   0.18865
  24   35389.5    282.6   0.023431370   0.21797   0.05879   0.45563  -0.08318
  25   35774.8    279.5   0.149359687   1.37446  -0.20584  -0.94176   0.66722
  26   36578.4    273.4   0.165202679   1.48685   0.20179  -0.20111   1.18562
  27   37377.3    267.5   0.024602230   0.21669   0.26642   0.35836   0.13149
  28   37461.2    266.9   0.005949202   0.05228  -0.01394   0.05348   0.22187
  29   37607.0    265.9   0.004860462   0.04255   0.06611   0.07444  -0.18066
  30   37768.3    264.8   0.001472948   0.01284   0.09182  -0.06103  -0.02615
  31   37827.4    264.4   0.015792253   0.13744   0.05991   0.06786   0.35951
  32   38132.9    262.2   0.168907906   1.45823   0.16257   1.12267  -0.41402
  33   38375.2    260.6   0.027425060   0.23527   0.07892  -0.10330  -0.46731
  34   38746.8    258.1   0.055691052   0.47318   0.15297  -0.15619   0.65222
  35   38919.0    256.9   0.013623146   0.11524  -0.20178   0.11557   0.24732
  36   39197.0    255.1   0.002169307   0.01822  -0.03198  -0.06109   0.11604
  37   39789.5    251.3   0.144994457   1.19966  -0.02569   1.09481   0.01973
  38   39835.0    251.0   0.014036388   0.11600  -0.10606  -0.32168   0.03567
  39   40075.7    249.5   0.025314367   0.20795  -0.00662   0.45596   0.00270
  40   40324.8    248.0   0.013870979   0.11324  -0.07460   0.01412  -0.32784

FINAL SINGLE POINT ENERGY     -6612.937419021285

DIPOLE MOMENT
-------------
                                X             Y             Z
Electronic contribution:     -9.91671       0.33943     -23.06982
Nuclear contribution   :      9.85378      -2.99814      22.93764
                        -----------------------------------------
Total Dipole Moment    :     -0.06293      -2.65871      -0.13218
                        -----------------------------------------
Magnitude (a.u.)       :      2.66273
Magnitude (Debye)      :      6.76813

Rotational constants in cm-1:     0.001393     0.000319     0.000262
Rotational constants in MHz :    41.766191     9.551352     7.848312

                             ****ORCA TERMINATED NORMALLY****
TOTAL RUN TIME: 0 days 0 hours 7 minutes 45 seconds 760 msec
