                         Program Version 4.2.0 -  RELEASE  -
|  1> # ORCA input file
|  2> # SCF done       -128.735424563738          0.000419528422
|  3> ! CAM-B3LYP def2-SVP def2/J RIJCOSX Grid4 TightSCF
|  4> %maxcore 5000
|  5> %tddft
|  6>     Mode sTDDFT
|  7>     Ethresh 5.0
|  8>     maxcore 5000
|  9> end
| 10>
| 11> %pal
| 12>   nprocs 6
| 13>   end
| 14> * xyz 0 1
| 15>    C       -1.62289        -0.38076         2.19473
| 16>    C       -2.34887        -0.23684         1.01788
| 17>    N       -2.21385        -1.08279         0.01404
| 18>    C       -1.31424        -2.06026         0.13709
| 19>    C       -0.51268        -2.13196         1.29284
| 20>    N       -0.69081        -1.31585         2.30875
| 21>    C       -1.16390        -3.06764        -0.89212
| 22>    N       -0.55706        -4.18885        -0.54999
| 23>    C       -0.62190        -5.00300        -1.63020
| 24>    C       -1.33431        -4.35164        -2.72216
| 25>    C       -1.41012        -5.22975        -3.89851
| 26>    O       -1.93109        -5.01526        -4.97092
| 27>    C       -0.68377        -6.43432        -3.43940
| 28>    C       -0.22325        -6.25178        -2.04547
| 29>    N        0.47025        -7.33747        -1.62409
| 30>    C        0.47706        -8.15704        -2.64647
| 31>    C       -0.21608        -7.65052        -3.81683
| 32>    C       -1.65540        -3.08282        -2.29089
| 33>    C       -2.29074        -2.10578        -3.10288
| 34>    C       -2.34070        -0.76861        -2.89306
| 35>    C       -2.96568         0.15067        -3.77255
| 36>    N       -2.89574         1.50761        -3.53290
| 37>    C       -3.57469         2.15858        -4.51341
| 38>    C       -3.95066         3.40630        -4.97619
| 39>    C       -4.71277         3.17782        -6.14145
| 40>    N       -4.78785         1.81651        -6.37157
| 41>    C       -4.09939         1.17138        -5.39991
| 42>    C       -3.71439        -0.07944        -4.93739
| 43>    C       -5.35069         4.09528        -6.99183
| 44>    C       -5.29504         5.45681        -6.87747
| 45>    C       -5.99321         6.29658        -7.76450
| 46>    N       -6.78419         5.81027        -8.72853
| 47>    C       -7.29536         6.87236        -9.35587
| 48>    C       -6.80565         8.13627        -8.77354
| 49>    C       -7.38581         9.28914        -9.48616
| 50>    O       -7.20299        10.47216        -9.27865
| 51>    C       -8.23310         8.64957       -10.50012
| 52>    C       -8.15353         7.18186       -10.39185
| 53>    N       -8.93081         6.58889       -11.32405
| 54>    C       -9.47870         7.58138       -11.99416
| 55>    C       -9.08721         8.88925       -11.53438
| 56>    C       -5.96522         7.77955        -7.75196
| 57>    C       -5.19907         8.58352        -6.85586
| 58>    C       -5.18796         9.93054        -6.88327
| 59>    C       -4.39426        10.71762        -5.97057
| 60>    C       -4.40168        12.12245        -6.02702
| 61>    N       -3.68517        12.85896        -5.20378
| 62>    C       -2.94158        12.22984        -4.30494
| 63>    C       -2.92171        10.84118        -4.23867
| 64>    N       -3.63725        10.09710        -5.05770
| 65>    H       -1.78332         0.25254         3.05538
| 66>    H       -3.07772         0.55094         0.88217
| 67>    H        0.27024        -2.87089         1.37267
| 68>    H        0.96515        -9.11335        -2.57315
| 69>    H       -0.31551        -8.16424        -4.75258
| 70>    H       -2.70503        -2.50994        -4.01719
| 71>    H       -1.88345        -0.35077        -2.00826
| 72>    H       -2.41070         1.92242        -2.75587
| 73>    H       -3.72995         4.36473        -4.55278
| 74>    H       -5.27235         1.40036        -7.14878
| 75>    H       -3.93436        -1.03719        -5.36170
| 76>    H       -5.93875         3.70088        -7.81024
| 77>    H       -4.70806         5.91441        -6.09621
| 78>    H      -10.15419         7.37640       -12.80661
| 79>    H       -9.41921         9.82269       -11.94401
| 80>    H       -4.58920         8.08098        -6.11798
| 81>    H       -5.78260        10.47475        -7.60370
| 82>    H       -5.00164        12.64953        -6.75598
| 83>    H       -2.36071        12.84901        -3.63673
| 84>    H       -2.31892        10.31210        -3.51233
| 85> *
| 86>
| 87>                          ****END OF INPUT****

CARTESIAN COORDINATES (ANGSTROEM)
---------------------------------
  C     -1.622890   -0.380760    2.194730
  C     -2.348870   -0.236840    1.017880
  N     -2.213850   -1.082790    0.014040
  C     -1.314240   -2.060260    0.137090
  C     -0.512680   -2.131960    1.292840
  N     -0.690810   -1.315850    2.308750
  C     -1.163900   -3.067640   -0.892120
  N     -0.557060   -4.188850   -0.549990
  C     -0.621900   -5.003000   -1.630200
  C     -1.334310   -4.351640   -2.722160
  C     -1.410120   -5.229750   -3.898510
  O     -1.931090   -5.015260   -4.970920
  C     -0.683770   -6.434320   -3.439400
  C     -0.223250   -6.251780   -2.045470
  N      0.470250   -7.337470   -1.624090
  C      0.477060   -8.157040   -2.646470
  C     -0.216080   -7.650520   -3.816830
  C     -1.655400   -3.082820   -2.290890
  C     -2.290740   -2.105780   -3.102880
  C     -2.340700   -0.768610   -2.893060
  C     -2.965680    0.150670   -3.772550
  N     -2.895740    1.507610   -3.532900
  C     -3.574690    2.158580   -4.513410
  C     -3.950660    3.406300   -4.976190
  C     -4.712770    3.177820   -6.141450
  N     -4.787850    1.816510   -6.371570
  C     -4.099390    1.171380   -5.399910
  C     -3.714390   -0.079440   -4.937390
  C     -5.350690    4.095280   -6.991830
  C     -5.295040    5.456810   -6.877470
  C     -5.993210    6.296580   -7.764500
  N     -6.784190    5.810270   -8.728530
  C     -7.295360    6.872360   -9.355870
  C     -6.805650    8.136270   -8.773540
  C     -7.385810    9.289140   -9.486160
  O     -7.202990   10.472160   -9.278650
  C     -8.233100    8.649570  -10.500120
  C     -8.153530    7.181860  -10.391850
  N     -8.930810    6.588890  -11.324050
  C     -9.478700    7.581380  -11.994160
  C     -9.087210    8.889250  -11.534380
  C     -5.965220    7.779550   -7.751960
  C     -5.199070    8.583520   -6.855860
  C     -5.187960    9.930540   -6.883270
  C     -4.394260   10.717620   -5.970570
  C     -4.401680   12.122450   -6.027020
  N     -3.685170   12.858960   -5.203780
  C     -2.941580   12.229840   -4.304940
  C     -2.921710   10.841180   -4.238670
  N     -3.637250   10.097100   -5.057700
  H     -1.783320    0.252540    3.055380
  H     -3.077720    0.550940    0.882170
  H      0.270240   -2.870890    1.372670
  H      0.965150   -9.113350   -2.573150
  H     -0.315510   -8.164240   -4.752580
  H     -2.705030   -2.509940   -4.017190
  H     -1.883450   -0.350770   -2.008260
  H     -2.410700    1.922420   -2.755870
  H     -3.729950    4.364730   -4.552780
  H     -5.272350    1.400360   -7.148780
  H     -3.934360   -1.037190   -5.361700
  H     -5.938750    3.700880   -7.810240
  H     -4.708060    5.914410   -6.096210
  H    -10.154190    7.376400  -12.806610
  H     -9.419210    9.822690  -11.944010
  H     -4.589200    8.080980   -6.117980
  H     -5.782600   10.474750   -7.603700
  H     -5.001640   12.649530   -6.755980
  H     -2.360710   12.849010   -3.636730
  H     -2.318920   10.312100   -3.512330

 Total Charge           Charge          ....    0
 Multiplicity           Mult            ....    1
 Number of Electrons    NEL             ....  334
 Basis Dimension        Dim             ....  800

ORBITAL ENERGIES
----------------

  NO   OCC          E(Eh)            E(eV)
   0   2.0000     -19.213838      -522.8351
   1   2.0000     -19.194375      -522.3055
   2   2.0000     -14.474370      -393.8676
   3   2.0000     -14.473838      -393.8532
   4   2.0000     -14.447971      -393.1493
   5   2.0000     -14.439216      -392.9111
   6   2.0000     -14.424530      -392.5114
   7   2.0000     -14.414238      -392.2313
   8   2.0000     -14.412950      -392.1963
   9   2.0000     -14.412024      -392.1711
  10   2.0000     -14.386606      -391.4795
  11   2.0000     -14.382169      -391.3587
  12   2.0000     -10.374067      -282.2927
  13   2.0000     -10.355265      -281.7811
  14   2.0000     -10.354224      -281.7527
  15   2.0000     -10.343489      -281.4606
  16   2.0000     -10.338458      -281.3237
  17   2.0000     -10.336140      -281.2607
  18   2.0000     -10.335723      -281.2493
  19   2.0000     -10.332471      -281.1608
  20   2.0000     -10.332112      -281.1511
  21   2.0000     -10.331812      -281.1429
  22   2.0000     -10.325314      -280.9661
  23   2.0000     -10.325127      -280.9610
  24   2.0000     -10.320571      -280.8370
  25   2.0000     -10.314902      -280.6827
  26   2.0000     -10.313565      -280.6464
  27   2.0000     -10.312891      -280.6280
  28   2.0000     -10.312355      -280.6134
  29   2.0000     -10.311409      -280.5877
  30   2.0000     -10.308330      -280.5039
  31   2.0000     -10.304724      -280.4058
  32   2.0000     -10.303665      -280.3770
  33   2.0000     -10.303235      -280.3653
  34   2.0000     -10.297945      -280.2213
  35   2.0000     -10.296573      -280.1840
  36   2.0000     -10.295816      -280.1634
  37   2.0000     -10.293977      -280.1134
  38   2.0000     -10.293946      -280.1125
  39   2.0000     -10.289223      -279.9840
  40   2.0000     -10.289127      -279.9814
  41   2.0000     -10.288612      -279.9674
  42   2.0000     -10.286630      -279.9134
  43   2.0000     -10.278508      -279.6924
  44   2.0000     -10.278288      -279.6864
  45   2.0000     -10.274597      -279.5860
  46   2.0000     -10.274360      -279.5795
  47   2.0000     -10.267193      -279.3845
  48   2.0000     -10.265609      -279.3414
  49   2.0000     -10.264828      -279.3202
  50   2.0000      -1.127834       -30.6899
  51   2.0000      -1.108101       -30.1530
  52   2.0000      -1.107038       -30.1240
  53   2.0000      -1.103231       -30.0204
  54   2.0000      -1.085263       -29.5315
  55   2.0000      -1.070230       -29.1224
  56   2.0000      -1.069393       -29.0997
  57   2.0000      -1.066861       -29.0308
  58   2.0000      -1.056945       -28.7609
  59   2.0000      -1.035329       -28.1727
  60   2.0000      -1.019419       -27.7398
  61   2.0000      -0.989846       -26.9351
  62   2.0000      -0.944785       -25.7089
  63   2.0000      -0.923624       -25.1331
  64   2.0000      -0.922646       -25.1065
  65   2.0000      -0.908077       -24.7100
  66   2.0000      -0.901565       -24.5328
  67   2.0000      -0.898503       -24.4495
  68   2.0000      -0.886002       -24.1094
  69   2.0000      -0.879189       -23.9240
  70   2.0000      -0.868246       -23.6262
  71   2.0000      -0.864072       -23.5126
  72   2.0000      -0.855643       -23.2832
  73   2.0000      -0.835548       -22.7364
  74   2.0000      -0.815555       -22.1924
  75   2.0000      -0.806403       -21.9433
  76   2.0000      -0.805098       -21.9078
  77   2.0000      -0.778399       -21.1813
  78   2.0000      -0.767731       -20.8910
  79   2.0000      -0.755848       -20.5677
  80   2.0000      -0.748115       -20.3572
  81   2.0000      -0.743270       -20.2254
  82   2.0000      -0.736723       -20.0473
  83   2.0000      -0.726963       -19.7817
  84   2.0000      -0.725412       -19.7395
  85   2.0000      -0.710288       -19.3279
  86   2.0000      -0.700380       -19.0583
  87   2.0000      -0.698979       -19.0202
  88   2.0000      -0.690104       -18.7787
  89   2.0000      -0.670241       -18.2382
  90   2.0000      -0.664372       -18.0785
  91   2.0000      -0.660218       -17.9654
  92   2.0000      -0.642895       -17.4941
  93   2.0000      -0.639029       -17.3889
  94   2.0000      -0.635469       -17.2920
  95   2.0000      -0.623166       -16.9572
  96   2.0000      -0.622080       -16.9277
  97   2.0000      -0.618405       -16.8277
  98   2.0000      -0.613881       -16.7045
  99   2.0000      -0.606216       -16.4960
 100   2.0000      -0.600193       -16.3321
 101   2.0000      -0.591852       -16.1051
 102   2.0000      -0.588182       -16.0053
 103   2.0000      -0.578876       -15.7520
 104   2.0000      -0.577084       -15.7033
 105   2.0000      -0.571239       -15.5442
 106   2.0000      -0.562212       -15.2986
 107   2.0000      -0.559209       -15.2169
 108   2.0000      -0.555628       -15.1194
 109   2.0000      -0.552557       -15.0358
 110   2.0000      -0.551112       -14.9965
 111   2.0000      -0.549723       -14.9587
 112   2.0000      -0.539016       -14.6674
 113   2.0000      -0.537638       -14.6299
 114   2.0000      -0.532349       -14.4860
 115   2.0000      -0.528264       -14.3748
 116   2.0000      -0.526811       -14.3353
 117   2.0000      -0.525682       -14.3045
 118   2.0000      -0.521343       -14.1865
 119   2.0000      -0.517999       -14.0955
 120   2.0000      -0.511402       -13.9160
 121   2.0000      -0.511278       -13.9126
 122   2.0000      -0.507511       -13.8101
 123   2.0000      -0.503145       -13.6913
 124   2.0000      -0.497062       -13.5257
 125   2.0000      -0.494072       -13.4444
 126   2.0000      -0.492627       -13.4051
 127   2.0000      -0.488501       -13.2928
 128   2.0000      -0.480995       -13.0885
 129   2.0000      -0.477144       -12.9837
 130   2.0000      -0.475690       -12.9442
 131   2.0000      -0.471842       -12.8395
 132   2.0000      -0.470416       -12.8007
 133   2.0000      -0.467248       -12.7145
 134   2.0000      -0.464991       -12.6531
 135   2.0000      -0.460167       -12.5218
 136   2.0000      -0.457686       -12.4543
 137   2.0000      -0.455410       -12.3923
 138   2.0000      -0.454117       -12.3571
 139   2.0000      -0.439489       -11.9591
 140   2.0000      -0.431000       -11.7281
 141   2.0000      -0.425666       -11.5830
 142   2.0000      -0.416292       -11.3279
 143   2.0000      -0.412537       -11.2257
 144   2.0000      -0.398993       -10.8572
 145   2.0000      -0.397826       -10.8254
 146   2.0000      -0.384972       -10.4756
 147   2.0000      -0.381295       -10.3756
 148   2.0000      -0.375249       -10.2110
 149   2.0000      -0.372291       -10.1305
 150   2.0000      -0.363955        -9.9037
 151   2.0000      -0.359702        -9.7880
 152   2.0000      -0.343442        -9.3455
 153   2.0000      -0.342348        -9.3158
 154   2.0000      -0.340727        -9.2717
 155   2.0000      -0.337657        -9.1881
 156   2.0000      -0.333665        -9.0795
 157   2.0000      -0.332437        -9.0461
 158   2.0000      -0.327913        -8.9230
 159   2.0000      -0.321503        -8.7486
 160   2.0000      -0.312093        -8.4925
 161   2.0000      -0.311385        -8.4732
 162   2.0000      -0.311121        -8.4660
 163   2.0000      -0.305743        -8.3197
 164   2.0000      -0.289807        -7.8861
 165   2.0000      -0.270228        -7.3533
 166   2.0000      -0.233135        -6.3439
 167   0.0000      -0.123077        -3.3491
 168   0.0000      -0.102154        -2.7798
 169   0.0000      -0.060553        -1.6477
 170   0.0000      -0.043110        -1.1731
 171   0.0000      -0.030884        -0.8404

MULLIKEN ATOMIC CHARGES
-----------------------
   0 C :    0.036424
   1 C :    0.035928
   2 N :   -0.055291
   3 C :   -0.095210
   4 C :    0.050538
   5 N :   -0.037596
   6 C :    0.065063
   7 N :   -0.037924
   8 C :    0.086883
   9 C :   -0.150208
  10 C :    0.206587
  11 O :   -0.131175
  12 C :   -0.030130
  13 C :   -0.033181
  14 N :   -0.054946
  15 C :    0.092386
  16 C :   -0.091071
  17 C :    0.050600
  18 C :   -0.059154
  19 C :    0.058035
  20 C :    0.093971
  21 N :   -0.032757
  22 C :    0.124416
  23 C :   -0.152772
  24 C :    0.108120
  25 N :   -0.024170
  26 C :    0.128920
  27 C :   -0.167182
  28 C :    0.051533
  29 C :   -0.078941
  30 C :    0.056943
  31 N :   -0.058770
  32 C :    0.062125
  33 C :   -0.165614
  34 C :    0.215059
  35 O :   -0.153865
  36 C :   -0.015503
  37 C :   -0.055453
  38 N :   -0.062426
  39 C :    0.076572
  40 C :   -0.100712
  41 C :    0.065215
  42 C :   -0.015307
  43 C :    0.010310
  44 C :   -0.017312
  45 C :    0.006074
  46 N :   -0.044211
  47 C :    0.017296
  48 C :    0.031353
  49 N :   -0.056155
  50 H :    0.025018
  51 H :    0.013472
  52 H :    0.029193
  53 H :    0.012463
  54 H :   -0.002120
  55 H :    0.002359
  56 H :   -0.030201
  57 H :    0.124721
  58 H :   -0.021107
  59 H :    0.131415
  60 H :   -0.015473
  61 H :    0.008010
  62 H :   -0.018424
  63 H :   -0.003579
  64 H :   -0.017725
  65 H :   -0.019467
  66 H :    0.002133
  67 H :    0.012917
  68 H :    0.009812
  69 H :    0.003269
Sum of atomic charges:   -0.0000000

LOEWDIN ATOMIC CHARGES
----------------------
   0 C :    0.018641
   1 C :   -0.002742
   2 N :   -0.033250
   3 C :   -0.031649
   4 C :    0.049489
   5 N :   -0.037096
   6 C :    0.068891
   7 N :   -0.086020
   8 C :    0.042458
   9 C :   -0.058503
  10 C :    0.066489
  11 O :   -0.141568
  12 C :   -0.038228
  13 C :    0.029518
  14 N :   -0.096042
  15 C :    0.079311
  16 C :   -0.031186
  17 C :   -0.018576
  18 C :   -0.018828
  19 C :   -0.009326
  20 C :    0.016257
  21 N :    0.070721
  22 C :   -0.016187
  23 C :   -0.061873
  24 C :   -0.010350
  25 N :    0.079202
  26 C :    0.000574
  27 C :   -0.085517
  28 C :    0.048245
  29 C :   -0.066840
  30 C :    0.070025
  31 N :   -0.129862
  32 C :    0.046601
  33 C :   -0.039342
  34 C :    0.067153
  35 O :   -0.154877
  36 C :   -0.049370
  37 C :   -0.000880
  38 N :   -0.104375
  39 C :    0.052206
  40 C :   -0.049317
  41 C :   -0.028555
  42 C :   -0.009186
  43 C :   -0.005753
  44 C :   -0.011832
  45 C :    0.009953
  46 N :   -0.042125
  47 C :   -0.006913
  48 C :   -0.000788
  49 N :   -0.053314
  50 H :    0.030958
  51 H :    0.026634
  52 H :    0.035255
  53 H :    0.024971
  54 H :    0.035579
  55 H :    0.038896
  56 H :    0.022795
  57 H :    0.091107
  58 H :    0.029287
  59 H :    0.096264
  60 H :    0.031032
  61 H :    0.042326
  62 H :    0.028025
  63 H :    0.017966
  64 H :    0.029337
  65 H :    0.025897
  66 H :    0.032133
  67 H :    0.029179
  68 H :    0.024092
  69 H :    0.022803

  Mayer bond orders larger than 0.100000
B(  0-C ,  1-C ) :   1.3526 B(  0-C ,  3-C ) :   0.1014 B(  0-C ,  5-N ) :   1.5315
B(  0-C , 50-H ) :   0.9785 B(  1-C ,  2-N ) :   1.5230 B(  1-C , 51-H ) :   0.9750
B(  2-N ,  3-C ) :   1.5500 B(  3-C ,  4-C ) :   1.3344 B(  3-C ,  6-C ) :   0.9851
B(  4-C ,  5-N ) :   1.5670 B(  4-C , 52-H ) :   0.9707 B(  6-C ,  7-N ) :   1.6993
B(  6-C ,  8-C ) :   0.1055 B(  6-C , 17-C ) :   0.9861 B(  7-N ,  8-C ) :   1.3014
B(  8-C ,  9-C ) :   1.0640 B(  8-C , 13-C ) :   1.4426 B(  9-C , 10-C ) :   0.8995
B(  9-C , 17-C ) :   1.5191 B( 10-C , 11-O ) :   2.2696 B( 10-C , 12-C ) :   0.9028
B( 12-C , 13-C ) :   1.0555 B( 12-C , 16-C ) :   1.6291 B( 13-C , 14-N ) :   1.3023
B( 14-N , 15-C ) :   1.6677 B( 15-C , 16-C ) :   1.0578 B( 15-C , 53-H ) :   0.9891
B( 16-C , 54-H ) :   1.0104 B( 17-C , 18-C ) :   1.1520 B( 18-C , 19-C ) :   1.6381
B( 18-C , 55-H ) :   0.9616 B( 19-C , 20-C ) :   1.1262 B( 19-C , 56-H ) :   0.9466
B( 20-C , 21-N ) :   1.1764 B( 20-C , 27-C ) :   1.3921 B( 21-N , 22-C ) :   1.1582
B( 21-N , 57-H ) :   0.9358 B( 22-C , 23-C ) :   1.3055 B( 22-C , 26-C ) :   1.2671
B( 23-C , 24-C ) :   1.3335 B( 23-C , 58-H ) :   1.0334 B( 24-C , 25-N ) :   1.1553
B( 24-C , 28-C ) :   1.1463 B( 25-N , 26-C ) :   1.1941 B( 25-N , 59-H ) :   0.9345
B( 26-C , 27-C ) :   1.2616 B( 27-C , 60-H ) :   1.0345 B( 28-C , 29-C ) :   1.5390
B( 28-C , 61-H ) :   0.9753 B( 29-C , 30-C ) :   1.2228 B( 29-C , 62-H ) :   0.9626
B( 30-C , 31-N ) :   1.5081 B( 30-C , 32-C ) :   0.1099 B( 30-C , 41-C ) :   0.9940
B( 31-N , 32-C ) :   1.4259 B( 32-C , 33-C ) :   1.0510 B( 32-C , 37-C ) :   1.3536
B( 33-C , 34-C ) :   0.8904 B( 33-C , 41-C ) :   1.5684 B( 34-C , 35-O ) :   2.1700
B( 34-C , 36-C ) :   0.9447 B( 35-O , 66-H ) :   0.1085 B( 36-C , 37-C ) :   1.0927
B( 36-C , 40-C ) :   1.5503 B( 37-C , 38-N ) :   1.3484 B( 38-N , 39-C ) :   1.6167
B( 39-C , 40-C ) :   1.1128 B( 39-C , 63-H ) :   0.9900 B( 40-C , 64-H ) :   1.0119
B( 41-C , 42-C ) :   1.0838 B( 42-C , 43-C ) :   1.7176 B( 42-C , 65-H ) :   0.9638
B( 43-C , 44-C ) :   1.0464 B( 43-C , 66-H ) :   0.9556 B( 44-C , 45-C ) :   1.3073
B( 44-C , 49-N ) :   1.5205 B( 45-C , 46-N ) :   1.5813 B( 45-C , 67-H ) :   0.9812
B( 46-N , 47-C ) :   1.5384 B( 47-C , 48-C ) :   1.3489 B( 47-C , 68-H ) :   0.9781
B( 48-C , 49-N ) :   1.5623 B( 48-C , 69-H ) :   0.9757

-----------------------------------------------------------------------------
         ABSORPTION SPECTRUM VIA TRANSITION ELECTRIC DIPOLE MOMENTS
-----------------------------------------------------------------------------
State   Energy  Wavelength   fosc         T2         TX        TY        TZ
        (cm-1)    (nm)                  (au**2)     (au)      (au)      (au)
-----------------------------------------------------------------------------
   0   10645.2    939.4   0.470730977  14.55771   1.55881  -3.17499   1.43082
   1   15091.3    662.6   1.398844299  30.51540  -2.40677   3.97841  -2.98246
   2   18640.2    536.5   0.175960723   3.10771   1.08084  -0.52656   1.28928
   3   21322.2    469.0   0.002136154   0.03298   0.05678   0.11006   0.13283
   4   21844.8    457.8   0.043705913   0.65867  -0.19717   0.70841  -0.34344
   5   22217.6    450.1   0.000802255   0.01189  -0.01958  -0.08360   0.06719
   6   23585.6    424.0   0.199678395   2.78714  -0.24141   1.62818  -0.27910
   7   24554.2    407.3   0.121008789   1.62243  -0.16790   1.21507   0.34328
   8   24666.2    405.4   0.014285532   0.19066  -0.11986   0.41277   0.07696
   9   25176.0    397.2   0.011611369   0.15184   0.19852  -0.21088   0.26068
  10   25610.4    390.5   0.021137894   0.27172   0.13808   0.49787   0.06913
  11   25713.9    388.9   0.001376906   0.01763   0.03928   0.10674   0.06849
  12   25885.6    386.3   0.006056896   0.07703   0.14456  -0.22669  -0.06889
  13   26148.8    382.4   0.021981192   0.27674   0.34917   0.00467   0.39345
  14   26528.5    377.0   0.185645646   2.30381   0.12045  -1.50800  -0.12347
  15   27237.0    367.1   0.081160739   0.98098  -0.38332  -0.67529  -0.61485
  16   27748.8    360.4   0.001429665   0.01696   0.04884  -0.00004  -0.12073
  17   28189.3    354.7   0.504648195   5.89359  -0.68104   2.09849   1.01296
  18   28796.8    347.3   0.133843883   1.53014   0.40065  -1.01829  -0.57681
  19   28884.6    346.2   0.022484865   0.25627   0.27634   0.40926   0.11140
  20   29436.0    339.7   0.023869328   0.26695  -0.18538   0.33482  -0.34710
  21   29611.3    337.7   0.003346495   0.03721  -0.16401  -0.00183   0.10150
  22   30785.2    324.8   0.003241892   0.03467   0.13532   0.03610   0.12270
  23   30915.9    323.5   0.673395383   7.17075   1.61449   0.60973   2.04753
  24   31312.3    319.4   0.000270863   0.00285   0.03131   0.01752   0.03950
  25   31523.5    317.2   0.241578648   2.52289  -0.33206  -1.17624  -1.01444
  26   31856.0    313.9   0.137082386   1.41666  -0.78075  -0.74345  -0.50436
  27   33245.8    300.8   0.066483753   0.65835   0.57356   0.33150   0.46848
  28   33702.8    296.7   0.002287543   0.02234   0.11003  -0.01119  -0.10056
  29   33954.8    294.5   0.003556325   0.03448   0.13135   0.11795   0.05758
  30   34650.4    288.6   0.040055549   0.38057  -0.39529   0.11613  -0.45916
  31   34955.5    286.1   0.000105211   0.00099   0.03071  -0.00634  -0.00270
  32   35115.6    284.8   0.001985380   0.01861  -0.08776   0.03038  -0.09994
  33   35625.3    280.7   0.001704915   0.01576   0.09639  -0.00422  -0.08028
  34   35884.6    278.7   0.008731034   0.08010   0.05577  -0.25318   0.11354
  35   36316.6    275.4   0.059928590   0.54326   0.43696   0.12240   0.58081
  36   36717.2    272.4   0.061714085   0.55334   0.01361   0.36041   0.65058
  37   37056.3    269.9   0.125528618   1.11521   0.06301  -0.32392  -1.00315
  38   37500.9    266.7   0.164407649   1.44330   0.05104  -1.08250  -0.51855
  39   37706.5    265.2   0.127697835   1.11492  -0.07751   1.01505   0.28034
  40   38335.1    260.9   0.067226193   0.57732   0.05194  -0.49700  -0.57238
  41   38922.9    256.9   0.018230843   0.15420  -0.09342   0.35855   0.13006
  42   39051.8    256.1   0.002877431   0.02426  -0.12322  -0.00073   0.09526
  43   39102.2    255.7   0.000434769   0.00366  -0.04244  -0.00560   0.04276
  44   39187.5    255.2   0.015857195   0.13322  -0.10994  -0.21242  -0.27570
  45   39442.2    253.5   0.027268543   0.22760   0.18654   0.38566   0.20994
  46   39910.7    250.6   0.113416436   0.93554   0.44483  -0.85883   0.00889
  47   40050.0    249.7   0.001728587   0.01421   0.10414  -0.03057  -0.04929
  48   40232.4    248.6   0.076748158   0.62801   0.46267  -0.60119   0.22915

FINAL SINGLE POINT ENERGY     -2155.155221523198

DIPOLE MOMENT
-------------
                                X             Y             Z
Electronic contribution:      0.76609     -14.86135      -1.12437
Nuclear contribution   :      0.63946      13.14331       3.31059
                        -----------------------------------------
Total Dipole Moment    :      1.40554      -1.71805       2.18622
                        -----------------------------------------
Magnitude (a.u.)       :      3.11558
Magnitude (Debye)      :      7.91916

Rotational constants in cm-1:     0.003161     0.000512     0.000451
Rotational constants in MHz :    94.753224    15.359028    13.526962

                             ****ORCA TERMINATED NORMALLY****
TOTAL RUN TIME: 0 days 0 hours 4 minutes 34 seconds 826 msec
