                         Program Version 4.2.0 -  RELEASE  -
|  1> # ORCA input file
|  2> # SCF done       -227.384831575196          0.000452270980
|  3> ! CAM-B3LYP def2-SVP def2/J RIJCOSX Grid4 TightSCF
|  4> %maxcore 5000
|  5> %tddft
|  6>     Mode sTDDFT
|  7>     Ethresh 5.0
|  8>     maxcore 5000
|  9> end
| 10>
| 11> %pal
| 12>   nprocs 6
| 13>   end
| 14> * xyz 0 1
| 15>    C        1.44760        -2.12582         6.00987
| 16>    C        0.85342        -1.55155         7.09875
| 17>    F       -0.41560        -1.87410         7.40810
| 18>    C        1.51776        -0.62865         7.91853
| 19>    C        2.80734        -0.28730         7.62003
| 20>    C        3.46923        -0.84949         6.50886
| 21>    C        2.77743        -1.78894         5.68947
| 22>    C        3.42340        -2.37697         4.57768
| 23>    C        4.71940        -2.03740         4.29542
| 24>    C        5.39750        -1.08094         5.10511
| 25>    C        4.79927        -0.50050         6.18697
| 26>    C        6.74755        -0.85389         4.56362
| 27>    O        7.62480        -0.14997         5.00738
| 28>    C        6.80230        -1.64581         3.29863
| 29>    C        5.63090        -2.50478         3.25545
| 30>    C        5.47511        -3.65959         2.53983
| 31>    C        6.44397        -4.23183         1.69232
| 32>    N        7.19468        -4.78640         1.02347
| 33>    C        4.32995        -4.48183         2.61764
| 34>    N        3.42320        -5.18479         2.63491
| 35>    C        7.80750        -1.40477         2.42461
| 36>    C        7.95694        -1.83671         1.07188
| 37>    S        9.50783        -2.47855         0.60659
| 38>    C        8.92957        -2.91861        -0.96794
| 39>    C        7.61867        -2.49707        -1.13628
| 40>    C        7.07634        -1.87726         0.00827
| 41>    C        5.75473        -1.17143        -0.08836
| 42>    F        5.11075        -1.00391         1.11289
| 43>    C        4.82402        -1.89510        -1.06600
| 44>    F        4.57511        -3.17653        -0.64237
| 45>    C        5.51344        -1.95505        -2.43129
| 46>    F        5.83550        -0.67227        -2.79989
| 47>    C        6.77794        -2.81864        -2.33796
| 48>    F        7.47497        -2.68271        -3.51977
| 49>    C        9.73687        -3.64064        -1.88383
| 50>    C       11.02767        -3.98547        -1.65096
| 51>    C       11.85010        -4.73352        -2.52797
| 52>    N       11.42112        -5.23585        -3.73900
| 53>    C       12.44674        -5.91562        -4.31125
| 54>    C       12.81103        -6.66477        -5.42122
| 55>    C       14.14871        -7.03749        -5.21533
| 56>    N       14.58457        -6.52403        -4.00906
| 57>    C       13.56442        -5.83744        -3.43510
| 58>    C       13.18816        -5.09806        -2.32016
| 59>    C       15.00258        -7.81553        -6.02894
| 60>    C       14.64835        -8.36440        -7.22080
| 61>    C       15.51619        -9.14380        -8.01916
| 62>    S       17.14740        -9.48685        -7.53496
| 63>    C       17.47172       -10.37666        -8.99777
| 64>    C       16.34175       -10.39324        -9.81235
| 65>    C       15.24635        -9.72026        -9.26038
| 66>    C       13.93639        -9.59535        -9.98284
| 67>    F       12.85993        -9.73173        -9.13335
| 68>    C       13.80775       -10.64333       -11.09585
| 69>    F       13.69567       -11.90276       -10.56074
| 70>    C       15.06804       -10.60357       -11.96370
| 71>    F       15.26745        -9.30728       -12.36746
| 72>    C       16.25881       -11.10137       -11.13375
| 73>    F       17.40434       -10.94796       -11.87960
| 74>    C       18.73880       -10.94469        -9.24019
| 75>    C       19.77696       -10.88695        -8.35825
| 76>    C       21.04508       -11.41452        -8.65589
| 77>    C       22.19134       -11.33283        -7.91329
| 78>    C       23.31473       -12.25426        -8.22258
| 79>    O       23.43239       -12.94788        -9.20858
| 80>    C       24.21455       -12.18213        -7.05541
| 81>    C       25.34529       -12.90094        -6.79753
| 82>    C       26.04011       -12.68263        -5.58669
| 83>    C       25.53740       -11.72487        -4.65909
| 84>    C       26.22922       -11.51643        -3.45012
| 85>    C       27.36644       -12.23114        -3.19582
| 86>    C       27.87826       -13.17512        -4.09611
| 87>    C       27.21735       -13.39196        -5.27321
| 88>    F       28.03001       -12.03148        -2.04155
| 89>    C       24.36484       -10.99108        -4.95619
| 90>    C       23.71730       -11.20867        -6.14206
| 91>    C       22.53452       -10.57887        -6.73120
| 92>    C       22.00824        -9.37921        -6.32054
| 93>    C       21.06928        -8.60701        -7.03475
| 94>    N       20.34584        -7.89170        -7.56769
| 95>    C       22.42041        -8.69812        -5.15691
| 96>    N       22.68678        -8.10455        -4.21039
| 97>    H        0.90725        -2.83556         5.40319
| 98>    H        0.99761        -0.20907         8.76497
| 99>    H        3.33955         0.42167         8.23619
|100>    H        2.87182        -3.07528         3.96901
|101>    H        5.33507         0.21750         6.78966
|102>    H        8.63170        -0.81969         2.82482
|103>    H        5.91837        -0.15135        -0.47151
|104>    H        3.85537        -1.38407        -1.12007
|105>    H        4.84565        -2.34488        -3.20860
|106>    H        6.46874        -3.87520        -2.28975
|107>    H        9.25871        -3.91847        -2.81011
|108>    H       11.49079        -3.68127        -0.72183
|109>    H       10.50189        -5.10471        -4.12250
|110>    H       12.21124        -6.92409        -6.26917
|111>    H       15.51126        -6.65006        -3.63931
|112>    H       13.77325        -4.84178        -1.46019
|113>    H       16.00889        -7.97828        -5.66168
|114>    H       13.64966        -8.21023        -7.59620
|115>    H       13.83858        -8.59560       -10.43351
|116>    H       12.89743       -10.46838       -11.68095
|117>    H       14.96210       -11.20444       -12.87444
|118>    H       16.14221       -12.18538       -10.97857
|119>    H       18.89462       -11.41426       -10.20089
|120>    H       19.61084       -10.42618        -7.39507
|121>    H       21.13015       -12.01713        -9.55479
|122>    H       25.70702       -13.62733        -7.50978
|123>    H       25.86626       -10.79462        -2.73517
|124>    H       28.78028       -13.70862        -3.84150
|125>    H       27.59184       -14.11422        -5.98298
|126>    H       24.00636       -10.27853        -4.23060
|127> *
|128>
|129>                          ****END OF INPUT****

CARTESIAN COORDINATES (ANGSTROEM)
---------------------------------
  C      1.447600   -2.125820    6.009870
  C      0.853420   -1.551550    7.098750
  F     -0.415600   -1.874100    7.408100
  C      1.517760   -0.628650    7.918530
  C      2.807340   -0.287300    7.620030
  C      3.469230   -0.849490    6.508860
  C      2.777430   -1.788940    5.689470
  C      3.423400   -2.376970    4.577680
  C      4.719400   -2.037400    4.295420
  C      5.397500   -1.080940    5.105110
  C      4.799270   -0.500500    6.186970
  C      6.747550   -0.853890    4.563620
  O      7.624800   -0.149970    5.007380
  C      6.802300   -1.645810    3.298630
  C      5.630900   -2.504780    3.255450
  C      5.475110   -3.659590    2.539830
  C      6.443970   -4.231830    1.692320
  N      7.194680   -4.786400    1.023470
  C      4.329950   -4.481830    2.617640
  N      3.423200   -5.184790    2.634910
  C      7.807500   -1.404770    2.424610
  C      7.956940   -1.836710    1.071880
  S      9.507830   -2.478550    0.606590
  C      8.929570   -2.918610   -0.967940
  C      7.618670   -2.497070   -1.136280
  C      7.076340   -1.877260    0.008270
  C      5.754730   -1.171430   -0.088360
  F      5.110750   -1.003910    1.112890
  C      4.824020   -1.895100   -1.066000
  F      4.575110   -3.176530   -0.642370
  C      5.513440   -1.955050   -2.431290
  F      5.835500   -0.672270   -2.799890
  C      6.777940   -2.818640   -2.337960
  F      7.474970   -2.682710   -3.519770
  C      9.736870   -3.640640   -1.883830
  C     11.027670   -3.985470   -1.650960
  C     11.850100   -4.733520   -2.527970
  N     11.421120   -5.235850   -3.739000
  C     12.446740   -5.915620   -4.311250
  C     12.811030   -6.664770   -5.421220
  C     14.148710   -7.037490   -5.215330
  N     14.584570   -6.524030   -4.009060
  C     13.564420   -5.837440   -3.435100
  C     13.188160   -5.098060   -2.320160
  C     15.002580   -7.815530   -6.028940
  C     14.648350   -8.364400   -7.220800
  C     15.516190   -9.143800   -8.019160
  S     17.147400   -9.486850   -7.534960
  C     17.471720  -10.376660   -8.997770
  C     16.341750  -10.393240   -9.812350
  C     15.246350   -9.720260   -9.260380
  C     13.936390   -9.595350   -9.982840
  F     12.859930   -9.731730   -9.133350
  C     13.807750  -10.643330  -11.095850
  F     13.695670  -11.902760  -10.560740
  C     15.068040  -10.603570  -11.963700
  F     15.267450   -9.307280  -12.367460
  C     16.258810  -11.101370  -11.133750
  F     17.404340  -10.947960  -11.879600
  C     18.738800  -10.944690   -9.240190
  C     19.776960  -10.886950   -8.358250
  C     21.045080  -11.414520   -8.655890
  C     22.191340  -11.332830   -7.913290
  C     23.314730  -12.254260   -8.222580
  O     23.432390  -12.947880   -9.208580
  C     24.214550  -12.182130   -7.055410
  C     25.345290  -12.900940   -6.797530
  C     26.040110  -12.682630   -5.586690
  C     25.537400  -11.724870   -4.659090
  C     26.229220  -11.516430   -3.450120
  C     27.366440  -12.231140   -3.195820
  C     27.878260  -13.175120   -4.096110
  C     27.217350  -13.391960   -5.273210
  F     28.030010  -12.031480   -2.041550
  C     24.364840  -10.991080   -4.956190
  C     23.717300  -11.208670   -6.142060
  C     22.534520  -10.578870   -6.731200
  C     22.008240   -9.379210   -6.320540
  C     21.069280   -8.607010   -7.034750
  N     20.345840   -7.891700   -7.567690
  C     22.420410   -8.698120   -5.156910
  N     22.686780   -8.104550   -4.210390
  H      0.907250   -2.835560    5.403190
  H      0.997610   -0.209070    8.764970
  H      3.339550    0.421670    8.236190
  H      2.871820   -3.075280    3.969010
  H      5.335070    0.217500    6.789660
  H      8.631700   -0.819690    2.824820
  H      5.918370   -0.151350   -0.471510
  H      3.855370   -1.384070   -1.120070
  H      4.845650   -2.344880   -3.208600
  H      6.468740   -3.875200   -2.289750
  H      9.258710   -3.918470   -2.810110
  H     11.490790   -3.681270   -0.721830
  H     10.501890   -5.104710   -4.122500
  H     12.211240   -6.924090   -6.269170
  H     15.511260   -6.650060   -3.639310
  H     13.773250   -4.841780   -1.460190
  H     16.008890   -7.978280   -5.661680
  H     13.649660   -8.210230   -7.596200
  H     13.838580   -8.595600  -10.433510
  H     12.897430  -10.468380  -11.680950
  H     14.962100  -11.204440  -12.874440
  H     16.142210  -12.185380  -10.978570
  H     18.894620  -11.414260  -10.200890
  H     19.610840  -10.426180   -7.395070
  H     21.130150  -12.017130   -9.554790
  H     25.707020  -13.627330   -7.509780
  H     25.866260  -10.794620   -2.735170
  H     28.780280  -13.708620   -3.841500
  H     27.591840  -14.114220   -5.982980
  H     24.006360  -10.278530   -4.230600

 Total Charge           Charge          ....    0
 Multiplicity           Mult            ....    1
 Number of Electrons    NEL             ....  582
 Basis Dimension        Dim             .... 1306

ORBITAL ENERGIES
----------------

  NO   OCC          E(Eh)            E(eV)
   0   2.0000     -88.965069     -2420.8626
   1   2.0000     -88.964588     -2420.8495
   2   2.0000     -24.784866      -674.4305
   3   2.0000     -24.783965      -674.4060
   4   2.0000     -24.780839      -674.3209
   5   2.0000     -24.780358      -674.3078
   6   2.0000     -24.779747      -674.2912
   7   2.0000     -24.779551      -674.2859
   8   2.0000     -24.778372      -674.2538
   9   2.0000     -24.772401      -674.0913
  10   2.0000     -24.770295      -674.0340
  11   2.0000     -24.769224      -674.0049
  12   2.0000     -19.212861      -522.8085
  13   2.0000     -19.203561      -522.5555
  14   2.0000     -14.464549      -393.6004
  15   2.0000     -14.461005      -393.5040
  16   2.0000     -14.411434      -392.1551
  17   2.0000     -14.409929      -392.1141
  18   2.0000     -14.409160      -392.0932
  19   2.0000     -14.407218      -392.0403
  20   2.0000     -10.375153      -282.3223
  21   2.0000     -10.374171      -282.2956
  22   2.0000     -10.373171      -282.2683
  23   2.0000     -10.373066      -282.2655
  24   2.0000     -10.372882      -282.2605
  25   2.0000     -10.372388      -282.2470
  26   2.0000     -10.370259      -282.1891
  27   2.0000     -10.370072      -282.1840
  28   2.0000     -10.368548      -282.1425
  29   2.0000     -10.363961      -282.0177
  30   2.0000     -10.363605      -282.0080
  31   2.0000     -10.354672      -281.7650
  32   2.0000     -10.338726      -281.3310
  33   2.0000     -10.338105      -281.3141
  34   2.0000     -10.335010      -281.2299
  35   2.0000     -10.333987      -281.2021
  36   2.0000     -10.322199      -280.8813
  37   2.0000     -10.318298      -280.7752
  38   2.0000     -10.317843      -280.7628
  39   2.0000     -10.317162      -280.7442
  40   2.0000     -10.314181      -280.6631
  41   2.0000     -10.313019      -280.6315
  42   2.0000     -10.312755      -280.6243
  43   2.0000     -10.312504      -280.6175
  44   2.0000     -10.312490      -280.6171
  45   2.0000     -10.311680      -280.5951
  46   2.0000     -10.310397      -280.5602
  47   2.0000     -10.306615      -280.4572
  48   2.0000     -10.305705      -280.4325
  49   2.0000     -10.304829      -280.4086
  50   2.0000     -10.304528      -280.4004
  51   2.0000     -10.304103      -280.3889
  52   2.0000     -10.303677      -280.3773
  53   2.0000     -10.300500      -280.2909
  54   2.0000     -10.300008      -280.2775
  55   2.0000     -10.299708      -280.2693
  56   2.0000     -10.299675      -280.2684
  57   2.0000     -10.298865      -280.2464
  58   2.0000     -10.298681      -280.2414
  59   2.0000     -10.297375      -280.2058
  60   2.0000     -10.296804      -280.1903
  61   2.0000     -10.295766      -280.1620
  62   2.0000     -10.295698      -280.1602
  63   2.0000     -10.294759      -280.1346
  64   2.0000     -10.294441      -280.1260
  65   2.0000     -10.293550      -280.1017
  66   2.0000     -10.292468      -280.0723
  67   2.0000     -10.292174      -280.0643
  68   2.0000     -10.291727      -280.0521
  69   2.0000     -10.291679      -280.0508
  70   2.0000     -10.291038      -280.0334
  71   2.0000     -10.289169      -279.9825
  72   2.0000     -10.288332      -279.9597
  73   2.0000     -10.287884      -279.9476
  74   2.0000     -10.284767      -279.8627
  75   2.0000     -10.284506      -279.8556
  76   2.0000     -10.284100      -279.8446
  77   2.0000     -10.283961      -279.8408
  78   2.0000     -10.283530      -279.8291
  79   2.0000     -10.281974      -279.7867
  80   2.0000     -10.271994      -279.5152
  81   2.0000     -10.271054      -279.4896
  82   2.0000      -8.060559      -219.3390
  83   2.0000      -8.060002      -219.3238
  84   2.0000      -6.029863      -164.0809
  85   2.0000      -6.029100      -164.0601
  86   2.0000      -6.025809      -163.9706
  87   2.0000      -6.025252      -163.9554
  88   2.0000      -6.022531      -163.8814
  89   2.0000      -6.022133      -163.8706
  90   2.0000      -1.303865       -35.4800
  91   2.0000      -1.301469       -35.4148
  92   2.0000      -1.299777       -35.3687
  93   2.0000      -1.296299       -35.2741
  94   2.0000      -1.295467       -35.2515
  95   2.0000      -1.294252       -35.2184
  96   2.0000      -1.287319       -35.0297
  97   2.0000      -1.280983       -34.8573
  98   2.0000      -1.278400       -34.7870
  99   2.0000      -1.277943       -34.7746
 100   2.0000      -1.128349       -30.7039
 101   2.0000      -1.118436       -30.4342
 102   2.0000      -1.095546       -29.8113
 103   2.0000      -1.059104       -28.8197
 104   2.0000      -1.016412       -27.6580
 105   2.0000      -1.011348       -27.5202
 106   2.0000      -1.005620       -27.3643
 107   2.0000      -1.004903       -27.3448
 108   2.0000      -0.997808       -27.1517
 109   2.0000      -0.993666       -27.0390
 110   2.0000      -0.988213       -26.8906
 111   2.0000      -0.986860       -26.8538
 112   2.0000      -0.973931       -26.5020
 113   2.0000      -0.969198       -26.3732
 114   2.0000      -0.933026       -25.3889
 115   2.0000      -0.931938       -25.3593
 116   2.0000      -0.928354       -25.2618
 117   2.0000      -0.927008       -25.2252
 118   2.0000      -0.918151       -24.9842
 119   2.0000      -0.913993       -24.8710
 120   2.0000      -0.903211       -24.5776
 121   2.0000      -0.896628       -24.3985
 122   2.0000      -0.888854       -24.1869
 123   2.0000      -0.885797       -24.1038
 124   2.0000      -0.881338       -23.9824
 125   2.0000      -0.878901       -23.9161
 126   2.0000      -0.873707       -23.7748
 127   2.0000      -0.866922       -23.5901
 128   2.0000      -0.861407       -23.4401
 129   2.0000      -0.855167       -23.2703
 130   2.0000      -0.849739       -23.1226
 131   2.0000      -0.846002       -23.0209
 132   2.0000      -0.841686       -22.9034
 133   2.0000      -0.833316       -22.6757
 134   2.0000      -0.828403       -22.5420
 135   2.0000      -0.824624       -22.4392
 136   2.0000      -0.814109       -22.1530
 137   2.0000      -0.798168       -21.7193
 138   2.0000      -0.787246       -21.4220
 139   2.0000      -0.769412       -20.9368
 140   2.0000      -0.760374       -20.6908
 141   2.0000      -0.755166       -20.5491
 142   2.0000      -0.747487       -20.3402
 143   2.0000      -0.746698       -20.3187
 144   2.0000      -0.743796       -20.2397
 145   2.0000      -0.730608       -19.8809
 146   2.0000      -0.727478       -19.7957
 147   2.0000      -0.712674       -19.3928
 148   2.0000      -0.711887       -19.3714
 149   2.0000      -0.707658       -19.2563
 150   2.0000      -0.706617       -19.2280
 151   2.0000      -0.702970       -19.1288
 152   2.0000      -0.698986       -19.0204
 153   2.0000      -0.697193       -18.9716
 154   2.0000      -0.683365       -18.5953
 155   2.0000      -0.679875       -18.5003
 156   2.0000      -0.675581       -18.3835
 157   2.0000      -0.674163       -18.3449
 158   2.0000      -0.671774       -18.2799
 159   2.0000      -0.662034       -18.0149
 160   2.0000      -0.657554       -17.8930
 161   2.0000      -0.656470       -17.8635
 162   2.0000      -0.653645       -17.7866
 163   2.0000      -0.647516       -17.6198
 164   2.0000      -0.638532       -17.3753
 165   2.0000      -0.634233       -17.2584
 166   2.0000      -0.633290       -17.2327
 167   2.0000      -0.631322       -17.1791
 168   2.0000      -0.630443       -17.1552
 169   2.0000      -0.627453       -17.0739
 170   2.0000      -0.625090       -17.0096
 171   2.0000      -0.622702       -16.9446
 172   2.0000      -0.621642       -16.9158
 173   2.0000      -0.619274       -16.8513
 174   2.0000      -0.610224       -16.6050
 175   2.0000      -0.606915       -16.5150
 176   2.0000      -0.605109       -16.4659
 177   2.0000      -0.604491       -16.4490
 178   2.0000      -0.602356       -16.3909
 179   2.0000      -0.601824       -16.3765
 180   2.0000      -0.600349       -16.3363
 181   2.0000      -0.594319       -16.1722
 182   2.0000      -0.587114       -15.9762
 183   2.0000      -0.583688       -15.8829
 184   2.0000      -0.582694       -15.8559
 185   2.0000      -0.580136       -15.7863
 186   2.0000      -0.573187       -15.5972
 187   2.0000      -0.567888       -15.4530
 188   2.0000      -0.564930       -15.3725
 189   2.0000      -0.564857       -15.3706
 190   2.0000      -0.564157       -15.3515
 191   2.0000      -0.562730       -15.3127
 192   2.0000      -0.559947       -15.2369
 193   2.0000      -0.557608       -15.1733
 194   2.0000      -0.557085       -15.1590
 195   2.0000      -0.555012       -15.1026
 196   2.0000      -0.553122       -15.0512
 197   2.0000      -0.552068       -15.0225
 198   2.0000      -0.550267       -14.9735
 199   2.0000      -0.545546       -14.8451
 200   2.0000      -0.542056       -14.7501
 201   2.0000      -0.540342       -14.7035
 202   2.0000      -0.539574       -14.6826
 203   2.0000      -0.534208       -14.5365
 204   2.0000      -0.532605       -14.4929
 205   2.0000      -0.530275       -14.4295
 206   2.0000      -0.528161       -14.3720
 207   2.0000      -0.526262       -14.3203
 208   2.0000      -0.523705       -14.2507
 209   2.0000      -0.522165       -14.2088
 210   2.0000      -0.517731       -14.0882
 211   2.0000      -0.517034       -14.0692
 212   2.0000      -0.515306       -14.0222
 213   2.0000      -0.511545       -13.9198
 214   2.0000      -0.510907       -13.9025
 215   2.0000      -0.509156       -13.8548
 216   2.0000      -0.508433       -13.8352
 217   2.0000      -0.505358       -13.7515
 218   2.0000      -0.503170       -13.6920
 219   2.0000      -0.499769       -13.5994
 220   2.0000      -0.497984       -13.5508
 221   2.0000      -0.494453       -13.4548
 222   2.0000      -0.491763       -13.3816
 223   2.0000      -0.490474       -13.3465
 224   2.0000      -0.489196       -13.3117
 225   2.0000      -0.488146       -13.2831
 226   2.0000      -0.488053       -13.2806
 227   2.0000      -0.487340       -13.2612
 228   2.0000      -0.485190       -13.2027
 229   2.0000      -0.484531       -13.1848
 230   2.0000      -0.481819       -13.1110
 231   2.0000      -0.480246       -13.0681
 232   2.0000      -0.478349       -13.0165
 233   2.0000      -0.476012       -12.9529
 234   2.0000      -0.475176       -12.9302
 235   2.0000      -0.472334       -12.8529
 236   2.0000      -0.467087       -12.7101
 237   2.0000      -0.465825       -12.6757
 238   2.0000      -0.460917       -12.5422
 239   2.0000      -0.457710       -12.4549
 240   2.0000      -0.455701       -12.4002
 241   2.0000      -0.453363       -12.3366
 242   2.0000      -0.452893       -12.3239
 243   2.0000      -0.449827       -12.2404
 244   2.0000      -0.449125       -12.2213
 245   2.0000      -0.447267       -12.1707
 246   2.0000      -0.447110       -12.1665
 247   2.0000      -0.445591       -12.1251
 248   2.0000      -0.443426       -12.0662
 249   2.0000      -0.440861       -11.9965
 250   2.0000      -0.438891       -11.9428
 251   2.0000      -0.436283       -11.8719
 252   2.0000      -0.435491       -11.8503
 253   2.0000      -0.435401       -11.8479
 254   2.0000      -0.434645       -11.8273
 255   2.0000      -0.430730       -11.7207
 256   2.0000      -0.425736       -11.5849
 257   2.0000      -0.422220       -11.4892
 258   2.0000      -0.421730       -11.4758
 259   2.0000      -0.420823       -11.4512
 260   2.0000      -0.418707       -11.3936
 261   2.0000      -0.417484       -11.3603
 262   2.0000      -0.413843       -11.2612
 263   2.0000      -0.411222       -11.1899
 264   2.0000      -0.409309       -11.1379
 265   2.0000      -0.409051       -11.1308
 266   2.0000      -0.407403       -11.0860
 267   2.0000      -0.404924       -11.0185
 268   2.0000      -0.403740       -10.9863
 269   2.0000      -0.400327       -10.8934
 270   2.0000      -0.396627       -10.7928
 271   2.0000      -0.395617       -10.7653
 272   2.0000      -0.384188       -10.4543
 273   2.0000      -0.378247       -10.2926
 274   2.0000      -0.376990       -10.2584
 275   2.0000      -0.371642       -10.1129
 276   2.0000      -0.358815        -9.7639
 277   2.0000      -0.345613        -9.4046
 278   2.0000      -0.334329        -9.0976
 279   2.0000      -0.332405        -9.0452
 280   2.0000      -0.328420        -8.9368
 281   2.0000      -0.326533        -8.8854
 282   2.0000      -0.322397        -8.7729
 283   2.0000      -0.310929        -8.4608
 284   2.0000      -0.307289        -8.3618
 285   2.0000      -0.298587        -8.1250
 286   2.0000      -0.295469        -8.0401
 287   2.0000      -0.293220        -7.9789
 288   2.0000      -0.286553        -7.7975
 289   2.0000      -0.264116        -7.1870
 290   2.0000      -0.220407        -5.9976
 291   0.0000      -0.099000        -2.6939
 292   0.0000      -0.088715        -2.4140
 293   0.0000      -0.060127        -1.6361
 294   0.0000      -0.051950        -1.4136
 295   0.0000      -0.044374        -1.2075

MULLIKEN ATOMIC CHARGES
-----------------------
   0 C :   -0.099648
   1 C :    0.303545
   2 F :   -0.190635
   3 C :   -0.030049
   4 C :   -0.009930
   5 C :    0.102271
   6 C :    0.103149
   7 C :   -0.086405
   8 C :    0.032836
   9 C :    0.014815
  10 C :   -0.083384
  11 C :    0.130415
  12 O :   -0.143204
  13 C :   -0.103794
  14 C :    0.326401
  15 C :   -0.358928
  16 C :   -0.183743
  17 N :    0.164953
  18 C :   -0.182271
  19 N :    0.152429
  20 C :    0.032445
  21 C :   -0.195705
  22 S :    0.148758
  23 C :   -0.058111
  24 C :   -0.082959
  25 C :   -0.013921
  26 C :    0.325777
  27 F :   -0.226476
  28 C :    0.180822
  29 F :   -0.231330
  30 C :    0.181463
  31 F :   -0.237995
  32 C :    0.328899
  33 F :   -0.240991
  34 C :   -0.020164
  35 C :    0.039164
  36 C :    0.081343
  37 N :   -0.032874
  38 C :    0.120201
  39 C :   -0.168271
  40 C :    0.098044
  41 N :   -0.028383
  42 C :    0.123121
  43 C :   -0.166946
  44 C :    0.020563
  45 C :   -0.037887
  46 C :   -0.062651
  47 S :    0.132501
  48 C :   -0.097031
  49 C :   -0.034039
  50 C :   -0.074851
  51 C :    0.335282
  52 F :   -0.239765
  53 C :    0.176891
  54 F :   -0.236569
  55 C :    0.180766
  56 F :   -0.235294
  57 C :    0.329974
  58 F :   -0.234120
  59 C :    0.009674
  60 C :   -0.000020
  61 C :    0.021426
  62 C :   -0.119275
  63 C :    0.139716
  64 O :   -0.149775
  65 C :    0.005369
  66 C :   -0.083980
  67 C :    0.101748
  68 C :    0.103970
  69 C :   -0.100295
  70 C :    0.303161
  71 C :   -0.030656
  72 C :   -0.011594
  73 F :   -0.192338
  74 C :   -0.089850
  75 C :    0.039905
  76 C :    0.301284
  77 C :   -0.347865
  78 C :   -0.224326
  79 N :    0.170180
  80 C :   -0.181033
  81 N :    0.141383
  82 H :   -0.002069
  83 H :    0.003273
  84 H :   -0.008331
  85 H :   -0.003926
  86 H :   -0.011696
  87 H :    0.032983
  88 H :    0.048595
  89 H :    0.030176
  90 H :    0.026595
  91 H :    0.041936
  92 H :   -0.027108
  93 H :   -0.007718
  94 H :    0.128003
  95 H :   -0.028092
  96 H :    0.126053
  97 H :   -0.030461
  98 H :   -0.012455
  99 H :   -0.002009
 100 H :    0.038107
 101 H :    0.026505
 102 H :    0.027475
 103 H :    0.041898
 104 H :    0.014430
 105 H :    0.021339
 106 H :    0.014103
 107 H :   -0.013881
 108 H :   -0.002843
 109 H :    0.001274
 110 H :   -0.010416
 111 H :   -0.007056
Sum of atomic charges:   -0.0000000

LOEWDIN ATOMIC CHARGES
----------------------
   0 C :   -0.042217
   1 C :    0.092957
   2 F :   -0.065143
   3 C :   -0.037132
   4 C :    0.004543
   5 C :   -0.018638
   6 C :    0.003912
   7 C :    0.012571
   8 C :   -0.014130
   9 C :   -0.059404
  10 C :    0.034466
  11 C :    0.083239
  12 O :   -0.143409
  13 C :   -0.078320
  14 C :    0.072241
  15 C :   -0.131269
  16 C :   -0.016680
  17 N :   -0.054616
  18 C :   -0.015693
  19 N :   -0.054497
  20 C :    0.040262
  21 C :   -0.182576
  22 S :    0.468532
  23 C :   -0.127784
  24 C :   -0.086931
  25 C :   -0.058091
  26 C :    0.096069
  27 F :   -0.100304
  28 C :    0.084359
  29 F :   -0.104626
  30 C :    0.085794
  31 F :   -0.108594
  32 C :    0.098735
  33 F :   -0.115745
  34 C :   -0.064301
  35 C :   -0.011139
  36 C :    0.001659
  37 N :    0.070255
  38 C :   -0.010297
  39 C :   -0.081855
  40 C :   -0.003339
  41 N :    0.074898
  42 C :   -0.018024
  43 C :   -0.081740
  44 C :   -0.011602
  45 C :   -0.056825
  46 C :   -0.128755
  47 S :    0.470301
  48 C :   -0.174617
  49 C :   -0.050389
  50 C :   -0.091153
  51 C :    0.097231
  52 F :   -0.113856
  53 C :    0.085692
  54 F :   -0.109566
  55 C :    0.085825
  56 F :   -0.108051
  57 C :    0.096941
  58 F :   -0.108712
  59 C :    0.022377
  60 C :   -0.048633
  61 C :    0.070325
  62 C :   -0.105304
  63 C :    0.079774
  64 O :   -0.152010
  65 C :   -0.057691
  66 C :    0.031353
  67 C :   -0.019169
  68 C :    0.002463
  69 C :   -0.042925
  70 C :    0.091674
  71 C :   -0.038565
  72 C :    0.003535
  73 F :   -0.066931
  74 C :    0.008241
  75 C :   -0.016132
  76 C :    0.071679
  77 C :   -0.146680
  78 C :   -0.026450
  79 N :   -0.056634
  80 C :   -0.018228
  81 N :   -0.061467
  82 H :    0.043223
  83 H :    0.041775
  84 H :    0.035789
  85 H :    0.039445
  86 H :    0.039575
  87 H :    0.046960
  88 H :    0.039724
  89 H :    0.029825
  90 H :    0.028774
  91 H :    0.035686
  92 H :    0.022123
  93 H :    0.030810
  94 H :    0.090298
  95 H :    0.026673
  96 H :    0.092419
  97 H :    0.027273
  98 H :    0.024588
  99 H :    0.031409
 100 H :    0.032569
 101 H :    0.028249
 102 H :    0.028755
 103 H :    0.035733
 104 H :    0.039174
 105 H :    0.023538
 106 H :    0.044738
 107 H :    0.038810
 108 H :    0.042655
 109 H :    0.040991
 110 H :    0.035123
 111 H :    0.038226

  Mayer bond orders larger than 0.100000
B(  0-C ,  1-C ) :   1.4428 B(  0-C ,  6-C ) :   1.1988 B(  0-C , 82-H ) :   1.0073
B(  1-C ,  2-F ) :   1.0881 B(  1-C ,  3-C ) :   1.2523 B(  3-C ,  4-C ) :   1.4612
B(  3-C , 83-H ) :   0.9936 B(  4-C ,  5-C ) :   1.2324 B(  4-C , 84-H ) :   0.9976
B(  5-C ,  6-C ) :   1.2536 B(  5-C , 10-C ) :   1.1930 B(  6-C ,  7-C ) :   1.2073
B(  7-C ,  8-C ) :   1.4554 B(  7-C , 85-H ) :   0.9937 B(  8-C ,  9-C ) :   1.2192
B(  8-C , 14-C ) :   1.0017 B(  9-C , 10-C ) :   1.4636 B(  9-C , 11-C ) :   0.9193
B( 10-C , 86-H ) :   1.0162 B( 11-C , 12-O ) :   2.2699 B( 11-C , 13-C ) :   0.9398
B( 13-C , 14-C ) :   1.0020 B( 13-C , 20-C ) :   1.7562 B( 14-C , 15-C ) :   1.6701
B( 15-C , 16-C ) :   1.1772 B( 15-C , 18-C ) :   1.1318 B( 16-C , 17-N ) :   2.9897
B( 18-C , 19-N ) :   2.9857 B( 20-C , 21-C ) :   1.0415 B( 20-C , 87-H ) :   0.9263
B( 21-C , 22-S ) :   1.1192 B( 21-C , 25-C ) :   1.5380 B( 22-S , 23-C ) :   1.1300
B( 23-C , 24-C ) :   1.5094 B( 23-C , 34-C ) :   1.1865 B( 24-C , 25-C ) :   1.2877
B( 24-C , 32-C ) :   0.9578 B( 25-C , 26-C ) :   0.9558 B( 26-C , 27-F ) :   1.0187
B( 26-C , 28-C ) :   0.9950 B( 26-C , 88-H ) :   0.9180 B( 28-C , 29-F ) :   1.0038
B( 28-C , 30-C ) :   1.0008 B( 28-C , 89-H ) :   0.9306 B( 30-C , 31-F ) :   1.0068
B( 30-C , 32-C ) :   0.9942 B( 30-C , 90-H ) :   0.9304 B( 32-C , 33-F ) :   1.0095
B( 32-C , 91-H ) :   0.9210 B( 34-C , 35-C ) :   1.5900 B( 34-C , 92-H ) :   0.9598
B( 35-C , 36-C ) :   1.1739 B( 35-C , 93-H ) :   0.9582 B( 36-C , 37-N ) :   1.1970
B( 36-C , 43-C ) :   1.3524 B( 37-N , 38-C ) :   1.1679 B( 37-N , 94-H ) :   0.9315
B( 38-C , 39-C ) :   1.2806 B( 38-C , 42-C ) :   1.2949 B( 39-C , 40-C ) :   1.3776
B( 39-C , 95-H ) :   1.0315 B( 40-C , 41-N ) :   1.1719 B( 40-C , 44-C ) :   1.1419
B( 41-N , 42-C ) :   1.1734 B( 41-N , 96-H ) :   0.9353 B( 42-C , 43-C ) :   1.2493
B( 43-C , 97-H ) :   1.0412 B( 44-C , 45-C ) :   1.6050 B( 44-C , 98-H ) :   0.9629
B( 45-C , 46-C ) :   1.1890 B( 45-C , 99-H ) :   0.9678 B( 46-C , 47-S ) :   1.1483
B( 46-C , 50-C ) :   1.4522 B( 47-S , 48-C ) :   1.0973 B( 48-C , 49-C ) :   1.4619
B( 48-C , 59-C ) :   1.1915 B( 49-C , 50-C ) :   1.3614 B( 49-C , 57-C ) :   0.9439
B( 50-C , 51-C ) :   0.9458 B( 51-C , 52-F ) :   1.0173 B( 51-C , 53-C ) :   0.9965
B( 51-C ,100-H ) :   0.9187 B( 53-C , 54-F ) :   1.0184 B( 53-C , 55-C ) :   1.0001
B( 53-C ,101-H ) :   0.9321 B( 55-C , 56-F ) :   1.0188 B( 55-C , 57-C ) :   0.9950
B( 55-C ,102-H ) :   0.9317 B( 57-C , 58-F ) :   1.0254 B( 57-C ,103-H ) :   0.9188
B( 59-C , 60-C ) :   1.5617 B( 59-C ,104-H ) :   0.9755 B( 60-C , 61-C ) :   1.1806
B( 60-C ,105-H ) :   0.9593 B( 61-C , 62-C ) :   1.5509 B( 61-C ,106-H ) :   0.9567
B( 62-C , 63-C ) :   0.9517 B( 62-C , 76-C ) :   1.0578 B( 63-C , 64-O ) :   2.2596
B( 63-C , 65-C ) :   0.9198 B( 65-C , 66-C ) :   1.4762 B( 65-C , 75-C ) :   1.2195
B( 66-C , 67-C ) :   1.1863 B( 66-C ,107-H ) :   1.0156 B( 67-C , 68-C ) :   1.2586
B( 67-C , 72-C ) :   1.2354 B( 68-C , 69-C ) :   1.2022 B( 68-C , 74-C ) :   1.2013
B( 69-C , 70-C ) :   1.4401 B( 69-C ,108-H ) :   1.0067 B( 70-C , 71-C ) :   1.2556
B( 70-C , 73-F ) :   1.0872 B( 71-C , 72-C ) :   1.4585 B( 71-C ,109-H ) :   0.9935
B( 72-C ,110-H ) :   0.9971 B( 74-C , 75-C ) :   1.4615 B( 74-C ,111-H ) :   0.9918
B( 75-C , 76-C ) :   0.9967 B( 76-C , 77-C ) :   1.6190 B( 77-C , 78-C ) :   1.1627
B( 77-C , 80-C ) :   1.1350 B( 78-C , 79-N ) :   3.0123 B( 80-C , 81-N ) :   2.9758

-----------------------------------------------------------------------------
         ABSORPTION SPECTRUM VIA TRANSITION ELECTRIC DIPOLE MOMENTS
-----------------------------------------------------------------------------
State   Energy  Wavelength   fosc         T2         TX        TY        TZ
        (cm-1)    (nm)                  (au**2)     (au)      (au)      (au)
-----------------------------------------------------------------------------
   0   13059.3    765.7   1.737678696  43.80504   5.44339  -2.71371  -2.60965
   1   16266.5    614.8   0.179916413   3.64127   0.11323  -0.11408  -1.90143
   2   22350.7    447.4   0.932385578  13.73347   0.82746  -2.23542  -2.83755
   3   22724.5    440.1   0.203649330   2.95029  -1.62000   0.37236  -0.43270
   4   25054.0    399.1   0.019247838   0.25292   0.17027   0.28710   0.37616
   5   25687.8    389.3   0.109249984   1.40014   0.84324   0.65112  -0.51490
   6   26718.2    374.3   0.064180655   0.79081  -0.61652   0.59069   0.24859
   7   27274.3    366.6   0.074227599   0.89596   0.22373   0.25932   0.88241
   8   28086.6    356.0   0.046295233   0.54264  -0.58042   0.42685  -0.15346
   9   28156.7    355.2   0.032500130   0.38000   0.55720  -0.06626  -0.25521
  10   28866.1    346.4   0.060285096   0.68754   0.11467  -0.56329  -0.59758
  11   29199.4    342.5   0.034413913   0.38800  -0.02703   0.36372   0.50496
  12   29352.0    340.7   0.088129619   0.98846   0.90396  -0.27404   0.31020
  13   29485.3    339.2   0.011400259   0.12729  -0.10421   0.32491  -0.10421
  14   30400.3    328.9   0.039508363   0.42785   0.04571  -0.20178  -0.62052
  15   30810.1    324.6   0.051674512   0.55215   0.67485   0.15941   0.26704
  16   31224.2    320.3   0.131283232   1.38418  -1.10279   0.40787  -0.04101
  17   32301.9    309.6   0.003162431   0.03223   0.11300   0.11455   0.07962
  18   32705.4    305.8   0.103244580   1.03926  -0.73975   0.54226  -0.44496
  19   33291.3    300.4   0.242604790   2.39908   1.07405  -1.10615  -0.14807
  20   33476.0    298.7   0.309724820   3.04592  -1.51245   0.86696   0.08242
  21   33585.9    297.7   0.058307344   0.57153   0.57426  -0.26485   0.41425
  22   33963.2    294.4   0.218028753   2.11340  -1.29795   0.51067   0.40981
  23   34263.6    291.9   0.213612283   2.05243   1.34339  -0.25840   0.42539
  24   34636.0    288.7   0.344597760   3.27537  -0.51370   0.88427   1.49316
  25   34789.4    287.4   0.389885833   3.68949  -0.22820  -0.04017  -1.90678
  26   35386.3    282.6   0.086684247   0.80646   0.53209  -0.61074  -0.38773
  27   35547.2    281.3   0.031434027   0.29112   0.18874  -0.49880  -0.08181
  28   36191.0    276.3   0.325766069   2.96334  -0.60944   0.56065   1.50917
  29   36735.1    272.2   0.329553777   2.95339   1.58451  -0.35397   0.56340
  30   37035.2    270.0   0.037120234   0.32997  -0.43957   0.36882  -0.02678
  31   37812.0    264.5   0.079027975   0.68806   0.39437  -0.07923   0.72543
  32   38130.6    262.3   0.010727517   0.09262   0.14705  -0.25935   0.06111
  33   38280.0    261.2   0.091677768   0.78844  -0.68403   0.15896   0.54340
  34   38870.9    257.3   0.061502950   0.52089   0.69198  -0.20410   0.01987
  35   39180.2    255.2   0.091581339   0.76951   0.09176  -0.44150  -0.75244
  36   39487.2    253.2   0.221912213   1.85012   0.11547   1.29278   0.40682
  37   40035.4    249.8   0.023155504   0.19041  -0.16757   0.32340  -0.24030

FINAL SINGLE POINT ENERGY     -4649.442668470255

DIPOLE MOMENT
-------------
                                X             Y             Z
Electronic contribution:    -24.05359       7.37013      -3.53175
Nuclear contribution   :     22.46426      -7.15576       3.29342
                        -----------------------------------------
Total Dipole Moment    :     -1.58933       0.21437      -0.23833
                        -----------------------------------------
Magnitude (a.u.)       :      1.62133
Magnitude (Debye)      :      4.12110

Rotational constants in cm-1:     0.001095     0.000151     0.000137
Rotational constants in MHz :    32.832800     4.522442     4.102094

                             ****ORCA TERMINATED NORMALLY****
TOTAL RUN TIME: 0 days 0 hours 17 minutes 41 seconds 103 msec
