                         Program Version 4.2.0 -  RELEASE  -
|  1> # ORCA input file
|  2> # SCF done       -200.344097037977          0.000298823002
|  3> ! CAM-B3LYP def2-SVP def2/J RIJCOSX Grid4 TightSCF
|  4> %maxcore 5000
|  5> %tddft
|  6>     Mode sTDDFT
|  7>     Ethresh 5.0
|  8>     maxcore 5000
|  9> end
| 10>
| 11> %pal
| 12>   nprocs 6
| 13>   end
| 14> * xyz 0 1
| 15>    C        1.95544        -5.13016        -1.85846
| 16>    C        1.78478        -6.48422        -1.85891
| 17>    C        2.71129        -7.38563        -1.28955
| 18>    N        3.44142        -8.15092        -0.84689
| 19>    C        0.58579        -7.12862        -2.24923
| 20>    N       -0.40439        -7.70495        -2.33731
| 21>    C        2.94346        -4.40466        -1.06160
| 22>    C        2.47972        -3.09100        -0.84938
| 23>    C        3.13599        -2.21965        -0.00020
| 24>    C        4.29681        -2.65601         0.62077
| 25>    C        4.80923        -3.93251         0.34863
| 26>    C        4.13066        -4.81738        -0.48312
| 27>   Cl        6.27984        -4.42293         1.06832
| 28>   Cl        5.09803        -1.63257         1.73860
| 29>    C        1.26536        -2.85905        -1.64683
| 30>    O        0.62461        -1.83879        -1.75478
| 31>    C        1.03077        -4.14093        -2.38341
| 32>    C        0.16994        -4.14760        -3.43269
| 33>    C       -0.00809        -5.15970        -4.41579
| 34>    N        0.71309        -6.26901        -4.44497
| 35>    C        0.17142        -7.04797        -5.40400
| 36>    C       -0.99692        -6.39441        -6.01090
| 37>    C       -1.60827        -7.26119        -7.03481
| 38>    O       -2.57105        -7.03995        -7.73081
| 39>    C       -0.73967        -8.45766        -6.99269
| 40>    C        0.33870        -8.27563        -5.98914
| 41>    N        1.15639        -9.35689        -5.96457
| 42>    C        0.66855       -10.17576        -6.85977
| 43>    C       -0.51151        -9.67149        -7.54818
| 44>    C       -1.08679        -5.15827        -5.43728
| 45>    C       -2.00104        -4.09378        -5.72851
| 46>    C       -1.59133        -2.80834        -5.76590
| 47>    C       -2.36503        -1.62691        -5.95451
| 48>    S       -1.54270        -0.18821        -5.44456
| 49>    C       -2.96360         0.78132        -5.69328
| 50>    C       -4.03610        -0.01808        -6.11687
| 51>    C       -3.67115        -1.35247        -6.35743
| 52>    C       -4.56521        -2.30347        -7.10397
| 53>    C       -3.83256        -2.91430        -8.30405
| 54>    C       -5.80049        -1.55258        -7.61293
| 55>    C       -6.39938        -0.68065        -6.52149
| 56>    C       -5.44875         0.47054        -6.15933
| 57>    C       -5.84464         0.99954        -4.80307
| 58>    C       -6.53008         2.10836        -4.60728
| 59>    C       -2.92715         2.17480        -5.50262
| 60>    N       -3.98437         2.96161        -5.66900
| 61>    C       -3.59711         4.19288        -5.31555
| 62>    C       -2.18184         4.20854        -4.88539
| 63>    C       -1.75759         5.58178        -4.53317
| 64>    O       -0.66625         5.96100        -4.17848
| 65>    C       -2.99328         6.35299        -4.74728
| 66>    C       -4.08271         5.47546        -5.22504
| 67>    N       -5.21141         6.18933        -5.44289
| 68>    C       -4.89660         7.42859        -5.14140
| 69>    C       -3.52971         7.60218        -4.70635
| 70>    C       -1.72953         2.93784        -5.03735
| 71>    C       -0.43634         2.33713        -4.88565
| 72>    C        0.32226         2.30052        -3.76811
| 73>    C        1.43699         1.42369        -3.73123
| 74>    C        2.26940         1.20948        -2.67712
| 75>    C        3.31411         0.20877        -2.61714
| 76>    C        3.35197        -0.96329        -3.32552
| 77>    C        4.32014        -1.96690        -3.11781
| 78>    N        5.06214        -2.82964        -2.96487
| 79>    C        2.36379        -1.37702        -4.24091
| 80>    N        1.58790        -1.81085        -4.96877
| 81>    C        4.22414         0.59203        -1.54585
| 82>    C        3.65029         1.65618        -0.82589
| 83>    C        2.35896         2.04301        -1.44874
| 84>    O        1.57462         2.86765        -1.04826
| 85>    C        4.28931         2.21700         0.26058
| 86>    C        5.53935         1.72435         0.61904
| 87>    C        6.12989         0.68777        -0.11522
| 88>    C        5.47228         0.10692        -1.19371
| 89>   Cl        7.69027         0.11819         0.31367
| 90>   Cl        6.36514         2.39585         1.96417
| 91>    H        2.74307        -1.23303         0.19033
| 92>    H        4.54294        -5.79675        -0.66319
| 93>    H       -0.42348        -3.24831        -3.54429
| 94>    H        1.13300       -11.13082        -7.03389
| 95>    H       -1.05118       -10.18895        -8.31628
| 96>    H       -3.01404        -4.38661        -5.96172
| 97>    H       -0.54269        -2.60353        -5.58250
| 98>    H       -4.88885        -3.10569        -6.43038
| 99>    H       -3.49367        -2.12462        -8.97163
|100>    H       -4.51303        -3.55979        -8.85355
|101>    H       -2.97083        -3.50388        -8.01040
|102>    H       -6.53684        -2.27545        -7.96646
|103>    H       -5.51492        -0.92273        -8.45844
|104>    H       -6.58149        -1.29026        -5.63283
|105>    H       -7.35513        -0.26482        -6.84020
|106>    H       -5.53095         1.28434        -6.88554
|107>    H       -5.56926         0.36410        -3.97040
|108>    H       -6.80349         2.75878        -5.41939
|109>    H       -6.82902         2.42075        -3.62131
|110>    H       -5.63105         8.21034        -5.22949
|111>    H       -3.07769         8.53126        -4.42079
|112>    H       -0.08323         1.79964        -5.76127
|113>    H        0.04905         2.84603        -2.87801
|114>    H        1.60810         0.84397        -4.63195
|115>    H        3.83289         3.02371         0.81228
|116>    H        5.95062        -0.69086        -1.73860
|117> *
|118>
|119>                          ****END OF INPUT****

CARTESIAN COORDINATES (ANGSTROEM)
---------------------------------
  C      1.955440   -5.130160   -1.858460
  C      1.784780   -6.484220   -1.858910
  C      2.711290   -7.385630   -1.289550
  N      3.441420   -8.150920   -0.846890
  C      0.585790   -7.128620   -2.249230
  N     -0.404390   -7.704950   -2.337310
  C      2.943460   -4.404660   -1.061600
  C      2.479720   -3.091000   -0.849380
  C      3.135990   -2.219650   -0.000200
  C      4.296810   -2.656010    0.620770
  C      4.809230   -3.932510    0.348630
  C      4.130660   -4.817380   -0.483120
  Cl     6.279840   -4.422930    1.068320
  Cl     5.098030   -1.632570    1.738600
  C      1.265360   -2.859050   -1.646830
  O      0.624610   -1.838790   -1.754780
  C      1.030770   -4.140930   -2.383410
  C      0.169940   -4.147600   -3.432690
  C     -0.008090   -5.159700   -4.415790
  N      0.713090   -6.269010   -4.444970
  C      0.171420   -7.047970   -5.404000
  C     -0.996920   -6.394410   -6.010900
  C     -1.608270   -7.261190   -7.034810
  O     -2.571050   -7.039950   -7.730810
  C     -0.739670   -8.457660   -6.992690
  C      0.338700   -8.275630   -5.989140
  N      1.156390   -9.356890   -5.964570
  C      0.668550  -10.175760   -6.859770
  C     -0.511510   -9.671490   -7.548180
  C     -1.086790   -5.158270   -5.437280
  C     -2.001040   -4.093780   -5.728510
  C     -1.591330   -2.808340   -5.765900
  C     -2.365030   -1.626910   -5.954510
  S     -1.542700   -0.188210   -5.444560
  C     -2.963600    0.781320   -5.693280
  C     -4.036100   -0.018080   -6.116870
  C     -3.671150   -1.352470   -6.357430
  C     -4.565210   -2.303470   -7.103970
  C     -3.832560   -2.914300   -8.304050
  C     -5.800490   -1.552580   -7.612930
  C     -6.399380   -0.680650   -6.521490
  C     -5.448750    0.470540   -6.159330
  C     -5.844640    0.999540   -4.803070
  C     -6.530080    2.108360   -4.607280
  C     -2.927150    2.174800   -5.502620
  N     -3.984370    2.961610   -5.669000
  C     -3.597110    4.192880   -5.315550
  C     -2.181840    4.208540   -4.885390
  C     -1.757590    5.581780   -4.533170
  O     -0.666250    5.961000   -4.178480
  C     -2.993280    6.352990   -4.747280
  C     -4.082710    5.475460   -5.225040
  N     -5.211410    6.189330   -5.442890
  C     -4.896600    7.428590   -5.141400
  C     -3.529710    7.602180   -4.706350
  C     -1.729530    2.937840   -5.037350
  C     -0.436340    2.337130   -4.885650
  C      0.322260    2.300520   -3.768110
  C      1.436990    1.423690   -3.731230
  C      2.269400    1.209480   -2.677120
  C      3.314110    0.208770   -2.617140
  C      3.351970   -0.963290   -3.325520
  C      4.320140   -1.966900   -3.117810
  N      5.062140   -2.829640   -2.964870
  C      2.363790   -1.377020   -4.240910
  N      1.587900   -1.810850   -4.968770
  C      4.224140    0.592030   -1.545850
  C      3.650290    1.656180   -0.825890
  C      2.358960    2.043010   -1.448740
  O      1.574620    2.867650   -1.048260
  C      4.289310    2.217000    0.260580
  C      5.539350    1.724350    0.619040
  C      6.129890    0.687770   -0.115220
  C      5.472280    0.106920   -1.193710
  Cl     7.690270    0.118190    0.313670
  Cl     6.365140    2.395850    1.964170
  H      2.743070   -1.233030    0.190330
  H      4.542940   -5.796750   -0.663190
  H     -0.423480   -3.248310   -3.544290
  H      1.133000  -11.130820   -7.033890
  H     -1.051180  -10.188950   -8.316280
  H     -3.014040   -4.386610   -5.961720
  H     -0.542690   -2.603530   -5.582500
  H     -4.888850   -3.105690   -6.430380
  H     -3.493670   -2.124620   -8.971630
  H     -4.513030   -3.559790   -8.853550
  H     -2.970830   -3.503880   -8.010400
  H     -6.536840   -2.275450   -7.966460
  H     -5.514920   -0.922730   -8.458440
  H     -6.581490   -1.290260   -5.632830
  H     -7.355130   -0.264820   -6.840200
  H     -5.530950    1.284340   -6.885540
  H     -5.569260    0.364100   -3.970400
  H     -6.803490    2.758780   -5.419390
  H     -6.829020    2.420750   -3.621310
  H     -5.631050    8.210340   -5.229490
  H     -3.077690    8.531260   -4.420790
  H     -0.083230    1.799640   -5.761270
  H      0.049050    2.846030   -2.878010
  H      1.608100    0.843970   -4.631950
  H      3.832890    3.023710    0.812280
  H      5.950620   -0.690860   -1.738600

 Total Charge           Charge          ....    0
 Multiplicity           Mult            ....    1
 Number of Electrons    NEL             ....  552
 Basis Dimension        Dim             .... 1214

ORBITAL ENERGIES
----------------

  NO   OCC          E(Eh)            E(eV)
   0   2.0000    -101.610544     -2764.9635
   1   2.0000    -101.609267     -2764.9287
   2   2.0000    -101.607264     -2764.8742
   3   2.0000    -101.605093     -2764.8151
   4   2.0000     -88.973926     -2421.1036
   5   2.0000     -19.239453      -523.5321
   6   2.0000     -19.232828      -523.3518
   7   2.0000     -19.218257      -522.9554
   8   2.0000     -19.207882      -522.6730
   9   2.0000     -14.441011      -392.9599
  10   2.0000     -14.434310      -392.7776
  11   2.0000     -14.429972      -392.6595
  12   2.0000     -14.425222      -392.5302
  13   2.0000     -14.415438      -392.2640
  14   2.0000     -14.415288      -392.2599
  15   2.0000     -14.405777      -392.0011
  16   2.0000     -14.401694      -391.8900
  17   2.0000     -10.387471      -282.6575
  18   2.0000     -10.384540      -282.5777
  19   2.0000     -10.378929      -282.4250
  20   2.0000     -10.369816      -282.1770
  21   2.0000     -10.366667      -282.0913
  22   2.0000     -10.366169      -282.0778
  23   2.0000     -10.364175      -282.0235
  24   2.0000     -10.362966      -281.9906
  25   2.0000     -10.361429      -281.9488
  26   2.0000     -10.360170      -281.9145
  27   2.0000     -10.359050      -281.8841
  28   2.0000     -10.355188      -281.7790
  29   2.0000     -10.349457      -281.6230
  30   2.0000     -10.349278      -281.6182
  31   2.0000     -10.345573      -281.5174
  32   2.0000     -10.341905      -281.4175
  33   2.0000     -10.337678      -281.3025
  34   2.0000     -10.337274      -281.2915
  35   2.0000     -10.337182      -281.2890
  36   2.0000     -10.332270      -281.1554
  37   2.0000     -10.329347      -281.0758
  38   2.0000     -10.327976      -281.0385
  39   2.0000     -10.325598      -280.9738
  40   2.0000     -10.325369      -280.9676
  41   2.0000     -10.325158      -280.9618
  42   2.0000     -10.324717      -280.9498
  43   2.0000     -10.324304      -280.9386
  44   2.0000     -10.322238      -280.8824
  45   2.0000     -10.321001      -280.8487
  46   2.0000     -10.320066      -280.8233
  47   2.0000     -10.319925      -280.8194
  48   2.0000     -10.319207      -280.7999
  49   2.0000     -10.318806      -280.7890
  50   2.0000     -10.318537      -280.7817
  51   2.0000     -10.315465      -280.6981
  52   2.0000     -10.314685      -280.6769
  53   2.0000     -10.314059      -280.6598
  54   2.0000     -10.313977      -280.6576
  55   2.0000     -10.311874      -280.6003
  56   2.0000     -10.311761      -280.5973
  57   2.0000     -10.311489      -280.5899
  58   2.0000     -10.303140      -280.3627
  59   2.0000     -10.302204      -280.3372
  60   2.0000     -10.301480      -280.3175
  61   2.0000     -10.300575      -280.2929
  62   2.0000     -10.300407      -280.2883
  63   2.0000     -10.298364      -280.2327
  64   2.0000     -10.298271      -280.2302
  65   2.0000     -10.298186      -280.2279
  66   2.0000     -10.294347      -280.1234
  67   2.0000     -10.284678      -279.8603
  68   2.0000     -10.284118      -279.8451
  69   2.0000     -10.283936      -279.8401
  70   2.0000     -10.276387      -279.6347
  71   2.0000     -10.264479      -279.3107
  72   2.0000     -10.263677      -279.2888
  73   2.0000     -10.257503      -279.1208
  74   2.0000     -10.257274      -279.1146
  75   2.0000     -10.245040      -278.7817
  76   2.0000      -9.565145      -260.2808
  77   2.0000      -9.564308      -260.2580
  78   2.0000      -9.562300      -260.2034
  79   2.0000      -9.560229      -260.1471
  80   2.0000      -8.068886      -219.5656
  81   2.0000      -7.335481      -199.6086
  82   2.0000      -7.334698      -199.5873
  83   2.0000      -7.332678      -199.5323
  84   2.0000      -7.330590      -199.4755
  85   2.0000      -7.325432      -199.3351
  86   2.0000      -7.324736      -199.3162
  87   2.0000      -7.324593      -199.3123
  88   2.0000      -7.323795      -199.2906
  89   2.0000      -7.322545      -199.2566
  90   2.0000      -7.321836      -199.2373
  91   2.0000      -7.320524      -199.2016
  92   2.0000      -7.319711      -199.1794
  93   2.0000      -6.038002      -164.3024
  94   2.0000      -6.033875      -164.1901
  95   2.0000      -6.031296      -164.1199
  96   2.0000      -1.153363       -31.3846
  97   2.0000      -1.148625       -31.2557
  98   2.0000      -1.133343       -30.8398
  99   2.0000      -1.123543       -30.5731
 100   2.0000      -1.092570       -29.7304
 101   2.0000      -1.078883       -29.3579
 102   2.0000      -1.071737       -29.1635
 103   2.0000      -1.056259       -28.7423
 104   2.0000      -1.044753       -28.4292
 105   2.0000      -1.039313       -28.2811
 106   2.0000      -1.034158       -28.1409
 107   2.0000      -1.021755       -27.8034
 108   2.0000      -1.016163       -27.6512
 109   2.0000      -1.008018       -27.4296
 110   2.0000      -1.005909       -27.3722
 111   2.0000      -1.001350       -27.2481
 112   2.0000      -0.996872       -27.1263
 113   2.0000      -0.972363       -26.4594
 114   2.0000      -0.969551       -26.3828
 115   2.0000      -0.952894       -25.9296
 116   2.0000      -0.951182       -25.8830
 117   2.0000      -0.941707       -25.6251
 118   2.0000      -0.939642       -25.5690
 119   2.0000      -0.937168       -25.5016
 120   2.0000      -0.934352       -25.4250
 121   2.0000      -0.926099       -25.2004
 122   2.0000      -0.913193       -24.8493
 123   2.0000      -0.910095       -24.7650
 124   2.0000      -0.897425       -24.4202
 125   2.0000      -0.884923       -24.0800
 126   2.0000      -0.882371       -24.0105
 127   2.0000      -0.872858       -23.7517
 128   2.0000      -0.869088       -23.6491
 129   2.0000      -0.868353       -23.6291
 130   2.0000      -0.863601       -23.4998
 131   2.0000      -0.856318       -23.3016
 132   2.0000      -0.840128       -22.8611
 133   2.0000      -0.837022       -22.7765
 134   2.0000      -0.827403       -22.5148
 135   2.0000      -0.822004       -22.3679
 136   2.0000      -0.808534       -22.0013
 137   2.0000      -0.791276       -21.5317
 138   2.0000      -0.780082       -21.2271
 139   2.0000      -0.778383       -21.1809
 140   2.0000      -0.776733       -21.1360
 141   2.0000      -0.764200       -20.7949
 142   2.0000      -0.759898       -20.6779
 143   2.0000      -0.756740       -20.5920
 144   2.0000      -0.751871       -20.4595
 145   2.0000      -0.732915       -19.9436
 146   2.0000      -0.729968       -19.8634
 147   2.0000      -0.719966       -19.5913
 148   2.0000      -0.710740       -19.3402
 149   2.0000      -0.710320       -19.3288
 150   2.0000      -0.708587       -19.2816
 151   2.0000      -0.703371       -19.1397
 152   2.0000      -0.698225       -18.9997
 153   2.0000      -0.693881       -18.8815
 154   2.0000      -0.683960       -18.6115
 155   2.0000      -0.675914       -18.3925
 156   2.0000      -0.662902       -18.0385
 157   2.0000      -0.658804       -17.9270
 158   2.0000      -0.655196       -17.8288
 159   2.0000      -0.650892       -17.7117
 160   2.0000      -0.647713       -17.6252
 161   2.0000      -0.639869       -17.4117
 162   2.0000      -0.633644       -17.2423
 163   2.0000      -0.632390       -17.2082
 164   2.0000      -0.629487       -17.1292
 165   2.0000      -0.622818       -16.9477
 166   2.0000      -0.621539       -16.9129
 167   2.0000      -0.618319       -16.8253
 168   2.0000      -0.612832       -16.6760
 169   2.0000      -0.609200       -16.5772
 170   2.0000      -0.601163       -16.3585
 171   2.0000      -0.596613       -16.2347
 172   2.0000      -0.593130       -16.1399
 173   2.0000      -0.589256       -16.0345
 174   2.0000      -0.586975       -15.9724
 175   2.0000      -0.577138       -15.7047
 176   2.0000      -0.569711       -15.5026
 177   2.0000      -0.567873       -15.4526
 178   2.0000      -0.566742       -15.4218
 179   2.0000      -0.565639       -15.3918
 180   2.0000      -0.559249       -15.2180
 181   2.0000      -0.557446       -15.1689
 182   2.0000      -0.556925       -15.1547
 183   2.0000      -0.553285       -15.0557
 184   2.0000      -0.550757       -14.9868
 185   2.0000      -0.550084       -14.9685
 186   2.0000      -0.545406       -14.8412
 187   2.0000      -0.542378       -14.7589
 188   2.0000      -0.540831       -14.7168
 189   2.0000      -0.539944       -14.6926
 190   2.0000      -0.538303       -14.6480
 191   2.0000      -0.534062       -14.5326
 192   2.0000      -0.528503       -14.3813
 193   2.0000      -0.527888       -14.3646
 194   2.0000      -0.526851       -14.3363
 195   2.0000      -0.524430       -14.2705
 196   2.0000      -0.520986       -14.1767
 197   2.0000      -0.517246       -14.0750
 198   2.0000      -0.516941       -14.0667
 199   2.0000      -0.514818       -14.0089
 200   2.0000      -0.513751       -13.9799
 201   2.0000      -0.511268       -13.9123
 202   2.0000      -0.510035       -13.8788
 203   2.0000      -0.507332       -13.8052
 204   2.0000      -0.504622       -13.7315
 205   2.0000      -0.502162       -13.6645
 206   2.0000      -0.501606       -13.6494
 207   2.0000      -0.497241       -13.5306
 208   2.0000      -0.495499       -13.4832
 209   2.0000      -0.493982       -13.4419
 210   2.0000      -0.493107       -13.4181
 211   2.0000      -0.488856       -13.3024
 212   2.0000      -0.486521       -13.2389
 213   2.0000      -0.482434       -13.1277
 214   2.0000      -0.480952       -13.0874
 215   2.0000      -0.478851       -13.0302
 216   2.0000      -0.477538       -12.9945
 217   2.0000      -0.476479       -12.9657
 218   2.0000      -0.474027       -12.8989
 219   2.0000      -0.470362       -12.7992
 220   2.0000      -0.469859       -12.7855
 221   2.0000      -0.466322       -12.6893
 222   2.0000      -0.465681       -12.6718
 223   2.0000      -0.462947       -12.5974
 224   2.0000      -0.459059       -12.4916
 225   2.0000      -0.457258       -12.4426
 226   2.0000      -0.454711       -12.3733
 227   2.0000      -0.453213       -12.3326
 228   2.0000      -0.451500       -12.2859
 229   2.0000      -0.449326       -12.2268
 230   2.0000      -0.447786       -12.1849
 231   2.0000      -0.445819       -12.1313
 232   2.0000      -0.444307       -12.0902
 233   2.0000      -0.441586       -12.0162
 234   2.0000      -0.435801       -11.8588
 235   2.0000      -0.433891       -11.8068
 236   2.0000      -0.432905       -11.7799
 237   2.0000      -0.431156       -11.7323
 238   2.0000      -0.431123       -11.7314
 239   2.0000      -0.430049       -11.7022
 240   2.0000      -0.429658       -11.6916
 241   2.0000      -0.419935       -11.4270
 242   2.0000      -0.418316       -11.3830
 243   2.0000      -0.416881       -11.3439
 244   2.0000      -0.415161       -11.2971
 245   2.0000      -0.414898       -11.2899
 246   2.0000      -0.409491       -11.1428
 247   2.0000      -0.405259       -11.0277
 248   2.0000      -0.396586       -10.7916
 249   2.0000      -0.391724       -10.6594
 250   2.0000      -0.389989       -10.6121
 251   2.0000      -0.387898       -10.5552
 252   2.0000      -0.386450       -10.5158
 253   2.0000      -0.375636       -10.2216
 254   2.0000      -0.371760       -10.1161
 255   2.0000      -0.363964        -9.9040
 256   2.0000      -0.362927        -9.8757
 257   2.0000      -0.359032        -9.7698
 258   2.0000      -0.354526        -9.6472
 259   2.0000      -0.353294        -9.6136
 260   2.0000      -0.351939        -9.5767
 261   2.0000      -0.350863        -9.5475
 262   2.0000      -0.347183        -9.4473
 263   2.0000      -0.345389        -9.3985
 264   2.0000      -0.343671        -9.3518
 265   2.0000      -0.337387        -9.1808
 266   2.0000      -0.329558        -8.9677
 267   2.0000      -0.328265        -8.9325
 268   2.0000      -0.326370        -8.8810
 269   2.0000      -0.325604        -8.8601
 270   2.0000      -0.323014        -8.7897
 271   2.0000      -0.319406        -8.6915
 272   2.0000      -0.311412        -8.4739
 273   2.0000      -0.303901        -8.2696
 274   2.0000      -0.302112        -8.2209
 275   2.0000      -0.270127        -7.3505
 276   0.0000      -0.136119        -3.7040
 277   0.0000      -0.116211        -3.1622
 278   0.0000      -0.103572        -2.8183
 279   0.0000      -0.082986        -2.2582
 280   0.0000      -0.076744        -2.0883

MULLIKEN ATOMIC CHARGES
-----------------------
   0 C :    0.248069
   1 C :   -0.227481
   2 C :   -0.190155
   3 N :    0.167807
   4 C :   -0.164766
   5 N :    0.139877
   6 C :    0.038791
   7 C :   -0.017691
   8 C :   -0.017916
   9 C :    0.047577
  10 C :    0.065543
  11 C :    0.000340
  12 Cl:   -0.026461
  13 Cl:   -0.036704
  14 C :    0.134334
  15 O :   -0.141012
  16 C :   -0.050711
  17 C :   -0.002472
  18 C :    0.048223
  19 N :   -0.075641
  20 C :    0.086799
  21 C :   -0.109016
  22 C :    0.209065
  23 O :   -0.119293
  24 C :   -0.040380
  25 C :   -0.001254
  26 N :   -0.049297
  27 C :    0.102116
  28 C :   -0.092476
  29 C :    0.015981
  30 C :   -0.017363
  31 C :    0.032844
  32 C :   -0.106074
  33 S :    0.108457
  34 C :   -0.168668
  35 C :   -0.009705
  36 C :   -0.023636
  37 C :   -0.071130
  38 C :    0.075836
  39 C :    0.066364
  40 C :    0.112328
  41 C :    0.044392
  42 C :   -0.035377
  43 C :    0.022521
  44 C :    0.062734
  45 N :   -0.042267
  46 C :    0.074704
  47 C :   -0.121307
  48 C :    0.194954
  49 O :   -0.118786
  50 C :   -0.051168
  51 C :   -0.029805
  52 N :   -0.061910
  53 C :    0.085518
  54 C :   -0.086562
  55 C :    0.000738
  56 C :   -0.055990
  57 C :    0.065398
  58 C :   -0.043344
  59 C :   -0.048025
  60 C :    0.300309
  61 C :   -0.342163
  62 C :   -0.206499
  63 N :    0.174126
  64 C :   -0.181248
  65 N :    0.161793
  66 C :    0.003967
  67 C :   -0.011141
  68 C :    0.157207
  69 O :   -0.124763
  70 C :   -0.030231
  71 C :    0.062838
  72 C :    0.055587
  73 C :   -0.019744
  74 Cl:   -0.031090
  75 Cl:   -0.035505
  76 H :   -0.007087
  77 H :    0.007452
  78 H :    0.014747
  79 H :    0.016602
  80 H :    0.001510
  81 H :    0.025742
  82 H :    0.011037
  83 H :    0.013218
  84 H :    0.007431
  85 H :    0.017637
  86 H :    0.019202
  87 H :    0.003892
  88 H :   -0.002387
  89 H :   -0.009202
  90 H :    0.002343
  91 H :    0.010549
  92 H :   -0.010041
  93 H :    0.020408
  94 H :    0.012214
  95 H :    0.006473
  96 H :   -0.009344
  97 H :    0.045188
  98 H :    0.041508
  99 H :    0.019725
 100 H :    0.004869
 101 H :    0.005404
Sum of atomic charges:    0.0000000

LOEWDIN ATOMIC CHARGES
----------------------
   0 C :    0.055183
   1 C :   -0.081733
   2 C :   -0.016512
   3 N :   -0.029380
   4 C :   -0.013361
   5 N :   -0.050535
   6 C :    0.003265
   7 C :   -0.057119
   8 C :   -0.002576
   9 C :   -0.140540
  10 C :   -0.120149
  11 C :   -0.004530
  12 Cl:    0.175750
  13 Cl:    0.177697
  14 C :    0.084468
  15 O :   -0.131579
  16 C :   -0.026560
  17 C :    0.041153
  18 C :    0.061820
  19 N :   -0.064103
  20 C :    0.048331
  21 C :   -0.038740
  22 C :    0.067423
  23 O :   -0.133014
  24 C :   -0.037425
  25 C :    0.044141
  26 N :   -0.091804
  27 C :    0.090020
  28 C :   -0.027371
  29 C :   -0.018178
  30 C :   -0.010944
  31 C :   -0.035251
  32 C :   -0.141977
  33 S :    0.495128
  34 C :   -0.197636
  35 C :    0.009257
  36 C :   -0.044308
  37 C :   -0.030140
  38 C :   -0.041995
  39 C :   -0.023335
  40 C :   -0.017316
  41 C :   -0.025426
  42 C :   -0.020948
  43 C :   -0.037326
  44 C :    0.056209
  45 N :   -0.094318
  46 C :    0.046115
  47 C :   -0.025598
  48 C :    0.062039
  49 O :   -0.135274
  50 C :   -0.046153
  51 C :    0.012149
  52 N :   -0.102005
  53 C :    0.067574
  54 C :   -0.041246
  55 C :   -0.041621
  56 C :    0.009525
  57 C :   -0.003230
  58 C :    0.076266
  59 C :   -0.084084
  60 C :    0.084767
  61 C :   -0.144828
  62 C :   -0.023172
  63 N :   -0.049259
  64 C :    0.000616
  65 N :   -0.062099
  66 C :   -0.019259
  67 C :   -0.044402
  68 C :    0.086672
  69 O :   -0.120453
  70 C :    0.002965
  71 C :   -0.133792
  72 C :   -0.137503
  73 C :   -0.015583
  74 Cl:    0.166579
  75 Cl:    0.165433
  76 H :    0.041654
  77 H :    0.046971
  78 H :    0.046426
  79 H :    0.027068
  80 H :    0.036954
  81 H :    0.040542
  82 H :    0.028468
  83 H :    0.028838
  84 H :    0.024674
  85 H :    0.029344
  86 H :    0.023473
  87 H :    0.026762
  88 H :    0.022544
  89 H :    0.022202
  90 H :    0.028979
  91 H :    0.041355
  92 H :    0.019217
  93 H :    0.023967
  94 H :    0.021939
  95 H :    0.022303
  96 H :    0.033114
  97 H :    0.030060
  98 H :    0.044524
  99 H :    0.041666
 100 H :    0.048214
 101 H :    0.043884

  Mayer bond orders larger than 0.100000
B(  0-C ,  1-C ) :   1.7199 B(  0-C ,  6-C ) :   0.9979 B(  0-C , 16-C ) :   1.0079
B(  1-C ,  2-C ) :   1.1406 B(  1-C ,  4-C ) :   1.1333 B(  2-C ,  3-N ) :   2.9894
B(  4-C ,  5-N ) :   2.9520 B(  6-C ,  7-C ) :   1.3270 B(  6-C , 11-C ) :   1.3485
B(  7-C ,  8-C ) :   1.3319 B(  7-C , 14-C ) :   0.9421 B(  8-C ,  9-C ) :   1.3575
B(  8-C , 76-H ) :   1.0068 B(  9-C , 10-C ) :   1.3998 B(  9-C , 13-Cl) :   1.0478
B( 10-C , 11-C ) :   1.3529 B( 10-C , 12-Cl) :   1.0780 B( 11-C , 77-H ) :   0.9870
B( 14-C , 15-O ) :   2.2191 B( 14-C , 16-C ) :   0.9348 B( 16-C , 17-C ) :   1.6904
B( 17-C , 18-C ) :   1.0860 B( 17-C , 78-H ) :   0.9291 B( 18-C , 19-N ) :   1.5622
B( 18-C , 20-C ) :   0.1052 B( 18-C , 29-C ) :   1.0330 B( 19-N , 20-C ) :   1.2847
B( 20-C , 21-C ) :   1.0536 B( 20-C , 25-C ) :   1.4461 B( 21-C , 22-C ) :   0.8889
B( 21-C , 29-C ) :   1.5946 B( 22-C , 23-O ) :   2.3060 B( 22-C , 24-C ) :   0.8890
B( 24-C , 25-C ) :   1.0411 B( 24-C , 28-C ) :   1.6372 B( 25-C , 26-N ) :   1.3014
B( 26-N , 27-C ) :   1.6682 B( 27-C , 28-C ) :   1.0510 B( 27-C , 79-H ) :   0.9885
B( 28-C , 80-H ) :   1.0102 B( 29-C , 30-C ) :   1.0979 B( 30-C , 31-C ) :   1.7061
B( 30-C , 81-H ) :   0.9545 B( 31-C , 32-C ) :   1.1370 B( 31-C , 82-H ) :   0.9177
B( 32-C , 33-S ) :   1.1581 B( 32-C , 34-C ) :   0.1049 B( 32-C , 36-C ) :   1.4313
B( 33-S , 34-C ) :   1.1022 B( 34-C , 35-C ) :   1.3919 B( 34-C , 44-C ) :   1.1828
B( 35-C , 36-C ) :   1.3849 B( 35-C , 41-C ) :   1.0154 B( 36-C , 37-C ) :   0.9992
B( 37-C , 38-C ) :   1.0883 B( 37-C , 39-C ) :   1.0693 B( 37-C , 83-H ) :   0.8767
B( 38-C , 84-H ) :   0.9563 B( 38-C , 85-H ) :   0.9618 B( 38-C , 86-H ) :   0.9575
B( 39-C , 40-C ) :   1.0840 B( 39-C , 87-H ) :   0.9313 B( 39-C , 88-H ) :   0.9295
B( 40-C , 41-C ) :   1.0540 B( 40-C , 89-H ) :   0.9216 B( 40-C , 90-H ) :   0.9269
B( 41-C , 42-C ) :   1.0055 B( 41-C , 91-H ) :   0.8606 B( 42-C , 43-C ) :   2.0211
B( 42-C , 92-H ) :   0.9573 B( 43-C , 93-H ) :   0.9535 B( 43-C , 94-H ) :   0.9496
B( 44-C , 45-N ) :   1.5579 B( 44-C , 46-C ) :   0.1268 B( 44-C , 55-C ) :   1.0352
B( 45-N , 46-C ) :   1.3710 B( 46-C , 47-C ) :   1.0298 B( 46-C , 51-C ) :   1.3805
B( 47-C , 48-C ) :   0.8763 B( 47-C , 55-C ) :   1.6790 B( 48-C , 49-O ) :   2.3182
B( 48-C , 50-C ) :   0.8935 B( 50-C , 51-C ) :   1.0614 B( 50-C , 54-C ) :   1.5885
B( 51-C , 52-N ) :   1.3274 B( 52-N , 53-C ) :   1.6329 B( 53-C , 54-C ) :   1.0967
B( 53-C , 95-H ) :   0.9896 B( 54-C , 96-H ) :   1.0093 B( 55-C , 56-C ) :   0.9886
B( 56-C , 57-C ) :   1.6944 B( 56-C , 97-H ) :   0.9246 B( 57-C , 58-C ) :   1.1402
B( 57-C , 98-H ) :   0.9884 B( 58-C , 59-C ) :   1.5827 B( 58-C , 99-H ) :   0.9655
B( 59-C , 60-C ) :   1.0678 B( 59-C , 68-C ) :   0.9332 B( 60-C , 61-C ) :   1.6434
B( 60-C , 66-C ) :   0.9954 B( 61-C , 62-C ) :   1.1496 B( 61-C , 64-C ) :   1.1438
B( 62-C , 63-N ) :   2.9660 B( 64-C , 65-N ) :   2.9388 B( 66-C , 67-C ) :   1.3286
B( 66-C , 73-C ) :   1.3353 B( 67-C , 68-C ) :   0.9273 B( 67-C , 70-C ) :   1.3483
B( 68-C , 69-O ) :   2.2471 B( 70-C , 71-C ) :   1.3391 B( 70-C ,100-H ) :   1.0163
B( 71-C , 72-C ) :   1.4018 B( 71-C , 75-Cl) :   1.0567 B( 72-C , 73-C ) :   1.3583
B( 72-C , 74-Cl) :   1.0731 B( 73-C ,101-H ) :   0.9933

-----------------------------------------------------------------------------
         ABSORPTION SPECTRUM VIA TRANSITION ELECTRIC DIPOLE MOMENTS
-----------------------------------------------------------------------------
State   Energy  Wavelength   fosc         T2         TX        TY        TZ
        (cm-1)    (nm)                  (au**2)     (au)      (au)      (au)
-----------------------------------------------------------------------------
   0   14216.6    703.4   0.128171805   2.96806  -0.24404   1.63827   0.47390
   1   18669.5    535.6   0.651997921  11.49713  -0.95929   3.25201   0.03606
   2   19508.6    512.6   0.032641344   0.55083   0.14821   0.36888   0.62673
   3   19826.0    504.4   0.099308344   1.64902   0.02852  -1.28369   0.01868
   4   21051.1    475.0   0.067719239   1.05904  -0.11671  -0.89849   0.48799
   5   21237.1    470.9   0.237198317   3.67699   0.34444   1.67448   0.86860
   6   22185.2    450.8   0.096314823   1.42924  -0.21151   1.16801  -0.14233
   7   22720.1    440.1   0.237227914   3.43740   0.77388  -1.67576   0.17417
   8   22795.9    438.7   0.040579515   0.58604  -0.68220   0.25947  -0.23089
   9   23613.0    423.5   0.147538144   2.05698   0.34740  -1.37187  -0.23295
  10   24052.4    415.8   0.001812793   0.02481  -0.13848   0.05284   0.05334
  11   24889.5    401.8   0.140639819   1.86023  -0.27668  -0.97836  -0.90912
  12   25036.6    399.4   0.240073345   3.15677   0.22331   1.38431   1.09114
  13   25565.8    391.1   0.050170108   0.64604   0.46756   0.38904   0.52543
  14   25782.8    387.9   0.149606223   1.91027   0.43050  -1.21302  -0.50351
  15   26121.3    382.8   0.685472575   8.63915   2.11987  -1.42632   1.45289
  16   26460.1    377.9   0.041830711   0.52045   0.31258  -0.54591  -0.35316
  17   26552.8    376.6   0.011847137   0.14689  -0.02475  -0.27170  -0.26917
  18   26953.5    371.0   0.011041959   0.13487   0.03530  -0.33982   0.13471
  19   27429.5    364.6   0.151658122   1.82022  -0.29120  -0.95809  -0.90415
  20   27550.9    363.0   0.050012066   0.59761   0.66507  -0.34397   0.19229
  21   28121.4    355.6   0.018862064   0.22081   0.16754   0.39305   0.19559
  22   28161.1    355.1   0.028406985   0.33209   0.25412   0.21519   0.47032
  23   28520.1    350.6   0.072419143   0.83594   0.05071   0.86183   0.30102
  24   28714.4    348.3   0.097825643   1.12158   0.68577  -0.80562   0.04763
  25   28816.6    347.0   0.001812066   0.02070   0.09305   0.07100   0.08368
  26   29024.7    344.5   0.006467958   0.07336   0.22666   0.02913   0.14539
  27   29440.2    339.7   0.002974973   0.03327   0.06880   0.04887   0.16170
  28   29639.7    337.4   0.049285503   0.54742   0.37497  -0.61066  -0.18416
  29   29834.6    335.2   0.147607940   1.62879   0.01875   1.15901   0.53398
  30   29905.2    334.4   0.010693368   0.11772   0.21914   0.17175   0.20049
  31   30218.5    330.9   0.036667522   0.39947   0.16918   0.47955   0.37534
  32   30578.5    327.0   0.004932557   0.05310   0.16979  -0.01760   0.15480
  33   30723.4    325.5   0.001401823   0.01502  -0.05105   0.10693  -0.03133
  34   30980.0    322.8   0.057250538   0.60838   0.56509  -0.18832   0.50357
  35   31164.9    320.9   0.230403939   2.43388  -1.04396   0.96780  -0.63826
  36   31345.5    319.0   0.004863405   0.05108  -0.09957  -0.19799   0.04432
  37   31423.8    318.2   0.021239403   0.22251  -0.14704  -0.37984  -0.23794
  38   31668.5    315.8   0.160638294   1.66993   0.88435   0.11076   0.93573
  39   31973.4    312.8   0.046542139   0.47922   0.58788  -0.28243   0.23207
  40   32223.5    310.3   0.086699244   0.88576   0.26784   0.72983   0.53045
  41   32512.1    307.6   0.005867653   0.05941  -0.05897   0.06192  -0.22826
  42   32928.9    303.7   0.001208295   0.01208   0.00371   0.09475   0.05557
  43   33170.7    301.5   0.135448259   1.34430   0.17976   1.06696   0.41663
  44   33411.4    299.3   0.045461889   0.44795  -0.48209  -0.32707  -0.32948
  45   33740.7    296.4   0.014712696   0.14355   0.06585  -0.31127  -0.20574
  46   33815.3    295.7   0.052008254   0.50633   0.50862   0.18961   0.46009
  47   33921.1    294.8   0.048247428   0.46825   0.24762   0.61471   0.17049
  48   34063.5    293.6   0.155804544   1.50580   0.62340   0.54368   0.90641
  49   34137.4    292.9   0.054088583   0.52162  -0.08963   0.71326  -0.06956
  50   34278.1    291.7   0.328800249   3.15785  -0.99492  -1.12653  -0.94811
  51   34407.8    290.6   0.003229316   0.03090   0.07203  -0.10756  -0.11892
  52   34637.5    288.7   0.024554572   0.23338   0.02756   0.44948  -0.17489
  53   34807.6    287.3   0.019282975   0.18238   0.10459   0.08237   0.40578
  54   34903.3    286.5   0.053397138   0.50365   0.29180   0.44517   0.46939
  55   34928.9    286.3   0.302948224   2.85535   0.35978   1.39190   0.88799
  56   35187.3    284.2   0.030525370   0.28560   0.15890  -0.41289  -0.29978
  57   35440.3    282.2   0.092072232   0.85528   0.01678   0.87392   0.30209
  58   35501.8    281.7   0.145592550   1.35009   0.25321   0.91644   0.66792
  59   35614.9    280.8   0.042022487   0.38844   0.30394  -0.41572  -0.35105
  60   35823.0    279.2   0.005339240   0.04907  -0.02753  -0.09659  -0.19743
  61   36063.2    277.3   0.067000960   0.61163   0.37259  -0.57450  -0.37784
  62   36207.8    276.2   0.041837697   0.38040  -0.45865  -0.12998  -0.39134
  63   36390.0    274.8   0.055305119   0.50033  -0.23520   0.65321  -0.13539
  64   36570.9    273.4   0.081907731   0.73733   0.01986  -0.85700  -0.04988
  65   36766.2    272.0   0.098566477   0.88258   0.29371  -0.85760   0.24665
  66   36813.0    271.6   0.118190825   1.05696   0.02817   1.01482   0.16218
  67   36844.7    271.4   0.050836771   0.45423   0.52059  -0.40532   0.13762
  68   37053.3    269.9   0.004699812   0.04176   0.17197  -0.11024   0.00553
  69   37270.6    268.3   0.006621341   0.05849  -0.04582  -0.22437  -0.07774
  70   37550.9    266.3   0.026028075   0.22819   0.09022   0.29189   0.36722
  71   37771.3    264.8   0.055172015   0.48088  -0.30000   0.62518  -0.00531
  72   37860.2    264.1   0.033392903   0.29037   0.25754  -0.42264   0.21311
  73   37975.1    263.3   0.005549302   0.04811   0.17463   0.12338   0.04891
  74   38119.9    262.3   0.021913026   0.18925  -0.19432   0.30486  -0.24197
  75   38416.2    260.3   0.045975128   0.39399   0.43450   0.31018   0.33013
  76   38613.7    259.0   0.044504708   0.37944   0.44721   0.32419   0.27265
  77   38671.8    258.6   0.000637897   0.00543  -0.02154   0.04909   0.05056
  78   38772.1    257.9   0.025740081   0.21856   0.37131  -0.18428   0.21616
  79   39093.4    255.8   0.043241144   0.36414  -0.14302   0.58492  -0.03944
  80   39121.9    255.6   0.003100830   0.02609   0.13720  -0.07656  -0.03750
  81   39160.3    255.4   0.032794552   0.27570  -0.19151   0.40592   0.27249
  82   39282.1    254.6   0.005283187   0.04428   0.16238   0.13241   0.01939
  83   39315.2    254.4   0.003360714   0.02814   0.08631   0.14229   0.02109
  84   39371.7    254.0   0.008402541   0.07026  -0.24049  -0.06157  -0.09292
  85   39711.2    251.8   0.124785489   1.03449   0.73995   0.03539   0.69693
  86   39741.5    251.6   0.022940654   0.19004   0.28776  -0.30825   0.11049
  87   39788.3    251.3   0.112781719   0.93317   0.71762  -0.21814   0.60877
  88   39840.6    251.0   0.035327379   0.29192  -0.36582   0.38985   0.07817
  89   39994.8    250.0   0.100520512   0.82742   0.64989   0.53343   0.34714
  90   40078.2    249.5   0.024336282   0.19990  -0.27765   0.27278  -0.22001
  91   40262.9    248.4   0.062818997   0.51364   0.58717   0.03465   0.40948

FINAL SINGLE POINT ENERGY     -5237.072705042564

DIPOLE MOMENT
-------------
                                X             Y             Z
Electronic contribution:    103.73247      -7.39022      70.42801
Nuclear contribution   :   -103.72304       8.37069     -71.29195
                        -----------------------------------------
Total Dipole Moment    :      0.00944       0.98047      -0.86394
                        -----------------------------------------
Magnitude (a.u.)       :      1.30683
Magnitude (Debye)      :      3.32170

Rotational constants in cm-1:     0.000840     0.000679     0.000398
Rotational constants in MHz :    25.180393    20.345115    11.931655

                             ****ORCA TERMINATED NORMALLY****
TOTAL RUN TIME: 0 days 0 hours 12 minutes 14 seconds 381 msec
