                         Program Version 4.2.0 -  RELEASE  -
|  1> # ORCA input file
|  2> # SCF done       -184.433323389570          0.000719542671
|  3> ! CAM-B3LYP def2-SVP def2/J RIJCOSX Grid4 TightSCF
|  4> %maxcore 5000
|  5> %tddft
|  6>     Mode sTDDFT
|  7>     Ethresh 5.0
|  8>     maxcore 5000
|  9> end
| 10>
| 11> %pal
| 12>   nprocs 6
| 13>   end
| 14> * xyz 0 1
| 15>    C        1.00301        -0.65419         5.54050
| 16>    C        1.21631         0.64447         5.16171
| 17>    C        1.84888         1.60312         5.97689
| 18>    N        2.39874         2.40701         6.58597
| 19>    C        0.85332         1.19147         3.91182
| 20>    N        0.56159         1.69604         2.92367
| 21>    C        1.32123        -1.22540         6.84633
| 22>    C        0.93590        -2.57702         6.87214
| 23>    C        1.14374        -3.37382         7.98011
| 24>    C        1.74451        -2.80793         9.09571
| 25>    C        2.08777        -1.45144         9.09781
| 26>    C        1.88716        -0.65648         7.97757
| 27>   Cl        2.74567        -0.73629        10.52024
| 28>   Cl        2.05489        -3.77379        10.48577
| 29>    C        0.25210        -2.91482         5.60373
| 30>    O       -0.51914        -3.82970         5.41541
| 31>    C        0.47391        -1.72731         4.71658
| 32>    C        0.20165        -1.71294         3.38553
| 33>    C       -0.00598        -2.89859         2.62387
| 34>    C       -0.78834        -3.04535         1.38868
| 35>    N       -0.77096        -4.24423         0.88443
| 36>    C        0.03799        -4.98167         1.69782
| 37>    C        0.53740        -4.14778         2.80679
| 38>    C        1.45754        -4.89679         3.61723
| 39>    S        2.43685        -4.27194         4.78505
| 40>    C        1.40390        -6.22551         3.07499
| 41>    C        0.55068        -6.24264         1.86727
| 42>    N        0.48008        -7.50364         1.35723
| 43>    C        1.17546        -8.25976         2.15359
| 44>    C        1.77981        -7.53691         3.28182
| 45>    C        2.49767        -8.01780         4.41000
| 46>    O        2.86342        -7.07968         5.29420
| 47>    C        3.44397        -7.66456         6.35666
| 48>    C        3.45320        -9.03856         6.16371
| 49>    C        2.85275        -9.28015         4.91183
| 50>    C        2.67588       -10.59396         4.25589
| 51>    O        2.48701       -10.73257         3.07894
| 52>    O        2.75193       -11.65927         5.06730
| 53>    C        3.89301        -6.79619         7.38700
| 54>    C        4.36897        -7.16184         8.60052
| 55>    C        4.78308        -6.22636         9.58516
| 56>    C        5.08437        -6.60096        10.97391
| 57>    N        5.42152        -5.61027        11.74292
| 58>    C        5.39501        -4.50593        10.94507
| 59>    C        4.98355        -4.85870         9.56834
| 60>    C        5.00016        -3.67240         8.74951
| 61>    S        4.66193        -3.48724         7.14669
| 62>    C        5.41506        -2.62011         9.64341
| 63>    C        5.64386        -3.15959        10.99054
| 64>    N        6.01169        -2.16432        11.84511
| 65>    C        6.04254        -1.07504        11.13732
| 66>    C        5.69001        -1.26790         9.71640
| 67>    C        5.57162        -0.36052         8.62949
| 68>    C        5.91847         0.95119         8.50695
| 69>    C        5.69106         1.74918         7.30400
| 70>    C        5.11725         1.34553         6.13097
| 71>    C        4.99651         2.16329         4.98198
| 72>    N        4.88069         2.74149         3.99845
| 73>    C        4.52848         0.09604         5.84415
| 74>    N        3.96735        -0.84325         5.49298
| 75>    C        6.19918         3.09217         7.55720
| 76>    C        6.75556         3.13430         8.84638
| 77>    C        6.63218         1.81535         9.49287
| 78>    O        7.06046         1.51892        10.58394
| 79>    C        7.31766         4.28446         9.36463
| 80>    C        7.31749         5.42836         8.57774
| 81>    C        6.75243         5.40050         7.29435
| 82>    C        6.19211         4.23825         6.77697
| 83>   Cl        6.74884         6.82322         6.33731
| 84>   Cl        8.00600         6.87859         9.17942
| 85>    H        0.85051        -4.41158         7.97426
| 86>    H        2.16553         0.38343         8.01951
| 87>    H        0.19013        -0.78182         2.83420
| 88>    H       -1.35678        -2.25966         0.92206
| 89>    H        1.28402        -9.31444         1.97393
| 90>    H        3.88345        -9.75507         6.83625
| 91>    H        2.87593       -11.42418         5.99584
| 92>    H        3.80802        -5.74576         7.14074
| 93>    H        4.42411        -8.20585         8.87963
| 94>    H        5.02741        -7.60291        11.36400
| 95>    H        6.29928        -0.13580        11.59064
| 96>    H        5.12637        -0.82592         7.75573
| 97>    H        7.74231         4.28997        10.35635
| 98>    H        5.76189         4.25851         5.78943
| 99> *
|100>
|101>                          ****END OF INPUT****

CARTESIAN COORDINATES (ANGSTROEM)
---------------------------------
  C      1.003010   -0.654190    5.540500
  C      1.216310    0.644470    5.161710
  C      1.848880    1.603120    5.976890
  N      2.398740    2.407010    6.585970
  C      0.853320    1.191470    3.911820
  N      0.561590    1.696040    2.923670
  C      1.321230   -1.225400    6.846330
  C      0.935900   -2.577020    6.872140
  C      1.143740   -3.373820    7.980110
  C      1.744510   -2.807930    9.095710
  C      2.087770   -1.451440    9.097810
  C      1.887160   -0.656480    7.977570
  Cl     2.745670   -0.736290   10.520240
  Cl     2.054890   -3.773790   10.485770
  C      0.252100   -2.914820    5.603730
  O     -0.519140   -3.829700    5.415410
  C      0.473910   -1.727310    4.716580
  C      0.201650   -1.712940    3.385530
  C     -0.005980   -2.898590    2.623870
  C     -0.788340   -3.045350    1.388680
  N     -0.770960   -4.244230    0.884430
  C      0.037990   -4.981670    1.697820
  C      0.537400   -4.147780    2.806790
  C      1.457540   -4.896790    3.617230
  S      2.436850   -4.271940    4.785050
  C      1.403900   -6.225510    3.074990
  C      0.550680   -6.242640    1.867270
  N      0.480080   -7.503640    1.357230
  C      1.175460   -8.259760    2.153590
  C      1.779810   -7.536910    3.281820
  C      2.497670   -8.017800    4.410000
  O      2.863420   -7.079680    5.294200
  C      3.443970   -7.664560    6.356660
  C      3.453200   -9.038560    6.163710
  C      2.852750   -9.280150    4.911830
  C      2.675880  -10.593960    4.255890
  O      2.487010  -10.732570    3.078940
  O      2.751930  -11.659270    5.067300
  C      3.893010   -6.796190    7.387000
  C      4.368970   -7.161840    8.600520
  C      4.783080   -6.226360    9.585160
  C      5.084370   -6.600960   10.973910
  N      5.421520   -5.610270   11.742920
  C      5.395010   -4.505930   10.945070
  C      4.983550   -4.858700    9.568340
  C      5.000160   -3.672400    8.749510
  S      4.661930   -3.487240    7.146690
  C      5.415060   -2.620110    9.643410
  C      5.643860   -3.159590   10.990540
  N      6.011690   -2.164320   11.845110
  C      6.042540   -1.075040   11.137320
  C      5.690010   -1.267900    9.716400
  C      5.571620   -0.360520    8.629490
  C      5.918470    0.951190    8.506950
  C      5.691060    1.749180    7.304000
  C      5.117250    1.345530    6.130970
  C      4.996510    2.163290    4.981980
  N      4.880690    2.741490    3.998450
  C      4.528480    0.096040    5.844150
  N      3.967350   -0.843250    5.492980
  C      6.199180    3.092170    7.557200
  C      6.755560    3.134300    8.846380
  C      6.632180    1.815350    9.492870
  O      7.060460    1.518920   10.583940
  C      7.317660    4.284460    9.364630
  C      7.317490    5.428360    8.577740
  C      6.752430    5.400500    7.294350
  C      6.192110    4.238250    6.776970
  Cl     6.748840    6.823220    6.337310
  Cl     8.006000    6.878590    9.179420
  H      0.850510   -4.411580    7.974260
  H      2.165530    0.383430    8.019510
  H      0.190130   -0.781820    2.834200
  H     -1.356780   -2.259660    0.922060
  H      1.284020   -9.314440    1.973930
  H      3.883450   -9.755070    6.836250
  H      2.875930  -11.424180    5.995840
  H      3.808020   -5.745760    7.140740
  H      4.424110   -8.205850    8.879630
  H      5.027410   -7.602910   11.364000
  H      6.299280   -0.135800   11.590640
  H      5.126370   -0.825920    7.755730
  H      7.742310    4.289970   10.356350
  H      5.761890    4.258510    5.789430

 Total Charge           Charge          ....    0
 Multiplicity           Mult            ....    1
 Number of Electrons    NEL             ....  516
 Basis Dimension        Dim             .... 1074

ORBITAL ENERGIES
----------------

  NO   OCC          E(Eh)            E(eV)
   0   2.0000    -101.615554     -2765.0998
   1   2.0000    -101.613967     -2765.0566
   2   2.0000    -101.605555     -2764.8277
   3   2.0000    -101.603438     -2764.7701
   4   2.0000     -88.921012     -2419.6638
   5   2.0000     -88.919370     -2419.6191
   6   2.0000     -19.324675      -525.8511
   7   2.0000     -19.281561      -524.6779
   8   2.0000     -19.236979      -523.4648
   9   2.0000     -19.220863      -523.0263
  10   2.0000     -19.219636      -522.9929
  11   2.0000     -14.433860      -392.7653
  12   2.0000     -14.432161      -392.7191
  13   2.0000     -14.430550      -392.6752
  14   2.0000     -14.425325      -392.5330
  15   2.0000     -14.424935      -392.5224
  16   2.0000     -14.423344      -392.4791
  17   2.0000     -14.423336      -392.4789
  18   2.0000     -14.422833      -392.4652
  19   2.0000     -10.429590      -283.8036
  20   2.0000     -10.388157      -282.6761
  21   2.0000     -10.379659      -282.4449
  22   2.0000     -10.379417      -282.4383
  23   2.0000     -10.368140      -282.1314
  24   2.0000     -10.365963      -282.0722
  25   2.0000     -10.364937      -282.0443
  26   2.0000     -10.362664      -281.9824
  27   2.0000     -10.362296      -281.9724
  28   2.0000     -10.359874      -281.9065
  29   2.0000     -10.357742      -281.8485
  30   2.0000     -10.354840      -281.7695
  31   2.0000     -10.352948      -281.7180
  32   2.0000     -10.352666      -281.7104
  33   2.0000     -10.352063      -281.6940
  34   2.0000     -10.351501      -281.6787
  35   2.0000     -10.347789      -281.5777
  36   2.0000     -10.347192      -281.5614
  37   2.0000     -10.345885      -281.5258
  38   2.0000     -10.344287      -281.4823
  39   2.0000     -10.344220      -281.4805
  40   2.0000     -10.343199      -281.4528
  41   2.0000     -10.338035      -281.3122
  42   2.0000     -10.334600      -281.2188
  43   2.0000     -10.333475      -281.1882
  44   2.0000     -10.332133      -281.1516
  45   2.0000     -10.327184      -281.0170
  46   2.0000     -10.325182      -280.9625
  47   2.0000     -10.325140      -280.9613
  48   2.0000     -10.323150      -280.9072
  49   2.0000     -10.323102      -280.9059
  50   2.0000     -10.322871      -280.8996
  51   2.0000     -10.322540      -280.8906
  52   2.0000     -10.322504      -280.8896
  53   2.0000     -10.322281      -280.8835
  54   2.0000     -10.320916      -280.8464
  55   2.0000     -10.318857      -280.7904
  56   2.0000     -10.318160      -280.7714
  57   2.0000     -10.316930      -280.7379
  58   2.0000     -10.316834      -280.7353
  59   2.0000     -10.316277      -280.7202
  60   2.0000     -10.315769      -280.7063
  61   2.0000     -10.315446      -280.6976
  62   2.0000     -10.314227      -280.6644
  63   2.0000     -10.314203      -280.6637
  64   2.0000     -10.314058      -280.6598
  65   2.0000     -10.313457      -280.6434
  66   2.0000     -10.313348      -280.6405
  67   2.0000     -10.310301      -280.5575
  68   2.0000     -10.309910      -280.5469
  69   2.0000     -10.309132      -280.5257
  70   2.0000      -9.569953      -260.4117
  71   2.0000      -9.568314      -260.3671
  72   2.0000      -9.560626      -260.1579
  73   2.0000      -9.558502      -260.1001
  74   2.0000      -8.015587      -218.1152
  75   2.0000      -8.014236      -218.0785
  76   2.0000      -7.340248      -199.7383
  77   2.0000      -7.338603      -199.6935
  78   2.0000      -7.331000      -199.4867
  79   2.0000      -7.330337      -199.4686
  80   2.0000      -7.329550      -199.4472
  81   2.0000      -7.328915      -199.4299
  82   2.0000      -7.328614      -199.4217
  83   2.0000      -7.327982      -199.4045
  84   2.0000      -7.320903      -199.2119
  85   2.0000      -7.320137      -199.1911
  86   2.0000      -7.318758      -199.1535
  87   2.0000      -7.317982      -199.1324
  88   2.0000      -5.984309      -162.8413
  89   2.0000      -5.984095      -162.8355
  90   2.0000      -5.982796      -162.8001
  91   2.0000      -5.982532      -162.7930
  92   2.0000      -5.975038      -162.5891
  93   2.0000      -5.973904      -162.5582
  94   2.0000      -1.252531       -34.0831
  95   2.0000      -1.205528       -32.8041
  96   2.0000      -1.153514       -31.3887
  97   2.0000      -1.138423       -30.9781
  98   2.0000      -1.120242       -30.4833
  99   2.0000      -1.098329       -29.8871
 100   2.0000      -1.095947       -29.8222
 101   2.0000      -1.077616       -29.3234
 102   2.0000      -1.076032       -29.2803
 103   2.0000      -1.041017       -28.3275
 104   2.0000      -1.038559       -28.2606
 105   2.0000      -1.030008       -28.0280
 106   2.0000      -1.024144       -27.8684
 107   2.0000      -1.007257       -27.4089
 108   2.0000      -1.005695       -27.3663
 109   2.0000      -1.000166       -27.2159
 110   2.0000      -0.998394       -27.1677
 111   2.0000      -0.980414       -26.6784
 112   2.0000      -0.979064       -26.6417
 113   2.0000      -0.973899       -26.5011
 114   2.0000      -0.967397       -26.3242
 115   2.0000      -0.950871       -25.8745
 116   2.0000      -0.945574       -25.7304
 117   2.0000      -0.945078       -25.7169
 118   2.0000      -0.941359       -25.6157
 119   2.0000      -0.924937       -25.1688
 120   2.0000      -0.923696       -25.1350
 121   2.0000      -0.921170       -25.0663
 122   2.0000      -0.897475       -24.4215
 123   2.0000      -0.894186       -24.3320
 124   2.0000      -0.881645       -23.9908
 125   2.0000      -0.872238       -23.7348
 126   2.0000      -0.868828       -23.6420
 127   2.0000      -0.867837       -23.6150
 128   2.0000      -0.867162       -23.5967
 129   2.0000      -0.848540       -23.0900
 130   2.0000      -0.842876       -22.9358
 131   2.0000      -0.831169       -22.6173
 132   2.0000      -0.800200       -21.7746
 133   2.0000      -0.797277       -21.6950
 134   2.0000      -0.785340       -21.3702
 135   2.0000      -0.781761       -21.2728
 136   2.0000      -0.776965       -21.1423
 137   2.0000      -0.773862       -21.0579
 138   2.0000      -0.770768       -20.9737
 139   2.0000      -0.758520       -20.6404
 140   2.0000      -0.752379       -20.4733
 141   2.0000      -0.735396       -20.0111
 142   2.0000      -0.727414       -19.7939
 143   2.0000      -0.722334       -19.6557
 144   2.0000      -0.721610       -19.6360
 145   2.0000      -0.715532       -19.4706
 146   2.0000      -0.711999       -19.3745
 147   2.0000      -0.704887       -19.1810
 148   2.0000      -0.701772       -19.0962
 149   2.0000      -0.700080       -19.0501
 150   2.0000      -0.690233       -18.7822
 151   2.0000      -0.686794       -18.6886
 152   2.0000      -0.678581       -18.4651
 153   2.0000      -0.663381       -18.0515
 154   2.0000      -0.656873       -17.8744
 155   2.0000      -0.655375       -17.8336
 156   2.0000      -0.642447       -17.4819
 157   2.0000      -0.633449       -17.2370
 158   2.0000      -0.628256       -17.0957
 159   2.0000      -0.626740       -17.0545
 160   2.0000      -0.622405       -16.9365
 161   2.0000      -0.620735       -16.8911
 162   2.0000      -0.605109       -16.4658
 163   2.0000      -0.599708       -16.3189
 164   2.0000      -0.598412       -16.2836
 165   2.0000      -0.597637       -16.2625
 166   2.0000      -0.593418       -16.1477
 167   2.0000      -0.587522       -15.9873
 168   2.0000      -0.584603       -15.9078
 169   2.0000      -0.580626       -15.7996
 170   2.0000      -0.575159       -15.6509
 171   2.0000      -0.569638       -15.5007
 172   2.0000      -0.569061       -15.4849
 173   2.0000      -0.564116       -15.3504
 174   2.0000      -0.560526       -15.2527
 175   2.0000      -0.556499       -15.1431
 176   2.0000      -0.555624       -15.1193
 177   2.0000      -0.555185       -15.1074
 178   2.0000      -0.553342       -15.0572
 179   2.0000      -0.552714       -15.0401
 180   2.0000      -0.551065       -14.9952
 181   2.0000      -0.550126       -14.9697
 182   2.0000      -0.548866       -14.9354
 183   2.0000      -0.543038       -14.7768
 184   2.0000      -0.537638       -14.6299
 185   2.0000      -0.534694       -14.5498
 186   2.0000      -0.529794       -14.4164
 187   2.0000      -0.526264       -14.3204
 188   2.0000      -0.524531       -14.2732
 189   2.0000      -0.523955       -14.2575
 190   2.0000      -0.519651       -14.1404
 191   2.0000      -0.517708       -14.0876
 192   2.0000      -0.515494       -14.0273
 193   2.0000      -0.511602       -13.9214
 194   2.0000      -0.507372       -13.8063
 195   2.0000      -0.504621       -13.7314
 196   2.0000      -0.503708       -13.7066
 197   2.0000      -0.502644       -13.6776
 198   2.0000      -0.501180       -13.6378
 199   2.0000      -0.499153       -13.5826
 200   2.0000      -0.497099       -13.5267
 201   2.0000      -0.493647       -13.4328
 202   2.0000      -0.492895       -13.4124
 203   2.0000      -0.489994       -13.3334
 204   2.0000      -0.488231       -13.2854
 205   2.0000      -0.477812       -13.0019
 206   2.0000      -0.475855       -12.9487
 207   2.0000      -0.473921       -12.8961
 208   2.0000      -0.471115       -12.8197
 209   2.0000      -0.467646       -12.7253
 210   2.0000      -0.464319       -12.6348
 211   2.0000      -0.462804       -12.5935
 212   2.0000      -0.455784       -12.4025
 213   2.0000      -0.453197       -12.3321
 214   2.0000      -0.451486       -12.2856
 215   2.0000      -0.450453       -12.2575
 216   2.0000      -0.447873       -12.1872
 217   2.0000      -0.446077       -12.1384
 218   2.0000      -0.444321       -12.0906
 219   2.0000      -0.440934       -11.9984
 220   2.0000      -0.437368       -11.9014
 221   2.0000      -0.435397       -11.8477
 222   2.0000      -0.433527       -11.7969
 223   2.0000      -0.433347       -11.7920
 224   2.0000      -0.429775       -11.6948
 225   2.0000      -0.425846       -11.5879
 226   2.0000      -0.424884       -11.5617
 227   2.0000      -0.419857       -11.4249
 228   2.0000      -0.419595       -11.4178
 229   2.0000      -0.418465       -11.3870
 230   2.0000      -0.416243       -11.3266
 231   2.0000      -0.413198       -11.2437
 232   2.0000      -0.410926       -11.1819
 233   2.0000      -0.398150       -10.8342
 234   2.0000      -0.396242       -10.7823
 235   2.0000      -0.386439       -10.5155
 236   2.0000      -0.386130       -10.5071
 237   2.0000      -0.380309       -10.3487
 238   2.0000      -0.375989       -10.2312
 239   2.0000      -0.375618       -10.2211
 240   2.0000      -0.370988       -10.0951
 241   2.0000      -0.363921        -9.9028
 242   2.0000      -0.362395        -9.8613
 243   2.0000      -0.360829        -9.8187
 244   2.0000      -0.357418        -9.7258
 245   2.0000      -0.352113        -9.5815
 246   2.0000      -0.346999        -9.4423
 247   2.0000      -0.342638        -9.3237
 248   2.0000      -0.336729        -9.1629
 249   2.0000      -0.332666        -9.0523
 250   2.0000      -0.323844        -8.8122
 251   2.0000      -0.321595        -8.7510
 252   2.0000      -0.318096        -8.6558
 253   2.0000      -0.312250        -8.4968
 254   2.0000      -0.306072        -8.3286
 255   2.0000      -0.302336        -8.2270
 256   2.0000      -0.290362        -7.9011
 257   2.0000      -0.277621        -7.5544
 258   0.0000      -0.136276        -3.7083
 259   0.0000      -0.127945        -3.4816
 260   0.0000      -0.113635        -3.0922
 261   0.0000      -0.104349        -2.8395
 262   0.0000      -0.085954        -2.3389

MULLIKEN ATOMIC CHARGES
-----------------------
   0 C :    0.338618
   1 C :   -0.359711
   2 C :   -0.152445
   3 N :    0.123818
   4 C :   -0.174408
   5 N :    0.163492
   6 C :    0.068126
   7 C :    0.033660
   8 C :   -0.034377
   9 C :    0.067012
  10 C :    0.034720
  11 C :   -0.023947
  12 Cl:   -0.032314
  13 Cl:   -0.041529
  14 C :    0.054654
  15 O :   -0.144386
  16 C :   -0.009978
  17 C :   -0.032278
  18 C :    0.002245
  19 C :    0.078859
  20 N :   -0.026639
  21 C :    0.021713
  22 C :    0.023624
  23 C :    0.014004
  24 S :   -0.071739
  25 C :   -0.005062
  26 C :    0.014064
  27 N :   -0.020813
  28 C :    0.072817
  29 C :   -0.037431
  30 C :    0.126800
  31 O :   -0.153362
  32 C :    0.196076
  33 C :   -0.109227
  34 C :   -0.068352
  35 C :    0.174857
  36 O :   -0.172112
  37 O :   -0.145121
  38 C :    0.035631
  39 C :   -0.008440
  40 C :   -0.006849
  41 C :    0.063688
  42 N :   -0.017891
  43 C :   -0.017879
  44 C :    0.014253
  45 C :   -0.024769
  46 S :   -0.079671
  47 C :    0.001449
  48 C :    0.047739
  49 N :   -0.017056
  50 C :    0.059333
  51 C :    0.010213
  52 C :   -0.096702
  53 C :   -0.039562
  54 C :    0.334545
  55 C :   -0.343936
  56 C :   -0.199776
  57 N :    0.177193
  58 C :   -0.194477
  59 N :    0.164781
  60 C :    0.036549
  61 C :   -0.018875
  62 C :    0.153578
  63 O :   -0.139349
  64 C :   -0.025134
  65 C :    0.060842
  66 C :    0.047125
  67 C :    0.000775
  68 Cl:   -0.027456
  69 Cl:   -0.036783
  70 H :   -0.009367
  71 H :   -0.010397
  72 H :    0.024380
  73 H :    0.018386
  74 H :    0.040568
  75 H :   -0.007362
  76 H :    0.181745
  77 H :    0.008951
  78 H :   -0.024723
  79 H :    0.009827
  80 H :    0.032697
  81 H :    0.023657
  82 H :    0.001005
  83 H :    0.003612
Sum of atomic charges:   -0.0000000

LOEWDIN ATOMIC CHARGES
----------------------
   0 C :    0.084863
   1 C :   -0.130989
   2 C :   -0.004218
   3 N :   -0.059699
   4 C :   -0.017760
   5 N :   -0.039529
   6 C :   -0.003609
   7 C :   -0.033211
   8 C :   -0.006287
   9 C :   -0.135683
  10 C :   -0.136204
  11 C :   -0.013426
  12 Cl:    0.177282
  13 Cl:    0.171946
  14 C :    0.056285
  15 O :   -0.148574
  16 C :   -0.053844
  17 C :    0.052167
  18 C :   -0.047794
  19 C :    0.100622
  20 N :   -0.078369
  21 C :    0.043544
  22 C :    0.003461
  23 C :   -0.135704
  24 S :    0.162680
  25 C :   -0.013844
  26 C :    0.049444
  27 N :   -0.075261
  28 C :    0.108936
  29 C :   -0.055841
  30 C :    0.066839
  31 O :    0.058059
  32 C :    0.040478
  33 C :   -0.057480
  34 C :   -0.112077
  35 C :    0.086462
  36 O :   -0.150414
  37 O :   -0.020179
  38 C :   -0.002482
  39 C :   -0.023994
  40 C :   -0.038251
  41 C :    0.090162
  42 N :   -0.072419
  43 C :    0.042418
  44 C :   -0.041251
  45 C :   -0.150423
  46 S :    0.121392
  47 C :   -0.004803
  48 C :    0.034799
  49 N :   -0.078787
  50 C :    0.097276
  51 C :   -0.056956
  52 C :    0.059707
  53 C :   -0.071174
  54 C :    0.073209
  55 C :   -0.117453
  56 C :   -0.019817
  57 N :   -0.036493
  58 C :   -0.019276
  59 N :   -0.044088
  60 C :   -0.008402
  61 C :   -0.046900
  62 C :    0.088964
  63 O :   -0.127667
  64 C :    0.003191
  65 C :   -0.133372
  66 C :   -0.126722
  67 C :   -0.006032
  68 Cl:    0.169251
  69 Cl:    0.164387
  70 H :    0.042654
  71 H :    0.039378
  72 H :    0.047309
  73 H :    0.031142
  74 H :    0.031470
  75 H :    0.028743
  76 H :    0.094571
  77 H :    0.019150
  78 H :    0.027924
  79 H :    0.026899
  80 H :    0.025437
  81 H :    0.040987
  82 H :    0.046612
  83 H :    0.046662

  Mayer bond orders larger than 0.100000
B(  0-C ,  1-C ) :   1.6386 B(  0-C ,  6-C ) :   1.0039 B(  0-C , 16-C ) :   1.0834
B(  1-C ,  2-C ) :   1.1591 B(  1-C ,  4-C ) :   1.1389 B(  2-C ,  3-N ) :   2.8751
B(  4-C ,  5-N ) :   2.9712 B(  6-C ,  7-C ) :   1.3463 B(  6-C , 11-C ) :   1.3188
B(  7-C ,  8-C ) :   1.3246 B(  7-C , 14-C ) :   0.9095 B(  8-C ,  9-C ) :   1.3463
B(  8-C , 11-C ) :   0.1013 B(  8-C , 70-H ) :   1.0175 B(  9-C , 10-C ) :   1.4008
B(  9-C , 13-Cl) :   1.0397 B( 10-C , 11-C ) :   1.3700 B( 10-C , 12-Cl) :   1.0664
B( 11-C , 71-H ) :   0.9847 B( 14-C , 15-O ) :   2.2352 B( 14-C , 16-C ) :   0.8854
B( 14-C , 24-S ) :   0.1268 B( 16-C , 17-C ) :   1.6725 B( 17-C , 18-C ) :   1.0844
B( 17-C , 72-H ) :   0.9353 B( 18-C , 19-C ) :   1.0222 B( 18-C , 22-C ) :   1.5284
B( 19-C , 20-N ) :   1.7098 B( 19-C , 73-H ) :   0.9934 B( 20-N , 21-C ) :   1.2723
B( 21-C , 22-C ) :   1.0740 B( 21-C , 26-C ) :   1.5024 B( 22-C , 23-C ) :   1.0368
B( 23-C , 24-S ) :   1.6633 B( 23-C , 25-C ) :   1.0332 B( 25-C , 26-C ) :   1.0526
B( 25-C , 29-C ) :   1.5135 B( 26-C , 27-N ) :   1.2815 B( 27-N , 28-C ) :   1.7023
B( 28-C , 29-C ) :   1.0393 B( 28-C , 74-H ) :   0.9798 B( 29-C , 30-C ) :   1.0764
B( 30-C , 31-O ) :   1.2264 B( 30-C , 32-C ) :   0.1083 B( 30-C , 34-C ) :   1.4191
B( 31-O , 32-C ) :   1.1362 B( 32-C , 33-C ) :   1.4732 B( 32-C , 38-C ) :   1.1306
B( 33-C , 34-C ) :   1.2251 B( 33-C , 75-H ) :   0.9833 B( 34-C , 35-C ) :   0.8981
B( 35-C , 36-O ) :   2.1325 B( 35-C , 37-O ) :   1.2607 B( 37-O , 76-H ) :   0.9545
B( 38-C , 39-C ) :   1.6316 B( 38-C , 77-H ) :   0.9342 B( 39-C , 40-C ) :   1.1424
B( 39-C , 78-H ) :   0.9671 B( 40-C , 41-C ) :   1.0147 B( 40-C , 44-C ) :   1.4748
B( 41-C , 42-N ) :   1.7148 B( 41-C , 79-H ) :   0.9921 B( 42-N , 43-C ) :   1.2742
B( 43-C , 44-C ) :   1.0795 B( 43-C , 48-C ) :   1.4957 B( 44-C , 45-C ) :   1.0341
B( 45-C , 46-S ) :   1.7017 B( 45-C , 47-C ) :   1.0199 B( 47-C , 48-C ) :   1.0696
B( 47-C , 51-C ) :   1.4925 B( 48-C , 49-N ) :   1.2748 B( 49-N , 50-C ) :   1.7123
B( 50-C , 51-C ) :   1.0026 B( 50-C , 80-H ) :   0.9777 B( 51-C , 52-C ) :   1.1227
B( 52-C , 53-C ) :   1.6143 B( 52-C , 81-H ) :   0.9369 B( 53-C , 54-C ) :   1.0552
B( 53-C , 62-C ) :   0.9081 B( 54-C , 55-C ) :   1.6547 B( 54-C , 60-C ) :   0.9966
B( 55-C , 56-C ) :   1.1313 B( 55-C , 58-C ) :   1.1571 B( 56-C , 57-N ) :   2.9767
B( 58-C , 59-N ) :   2.9103 B( 60-C , 61-C ) :   1.3251 B( 60-C , 67-C ) :   1.3378
B( 61-C , 62-C ) :   0.9561 B( 61-C , 64-C ) :   1.3357 B( 62-C , 63-O ) :   2.2047
B( 64-C , 65-C ) :   1.3486 B( 64-C , 82-H ) :   1.0159 B( 65-C , 66-C ) :   1.3946
B( 65-C , 69-Cl) :   1.0530 B( 66-C , 67-C ) :   1.3679 B( 66-C , 68-Cl) :   1.0853
B( 67-C , 83-H ) :   0.9836

-----------------------------------------------------------------------------
         ABSORPTION SPECTRUM VIA TRANSITION ELECTRIC DIPOLE MOMENTS
-----------------------------------------------------------------------------
State   Energy  Wavelength   fosc         T2         TX        TY        TZ
        (cm-1)    (nm)                  (au**2)     (au)      (au)      (au)
-----------------------------------------------------------------------------
   0   13770.6    726.2   0.021616964   0.51679  -0.44840  -0.17800  -0.53297
   1   14095.6    709.4   0.034811876   0.81305   0.42034   0.70298   0.37706
   2   14667.7    681.8   0.033871871   0.76025   0.45230   0.53802   0.51595
   3   15038.6    665.0   0.004223322   0.09245  -0.27269   0.10423  -0.08502
   4   15827.3    631.8   0.047646424   0.99106  -0.55653   0.63724  -0.52465
   5   16924.4    590.9   0.009402286   0.18289  -0.14250  -0.29701  -0.27271
   6   18463.0    541.6   0.096254559   1.71631   0.92827   0.30498   0.87270
   7   18832.9    531.0   0.049309783   0.86197  -0.35289   0.78288  -0.35289
   8   19361.2    516.5   0.090207844   1.53387   0.69344  -0.01929   1.02598
   9   19978.7    500.5   0.014748167   0.24302   0.18773   0.45502  -0.02713
  10   21074.6    474.5   0.138630133   2.16558   0.00256   1.42912   0.35099
  11   22170.1    451.1   0.015098292   0.22420   0.32323  -0.26734   0.21967
  12   22318.5    448.1   0.019502920   0.28768   0.35328   0.12009  -0.38529
  13   22448.7    445.5   0.216196925   3.17054   0.07654   1.77376   0.13586
  14   22770.9    439.2   0.100156529   1.44802  -0.10345  -1.19114   0.13603
  15   23070.2    433.5   0.003130879   0.04468   0.16075   0.04557   0.12945
  16   23440.5    426.6   0.023756003   0.33364  -0.34851  -0.11246  -0.44670
  17   23529.3    425.0   0.002105085   0.02945   0.04168   0.14761   0.07699
  18   23741.9    421.2   0.021917673   0.30392  -0.09768   0.53229  -0.10506
  19   24504.7    408.1   0.016016548   0.21518   0.27396   0.30258  -0.22038
  20   24709.9    404.7   0.010828311   0.14427  -0.12921   0.29373  -0.20321
  21   24808.6    403.1   0.045634231   0.60557  -0.04349   0.65602  -0.41631
  22   24983.1    400.3   0.041096325   0.54154  -0.18372  -0.70640  -0.09378
  23   25327.8    394.8   0.027057511   0.35169  -0.02240   0.55060  -0.21917
  24   25434.4    393.2   0.010712813   0.13866  -0.18032   0.31082  -0.09767
  25   25715.8    388.9   0.019583445   0.25071  -0.05720   0.49630   0.03344
  26   25895.1    386.2   0.270455940   3.43838   0.33755   1.80838   0.23279
  27   26006.1    384.5   0.044209584   0.55965  -0.16846  -0.43694   0.58340
  28   26384.1    379.0   0.108756526   1.35703   0.04799   1.10990  -0.35049
  29   26615.8    375.7   0.067825943   0.83894  -0.17017   0.70179  -0.56345
  30   26958.6    370.9   0.030321015   0.37027  -0.09157  -0.60047  -0.03636
  31   27135.7    368.5   0.008327243   0.10103  -0.07783  -0.28713   0.11192
  32   27474.2    364.0   0.149392314   1.79010   0.16386   1.18330   0.60253
  33   27739.8    360.5   0.021381580   0.25375  -0.16707   0.21613  -0.42324
  34   27993.6    357.2   0.021025073   0.24726  -0.13113   0.47965  -0.00169
  35   28350.4    352.7   0.015520927   0.18023  -0.08876   0.41263   0.04578
  36   28528.4    350.5   0.367721400   4.24343   0.24768   2.04459   0.04178
  37   28822.6    346.9   0.016044382   0.18326  -0.09259  -0.35300  -0.22378
  38   28919.8    345.8   0.103984401   1.18372  -0.05959  -0.85347  -0.67213
  39   29291.5    341.4   0.381371716   4.28630   0.50805   1.88737   0.68266
  40   29364.7    340.5   0.144511607   1.62014   0.23001  -1.05602  -0.67235
  41   29747.1    336.2   0.095231417   1.05393  -0.04837  -0.66505  -0.78058
  42   30003.4    333.3   0.011910225   0.13068  -0.16686  -0.15997  -0.27795
  43   30120.2    332.0   0.049618703   0.54233  -0.36450  -0.37369  -0.51944
  44   30465.5    328.2   0.029125579   0.31473  -0.03799   0.55432  -0.07756
  45   30634.0    326.4   0.005535812   0.05949  -0.02365   0.20872  -0.12397
  46   30679.0    326.0   0.142585234   1.53006  -0.43312  -0.78212  -0.85485
  47   30891.4    323.7   0.004478279   0.04773   0.06210   0.07528  -0.19545
  48   31130.6    321.2   0.018407595   0.19466  -0.17770   0.12539  -0.38388
  49   31199.9    320.5   0.194136385   2.04847   0.66138   0.08906   1.26614
  50   31340.4    319.1   0.044172118   0.46400   0.14117   0.58826  -0.31308
  51   31659.0    315.9   0.003106311   0.03230  -0.04862  -0.15007   0.08612
  52   31772.9    314.7   0.009487717   0.09831  -0.06723   0.29848  -0.06851
  53   31832.2    314.1   0.063325125   0.65492   0.37331   0.58398   0.41776
  54   31902.7    313.5   0.036904135   0.38082   0.05452   0.61346   0.03895
  55   32055.5    312.0   0.198813127   2.04182  -0.09430  -1.41714   0.15698
  56   32326.5    309.3   0.089876298   0.91530  -0.01129  -0.94302  -0.16086
  57   32752.1    305.3   0.045375220   0.45610   0.11443   0.60864   0.26936
  58   32833.0    304.6   0.022237331   0.22297  -0.25071   0.38955  -0.09147
  59   32862.9    304.3   0.035859375   0.35923   0.00978   0.52100   0.29613
  60   33045.5    302.6   0.029346447   0.29236  -0.29984  -0.31354  -0.32272
  61   33113.0    302.0   0.013121039   0.13045  -0.08421   0.32883   0.12341
  62   33175.2    301.4   0.016800890   0.16672   0.17417   0.30199   0.21257
  63   33508.2    298.4   0.094738791   0.93079  -0.49608   0.02711  -0.82702
  64   33610.3    297.5   0.069987420   0.68553  -0.03615  -0.80917  -0.17165
  65   33880.5    295.2   0.227762326   2.21313   0.52708   1.23414   0.64205
  66   34065.7    293.6   0.037787318   0.36518   0.53925  -0.18590  -0.19957
  67   34234.3    292.1   0.119454337   1.14873   0.04918   0.95650  -0.48107
  68   34291.1    291.6   0.002089835   0.02006   0.10885  -0.09007  -0.01019
  69   34362.3    291.0   0.022654271   0.21704   0.14367  -0.23852   0.37351
  70   34469.8    290.1   0.072024931   0.68789  -0.09065  -0.82340   0.04107
  71   34635.7    288.7   0.063360376   0.60224  -0.28573   0.57502  -0.43582
  72   34647.1    288.6   0.103552389   0.98394  -0.60631  -0.37019  -0.69231
  73   34820.4    287.2   0.095415939   0.90212  -0.04743  -0.94848  -0.01611
  74   34989.6    285.8   0.034397096   0.32364  -0.22267  -0.43740  -0.28763
  75   35073.9    285.1   0.022637761   0.21248  -0.21237  -0.35434  -0.20451
  76   35478.0    281.9   0.244144696   2.26550  -0.25612   0.12967  -1.47753
  77   35605.8    280.9   0.099674262   0.92159  -0.23700  -0.87037   0.32845
  78   35674.4    280.3   0.000291054   0.00269   0.03724   0.01276  -0.03372
  79   35919.8    278.4   0.023754256   0.21771   0.08076   0.45503   0.06430
  80   36138.5    276.7   0.037071587   0.33771  -0.23628  -0.44428  -0.29069
  81   36293.0    275.5   0.016729875   0.15176   0.05415   0.05467   0.38188
  82   36521.0    273.8   0.012261842   0.11053   0.24314   0.20707  -0.09239
  83   36690.2    272.6   0.028778787   0.25823  -0.02162  -0.11258  -0.49506
  84   36730.7    272.3   0.105619672   0.94665   0.22786  -0.74000   0.58918
  85   37015.4    270.2   0.094415971   0.83973   0.12007   0.59408   0.68730
  86   37063.6    269.8   0.133179920   1.18295  -0.47177   0.21698  -0.95567
  87   37273.3    268.3   0.078708965   0.69519  -0.67751  -0.23412  -0.42586
  88   37440.0    267.1   0.136610364   1.20122  -0.25220  -0.13663  -1.05780
  89   37671.6    265.5   0.015391899   0.13451  -0.01350  -0.23090   0.28463
  90   37885.4    264.0   0.183637824   1.59575   0.42149   0.48822   1.08616
  91   37990.1    263.2   0.006941379   0.06015  -0.06225  -0.12597  -0.20102
  92   38320.2    261.0   0.036283822   0.31172   0.05758   0.08648   0.54857
  93   38462.4    260.0   0.075293236   0.64446  -0.20634  -0.62117  -0.46480
  94   38551.6    259.4   0.008046984   0.06872   0.21735   0.14290  -0.03249
  95   38807.6    257.7   0.020324545   0.17242  -0.06409   0.09934  -0.39805
  96   38821.7    257.6   0.090129691   0.76431   0.26362   0.10227   0.82726
  97   39079.7    255.9   0.194401463   1.63766   0.63074  -0.55779   0.96369
  98   39171.0    255.3   0.047012716   0.39512   0.07716  -0.62272  -0.03725
  99   39211.6    255.0   0.068625375   0.57616  -0.02692   0.72881  -0.21043
 100   39368.5    254.0   0.039013359   0.32624  -0.26843   0.33281  -0.37872
 101   39598.5    252.5   0.069093339   0.57442   0.10302  -0.05614  -0.74877
 102   39654.3    252.2   0.057339729   0.47604   0.04100   0.04997  -0.68692
 103   39902.6    250.6   0.009431473   0.07781   0.03181  -0.14177   0.23812
 104   39937.4    250.4   0.028811527   0.23750   0.12496  -0.32906   0.33706
 105   40112.5    249.3   0.039123398   0.32109  -0.03674   0.27259  -0.49542
 106   40194.7    248.8   0.037734921   0.30907   0.02289  -0.37501   0.40977
 107   40247.5    248.5   0.083589613   0.68374  -0.24991   0.28194  -0.73606

FINAL SINGLE POINT ENERGY     -5398.649279011019

DIPOLE MOMENT
-------------
                                X             Y             Z
Electronic contribution:      9.16731      42.91570      12.58906
Nuclear contribution   :     -8.36503     -44.57230     -10.17846
                        -----------------------------------------
Total Dipole Moment    :      0.80228      -1.65660       2.41059
                        -----------------------------------------
Magnitude (a.u.)       :      3.03297
Magnitude (Debye)      :      7.70921

Rotational constants in cm-1:     0.001547     0.000628     0.000503
Rotational constants in MHz :    46.366855    18.820649    15.075017

                             ****ORCA TERMINATED NORMALLY****
TOTAL RUN TIME: 0 days 0 hours 11 minutes 55 seconds 972 msec
