                         Program Version 4.2.0 -  RELEASE  -
|  1> # ORCA input file
|  2> # SCF done       -138.044023691772          0.000574323095
|  3> ! CAM-B3LYP def2-SVP def2/J RIJCOSX Grid4 TightSCF
|  4> %maxcore 5000
|  5> %tddft
|  6>     Mode sTDDFT
|  7>     Ethresh 5.0
|  8>     maxcore 5000
|  9> end
| 10>
| 11> %pal
| 12>   nprocs 6
| 13>   end
| 14> * xyz 0 1
| 15>    C       -6.75740        -0.37081        -3.42549
| 16>    N       -8.04845        -0.20769        -3.47153
| 17>    O       -8.56893        -0.69389        -2.33834
| 18>    C       -7.59778        -1.19566        -1.56954
| 19>    C       -7.89842        -1.79851        -0.26501
| 20>    O       -9.00036        -1.90116         0.19951
| 21>    C       -6.37461        -1.00172        -2.21060
| 22>    C       -5.07509        -1.40256        -1.75242
| 23>    N       -4.94935        -2.41157        -0.91740
| 24>    C       -3.61497        -2.58281        -0.74220
| 25>    C       -2.85071        -1.61565        -1.52955
| 26>    C       -1.41057        -1.81614        -1.32741
| 27>    O       -0.48214        -1.22013        -1.83599
| 28>    C       -1.36909        -2.93031        -0.35898
| 29>    C       -2.74276        -3.36956        -0.03248
| 30>    N       -2.72014        -4.37974         0.87229
| 31>    C       -1.45284        -4.58534         1.12450
| 32>    C       -0.55269        -3.70843         0.39342
| 33>    C       -3.77969        -0.81650        -2.16418
| 34>    C       -3.60240         0.34325        -2.95951
| 35>    C       -2.37679         0.75584        -3.37916
| 36>    C       -2.12176         1.90903        -4.15482
| 37>    N       -0.83639         2.19779        -4.56196
| 38>    C       -0.85797         3.33983        -5.29288
| 39>    C       -0.07402         4.22591        -6.01215
| 40>    C       -0.94867         5.22028        -6.49357
| 41>    N       -2.23366         4.93739        -6.07051
| 42>    C       -2.21065         3.79431        -5.34359
| 43>    C       -2.99779         2.89845        -4.63609
| 44>    C       -0.68279         6.35635        -7.27941
| 45>    C        0.52880         6.69854        -7.80729
| 46>    C        0.68044         7.86406        -8.58715
| 47>    N       -0.33572         8.70487        -8.79665
| 48>    C        0.14864         9.68352        -9.56997
| 49>    C        1.56904         9.46144        -9.89874
| 50>    C        2.08862        10.57262       -10.72034
| 51>    O        3.21353        10.73747       -11.13768
| 52>    C        0.90585        11.43423       -10.87736
| 53>    C       -0.25164        10.86102       -10.16282
| 54>    N       -1.33828        11.65589       -10.29418
| 55>    C       -0.93459        12.66677       -11.03121
| 56>    C        0.45296        12.59299       -11.42677
| 57>    C        1.92338         8.29726        -9.27209
| 58>    C        3.16991         7.59918        -9.24944
| 59>    C        4.18379         7.86444       -10.09650
| 60>    C        5.43366         7.16656       -10.06283
| 61>    C        6.41668         7.12427       -11.04936
| 62>    O        7.45314         6.38543       -10.60361
| 63>    N        7.18717         5.94322        -9.36394
| 64>    C        6.01119         6.38328        -9.02310
| 65>    C        6.47116         7.67561       -12.39358
| 66>    O        5.55789         8.23173       -12.94608
| 67>    H       -6.15131        -0.08057        -4.25928
| 68>    H       -6.98769        -2.16136         0.23956
| 69>    H       -1.15322        -5.35166         1.81789
| 70>    H        0.51691        -3.71489         0.46548
| 71>    H       -4.48046         0.91975        -3.20814
| 72>    H       -1.51234         0.16176        -3.11040
| 73>    H       -0.03468         1.63508        -4.33040
| 74>    H        0.98306         4.18851        -6.17764
| 75>    H       -3.03783         5.49940        -6.29296
| 76>    H       -4.05532         2.93634        -4.47202
| 77>    H       -1.50933         7.01985        -7.49844
| 78>    H        1.39195         6.07135        -7.64547
| 79>    H       -1.61954        13.45609       -11.28874
| 80>    H        0.97206        13.31523       -12.02510
| 81>    H        3.26976         6.80204        -8.52407
| 82>    H        4.08265         8.62289       -10.86060
| 83>    H        5.61402         6.15274        -8.05560
| 84>    H        7.45075         7.51610       -12.87995
| 85> *
| 86>
| 87>                          ****END OF INPUT****

CARTESIAN COORDINATES (ANGSTROEM)
---------------------------------
  C     -6.757400   -0.370810   -3.425490
  N     -8.048450   -0.207690   -3.471530
  O     -8.568930   -0.693890   -2.338340
  C     -7.597780   -1.195660   -1.569540
  C     -7.898420   -1.798510   -0.265010
  O     -9.000360   -1.901160    0.199510
  C     -6.374610   -1.001720   -2.210600
  C     -5.075090   -1.402560   -1.752420
  N     -4.949350   -2.411570   -0.917400
  C     -3.614970   -2.582810   -0.742200
  C     -2.850710   -1.615650   -1.529550
  C     -1.410570   -1.816140   -1.327410
  O     -0.482140   -1.220130   -1.835990
  C     -1.369090   -2.930310   -0.358980
  C     -2.742760   -3.369560   -0.032480
  N     -2.720140   -4.379740    0.872290
  C     -1.452840   -4.585340    1.124500
  C     -0.552690   -3.708430    0.393420
  C     -3.779690   -0.816500   -2.164180
  C     -3.602400    0.343250   -2.959510
  C     -2.376790    0.755840   -3.379160
  C     -2.121760    1.909030   -4.154820
  N     -0.836390    2.197790   -4.561960
  C     -0.857970    3.339830   -5.292880
  C     -0.074020    4.225910   -6.012150
  C     -0.948670    5.220280   -6.493570
  N     -2.233660    4.937390   -6.070510
  C     -2.210650    3.794310   -5.343590
  C     -2.997790    2.898450   -4.636090
  C     -0.682790    6.356350   -7.279410
  C      0.528800    6.698540   -7.807290
  C      0.680440    7.864060   -8.587150
  N     -0.335720    8.704870   -8.796650
  C      0.148640    9.683520   -9.569970
  C      1.569040    9.461440   -9.898740
  C      2.088620   10.572620  -10.720340
  O      3.213530   10.737470  -11.137680
  C      0.905850   11.434230  -10.877360
  C     -0.251640   10.861020  -10.162820
  N     -1.338280   11.655890  -10.294180
  C     -0.934590   12.666770  -11.031210
  C      0.452960   12.592990  -11.426770
  C      1.923380    8.297260   -9.272090
  C      3.169910    7.599180   -9.249440
  C      4.183790    7.864440  -10.096500
  C      5.433660    7.166560  -10.062830
  C      6.416680    7.124270  -11.049360
  O      7.453140    6.385430  -10.603610
  N      7.187170    5.943220   -9.363940
  C      6.011190    6.383280   -9.023100
  C      6.471160    7.675610  -12.393580
  O      5.557890    8.231730  -12.946080
  H     -6.151310   -0.080570   -4.259280
  H     -6.987690   -2.161360    0.239560
  H     -1.153220   -5.351660    1.817890
  H      0.516910   -3.714890    0.465480
  H     -4.480460    0.919750   -3.208140
  H     -1.512340    0.161760   -3.110400
  H     -0.034680    1.635080   -4.330400
  H      0.983060    4.188510   -6.177640
  H     -3.037830    5.499400   -6.292960
  H     -4.055320    2.936340   -4.472020
  H     -1.509330    7.019850   -7.498440
  H      1.391950    6.071350   -7.645470
  H     -1.619540   13.456090  -11.288740
  H      0.972060   13.315230  -12.025100
  H      3.269760    6.802040   -8.524070
  H      4.082650    8.622890  -10.860600
  H      5.614020    6.152740   -8.055600
  H      7.450750    7.516100  -12.879950

 Total Charge           Charge          ....    0
 Multiplicity           Mult            ....    1
 Number of Electrons    NEL             ....  350
 Basis Dimension        Dim             ....  818

ORBITAL ENERGIES
----------------

  NO   OCC          E(Eh)            E(eV)
   0   2.0000     -19.344485      -526.3902
   1   2.0000     -19.324175      -525.8375
   2   2.0000     -19.232094      -523.3319
   3   2.0000     -19.227297      -523.2013
   4   2.0000     -19.224515      -523.1257
   5   2.0000     -19.199740      -522.4515
   6   2.0000     -14.487824      -394.2337
   7   2.0000     -14.482265      -394.0825
   8   2.0000     -14.481615      -394.0648
   9   2.0000     -14.472290      -393.8110
  10   2.0000     -14.432092      -392.7172
  11   2.0000     -14.418363      -392.3436
  12   2.0000     -14.396130      -391.7386
  13   2.0000     -14.391057      -391.6006
  14   2.0000     -10.386563      -282.6327
  15   2.0000     -10.375149      -282.3222
  16   2.0000     -10.371636      -282.2266
  17   2.0000     -10.370622      -282.1990
  18   2.0000     -10.367925      -282.1256
  19   2.0000     -10.360197      -281.9153
  20   2.0000     -10.346819      -281.5513
  21   2.0000     -10.344827      -281.4970
  22   2.0000     -10.338487      -281.3245
  23   2.0000     -10.337139      -281.2878
  24   2.0000     -10.336637      -281.2742
  25   2.0000     -10.334535      -281.2170
  26   2.0000     -10.332932      -281.1734
  27   2.0000     -10.330462      -281.1062
  28   2.0000     -10.326557      -280.9999
  29   2.0000     -10.323348      -280.9126
  30   2.0000     -10.323024      -280.9038
  31   2.0000     -10.321561      -280.8639
  32   2.0000     -10.321468      -280.8614
  33   2.0000     -10.317475      -280.7528
  34   2.0000     -10.311186      -280.5816
  35   2.0000     -10.308150      -280.4990
  36   2.0000     -10.306459      -280.4530
  37   2.0000     -10.305618      -280.4301
  38   2.0000     -10.304758      -280.4067
  39   2.0000     -10.303982      -280.3856
  40   2.0000     -10.301728      -280.3243
  41   2.0000     -10.301030      -280.3053
  42   2.0000     -10.299364      -280.2599
  43   2.0000     -10.298176      -280.2276
  44   2.0000     -10.293910      -280.1115
  45   2.0000     -10.291769      -280.0533
  46   2.0000     -10.290542      -280.0199
  47   2.0000     -10.289570      -279.9934
  48   2.0000     -10.287533      -279.9380
  49   2.0000     -10.283079      -279.8168
  50   2.0000     -10.274115      -279.5729
  51   2.0000     -10.273339      -279.5518
  52   2.0000      -1.287354       -35.0307
  53   2.0000      -1.263837       -34.3907
  54   2.0000      -1.145090       -31.1595
  55   2.0000      -1.140749       -31.0414
  56   2.0000      -1.137127       -30.9428
  57   2.0000      -1.115524       -30.3550
  58   2.0000      -1.114846       -30.3365
  59   2.0000      -1.096575       -29.8393
  60   2.0000      -1.078663       -29.3519
  61   2.0000      -1.074126       -29.2285
  62   2.0000      -1.066119       -29.0106
  63   2.0000      -1.044677       -28.4271
  64   2.0000      -0.987633       -26.8749
  65   2.0000      -0.970971       -26.4215
  66   2.0000      -0.957448       -26.0535
  67   2.0000      -0.939769       -25.5724
  68   2.0000      -0.933452       -25.4005
  69   2.0000      -0.931545       -25.3486
  70   2.0000      -0.927944       -25.2506
  71   2.0000      -0.912462       -24.8293
  72   2.0000      -0.897594       -24.4248
  73   2.0000      -0.893735       -24.3198
  74   2.0000      -0.886619       -24.1261
  75   2.0000      -0.872407       -23.7394
  76   2.0000      -0.864525       -23.5249
  77   2.0000      -0.844232       -22.9727
  78   2.0000      -0.833949       -22.6929
  79   2.0000      -0.816015       -22.2049
  80   2.0000      -0.811960       -22.0946
  81   2.0000      -0.789187       -21.4749
  82   2.0000      -0.773501       -21.0480
  83   2.0000      -0.770681       -20.9713
  84   2.0000      -0.759340       -20.6627
  85   2.0000      -0.747218       -20.3328
  86   2.0000      -0.745241       -20.2790
  87   2.0000      -0.734809       -19.9952
  88   2.0000      -0.727013       -19.7830
  89   2.0000      -0.719869       -19.5886
  90   2.0000      -0.716630       -19.5005
  91   2.0000      -0.707318       -19.2471
  92   2.0000      -0.701749       -19.0956
  93   2.0000      -0.691607       -18.8196
  94   2.0000      -0.677711       -18.4414
  95   2.0000      -0.671005       -18.2590
  96   2.0000      -0.665125       -18.0990
  97   2.0000      -0.660788       -17.9810
  98   2.0000      -0.646511       -17.5925
  99   2.0000      -0.644918       -17.5491
 100   2.0000      -0.636534       -17.3210
 101   2.0000      -0.628828       -17.1113
 102   2.0000      -0.617866       -16.8130
 103   2.0000      -0.614988       -16.7347
 104   2.0000      -0.607450       -16.5296
 105   2.0000      -0.606430       -16.5018
 106   2.0000      -0.605660       -16.4809
 107   2.0000      -0.597830       -16.2678
 108   2.0000      -0.592090       -16.1116
 109   2.0000      -0.588438       -16.0122
 110   2.0000      -0.584447       -15.9036
 111   2.0000      -0.580621       -15.7995
 112   2.0000      -0.574631       -15.6365
 113   2.0000      -0.566253       -15.4085
 114   2.0000      -0.562615       -15.3095
 115   2.0000      -0.560408       -15.2495
 116   2.0000      -0.559372       -15.2213
 117   2.0000      -0.555496       -15.1158
 118   2.0000      -0.548289       -14.9197
 119   2.0000      -0.543740       -14.7959
 120   2.0000      -0.539421       -14.6784
 121   2.0000      -0.537356       -14.6222
 122   2.0000      -0.534514       -14.5449
 123   2.0000      -0.530368       -14.4321
 124   2.0000      -0.527078       -14.3425
 125   2.0000      -0.524485       -14.2720
 126   2.0000      -0.522330       -14.2133
 127   2.0000      -0.519323       -14.1315
 128   2.0000      -0.512324       -13.9410
 129   2.0000      -0.510044       -13.8790
 130   2.0000      -0.507832       -13.8188
 131   2.0000      -0.504668       -13.7327
 132   2.0000      -0.501941       -13.6585
 133   2.0000      -0.498350       -13.5608
 134   2.0000      -0.497194       -13.5293
 135   2.0000      -0.490344       -13.3429
 136   2.0000      -0.489766       -13.3272
 137   2.0000      -0.487477       -13.2649
 138   2.0000      -0.483939       -13.1686
 139   2.0000      -0.482747       -13.1362
 140   2.0000      -0.480464       -13.0741
 141   2.0000      -0.476272       -12.9600
 142   2.0000      -0.474436       -12.9101
 143   2.0000      -0.470886       -12.8134
 144   2.0000      -0.466926       -12.7057
 145   2.0000      -0.462055       -12.5732
 146   2.0000      -0.461264       -12.5516
 147   2.0000      -0.448170       -12.1953
 148   2.0000      -0.445842       -12.1320
 149   2.0000      -0.426872       -11.6158
 150   2.0000      -0.425050       -11.5662
 151   2.0000      -0.415197       -11.2981
 152   2.0000      -0.407256       -11.0820
 153   2.0000      -0.404670       -11.0116
 154   2.0000      -0.386123       -10.5070
 155   2.0000      -0.384711       -10.4685
 156   2.0000      -0.380391       -10.3510
 157   2.0000      -0.380310       -10.3488
 158   2.0000      -0.374038       -10.1781
 159   2.0000      -0.367275        -9.9941
 160   2.0000      -0.353147        -9.6096
 161   2.0000      -0.350317        -9.5326
 162   2.0000      -0.349976        -9.5233
 163   2.0000      -0.348763        -9.4903
 164   2.0000      -0.343355        -9.3432
 165   2.0000      -0.342512        -9.3202
 166   2.0000      -0.340657        -9.2698
 167   2.0000      -0.336338        -9.1522
 168   2.0000      -0.328147        -8.9293
 169   2.0000      -0.319481        -8.6935
 170   2.0000      -0.318139        -8.6570
 171   2.0000      -0.313844        -8.5401
 172   2.0000      -0.299385        -8.1467
 173   2.0000      -0.280846        -7.6422
 174   2.0000      -0.243398        -6.6232
 175   0.0000      -0.130329        -3.5464
 176   0.0000      -0.109183        -2.9710
 177   0.0000      -0.071335        -1.9411
 178   0.0000      -0.056984        -1.5506
 179   0.0000      -0.052120        -1.4183

MULLIKEN ATOMIC CHARGES
-----------------------
   0 C :    0.007698
   1 N :    0.037826
   2 O :   -0.129695
   3 C :    0.068499
   4 C :    0.159774
   5 O :   -0.141772
   6 C :   -0.045976
   7 C :    0.044463
   8 N :   -0.039578
   9 C :    0.084191
  10 C :   -0.179862
  11 C :    0.222608
  12 O :   -0.153228
  13 C :   -0.006577
  14 C :   -0.041112
  15 N :   -0.045617
  16 C :    0.093483
  17 C :   -0.100336
  18 C :    0.070677
  19 C :   -0.077420
  20 C :    0.032371
  21 C :    0.100559
  22 N :   -0.025689
  23 C :    0.125662
  24 C :   -0.150643
  25 C :    0.109428
  26 N :   -0.025285
  27 C :    0.126402
  28 C :   -0.165886
  29 C :    0.052270
  30 C :   -0.075065
  31 C :    0.056021
  32 N :   -0.061374
  33 C :    0.064602
  34 C :   -0.154521
  35 C :    0.210188
  36 O :   -0.135515
  37 C :   -0.021605
  38 C :   -0.043428
  39 N :   -0.063370
  40 C :    0.081343
  41 C :   -0.098986
  42 C :    0.049975
  43 C :   -0.046027
  44 C :    0.052819
  45 C :   -0.046976
  46 C :    0.097334
  47 O :   -0.165178
  48 N :    0.030953
  49 C :    0.007243
  50 C :    0.155281
  51 O :   -0.150303
  52 H :    0.028817
  53 H :    0.020848
  54 H :    0.014969
  55 H :    0.000402
  56 H :   -0.024022
  57 H :   -0.007640
  58 H :    0.137914
  59 H :   -0.021417
  60 H :    0.132098
  61 H :   -0.023339
  62 H :    0.009773
  63 H :   -0.023314
  64 H :    0.000809
  65 H :   -0.011482
  66 H :   -0.033246
  67 H :    0.029623
  68 H :    0.015950
  69 H :    0.002612
Sum of atomic charges:   -0.0000000

LOEWDIN ATOMIC CHARGES
----------------------
   0 C :   -0.018909
   1 N :   -0.004983
   2 O :    0.070444
   3 C :    0.023637
   4 C :    0.093056
   5 O :   -0.093942
   6 C :   -0.090022
   7 C :    0.070297
   8 N :   -0.091825
   9 C :    0.047209
  10 C :   -0.066629
  11 C :    0.072911
  12 O :   -0.150461
  13 C :   -0.039976
  14 C :    0.025065
  15 N :   -0.091076
  16 C :    0.077949
  17 C :   -0.027490
  18 C :   -0.020564
  19 C :   -0.049371
  20 C :    0.012067
  21 C :    0.008110
  22 N :    0.078913
  23 C :   -0.010693
  24 C :   -0.065410
  25 C :   -0.005067
  26 N :    0.078711
  27 C :   -0.002215
  28 C :   -0.083691
  29 C :    0.046081
  30 C :   -0.064018
  31 C :    0.068106
  32 N :   -0.125725
  33 C :    0.044296
  34 C :   -0.035845
  35 C :    0.064947
  36 O :   -0.139578
  37 C :   -0.046064
  38 C :    0.007395
  39 N :   -0.103303
  40 C :    0.060792
  41 C :   -0.044705
  42 C :   -0.031544
  43 C :   -0.026692
  44 C :    0.016332
  45 C :   -0.054283
  46 C :   -0.019185
  47 O :    0.034294
  48 N :   -0.009347
  49 C :   -0.021217
  50 C :    0.096993
  51 O :   -0.107948
  52 H :    0.036457
  53 H :    0.013345
  54 H :    0.025854
  55 H :    0.036074
  56 H :    0.025928
  57 H :    0.033323
  58 H :    0.098650
  59 H :    0.028878
  60 H :    0.096563
  61 H :    0.027414
  62 H :    0.042801
  63 H :    0.025443
  64 H :    0.019898
  65 H :    0.031693
  66 H :    0.022257
  67 H :    0.041545
  68 H :    0.030899
  69 H :    0.007150

  Mayer bond orders larger than 0.100000
B(  0-C ,  1-N ) :   1.7297 B(  0-C ,  6-C ) :   1.2101 B(  0-C , 52-H ) :   0.9890
B(  1-N ,  2-O ) :   1.0401 B(  2-O ,  3-C ) :   1.1962 B(  3-C ,  4-C ) :   0.9761
B(  3-C ,  6-C ) :   1.4185 B(  4-C ,  5-O ) :   2.1997 B(  4-C , 53-H ) :   0.9529
B(  6-C ,  7-C ) :   1.0034 B(  7-C ,  8-N ) :   1.6460 B(  7-C ,  9-C ) :   0.1203
B(  7-C , 18-C ) :   1.0325 B(  8-N ,  9-C ) :   1.3065 B(  9-C , 10-C ) :   1.0698
B(  9-C , 14-C ) :   1.4452 B( 10-C , 11-C ) :   0.9098 B( 10-C , 18-C ) :   1.5040
B( 11-C , 12-O ) :   2.1639 B( 11-C , 13-C ) :   0.9324 B( 12-O , 57-H ) :   0.1129
B( 13-C , 14-C ) :   1.0629 B( 13-C , 17-C ) :   1.6182 B( 14-C , 15-N ) :   1.3045
B( 15-N , 16-C ) :   1.6690 B( 16-C , 17-C ) :   1.0542 B( 16-C , 54-H ) :   0.9894
B( 17-C , 55-H ) :   1.0116 B( 18-C , 19-C ) :   1.1405 B( 19-C , 20-C ) :   1.6212
B( 19-C , 56-H ) :   0.9663 B( 20-C , 21-C ) :   1.1187 B( 20-C , 57-H ) :   0.9414
B( 21-C , 22-N ) :   1.1842 B( 21-C , 28-C ) :   1.3730 B( 22-N , 23-C ) :   1.1712
B( 22-N , 58-H ) :   0.9312 B( 23-C , 24-C ) :   1.2955 B( 23-C , 27-C ) :   1.2665
B( 24-C , 25-C ) :   1.3478 B( 24-C , 59-H ) :   1.0318 B( 25-C , 26-N ) :   1.1618
B( 25-C , 29-C ) :   1.1291 B( 26-N , 27-C ) :   1.1870 B( 26-N , 60-H ) :   0.9342
B( 27-C , 28-C ) :   1.2774 B( 28-C , 61-H ) :   1.0323 B( 29-C , 30-C ) :   1.5707
B( 29-C , 62-H ) :   0.9727 B( 30-C , 31-C ) :   1.2009 B( 30-C , 63-H ) :   0.9624
B( 31-C , 32-N ) :   1.5311 B( 31-C , 33-C ) :   0.1067 B( 31-C , 42-C ) :   0.9955
B( 32-N , 33-C ) :   1.4051 B( 33-C , 34-C ) :   1.0516 B( 33-C , 38-C ) :   1.3686
B( 34-C , 35-C ) :   0.8868 B( 34-C , 42-C ) :   1.5777 B( 35-C , 36-O ) :   2.2193
B( 35-C , 37-C ) :   0.9266 B( 37-C , 38-C ) :   1.0793 B( 37-C , 41-C ) :   1.5737
B( 38-C , 39-N ) :   1.3368 B( 39-N , 40-C ) :   1.6304 B( 40-C , 41-C ) :   1.0985
B( 40-C , 64-H ) :   0.9893 B( 41-C , 65-H ) :   1.0110 B( 42-C , 43-C ) :   1.0965
B( 43-C , 44-C ) :   1.6996 B( 43-C , 66-H ) :   0.9657 B( 44-C , 45-C ) :   1.0886
B( 44-C , 67-H ) :   0.9513 B( 45-C , 46-C ) :   1.4592 B( 45-C , 49-C ) :   1.1920
B( 46-C , 47-O ) :   1.1337 B( 46-C , 48-N ) :   0.1004 B( 46-C , 50-C ) :   0.9997
B( 47-O , 48-N ) :   1.0397 B( 48-N , 49-C ) :   1.7307 B( 49-C , 68-H ) :   0.9874
B( 50-C , 51-O ) :   2.1713 B( 50-C , 69-H ) :   0.9480

-----------------------------------------------------------------------------
         ABSORPTION SPECTRUM VIA TRANSITION ELECTRIC DIPOLE MOMENTS
-----------------------------------------------------------------------------
State   Energy  Wavelength   fosc         T2         TX        TY        TZ
        (cm-1)    (nm)                  (au**2)     (au)      (au)      (au)
-----------------------------------------------------------------------------
   0   11293.4    885.5   0.710219878  20.70353   0.64260   3.61955  -2.68131
   1   15724.2    636.0   1.195794509  25.03586   1.26094   3.94996  -2.80066
   2   18960.3    527.4   0.168021314   2.91739  -0.32174   1.51314  -0.72407
   3   21770.2    459.3   0.006093685   0.09215  -0.11586  -0.18030   0.21498
   4   22064.6    453.2   0.002474275   0.03692  -0.08943   0.16931  -0.01589
   5   22199.2    450.5   0.108307660   1.60619  -0.78728  -0.70948   0.69500
   6   23497.1    425.6   0.072787662   1.01981   0.70038   0.47976  -0.54691
   7   24512.8    408.0   0.001236970   0.01661  -0.01208   0.07640  -0.10310
   8   24893.0    401.7   0.000217029   0.00287   0.02028   0.04546   0.01982
   9   25443.7    393.0   0.099695581   1.28995  -0.35725   0.78890  -0.73481
  10   25750.5    388.3   0.076638900   0.97980   0.52073   0.57088  -0.61866
  11   25798.2    387.6   0.003535405   0.04512  -0.12180  -0.13293   0.11230
  12   26333.7    379.7   0.079485471   0.99369  -0.80481  -0.09461   0.58054
  13   26536.5    376.8   0.098903751   1.22700   0.68186  -0.68622   0.53960
  14   26848.8    372.5   0.036691468   0.44990   0.54735   0.35052  -0.16566
  15   27274.8    366.6   0.060297940   0.72781  -0.73514   0.29459  -0.31716
  16   27532.4    363.2   0.158169870   1.89128  -1.22341   0.49846  -0.38222
  17   27861.7    358.9   0.292307472   3.45389  -1.50860   1.02218  -0.36493
  18   28263.2    353.8   0.013294562   0.15486   0.38081   0.05083  -0.08518
  19   29420.8    339.9   0.101804202   1.13916   1.04578  -0.17447  -0.12272
  20   29744.6    336.2   0.047697770   0.52792   0.49663  -0.36826   0.38165
  21   30234.9    330.7   0.357560011   3.89328  -1.43821   1.32611   0.25746
  22   30892.2    323.7   0.106537888   1.13535  -0.85426   0.60646   0.19444
  23   31447.9    318.0   0.043780791   0.45832   0.48871  -0.46589  -0.04931
  24   31562.9    316.8   0.000346161   0.00361   0.05670  -0.01966  -0.00302
  25   31686.5    315.6   0.020357971   0.21151   0.18817   0.21222  -0.36203
  26   32510.6    307.6   0.082915008   0.83962  -0.81980  -0.13292   0.38716
  27   33848.3    295.4   0.080208241   0.78011   0.85272   0.11968  -0.19662
  28   34209.6    292.3   0.028856927   0.27770  -0.33659  -0.29666   0.27640
  29   34721.9    288.0   0.024865412   0.23576   0.43675   0.11996  -0.17499
  30   34765.8    287.6   0.000633551   0.00600   0.07198   0.01675  -0.02319
  31   35336.1    283.0   0.002231090   0.02079   0.06837  -0.09501   0.08417
  32   35713.3    280.0   0.023584685   0.21741  -0.01555  -0.35038   0.30725
  33   35873.8    278.8   0.037172545   0.34113  -0.57746   0.08217  -0.03038
  34   36314.5    275.4   0.237563701   2.15365  -1.46097   0.06064   0.12470
  35   36693.2    272.5   0.012246770   0.10988  -0.18864  -0.21184   0.17152
  36   37057.3    269.9   0.038474177   0.34180   0.22656  -0.35229   0.40787
  37   37192.3    268.9   0.060165261   0.53256  -0.45741   0.43366  -0.36780
  38   37390.6    267.4   0.088077249   0.77549   0.78031  -0.25572   0.31813
  39   37612.3    265.9   0.044618951   0.39054   0.08811   0.42440  -0.45018
  40   38256.6    261.4   0.007857875   0.06762   0.14318   0.19368  -0.09803
  41   39188.5    255.2   0.040617809   0.34122  -0.32922   0.41469  -0.24672
  42   39358.4    254.1   0.231514482   1.93649  -0.70501   0.99366  -0.67238
  43   39660.8    252.1   0.032935949   0.27339  -0.43578  -0.23556   0.16733
  44   39945.8    250.3   0.002095083   0.01727   0.01648  -0.11718   0.05713
  45   40275.8    248.3   0.001789216   0.01462  -0.10196   0.03897  -0.05206

FINAL SINGLE POINT ENERGY     -2345.045152702997

DIPOLE MOMENT
-------------
                                X             Y             Z
Electronic contribution:     -7.20679      -7.09411       4.43122
Nuclear contribution   :      8.09919       5.67710      -3.13317
                        -----------------------------------------
Total Dipole Moment    :      0.89240      -1.41701       1.29805
                        -----------------------------------------
Magnitude (a.u.)       :      2.11878
Magnitude (Debye)      :      5.38550

Rotational constants in cm-1:     0.002901     0.000456     0.000400
Rotational constants in MHz :    86.983107    13.676420    11.998051

                             ****ORCA TERMINATED NORMALLY****
TOTAL RUN TIME: 0 days 0 hours 7 minutes 25 seconds 366 msec
