                         Program Version 4.2.0 -  RELEASE  -
|  1> # ORCA input file
|  2> # SCF done       -172.192269066897          0.000747692538
|  3> ! CAM-B3LYP def2-SVP def2/J RIJCOSX Grid4 TightSCF
|  4> %maxcore 5000
|  5> %tddft
|  6>     Mode sTDDFT
|  7>     Ethresh 5.0
|  8>     maxcore 5000
|  9> end
| 10>
| 11> %pal
| 12>   nprocs 6
| 13>   end
| 14> * xyz 0 1
| 15>    C       -1.78746         0.18654        -1.61277
| 16>    C       -2.14508        -0.06339        -2.91184
| 17>    C       -1.32051        -0.73474        -3.83964
| 18>    N       -0.69537        -1.26910        -4.64034
| 19>    C       -3.38800         0.25403        -3.50050
| 20>    N       -4.37568         0.45781        -4.04998
| 21>    C       -0.55020        -0.25176        -0.98193
| 22>    C       -0.63697         0.01130         0.40712
| 23>    C        0.37276        -0.29955         1.28592
| 24>    C        1.52803        -0.89181         0.76835
| 25>    C        1.61003        -1.14415        -0.62261
| 26>    C        0.58635        -0.83486        -1.51032
| 27>    S        3.12896        -1.87248        -1.03966
| 28>    C        3.62904        -1.83612         0.61564
| 29>    C        2.70821        -1.30412         1.44866
| 30>    C       -1.92977         0.64668         0.71300
| 31>    O       -2.32521         0.94072         1.82221
| 32>    C       -2.59685         0.84811        -0.59752
| 33>    C       -3.68044         1.62724        -0.89067
| 34>    C       -4.57204         2.33176        -0.05375
| 35>    C       -4.76497         2.32890         1.31732
| 36>    C       -5.78035         3.19539         1.70044
| 37>    C       -6.38793         3.87885         0.63171
| 38>    S       -5.69903         3.42293        -0.87169
| 39>    C       -7.38155         4.76098         1.06547
| 40>    C       -7.53160         4.74154         2.46091
| 41>    S       -6.45137         3.62910         3.24860
| 42>    C       -8.49629         5.63137         2.92988
| 43>    C       -9.08060         6.33316         1.89620
| 44>    S       -8.45358         5.89205         0.32463
| 45>    C      -10.05865         7.35191         1.98744
| 46>    N      -10.53702         7.99730         0.96674
| 47>    C      -11.40547         8.92866         1.35700
| 48>    C      -11.63287         9.03490         2.74053
| 49>    S      -10.68656         7.87011         3.57676
| 50>    N      -12.48042         9.98278         3.13555
| 51>    C      -12.94165        10.64258         2.11258
| 52>    S      -12.33759        10.10586         0.52443
| 53>    C      -13.84178        11.73127         2.22942
| 54>    C      -14.34435        12.24420         3.40810
| 55>    C      -15.18402        13.33207         3.17475
| 56>    C      -15.32545        13.65124         1.81592
| 57>    S      -14.40916        12.58929         0.81503
| 58>    C      -16.16920        14.74567         1.61645
| 59>    C      -16.66475        15.26338         2.82158
| 60>    S      -16.09392        14.38932         4.21411
| 61>    C      -17.49223        16.37140         2.65343
| 62>    C      -17.67635        16.68727         1.32204
| 63>    S      -16.75513        15.62605         0.26170
| 64>    C      -18.42090        17.78632         0.82019
| 65>    C      -18.91989        17.97161        -0.42779
| 66>    C      -19.11754        17.05934        -1.53746
| 67>    C      -19.47002        15.73997        -1.43461
| 68>    C      -19.76693        14.91935        -2.54111
| 69>    N      -20.00484        14.21197        -3.41297
| 70>    C      -19.66990        15.09407        -0.19649
| 71>    N      -19.88795        14.55487         0.79302
| 72>    C      -19.18007        17.86450        -2.74914
| 73>    C      -19.29033        19.23110        -2.37940
| 74>    C      -19.23630        19.34758        -0.91030
| 75>    O      -19.36175        20.34041        -0.23193
| 76>    C      -19.41226        20.23387        -3.31155
| 77>    C      -19.41332        19.87399        -4.66277
| 78>    C      -19.28753        18.50871        -5.01863
| 79>    C      -19.17395        17.49151        -4.07837
| 80>    S      -19.30164        18.30381        -6.74097
| 81>    C      -19.47916        20.00937        -6.96697
| 82>    C      -19.52317        20.70760        -5.81151
| 83>    H        0.27248        -0.08912         2.33942
| 84>    H        0.69952        -1.04269        -2.56108
| 85>    H        4.59827        -2.22127         0.86646
| 86>    H        2.84457        -1.19944         2.50980
| 87>    H       -3.89260         1.77242        -1.94397
| 88>    H       -4.18075         1.73042         1.99110
| 89>    H       -8.75658         5.77067         3.96292
| 90>    H      -14.09808        11.83592         4.36955
| 91>    H      -17.96854        16.90478         3.45513
| 92>    H      -18.53673        18.62374         1.50162
| 93>    H      -19.50435        21.26494        -3.00738
| 94>    H      -19.07302        16.46470        -4.38986
| 95>    H      -19.53997        20.38932        -7.96823
| 96>    H      -19.62929        21.77589        -5.75722
| 97> *
| 98>
| 99>                          ****END OF INPUT****

CARTESIAN COORDINATES (ANGSTROEM)
---------------------------------
  C     -1.787460    0.186540   -1.612770
  C     -2.145080   -0.063390   -2.911840
  C     -1.320510   -0.734740   -3.839640
  N     -0.695370   -1.269100   -4.640340
  C     -3.388000    0.254030   -3.500500
  N     -4.375680    0.457810   -4.049980
  C     -0.550200   -0.251760   -0.981930
  C     -0.636970    0.011300    0.407120
  C      0.372760   -0.299550    1.285920
  C      1.528030   -0.891810    0.768350
  C      1.610030   -1.144150   -0.622610
  C      0.586350   -0.834860   -1.510320
  S      3.128960   -1.872480   -1.039660
  C      3.629040   -1.836120    0.615640
  C      2.708210   -1.304120    1.448660
  C     -1.929770    0.646680    0.713000
  O     -2.325210    0.940720    1.822210
  C     -2.596850    0.848110   -0.597520
  C     -3.680440    1.627240   -0.890670
  C     -4.572040    2.331760   -0.053750
  C     -4.764970    2.328900    1.317320
  C     -5.780350    3.195390    1.700440
  C     -6.387930    3.878850    0.631710
  S     -5.699030    3.422930   -0.871690
  C     -7.381550    4.760980    1.065470
  C     -7.531600    4.741540    2.460910
  S     -6.451370    3.629100    3.248600
  C     -8.496290    5.631370    2.929880
  C     -9.080600    6.333160    1.896200
  S     -8.453580    5.892050    0.324630
  C    -10.058650    7.351910    1.987440
  N    -10.537020    7.997300    0.966740
  C    -11.405470    8.928660    1.357000
  C    -11.632870    9.034900    2.740530
  S    -10.686560    7.870110    3.576760
  N    -12.480420    9.982780    3.135550
  C    -12.941650   10.642580    2.112580
  S    -12.337590   10.105860    0.524430
  C    -13.841780   11.731270    2.229420
  C    -14.344350   12.244200    3.408100
  C    -15.184020   13.332070    3.174750
  C    -15.325450   13.651240    1.815920
  S    -14.409160   12.589290    0.815030
  C    -16.169200   14.745670    1.616450
  C    -16.664750   15.263380    2.821580
  S    -16.093920   14.389320    4.214110
  C    -17.492230   16.371400    2.653430
  C    -17.676350   16.687270    1.322040
  S    -16.755130   15.626050    0.261700
  C    -18.420900   17.786320    0.820190
  C    -18.919890   17.971610   -0.427790
  C    -19.117540   17.059340   -1.537460
  C    -19.470020   15.739970   -1.434610
  C    -19.766930   14.919350   -2.541110
  N    -20.004840   14.211970   -3.412970
  C    -19.669900   15.094070   -0.196490
  N    -19.887950   14.554870    0.793020
  C    -19.180070   17.864500   -2.749140
  C    -19.290330   19.231100   -2.379400
  C    -19.236300   19.347580   -0.910300
  O    -19.361750   20.340410   -0.231930
  C    -19.412260   20.233870   -3.311550
  C    -19.413320   19.873990   -4.662770
  C    -19.287530   18.508710   -5.018630
  C    -19.173950   17.491510   -4.078370
  S    -19.301640   18.303810   -6.740970
  C    -19.479160   20.009370   -6.966970
  C    -19.523170   20.707600   -5.811510
  H      0.272480   -0.089120    2.339420
  H      0.699520   -1.042690   -2.561080
  H      4.598270   -2.221270    0.866460
  H      2.844570   -1.199440    2.509800
  H     -3.892600    1.772420   -1.943970
  H     -4.180750    1.730420    1.991100
  H     -8.756580    5.770670    3.962920
  H    -14.098080   11.835920    4.369550
  H    -17.968540   16.904780    3.455130
  H    -18.536730   18.623740    1.501620
  H    -19.504350   21.264940   -3.007380
  H    -19.073020   16.464700   -4.389860
  H    -19.539970   20.389320   -7.968230
  H    -19.629290   21.775890   -5.757220

 Total Charge           Charge          ....    0
 Multiplicity           Mult            ....    1
 Number of Electrons    NEL             ....  532
 Basis Dimension        Dim             .... 1062

ORBITAL ENERGIES
----------------

  NO   OCC          E(Eh)            E(eV)
   0   2.0000     -88.978525     -2421.2288
   1   2.0000     -88.977686     -2421.2059
   2   2.0000     -88.977585     -2421.2032
   3   2.0000     -88.975804     -2421.1547
   4   2.0000     -88.974664     -2421.1237
   5   2.0000     -88.973086     -2421.0808
   6   2.0000     -88.970749     -2421.0172
   7   2.0000     -88.969564     -2420.9849
   8   2.0000     -88.966633     -2420.9051
   9   2.0000     -88.965666     -2420.8789
  10   2.0000     -19.218352      -522.9579
  11   2.0000     -19.213859      -522.8357
  12   2.0000     -14.432034      -392.7156
  13   2.0000     -14.429902      -392.6576
  14   2.0000     -14.414929      -392.2502
  15   2.0000     -14.413158      -392.2020
  16   2.0000     -14.411781      -392.1645
  17   2.0000     -14.410989      -392.1430
  18   2.0000     -10.369292      -282.1628
  19   2.0000     -10.365756      -282.0666
  20   2.0000     -10.359416      -281.8940
  21   2.0000     -10.359276      -281.8902
  22   2.0000     -10.342455      -281.4325
  23   2.0000     -10.340600      -281.3820
  24   2.0000     -10.339363      -281.3484
  25   2.0000     -10.338798      -281.3330
  26   2.0000     -10.338415      -281.3226
  27   2.0000     -10.337636      -281.3014
  28   2.0000     -10.327084      -281.0142
  29   2.0000     -10.326379      -280.9950
  30   2.0000     -10.324997      -280.9574
  31   2.0000     -10.324759      -280.9510
  32   2.0000     -10.323245      -280.9098
  33   2.0000     -10.322427      -280.8875
  34   2.0000     -10.322340      -280.8851
  35   2.0000     -10.321119      -280.8519
  36   2.0000     -10.320869      -280.8451
  37   2.0000     -10.320481      -280.8346
  38   2.0000     -10.320022      -280.8221
  39   2.0000     -10.319706      -280.8135
  40   2.0000     -10.319472      -280.8071
  41   2.0000     -10.318848      -280.7901
  42   2.0000     -10.317233      -280.7462
  43   2.0000     -10.316467      -280.7253
  44   2.0000     -10.316095      -280.7152
  45   2.0000     -10.314949      -280.6840
  46   2.0000     -10.314880      -280.6822
  47   2.0000     -10.313870      -280.6547
  48   2.0000     -10.313511      -280.6449
  49   2.0000     -10.313221      -280.6370
  50   2.0000     -10.306988      -280.4674
  51   2.0000     -10.306212      -280.4463
  52   2.0000     -10.304662      -280.4041
  53   2.0000     -10.303374      -280.3691
  54   2.0000     -10.303294      -280.3669
  55   2.0000     -10.301950      -280.3303
  56   2.0000     -10.301600      -280.3208
  57   2.0000     -10.300768      -280.2981
  58   2.0000     -10.299275      -280.2575
  59   2.0000     -10.299082      -280.2523
  60   2.0000     -10.298767      -280.2437
  61   2.0000     -10.297864      -280.2191
  62   2.0000     -10.297320      -280.2043
  63   2.0000     -10.296024      -280.1691
  64   2.0000     -10.291162      -280.0368
  65   2.0000     -10.289010      -279.9782
  66   2.0000     -10.288953      -279.9766
  67   2.0000     -10.288466      -279.9634
  68   2.0000      -8.073727      -219.6973
  69   2.0000      -8.073633      -219.6947
  70   2.0000      -8.073378      -219.6878
  71   2.0000      -8.070491      -219.6092
  72   2.0000      -8.069372      -219.5788
  73   2.0000      -8.068330      -219.5504
  74   2.0000      -8.065910      -219.4846
  75   2.0000      -8.064846      -219.4556
  76   2.0000      -8.062903      -219.4027
  77   2.0000      -8.061975      -219.3775
  78   2.0000      -6.043278      -164.4460
  79   2.0000      -6.042791      -164.4327
  80   2.0000      -6.042530      -164.4256
  81   2.0000      -6.040104      -164.3596
  82   2.0000      -6.039236      -164.3360
  83   2.0000      -6.039115      -164.3327
  84   2.0000      -6.038989      -164.3292
  85   2.0000      -6.038928      -164.3276
  86   2.0000      -6.037738      -164.2952
  87   2.0000      -6.035939      -164.2463
  88   2.0000      -6.035651      -164.2384
  89   2.0000      -6.035388      -164.2312
  90   2.0000      -6.035234      -164.2271
  91   2.0000      -6.035082      -164.2229
  92   2.0000      -6.034866      -164.2170
  93   2.0000      -6.034555      -164.2086
  94   2.0000      -6.033784      -164.1876
  95   2.0000      -6.032422      -164.1505
  96   2.0000      -6.032012      -164.1394
  97   2.0000      -6.031789      -164.1333
  98   2.0000      -6.031470      -164.1246
  99   2.0000      -6.030871      -164.1083
 100   2.0000      -6.030741      -164.1048
 101   2.0000      -6.030009      -164.0849
 102   2.0000      -6.028104      -164.0330
 103   2.0000      -6.027192      -164.0082
 104   2.0000      -6.026861      -163.9992
 105   2.0000      -6.025786      -163.9700
 106   2.0000      -6.024576      -163.9370
 107   2.0000      -6.023635      -163.9114
 108   2.0000      -1.133220       -30.8365
 109   2.0000      -1.129258       -30.7287
 110   2.0000      -1.103366       -30.0241
 111   2.0000      -1.064069       -28.9548
 112   2.0000      -1.033410       -28.1205
 113   2.0000      -1.031641       -28.0724
 114   2.0000      -1.019684       -27.7470
 115   2.0000      -1.018393       -27.7119
 116   2.0000      -1.007145       -27.4058
 117   2.0000      -1.006711       -27.3940
 118   2.0000      -0.995765       -27.0962
 119   2.0000      -0.992863       -27.0172
 120   2.0000      -0.991126       -26.9699
 121   2.0000      -0.989524       -26.9263
 122   2.0000      -0.983939       -26.7743
 123   2.0000      -0.982994       -26.7486
 124   2.0000      -0.945667       -25.7329
 125   2.0000      -0.944070       -25.6895
 126   2.0000      -0.928579       -25.2679
 127   2.0000      -0.927718       -25.2445
 128   2.0000      -0.921776       -25.0828
 129   2.0000      -0.901925       -24.5426
 130   2.0000      -0.899981       -24.4897
 131   2.0000      -0.893122       -24.3031
 132   2.0000      -0.884171       -24.0595
 133   2.0000      -0.881944       -23.9989
 134   2.0000      -0.880396       -23.9568
 135   2.0000      -0.879728       -23.9386
 136   2.0000      -0.871724       -23.7208
 137   2.0000      -0.863381       -23.4938
 138   2.0000      -0.848861       -23.0987
 139   2.0000      -0.847127       -23.0515
 140   2.0000      -0.842911       -22.9368
 141   2.0000      -0.822918       -22.3927
 142   2.0000      -0.822016       -22.3682
 143   2.0000      -0.819230       -22.2924
 144   2.0000      -0.806577       -21.9481
 145   2.0000      -0.802207       -21.8291
 146   2.0000      -0.792513       -21.5654
 147   2.0000      -0.782136       -21.2830
 148   2.0000      -0.762742       -20.7553
 149   2.0000      -0.756740       -20.5919
 150   2.0000      -0.753657       -20.5080
 151   2.0000      -0.741401       -20.1745
 152   2.0000      -0.720542       -19.6070
 153   2.0000      -0.708895       -19.2900
 154   2.0000      -0.695847       -18.9350
 155   2.0000      -0.690451       -18.7881
 156   2.0000      -0.687251       -18.7011
 157   2.0000      -0.685487       -18.6531
 158   2.0000      -0.682001       -18.5582
 159   2.0000      -0.677555       -18.4372
 160   2.0000      -0.665262       -18.1027
 161   2.0000      -0.661612       -18.0034
 162   2.0000      -0.661221       -17.9927
 163   2.0000      -0.659287       -17.9401
 164   2.0000      -0.658134       -17.9087
 165   2.0000      -0.646199       -17.5840
 166   2.0000      -0.642757       -17.4903
 167   2.0000      -0.641173       -17.4472
 168   2.0000      -0.634749       -17.2724
 169   2.0000      -0.620416       -16.8824
 170   2.0000      -0.618609       -16.8332
 171   2.0000      -0.613584       -16.6965
 172   2.0000      -0.605127       -16.4663
 173   2.0000      -0.596643       -16.2355
 174   2.0000      -0.595727       -16.2106
 175   2.0000      -0.591436       -16.0938
 176   2.0000      -0.587874       -15.9969
 177   2.0000      -0.576332       -15.6828
 178   2.0000      -0.573649       -15.6098
 179   2.0000      -0.563640       -15.3374
 180   2.0000      -0.558143       -15.1878
 181   2.0000      -0.555338       -15.1115
 182   2.0000      -0.552433       -15.0325
 183   2.0000      -0.549730       -14.9589
 184   2.0000      -0.547830       -14.9072
 185   2.0000      -0.539861       -14.6904
 186   2.0000      -0.539104       -14.6698
 187   2.0000      -0.537700       -14.6316
 188   2.0000      -0.534405       -14.5419
 189   2.0000      -0.533269       -14.5110
 190   2.0000      -0.531981       -14.4759
 191   2.0000      -0.530426       -14.4336
 192   2.0000      -0.528862       -14.3911
 193   2.0000      -0.527336       -14.3495
 194   2.0000      -0.521734       -14.1971
 195   2.0000      -0.519291       -14.1306
 196   2.0000      -0.515669       -14.0321
 197   2.0000      -0.513163       -13.9639
 198   2.0000      -0.508571       -13.8389
 199   2.0000      -0.504732       -13.7345
 200   2.0000      -0.500924       -13.6308
 201   2.0000      -0.499377       -13.5888
 202   2.0000      -0.496975       -13.5234
 203   2.0000      -0.494709       -13.4617
 204   2.0000      -0.493503       -13.4289
 205   2.0000      -0.491333       -13.3699
 206   2.0000      -0.491061       -13.3625
 207   2.0000      -0.489596       -13.3226
 208   2.0000      -0.486127       -13.2282
 209   2.0000      -0.482539       -13.1306
 210   2.0000      -0.478002       -13.0071
 211   2.0000      -0.475920       -12.9504
 212   2.0000      -0.469821       -12.7845
 213   2.0000      -0.468868       -12.7586
 214   2.0000      -0.466742       -12.7007
 215   2.0000      -0.464188       -12.6312
 216   2.0000      -0.456972       -12.4348
 217   2.0000      -0.455516       -12.3952
 218   2.0000      -0.452677       -12.3180
 219   2.0000      -0.449507       -12.2317
 220   2.0000      -0.446710       -12.1556
 221   2.0000      -0.445615       -12.1258
 222   2.0000      -0.441203       -12.0057
 223   2.0000      -0.440819       -11.9953
 224   2.0000      -0.439552       -11.9608
 225   2.0000      -0.435337       -11.8461
 226   2.0000      -0.433966       -11.8088
 227   2.0000      -0.433785       -11.8039
 228   2.0000      -0.431908       -11.7528
 229   2.0000      -0.431082       -11.7303
 230   2.0000      -0.430341       -11.7102
 231   2.0000      -0.428776       -11.6676
 232   2.0000      -0.425157       -11.5691
 233   2.0000      -0.424602       -11.5540
 234   2.0000      -0.423339       -11.5196
 235   2.0000      -0.422336       -11.4924
 236   2.0000      -0.420607       -11.4453
 237   2.0000      -0.419188       -11.4067
 238   2.0000      -0.417337       -11.3563
 239   2.0000      -0.405959       -11.0467
 240   2.0000      -0.405652       -11.0384
 241   2.0000      -0.402242       -10.9456
 242   2.0000      -0.400354       -10.8942
 243   2.0000      -0.396034       -10.7766
 244   2.0000      -0.385909       -10.5011
 245   2.0000      -0.385647       -10.4940
 246   2.0000      -0.380779       -10.3615
 247   2.0000      -0.374951       -10.2029
 248   2.0000      -0.369216       -10.0469
 249   2.0000      -0.356230        -9.6935
 250   2.0000      -0.354195        -9.6381
 251   2.0000      -0.347218        -9.4483
 252   2.0000      -0.345342        -9.3972
 253   2.0000      -0.340834        -9.2746
 254   2.0000      -0.337296        -9.1783
 255   2.0000      -0.334552        -9.1036
 256   2.0000      -0.329676        -8.9709
 257   2.0000      -0.313372        -8.5273
 258   2.0000      -0.313071        -8.5191
 259   2.0000      -0.304977        -8.2988
 260   2.0000      -0.297059        -8.0834
 261   2.0000      -0.295048        -8.0287
 262   2.0000      -0.294062        -8.0018
 263   2.0000      -0.291617        -7.9353
 264   2.0000      -0.271751        -7.3947
 265   2.0000      -0.247150        -6.7253
 266   0.0000      -0.098923        -2.6918
 267   0.0000      -0.091448        -2.4884
 268   0.0000      -0.066306        -1.8043
 269   0.0000      -0.058396        -1.5890
 270   0.0000      -0.048940        -1.3317

MULLIKEN ATOMIC CHARGES
-----------------------
   0 C :    0.296735
   1 C :   -0.351578
   2 C :   -0.184030
   3 N :    0.148040
   4 C :   -0.201586
   5 N :    0.160684
   6 C :    0.014960
   7 C :   -0.007763
   8 C :   -0.073562
   9 C :    0.116018
  10 C :   -0.094200
  11 C :   -0.023743
  12 S :    0.140944
  13 C :   -0.047870
  14 C :    0.023576
  15 C :    0.155936
  16 O :   -0.162685
  17 C :   -0.088637
  18 C :    0.043735
  19 C :   -0.113872
  20 C :    0.000557
  21 C :   -0.043100
  22 C :   -0.058654
  23 S :    0.169292
  24 C :   -0.089164
  25 C :   -0.020375
  26 S :    0.171901
  27 C :   -0.049713
  28 C :   -0.042634
  29 S :    0.221821
  30 C :   -0.097966
  31 N :   -0.037805
  32 C :   -0.058950
  33 C :   -0.051548
  34 S :    0.120791
  35 N :   -0.032879
  36 C :   -0.102784
  37 S :    0.133681
  38 C :   -0.034848
  39 C :   -0.034744
  40 C :   -0.020997
  41 C :   -0.071234
  42 S :    0.168292
  43 C :   -0.062889
  44 C :   -0.020003
  45 S :    0.175163
  46 C :    0.016020
  47 C :   -0.101543
  48 S :    0.168320
  49 C :    0.051930
  50 C :   -0.132927
  51 C :    0.239176
  52 C :   -0.318087
  53 C :   -0.178544
  54 N :    0.156870
  55 C :   -0.204088
  56 N :    0.174057
  57 C :    0.004191
  58 C :   -0.001356
  59 C :    0.138686
  60 O :   -0.143204
  61 C :   -0.064228
  62 C :    0.104706
  63 C :   -0.090391
  64 C :   -0.020474
  65 S :    0.140381
  66 C :   -0.050651
  67 C :    0.025678
  68 H :   -0.013168
  69 H :   -0.005178
  70 H :    0.037949
  71 H :   -0.006646
  72 H :    0.016219
  73 H :    0.019470
  74 H :    0.000872
  75 H :    0.004199
  76 H :    0.000088
  77 H :    0.027835
  78 H :   -0.010091
  79 H :   -0.001928
  80 H :    0.038793
  81 H :   -0.005250
Sum of atomic charges:    0.0000000

LOEWDIN ATOMIC CHARGES
----------------------
   0 C :    0.077281
   1 C :   -0.143563
   2 C :   -0.017938
   3 N :   -0.054998
   4 C :   -0.026412
   5 N :   -0.051195
   6 C :   -0.022702
   7 C :   -0.052840
   8 C :    0.022401
   9 C :   -0.035270
  10 C :   -0.145448
  11 C :   -0.008705
  12 S :    0.429873
  13 C :   -0.149552
  14 C :   -0.058212
  15 C :    0.088761
  16 O :   -0.145950
  17 C :   -0.096436
  18 C :    0.045928
  19 C :   -0.173533
  20 C :   -0.014991
  21 C :   -0.194253
  22 C :   -0.198341
  23 S :    0.447319
  24 C :   -0.218895
  25 C :   -0.181273
  26 S :    0.416623
  27 C :   -0.061820
  28 C :   -0.184600
  29 S :    0.472632
  30 C :   -0.131928
  31 N :   -0.102783
  32 C :   -0.211614
  33 C :   -0.208083
  34 S :    0.411156
  35 N :   -0.099422
  36 C :   -0.130666
  37 S :    0.411013
  38 C :   -0.190473
  39 C :   -0.034254
  40 C :   -0.182189
  41 C :   -0.213109
  42 S :    0.435823
  43 C :   -0.196483
  44 C :   -0.191260
  45 S :    0.421426
  46 C :   -0.019040
  47 C :   -0.172144
  48 S :    0.457575
  49 C :    0.048100
  50 C :   -0.095074
  51 C :    0.059053
  52 C :   -0.140712
  53 C :   -0.020188
  54 N :   -0.050143
  55 C :   -0.035000
  56 N :   -0.047225
  57 C :   -0.018785
  58 C :   -0.055580
  59 C :    0.083894
  60 O :   -0.143678
  61 C :    0.024279
  62 C :   -0.036139
  63 C :   -0.144594
  64 C :   -0.011595
  65 S :    0.429667
  66 C :   -0.149952
  67 C :   -0.057516
  68 H :    0.039684
  69 H :    0.040834
  70 H :    0.029227
  71 H :    0.035210
  72 H :    0.043900
  73 H :    0.038684
  74 H :    0.033346
  75 H :    0.042668
  76 H :    0.041331
  77 H :    0.052157
  78 H :    0.040892
  79 H :    0.040792
  80 H :    0.029412
  81 H :    0.035621

  Mayer bond orders larger than 0.100000
B(  0-C ,  1-C ) :   1.6315 B(  0-C ,  6-C ) :   0.9997 B(  0-C , 17-C ) :   1.0729
B(  1-C ,  2-C ) :   1.1427 B(  1-C ,  4-C ) :   1.1374 B(  2-C ,  3-N ) :   2.9738
B(  4-C ,  5-N ) :   2.9915 B(  6-C ,  7-C ) :   1.2699 B(  6-C , 11-C ) :   1.4121
B(  7-C ,  8-C ) :   1.4207 B(  7-C , 15-C ) :   0.9576 B(  8-C ,  9-C ) :   1.2449
B(  8-C , 68-H ) :   1.0176 B(  9-C , 10-C ) :   1.3019 B(  9-C , 14-C ) :   1.1716
B( 10-C , 11-C ) :   1.3221 B( 10-C , 12-S ) :   1.0992 B( 11-C , 69-H ) :   0.9832
B( 12-S , 13-C ) :   1.1270 B( 13-C , 14-C ) :   1.6289 B( 13-C , 70-H ) :   0.9682
B( 14-C , 71-H ) :   0.9998 B( 15-C , 16-O ) :   2.1614 B( 15-C , 17-C ) :   0.9423
B( 17-C , 18-C ) :   1.5983 B( 18-C , 19-C ) :   1.2167 B( 18-C , 72-H ) :   0.9186
B( 19-C , 20-C ) :   1.4552 B( 19-C , 23-S ) :   1.0662 B( 20-C , 21-C ) :   1.2930
B( 20-C , 73-H ) :   0.9770 B( 21-C , 22-C ) :   1.4123 B( 21-C , 26-S ) :   1.0452
B( 22-C , 23-S ) :   1.1049 B( 22-C , 24-C ) :   1.3123 B( 24-C , 25-C ) :   1.4507
B( 24-C , 29-S ) :   1.0681 B( 25-C , 26-S ) :   1.0560 B( 25-C , 27-C ) :   1.2938
B( 27-C , 28-C ) :   1.5037 B( 27-C , 74-H ) :   0.9900 B( 28-C , 29-S ) :   1.1061
B( 28-C , 30-C ) :   1.1502 B( 30-C , 31-N ) :   1.7260 B( 30-C , 34-S ) :   1.0880
B( 31-N , 32-C ) :   1.3986 B( 32-C , 33-C ) :   1.3038 B( 32-C , 37-S ) :   1.0994
B( 33-C , 34-S ) :   1.0970 B( 33-C , 35-N ) :   1.3977 B( 35-N , 36-C ) :   1.7328
B( 36-C , 37-S ) :   1.0866 B( 36-C , 38-C ) :   1.1098 B( 38-C , 39-C ) :   1.5242
B( 38-C , 42-S ) :   1.0948 B( 39-C , 40-C ) :   1.2519 B( 39-C , 75-H ) :   1.0135
B( 40-C , 41-C ) :   1.4421 B( 40-C , 45-S ) :   1.0579 B( 41-C , 42-S ) :   1.0793
B( 41-C , 43-C ) :   1.3233 B( 43-C , 44-C ) :   1.4296 B( 43-C , 48-S ) :   1.0910
B( 44-C , 45-S ) :   1.0471 B( 44-C , 46-C ) :   1.2850 B( 46-C , 47-C ) :   1.4633
B( 46-C , 76-H ) :   1.0043 B( 47-C , 48-S ) :   1.0858 B( 47-C , 49-C ) :   1.1277
B( 49-C , 50-C ) :   1.6661 B( 49-C , 77-H ) :   0.9485 B( 50-C , 51-C ) :   1.0280
B( 50-C , 59-C ) :   0.9349 B( 51-C , 52-C ) :   1.6621 B( 51-C , 57-C ) :   1.0162
B( 52-C , 53-C ) :   1.1363 B( 52-C , 55-C ) :   1.1488 B( 53-C , 54-N ) :   2.9945
B( 55-C , 56-N ) :   3.0270 B( 57-C , 58-C ) :   1.2697 B( 57-C , 64-C ) :   1.4203
B( 58-C , 59-C ) :   0.9248 B( 58-C , 61-C ) :   1.4235 B( 59-C , 60-O ) :   2.2716
B( 61-C , 62-C ) :   1.2569 B( 61-C , 78-H ) :   1.0162 B( 62-C , 63-C ) :   1.3039
B( 62-C , 67-C ) :   1.1707 B( 63-C , 64-C ) :   1.3173 B( 63-C , 65-S ) :   1.0966
B( 64-C , 79-H ) :   0.9875 B( 65-S , 66-C ) :   1.1265 B( 66-C , 67-C ) :   1.6286
B( 66-C , 80-H ) :   0.9690 B( 67-C , 81-H ) :   1.0000

-----------------------------------------------------------------------------
         ABSORPTION SPECTRUM VIA TRANSITION ELECTRIC DIPOLE MOMENTS
-----------------------------------------------------------------------------
State   Energy  Wavelength   fosc         T2         TX        TY        TZ
        (cm-1)    (nm)                  (au**2)     (au)      (au)      (au)
-----------------------------------------------------------------------------
   0   17985.0    556.0   2.626822437  48.08343  -5.02786   4.76278  -0.34627
   1   20572.3    486.1   0.691268827  11.06215   1.60392  -1.53452  -2.47687
   2   25436.8    393.1   0.236248561   3.05761   0.68453  -1.57382   0.33482
   3   25926.3    385.7   0.023883089   0.30327   0.45669  -0.16421  -0.26026
   4   26718.7    374.3   0.098584644   1.21470   0.21033  -0.03316  -1.08137
   5   26966.9    370.8   0.030473427   0.37202   0.43199  -0.20481  -0.37876
   6   27446.2    364.3   0.145617995   1.74666  -0.61063   1.15913  -0.17383
   7   27537.8    363.1   0.111178551   1.32913   0.20422  -0.48590   1.02534
   8   28230.2    354.2   0.113505836   1.32367   1.12701   0.23090  -0.01449
   9   28849.3    346.6   0.236056681   2.69374  -1.15215   0.60579  -0.99966
  10   29507.6    338.9   0.132937606   1.48317  -0.60817   1.05441  -0.03891
  11   29793.4    335.6   0.057520289   0.63559   0.20228   0.42275  -0.64495
  12   30178.2    331.4   0.142727427   1.55700  -0.86941   0.49604  -0.74504
  13   30425.1    328.7   0.014147795   0.15308   0.11192   0.06217   0.36972
  14   30761.4    325.1   0.048041966   0.51415  -0.03570  -0.39388   0.59811
  15   32922.1    303.7   0.075852889   0.75851   0.30390  -0.80488  -0.13537
  16   33265.9    300.6   0.168845682   1.67096  -0.38976  -0.74901  -0.97879
  17   33674.1    297.0   0.463731023   4.53363  -1.07193   1.02864  -1.52529
  18   33833.2    295.6   0.068658277   0.66807   0.10187   0.27915  -0.76143
  19   33899.6    295.0   0.186653211   1.81266  -1.33283  -0.18944  -0.01810
  20   34099.5    293.3   0.170626165   1.64730   0.89197  -0.29860   0.87323
  21   34180.2    292.6   0.013179894   0.12694   0.07208   0.04172  -0.34642
  22   34476.6    290.1   0.151221485   1.44399  -0.19125   0.68021  -0.97197
  23   34636.8    288.7   0.312247218   2.96782  -0.17790  -1.04384   1.35888
  24   35560.1    281.2   0.020381388   0.18869   0.25943  -0.24768  -0.24503
  25   36055.0    277.4   0.035099823   0.32049   0.37320  -0.42464   0.02994
  26   36761.8    272.0   0.023948958   0.21447  -0.10139   0.03632   0.45041
  27   36979.5    270.4   0.000942194   0.00839   0.04244   0.07311   0.03525
  28   37394.6    267.4   0.020125715   0.17718   0.08290  -0.10792   0.39832
  29   37627.8    265.8   0.006886313   0.06025  -0.00416  -0.14741  -0.19622
  30   38018.2    263.0   0.101307177   0.87725   0.18303   0.11258  -0.91164
  31   38099.3    262.5   0.001058132   0.00914   0.04267  -0.03233  -0.07923
  32   38427.2    260.2   0.023133009   0.19818  -0.20251   0.05975   0.39192
  33   38779.5    257.9   0.106752373   0.90626  -0.06627   0.60730  -0.73010
  34   38803.8    257.7   0.005885269   0.04993   0.02991   0.01336   0.22104
  35   38986.9    256.5   0.273217630   2.30710  -0.23090   0.89775   1.20325
  36   39368.2    254.0   0.022362926   0.18701   0.17549   0.21223   0.33342
  37   39435.9    253.6   0.059549115   0.49712  -0.08060  -0.30907   0.62857
  38   40094.0    249.4   0.054071513   0.44398   0.58302   0.01110  -0.32241
  39   40206.8    248.7   0.082295045   0.67383  -0.15289   0.64595   0.48291

FINAL SINGLE POINT ENERGY     -6370.335835512689

DIPOLE MOMENT
-------------
                                X             Y             Z
Electronic contribution:     -9.30512      -4.02685       5.14857
Nuclear contribution   :     11.10703       6.11890      -3.24597
                        -----------------------------------------
Total Dipole Moment    :      1.80191       2.09206       1.90260
                        -----------------------------------------
Magnitude (a.u.)       :      3.35313
Magnitude (Debye)      :      8.52297

Rotational constants in cm-1:     0.001914     0.000148     0.000140
Rotational constants in MHz :    57.381568     4.434821     4.193906

                             ****ORCA TERMINATED NORMALLY****
TOTAL RUN TIME: 0 days 0 hours 10 minutes 15 seconds 287 msec
