                         Program Version 4.2.0 -  RELEASE  -
|  1> # ORCA input file
|  2> # SCF done       -196.941206270828          0.000871640273
|  3> ! CAM-B3LYP def2-SVP def2/J RIJCOSX Grid4 TightSCF
|  4> %maxcore 5000
|  5> %tddft
|  6>     Mode sTDDFT
|  7>     Ethresh 5.0
|  8>     maxcore 5000
|  9> end
| 10>
| 11> %pal
| 12>   nprocs 6
| 13>   end
| 14> * xyz 0 1
| 15>    C        2.19285         3.40682        -4.83142
| 16>    C        2.86555         4.58220        -4.62321
| 17>    C        3.53393         5.29160        -5.64028
| 18>    N        4.08017         5.91063        -6.43767
| 19>    C        3.03969         5.14903        -3.34354
| 20>    N        3.24178         5.60024        -2.30770
| 21>    C        2.23747         2.60903        -6.05097
| 22>    C        1.90898         1.26136        -5.71923
| 23>    C        1.91498         0.27179        -6.65953
| 24>    C        2.24300         0.59285        -7.99630
| 25>    C        2.55493         1.94122        -8.33618
| 26>    C        2.54935         2.94490        -7.34019
| 27>    C        2.87293         2.24778        -9.67480
| 28>    C        2.88643         1.27093       -10.63286
| 29>    C        2.58105        -0.05646       -10.29722
| 30>    C        2.26667        -0.38814        -9.00726
| 31>    C        1.57852         1.17717        -4.28466
| 32>    O        1.30738         0.19450        -3.63406
| 33>    C        1.57802         2.59005        -3.80591
| 34>    C        0.95421         2.90435        -2.64002
| 35>    C        0.45004         4.15288        -2.20164
| 36>    C        0.08877         4.46372        -0.90230
| 37>    C       -0.44131         5.74460        -0.79481
| 38>    C       -0.53035         6.42017        -2.02360
| 39>    S        0.07038         5.46045        -3.31705
| 40>    C       -1.08984         7.68985        -1.89644
| 41>    C       -1.42777         7.98555        -0.56494
| 42>    S       -1.04865         6.68925         0.53538
| 43>    C       -1.99923         9.24101        -0.40095
| 44>    C       -2.10384         9.92494        -1.60184
| 45>    S       -1.47327         8.99577        -2.95376
| 46>    C       -2.65281        11.21636        -1.84593
| 47>    C       -3.25454        12.03943        -0.86527
| 48>    C       -3.82941        13.31306        -1.20297
| 49>    N       -4.40648        14.05729        -0.23782
| 50>    C       -4.43638        13.62728         0.98032
| 51>    C       -3.86484        12.37125         1.31309
| 52>    N       -3.30600        11.62471         0.41889
| 53>    F       -3.88771        11.91964         2.56474
| 54>    F       -5.01338        14.38953         1.90144
| 55>    C       -3.83461        13.84340        -2.51260
| 56>    C       -3.20613        13.03843        -3.48972
| 57>    C       -2.63833        11.75664        -3.15171
| 58>    N       -2.10875        11.15616        -4.21743
| 59>    S       -2.29421        12.09333        -5.50425
| 60>    N       -3.05860        13.30720        -4.78899
| 61>    C       -4.45454        15.08712        -2.81442
| 62>    C       -4.51617        15.69303        -4.06049
| 63>    C       -5.23111        16.88159        -4.02449
| 64>    C       -5.72627        17.20144        -2.74821
| 65>    S       -5.28239        16.01001        -1.57755
| 66>    C       -6.46013        18.38733        -2.75780
| 67>    C       -6.52517        18.96871        -4.04052
| 68>    S       -5.66189        18.04958        -5.24243
| 69>    C       -7.26739        20.13797        -4.09812
| 70>    C       -7.79404        20.48018        -2.86164
| 71>    S       -7.32755        19.32091        -1.60846
| 72>    C       -8.59927        21.55480        -2.43343
| 73>    C       -9.22933        22.55077        -3.12902
| 74>    C      -10.03282        23.58502        -2.49149
| 75>    C      -10.06667        23.90218        -1.15819
| 76>    C      -10.86431        24.93176        -0.61469
| 77>    N      -11.48707        25.75018        -0.10418
| 78>    C       -9.30051        23.30107        -0.13682
| 79>    N       -8.70762        22.88711         0.75584
| 80>    C      -10.76192        24.29518        -3.53570
| 81>    C      -10.34325        23.78906        -4.79722
| 82>    C       -9.34686        22.72405        -4.59853
| 83>    O       -8.76857        22.12788        -5.48446
| 84>    C      -10.84246        24.26919        -5.97343
| 85>    C      -11.81102        25.29663        -5.94058
| 86>    C      -12.24417        25.80351        -4.68146
| 87>    C      -11.70449        25.28796        -3.48048
| 88>    C      -13.21521        26.82535        -4.65974
| 89>    C      -13.73263        27.32453        -5.82400
| 90>    C      -13.30424        26.82526        -7.06311
| 91>    C      -12.36380        25.83275        -7.12010
| 92>    H        1.67311        -0.74507        -6.38819
| 93>    H        2.78111         3.96022        -7.62261
| 94>    H        3.11109         3.27058        -9.92743
| 95>    H        3.13356         1.51563       -11.65506
| 96>    H        2.59600        -0.81473       -11.06577
| 97>    H        2.03072        -1.40864        -8.74313
| 98>    H        0.73453         2.06177        -1.99068
| 99>    H        0.23718         3.79205        -0.07698
|100>    H       -2.32868         9.65195         0.53325
|101>    H       -4.06117        15.26837        -4.93486
|102>    H       -7.43577        20.71824        -4.98636
|103>    H       -8.75593        21.55417        -1.36070
|104>    H      -10.50289        23.86779        -6.91675
|105>    H      -12.05796        25.69130        -2.54516
|106>    H      -13.54106        27.20782        -3.70360
|107>    H      -14.47528        28.10778        -5.79662
|108>    H      -13.72317        27.23074        -7.97195
|109>    H      -12.02987        25.44369        -8.07093
|110> *
|111>
|112>                          ****END OF INPUT****

CARTESIAN COORDINATES (ANGSTROEM)
---------------------------------
  C      2.192850    3.406820   -4.831420
  C      2.865550    4.582200   -4.623210
  C      3.533930    5.291600   -5.640280
  N      4.080170    5.910630   -6.437670
  C      3.039690    5.149030   -3.343540
  N      3.241780    5.600240   -2.307700
  C      2.237470    2.609030   -6.050970
  C      1.908980    1.261360   -5.719230
  C      1.914980    0.271790   -6.659530
  C      2.243000    0.592850   -7.996300
  C      2.554930    1.941220   -8.336180
  C      2.549350    2.944900   -7.340190
  C      2.872930    2.247780   -9.674800
  C      2.886430    1.270930  -10.632860
  C      2.581050   -0.056460  -10.297220
  C      2.266670   -0.388140   -9.007260
  C      1.578520    1.177170   -4.284660
  O      1.307380    0.194500   -3.634060
  C      1.578020    2.590050   -3.805910
  C      0.954210    2.904350   -2.640020
  C      0.450040    4.152880   -2.201640
  C      0.088770    4.463720   -0.902300
  C     -0.441310    5.744600   -0.794810
  C     -0.530350    6.420170   -2.023600
  S      0.070380    5.460450   -3.317050
  C     -1.089840    7.689850   -1.896440
  C     -1.427770    7.985550   -0.564940
  S     -1.048650    6.689250    0.535380
  C     -1.999230    9.241010   -0.400950
  C     -2.103840    9.924940   -1.601840
  S     -1.473270    8.995770   -2.953760
  C     -2.652810   11.216360   -1.845930
  C     -3.254540   12.039430   -0.865270
  C     -3.829410   13.313060   -1.202970
  N     -4.406480   14.057290   -0.237820
  C     -4.436380   13.627280    0.980320
  C     -3.864840   12.371250    1.313090
  N     -3.306000   11.624710    0.418890
  F     -3.887710   11.919640    2.564740
  F     -5.013380   14.389530    1.901440
  C     -3.834610   13.843400   -2.512600
  C     -3.206130   13.038430   -3.489720
  C     -2.638330   11.756640   -3.151710
  N     -2.108750   11.156160   -4.217430
  S     -2.294210   12.093330   -5.504250
  N     -3.058600   13.307200   -4.788990
  C     -4.454540   15.087120   -2.814420
  C     -4.516170   15.693030   -4.060490
  C     -5.231110   16.881590   -4.024490
  C     -5.726270   17.201440   -2.748210
  S     -5.282390   16.010010   -1.577550
  C     -6.460130   18.387330   -2.757800
  C     -6.525170   18.968710   -4.040520
  S     -5.661890   18.049580   -5.242430
  C     -7.267390   20.137970   -4.098120
  C     -7.794040   20.480180   -2.861640
  S     -7.327550   19.320910   -1.608460
  C     -8.599270   21.554800   -2.433430
  C     -9.229330   22.550770   -3.129020
  C    -10.032820   23.585020   -2.491490
  C    -10.066670   23.902180   -1.158190
  C    -10.864310   24.931760   -0.614690
  N    -11.487070   25.750180   -0.104180
  C     -9.300510   23.301070   -0.136820
  N     -8.707620   22.887110    0.755840
  C    -10.761920   24.295180   -3.535700
  C    -10.343250   23.789060   -4.797220
  C     -9.346860   22.724050   -4.598530
  O     -8.768570   22.127880   -5.484460
  C    -10.842460   24.269190   -5.973430
  C    -11.811020   25.296630   -5.940580
  C    -12.244170   25.803510   -4.681460
  C    -11.704490   25.287960   -3.480480
  C    -13.215210   26.825350   -4.659740
  C    -13.732630   27.324530   -5.824000
  C    -13.304240   26.825260   -7.063110
  C    -12.363800   25.832750   -7.120100
  H      1.673110   -0.745070   -6.388190
  H      2.781110    3.960220   -7.622610
  H      3.111090    3.270580   -9.927430
  H      3.133560    1.515630  -11.655060
  H      2.596000   -0.814730  -11.065770
  H      2.030720   -1.408640   -8.743130
  H      0.734530    2.061770   -1.990680
  H      0.237180    3.792050   -0.076980
  H     -2.328680    9.651950    0.533250
  H     -4.061170   15.268370   -4.934860
  H     -7.435770   20.718240   -4.986360
  H     -8.755930   21.554170   -1.360700
  H    -10.502890   23.867790   -6.916750
  H    -12.057960   25.691300   -2.545160
  H    -13.541060   27.207820   -3.703600
  H    -14.475280   28.107780   -5.796620
  H    -13.723170   27.230740   -7.971950
  H    -12.029870   25.443690   -8.070930

 Total Charge           Charge          ....    0
 Multiplicity           Mult            ....    1
 Number of Electrons    NEL             ....  568
 Basis Dimension        Dim             .... 1196

ORBITAL ENERGIES
----------------

  NO   OCC          E(Eh)            E(eV)
   0   2.0000     -89.052121     -2423.2314
   1   2.0000     -88.971567     -2421.0394
   2   2.0000     -88.969605     -2420.9860
   3   2.0000     -88.965833     -2420.8834
   4   2.0000     -88.965248     -2420.8675
   5   2.0000     -88.965182     -2420.8657
   6   2.0000     -88.963649     -2420.8240
   7   2.0000     -24.825203      -675.5281
   8   2.0000     -24.822983      -675.4677
   9   2.0000     -19.214835      -522.8622
  10   2.0000     -19.210940      -522.7563
  11   2.0000     -14.465737      -393.6327
  12   2.0000     -14.462954      -393.5570
  13   2.0000     -14.460719      -393.4962
  14   2.0000     -14.460371      -393.4867
  15   2.0000     -14.412937      -392.1960
  16   2.0000     -14.411087      -392.1456
  17   2.0000     -14.408740      -392.0818
  18   2.0000     -14.408604      -392.0780
  19   2.0000     -10.441892      -284.1383
  20   2.0000     -10.439624      -284.0766
  21   2.0000     -10.365906      -282.0706
  22   2.0000     -10.362888      -281.9885
  23   2.0000     -10.355095      -281.7765
  24   2.0000     -10.353773      -281.7405
  25   2.0000     -10.349127      -281.6141
  26   2.0000     -10.347644      -281.5737
  27   2.0000     -10.339643      -281.3560
  28   2.0000     -10.337800      -281.3058
  29   2.0000     -10.335990      -281.2566
  30   2.0000     -10.335333      -281.2387
  31   2.0000     -10.324448      -280.9425
  32   2.0000     -10.323586      -280.9191
  33   2.0000     -10.322632      -280.8931
  34   2.0000     -10.321961      -280.8748
  35   2.0000     -10.321554      -280.8638
  36   2.0000     -10.321367      -280.8587
  37   2.0000     -10.320758      -280.8421
  38   2.0000     -10.320253      -280.8284
  39   2.0000     -10.319328      -280.8032
  40   2.0000     -10.317270      -280.7472
  41   2.0000     -10.315472      -280.6983
  42   2.0000     -10.314141      -280.6620
  43   2.0000     -10.313838      -280.6538
  44   2.0000     -10.312085      -280.6061
  45   2.0000     -10.311561      -280.5918
  46   2.0000     -10.311418      -280.5880
  47   2.0000     -10.311248      -280.5833
  48   2.0000     -10.310971      -280.5758
  49   2.0000     -10.310342      -280.5587
  50   2.0000     -10.308415      -280.5062
  51   2.0000     -10.304741      -280.4063
  52   2.0000     -10.301158      -280.3088
  53   2.0000     -10.298194      -280.2281
  54   2.0000     -10.296047      -280.1697
  55   2.0000     -10.295930      -280.1665
  56   2.0000     -10.295618      -280.1580
  57   2.0000     -10.294928      -280.1392
  58   2.0000     -10.294499      -280.1276
  59   2.0000     -10.294395      -280.1247
  60   2.0000     -10.294098      -280.1166
  61   2.0000     -10.293793      -280.1084
  62   2.0000     -10.292781      -280.0808
  63   2.0000     -10.292657      -280.0774
  64   2.0000     -10.292435      -280.0714
  65   2.0000     -10.289348      -279.9874
  66   2.0000     -10.289125      -279.9813
  67   2.0000     -10.287185      -279.9285
  68   2.0000     -10.284984      -279.8686
  69   2.0000     -10.284624      -279.8589
  70   2.0000     -10.284368      -279.8519
  71   2.0000     -10.284164      -279.8463
  72   2.0000     -10.283904      -279.8393
  73   2.0000     -10.283661      -279.8326
  74   2.0000     -10.283113      -279.8177
  75   2.0000     -10.282754      -279.8080
  76   2.0000     -10.282241      -279.7940
  77   2.0000      -8.143160      -221.5867
  78   2.0000      -8.066374      -219.4972
  79   2.0000      -8.064829      -219.4552
  80   2.0000      -8.060515      -219.3378
  81   2.0000      -8.059196      -219.3019
  82   2.0000      -8.059082      -219.2988
  83   2.0000      -8.058960      -219.2955
  84   2.0000      -6.114282      -166.3781
  85   2.0000      -6.106459      -166.1652
  86   2.0000      -6.105930      -166.1508
  87   2.0000      -6.035953      -164.2466
  88   2.0000      -6.034264      -164.2007
  89   2.0000      -6.031858      -164.1352
  90   2.0000      -6.030250      -164.0915
  91   2.0000      -6.030227      -164.0908
  92   2.0000      -6.029025      -164.0581
  93   2.0000      -6.028840      -164.0531
  94   2.0000      -6.028711      -164.0496
  95   2.0000      -6.027883      -164.0270
  96   2.0000      -6.026534      -163.9903
  97   2.0000      -6.026409      -163.9869
  98   2.0000      -6.024838      -163.9442
  99   2.0000      -6.024390      -163.9320
 100   2.0000      -6.024355      -163.9310
 101   2.0000      -6.021421      -163.8512
 102   2.0000      -6.020778      -163.8337
 103   2.0000      -6.020574      -163.8281
 104   2.0000      -6.019869      -163.8090
 105   2.0000      -1.352725       -36.8095
 106   2.0000      -1.338448       -36.4210
 107   2.0000      -1.149812       -31.2880
 108   2.0000      -1.129649       -30.7393
 109   2.0000      -1.126319       -30.6487
 110   2.0000      -1.123847       -30.5814
 111   2.0000      -1.049803       -28.5666
 112   2.0000      -1.028335       -27.9824
 113   2.0000      -1.025952       -27.9176
 114   2.0000      -1.015018       -27.6200
 115   2.0000      -1.013424       -27.5767
 116   2.0000      -1.007070       -27.4038
 117   2.0000      -0.995698       -27.0943
 118   2.0000      -0.995081       -27.0775
 119   2.0000      -0.994214       -27.0539
 120   2.0000      -0.989733       -26.9320
 121   2.0000      -0.988346       -26.8943
 122   2.0000      -0.983812       -26.7709
 123   2.0000      -0.974354       -26.5135
 124   2.0000      -0.968474       -26.3535
 125   2.0000      -0.966868       -26.3098
 126   2.0000      -0.939466       -25.5642
 127   2.0000      -0.932650       -25.3787
 128   2.0000      -0.920268       -25.0418
 129   2.0000      -0.919101       -25.0100
 130   2.0000      -0.899085       -24.4653
 131   2.0000      -0.896603       -24.3978
 132   2.0000      -0.894859       -24.3504
 133   2.0000      -0.892854       -24.2958
 134   2.0000      -0.880332       -23.9551
 135   2.0000      -0.878444       -23.9037
 136   2.0000      -0.876655       -23.8550
 137   2.0000      -0.874737       -23.8028
 138   2.0000      -0.861386       -23.4395
 139   2.0000      -0.852004       -23.1842
 140   2.0000      -0.842238       -22.9185
 141   2.0000      -0.841486       -22.8980
 142   2.0000      -0.826396       -22.4874
 143   2.0000      -0.825700       -22.4684
 144   2.0000      -0.824546       -22.4370
 145   2.0000      -0.814700       -22.1691
 146   2.0000      -0.810186       -22.0463
 147   2.0000      -0.803284       -21.8585
 148   2.0000      -0.793845       -21.6016
 149   2.0000      -0.783950       -21.3324
 150   2.0000      -0.777931       -21.1686
 151   2.0000      -0.762752       -20.7555
 152   2.0000      -0.757951       -20.6249
 153   2.0000      -0.757585       -20.6149
 154   2.0000      -0.755340       -20.5538
 155   2.0000      -0.737235       -20.0612
 156   2.0000      -0.720978       -19.6188
 157   2.0000      -0.707176       -19.2432
 158   2.0000      -0.701476       -19.0881
 159   2.0000      -0.700496       -19.0615
 160   2.0000      -0.698649       -19.0112
 161   2.0000      -0.694031       -18.8856
 162   2.0000      -0.689964       -18.7749
 163   2.0000      -0.687027       -18.6950
 164   2.0000      -0.676452       -18.4072
 165   2.0000      -0.676135       -18.3986
 166   2.0000      -0.674084       -18.3428
 167   2.0000      -0.667618       -18.1668
 168   2.0000      -0.657885       -17.9020
 169   2.0000      -0.656414       -17.8619
 170   2.0000      -0.652176       -17.7466
 171   2.0000      -0.645435       -17.5632
 172   2.0000      -0.640675       -17.4337
 173   2.0000      -0.636413       -17.3177
 174   2.0000      -0.633868       -17.2484
 175   2.0000      -0.630829       -17.1657
 176   2.0000      -0.627682       -17.0801
 177   2.0000      -0.626711       -17.0537
 178   2.0000      -0.622646       -16.9431
 179   2.0000      -0.611910       -16.6509
 180   2.0000      -0.605597       -16.4791
 181   2.0000      -0.604910       -16.4604
 182   2.0000      -0.602867       -16.4049
 183   2.0000      -0.595793       -16.2124
 184   2.0000      -0.588569       -16.0158
 185   2.0000      -0.579504       -15.7691
 186   2.0000      -0.578443       -15.7402
 187   2.0000      -0.575414       -15.6578
 188   2.0000      -0.573720       -15.6117
 189   2.0000      -0.568025       -15.4568
 190   2.0000      -0.563886       -15.3441
 191   2.0000      -0.559384       -15.2216
 192   2.0000      -0.552459       -15.0332
 193   2.0000      -0.548087       -14.9142
 194   2.0000      -0.545074       -14.8322
 195   2.0000      -0.543604       -14.7922
 196   2.0000      -0.542669       -14.7668
 197   2.0000      -0.542615       -14.7653
 198   2.0000      -0.537206       -14.6181
 199   2.0000      -0.534776       -14.5520
 200   2.0000      -0.533058       -14.5052
 201   2.0000      -0.531069       -14.4511
 202   2.0000      -0.529816       -14.4170
 203   2.0000      -0.527061       -14.3421
 204   2.0000      -0.526172       -14.3179
 205   2.0000      -0.525176       -14.2908
 206   2.0000      -0.521478       -14.1902
 207   2.0000      -0.520495       -14.1634
 208   2.0000      -0.517274       -14.0757
 209   2.0000      -0.516505       -14.0548
 210   2.0000      -0.512916       -13.9572
 211   2.0000      -0.510492       -13.8912
 212   2.0000      -0.507352       -13.8058
 213   2.0000      -0.506157       -13.7732
 214   2.0000      -0.504359       -13.7243
 215   2.0000      -0.502274       -13.6676
 216   2.0000      -0.498211       -13.5570
 217   2.0000      -0.493586       -13.4312
 218   2.0000      -0.492458       -13.4005
 219   2.0000      -0.491768       -13.3817
 220   2.0000      -0.489361       -13.3162
 221   2.0000      -0.486067       -13.2266
 222   2.0000      -0.484722       -13.1900
 223   2.0000      -0.482430       -13.1276
 224   2.0000      -0.481222       -13.0947
 225   2.0000      -0.479980       -13.0609
 226   2.0000      -0.474190       -12.9034
 227   2.0000      -0.466754       -12.7010
 228   2.0000      -0.465100       -12.6560
 229   2.0000      -0.461741       -12.5646
 230   2.0000      -0.461452       -12.5568
 231   2.0000      -0.459460       -12.5025
 232   2.0000      -0.457925       -12.4608
 233   2.0000      -0.454072       -12.3559
 234   2.0000      -0.446522       -12.1505
 235   2.0000      -0.445894       -12.1334
 236   2.0000      -0.443171       -12.0593
 237   2.0000      -0.442212       -12.0332
 238   2.0000      -0.441243       -12.0068
 239   2.0000      -0.440209       -11.9787
 240   2.0000      -0.438841       -11.9415
 241   2.0000      -0.437068       -11.8932
 242   2.0000      -0.436343       -11.8735
 243   2.0000      -0.433067       -11.7843
 244   2.0000      -0.430426       -11.7125
 245   2.0000      -0.429500       -11.6873
 246   2.0000      -0.429283       -11.6814
 247   2.0000      -0.427452       -11.6316
 248   2.0000      -0.424938       -11.5631
 249   2.0000      -0.421613       -11.4727
 250   2.0000      -0.420937       -11.4543
 251   2.0000      -0.419778       -11.4227
 252   2.0000      -0.417377       -11.3574
 253   2.0000      -0.414375       -11.2757
 254   2.0000      -0.412970       -11.2375
 255   2.0000      -0.412261       -11.2182
 256   2.0000      -0.409135       -11.1331
 257   2.0000      -0.401659       -10.9297
 258   2.0000      -0.401095       -10.9143
 259   2.0000      -0.399294       -10.8653
 260   2.0000      -0.395944       -10.7742
 261   2.0000      -0.391297       -10.6477
 262   2.0000      -0.380391       -10.3510
 263   2.0000      -0.378109       -10.2889
 264   2.0000      -0.372265       -10.1298
 265   2.0000      -0.371350       -10.1049
 266   2.0000      -0.367687       -10.0053
 267   2.0000      -0.367157        -9.9908
 268   2.0000      -0.351704        -9.5703
 269   2.0000      -0.350601        -9.5403
 270   2.0000      -0.340618        -9.2687
 271   2.0000      -0.338987        -9.2243
 272   2.0000      -0.336140        -9.1468
 273   2.0000      -0.334527        -9.1029
 274   2.0000      -0.329433        -8.9643
 275   2.0000      -0.314931        -8.5697
 276   2.0000      -0.313199        -8.5226
 277   2.0000      -0.303539        -8.2597
 278   2.0000      -0.293187        -7.9780
 279   2.0000      -0.290832        -7.9139
 280   2.0000      -0.289582        -7.8799
 281   2.0000      -0.288353        -7.8465
 282   2.0000      -0.270224        -7.3532
 283   2.0000      -0.239577        -6.5192
 284   0.0000      -0.125593        -3.4175
 285   0.0000      -0.090727        -2.4688
 286   0.0000      -0.086996        -2.3673
 287   0.0000      -0.054609        -1.4860
 288   0.0000      -0.052788        -1.4364

MULLIKEN ATOMIC CHARGES
-----------------------
   0 C :    0.245040
   1 C :   -0.318908
   2 C :   -0.174615
   3 N :    0.152542
   4 C :   -0.208265
   5 N :    0.172490
   6 C :    0.038178
   7 C :    0.011001
   8 C :   -0.082451
   9 C :    0.093363
  10 C :    0.094098
  11 C :   -0.080180
  12 C :   -0.017516
  13 C :    0.035494
  14 C :    0.033386
  15 C :   -0.015086
  16 C :    0.143189
  17 O :   -0.144869
  18 C :   -0.140650
  19 C :    0.050320
  20 C :   -0.090850
  21 C :    0.006924
  22 C :   -0.011424
  23 C :   -0.073560
  24 S :    0.169703
  25 C :   -0.039669
  26 C :   -0.001944
  27 S :    0.168016
  28 C :   -0.055290
  29 C :   -0.172517
  30 S :    0.174019
  31 C :    0.208090
  32 C :   -0.073499
  33 C :   -0.059137
  34 N :   -0.043694
  35 C :    0.156089
  36 C :    0.141478
  37 N :    0.000456
  38 F :   -0.140007
  39 F :   -0.130890
  40 C :    0.179431
  41 C :    0.001873
  42 C :   -0.029514
  43 N :   -0.328187
  44 S :    0.562872
  45 N :   -0.296488
  46 C :   -0.170883
  47 C :   -0.050366
  48 C :   -0.001461
  49 C :   -0.046764
  50 S :    0.178303
  51 C :   -0.068708
  52 C :   -0.032784
  53 S :    0.166289
  54 C :   -0.008299
  55 C :   -0.111610
  56 S :    0.168982
  57 C :    0.041980
  58 C :   -0.089274
  59 C :    0.311364
  60 C :   -0.355815
  61 C :   -0.183917
  62 N :    0.142615
  63 C :   -0.197835
  64 N :    0.155427
  65 C :    0.045798
  66 C :   -0.001750
  67 C :    0.156667
  68 O :   -0.161098
  69 C :   -0.079158
  70 C :    0.095636
  71 C :    0.091718
  72 C :   -0.077398
  73 C :   -0.015304
  74 C :    0.031005
  75 C :    0.036540
  76 C :   -0.014195
  77 H :   -0.012028
  78 H :   -0.006451
  79 H :   -0.011732
  80 H :   -0.005845
  81 H :   -0.004713
  82 H :   -0.017917
  83 H :    0.026601
  84 H :    0.000631
  85 H :    0.004664
  86 H :   -0.000339
  87 H :    0.018889
  88 H :    0.010066
  89 H :   -0.016368
  90 H :   -0.009267
  91 H :   -0.010369
  92 H :   -0.004335
  93 H :   -0.006610
  94 H :   -0.019422
Sum of atomic charges:   -0.0000000

LOEWDIN ATOMIC CHARGES
----------------------
   0 C :    0.059896
   1 C :   -0.142240
   2 C :   -0.018888
   3 N :   -0.054106
   4 C :   -0.036250
   5 N :   -0.048265
   6 C :   -0.021658
   7 C :   -0.056532
   8 C :    0.031634
   9 C :   -0.009734
  10 C :   -0.005697
  11 C :    0.014161
  12 C :   -0.007277
  13 C :   -0.013817
  14 C :   -0.014349
  15 C :   -0.009370
  16 C :    0.083386
  17 O :   -0.145615
  18 C :   -0.098942
  19 C :    0.050442
  20 C :   -0.172239
  21 C :   -0.018382
  22 C :   -0.189911
  23 C :   -0.193805
  24 S :    0.459030
  25 C :   -0.218528
  26 C :   -0.183178
  27 S :    0.413048
  28 C :   -0.047311
  29 C :   -0.154165
  30 S :    0.466588
  31 C :   -0.040923
  32 C :   -0.007662
  33 C :   -0.012697
  34 N :   -0.052280
  35 C :    0.064632
  36 C :    0.060384
  37 N :   -0.029831
  38 F :   -0.027997
  39 F :   -0.020789
  40 C :   -0.041899
  41 C :   -0.036753
  42 C :   -0.046119
  43 N :   -0.297192
  44 S :    0.682146
  45 N :   -0.278434
  46 C :   -0.155379
  47 C :   -0.049727
  48 C :   -0.181426
  49 C :   -0.223254
  50 S :    0.465793
  51 C :   -0.196040
  52 C :   -0.192405
  53 S :    0.410485
  54 C :   -0.015407
  55 C :   -0.173030
  56 S :    0.446622
  57 C :    0.046826
  58 C :   -0.098923
  59 C :    0.077304
  60 C :   -0.144968
  61 C :   -0.016798
  62 N :   -0.058260
  63 C :   -0.025916
  64 N :   -0.053572
  65 C :   -0.025839
  66 C :   -0.054484
  67 C :    0.087948
  68 O :   -0.147123
  69 C :    0.030294
  70 C :   -0.009025
  71 C :   -0.006912
  72 C :    0.018924
  73 C :   -0.005175
  74 C :   -0.015003
  75 C :   -0.013395
  76 C :   -0.010378
  77 H :    0.039081
  78 H :    0.038199
  79 H :    0.033767
  80 H :    0.032648
  81 H :    0.032558
  82 H :    0.031597
  83 H :    0.052049
  84 H :    0.041217
  85 H :    0.033516
  86 H :    0.032684
  87 H :    0.038227
  88 H :    0.043378
  89 H :    0.037601
  90 H :    0.038663
  91 H :    0.034410
  92 H :    0.032891
  93 H :    0.032142
  94 H :    0.031104

  Mayer bond orders larger than 0.100000
B(  0-C ,  1-C ) :   1.6579 B(  0-C ,  6-C ) :   1.0034 B(  0-C , 18-C ) :   1.0343
B(  1-C ,  2-C ) :   1.1363 B(  1-C ,  4-C ) :   1.1502 B(  2-C ,  3-N ) :   2.9908
B(  4-C ,  5-N ) :   3.0277 B(  6-C ,  7-C ) :   1.2141 B(  6-C , 11-C ) :   1.4612
B(  7-C ,  8-C ) :   1.4766 B(  7-C , 16-C ) :   0.9210 B(  8-C ,  9-C ) :   1.1849
B(  8-C , 77-H ) :   1.0159 B(  9-C , 10-C ) :   1.2575 B(  9-C , 15-C ) :   1.2456
B( 10-C , 11-C ) :   1.2019 B( 10-C , 12-C ) :   1.2420 B( 11-C , 78-H ) :   0.9943
B( 12-C , 13-C ) :   1.4890 B( 12-C , 79-H ) :   0.9975 B( 13-C , 14-C ) :   1.2604
B( 13-C , 80-H ) :   0.9889 B( 14-C , 15-C ) :   1.4887 B( 14-C , 81-H ) :   0.9896
B( 15-C , 82-H ) :   0.9976 B( 16-C , 17-O ) :   2.2699 B( 16-C , 18-C ) :   0.9381
B( 18-C , 19-C ) :   1.6397 B( 19-C , 20-C ) :   1.1491 B( 19-C , 83-H ) :   0.9464
B( 20-C , 21-C ) :   1.4426 B( 20-C , 24-S ) :   1.0829 B( 21-C , 22-C ) :   1.2953
B( 21-C , 84-H ) :   1.0048 B( 22-C , 23-C ) :   1.4153 B( 22-C , 27-S ) :   1.0431
B( 23-C , 24-S ) :   1.0909 B( 23-C , 25-C ) :   1.3302 B( 25-C , 26-C ) :   1.4127
B( 25-C , 30-S ) :   1.0407 B( 26-C , 27-S ) :   1.0513 B( 26-C , 28-C ) :   1.2621
B( 28-C , 29-C ) :   1.4637 B( 28-C , 85-H ) :   0.9921 B( 29-C , 30-S ) :   1.0948
B( 29-C , 31-C ) :   1.1885 B( 31-C , 32-C ) :   1.2982 B( 31-C , 40-C ) :   0.1262
B( 31-C , 42-C ) :   1.1861 B( 32-C , 33-C ) :   1.1133 B( 32-C , 37-N ) :   1.4250
B( 33-C , 34-N ) :   1.3811 B( 33-C , 40-C ) :   1.2947 B( 34-N , 35-C ) :   1.6547
B( 35-C , 36-C ) :   1.1035 B( 35-C , 39-F ) :   1.1926 B( 36-C , 37-N ) :   1.6710
B( 36-C , 38-F ) :   1.1733 B( 40-C , 41-C ) :   1.2018 B( 40-C , 46-C ) :   1.1925
B( 41-C , 42-C ) :   1.1129 B( 41-C , 45-N ) :   1.4998 B( 42-C , 43-N ) :   1.4707
B( 43-N , 44-S ) :   1.2764 B( 43-N , 45-N ) :   0.1526 B( 44-S , 45-N ) :   1.2821
B( 46-C , 47-C ) :   1.4718 B( 46-C , 50-S ) :   1.0905 B( 47-C , 48-C ) :   1.2669
B( 47-C , 86-H ) :   0.9868 B( 48-C , 49-C ) :   1.4220 B( 48-C , 53-S ) :   1.0468
B( 49-C , 50-S ) :   1.0277 B( 49-C , 51-C ) :   1.3234 B( 51-C , 52-C ) :   1.3942
B( 51-C , 56-S ) :   1.1034 B( 52-C , 53-S ) :   1.0445 B( 52-C , 54-C ) :   1.2999
B( 54-C , 55-C ) :   1.4364 B( 54-C , 87-H ) :   0.9763 B( 55-C , 56-S ) :   1.0643
B( 55-C , 57-C ) :   1.2371 B( 57-C , 58-C ) :   1.5752 B( 57-C , 88-H ) :   0.9138
B( 58-C , 59-C ) :   1.0828 B( 58-C , 67-C ) :   0.9416 B( 59-C , 60-C ) :   1.6180
B( 59-C , 65-C ) :   0.9822 B( 60-C , 61-C ) :   1.1505 B( 60-C , 63-C ) :   1.1383
B( 61-C , 62-N ) :   2.9633 B( 63-C , 64-N ) :   2.9802 B( 65-C , 66-C ) :   1.2179
B( 65-C , 72-C ) :   1.4527 B( 66-C , 67-C ) :   0.9574 B( 66-C , 69-C ) :   1.4694
B( 67-C , 68-O ) :   2.1611 B( 69-C , 70-C ) :   1.1791 B( 69-C , 89-H ) :   1.0166
B( 70-C , 71-C ) :   1.2586 B( 70-C , 76-C ) :   1.2430 B( 71-C , 72-C ) :   1.2041
B( 71-C , 73-C ) :   1.2423 B( 72-C , 90-H ) :   0.9902 B( 73-C , 74-C ) :   1.4879
B( 73-C , 91-H ) :   0.9975 B( 74-C , 75-C ) :   1.2596 B( 74-C , 92-H ) :   0.9896
B( 75-C , 76-C ) :   1.4889 B( 75-C , 93-H ) :   0.9891 B( 76-C , 94-H ) :   0.9980

-----------------------------------------------------------------------------
         ABSORPTION SPECTRUM VIA TRANSITION ELECTRIC DIPOLE MOMENTS
-----------------------------------------------------------------------------
State   Energy  Wavelength   fosc         T2         TX        TY        TZ
        (cm-1)    (nm)                  (au**2)     (au)      (au)      (au)
-----------------------------------------------------------------------------
   0   10109.6    989.2   1.215917895  39.59558   3.01482  -5.52233   0.10162
   1   17949.1    557.1   0.056867882   1.04304  -0.08961  -0.03322   1.01681
   2   19108.9    523.3   0.740730936  12.76144  -2.09486   2.60371   1.26241
   3   20151.9    496.2   0.599917909   9.80059  -1.61988   2.65291  -0.37237
   4   20358.9    491.2   0.036453736   0.58947   0.43130  -0.44988  -0.44840
   5   20445.3    489.1   0.080229348   1.29186  -0.54493   0.76777   0.63675
   6   24599.2    406.5   0.032417015   0.43384   0.51884  -0.22891  -0.33503
   7   25521.1    391.8   0.065183469   0.84084  -0.14531  -0.41229  -0.80607
   8   25952.1    385.3   0.019896454   0.25239  -0.10430   0.47881  -0.11071
   9   26192.0    381.8   0.077118692   0.96932   0.51811  -0.78228  -0.29818
  10   26606.5    375.8   0.032313540   0.39983   0.24423   0.26739  -0.51834
  11   27170.9    368.0   0.035106878   0.42537  -0.29708   0.35027  -0.46305
  12   27509.0    363.5   0.307240916   3.67689  -0.42719   1.71350  -0.74721
  13   27703.1    361.0   0.054694817   0.64997  -0.39542  -0.04325  -0.70124
  14   28023.8    356.8   0.058900776   0.69194   0.26465   0.61845  -0.48930
  15   28286.0    353.5   0.050919166   0.59263   0.30711  -0.37256  -0.59960
  16   28691.0    348.5   0.156414652   1.79476  -0.46934   0.98745   0.77423
  17   29077.6    343.9   0.084894706   0.96116  -0.46253   0.86339  -0.04217
  18   29228.3    342.1   0.006921026   0.07795  -0.19958  -0.05333   0.18783
  19   29449.9    339.6   0.029784844   0.33296  -0.04755  -0.14146  -0.55739
  20   29918.9    334.2   0.032540269   0.35806   0.46338  -0.05887  -0.37399
  21   30421.1    328.7   0.019112796   0.20684  -0.09369   0.23996   0.37480
  22   30467.1    328.2   0.310175975   3.35160   0.16574  -0.85839  -1.60851
  23   30850.4    324.1   0.162228068   1.73118  -0.58374   0.88398  -0.78039
  24   31007.2    322.5   0.005805823   0.06164   0.20421  -0.10634   0.09291
  25   31154.1    321.0   0.084186598   0.88962  -0.55349   0.38513  -0.65950
  26   31430.9    318.2   0.004880543   0.05112   0.07695  -0.01027  -0.21235
  27   31961.7    312.9   0.290422887   2.99141  -0.78753   1.52557  -0.20934
  28   32090.7    311.6   0.049522568   0.50804  -0.24182  -0.50187  -0.44463
  29   32669.4    306.1   0.112191223   1.13056   0.47943  -0.92413   0.21608
  30   33460.8    298.9   0.460975806   4.53542   0.51705   0.03634   2.06561
  31   34020.9    293.9   0.162402735   1.57153  -0.10392   1.00861   0.73719
  32   34065.3    293.6   0.102059805   0.98632   0.56621   0.68247  -0.44717
  33   34611.7    288.9   0.008527450   0.08111  -0.07265   0.05931  -0.26891
  34   34748.0    287.8   0.035814441   0.33932  -0.21253   0.14865   0.52158
  35   35038.2    285.4   0.113266075   1.06423   0.39997  -0.90564  -0.28993
  36   35166.5    284.4   0.045906883   0.42976   0.19447  -0.25996   0.56953
  37   35532.2    281.4   0.274858879   2.54661  -0.54320  -0.59185  -1.37886
  38   35710.6    280.0   0.147454253   1.35937   0.26845   0.34852   1.07974
  39   36035.3    277.5   0.179076283   1.63601  -0.39336   0.28405  -1.18346
  40   36192.4    276.3   0.117808482   1.07161  -0.32122   0.82712   0.53320
  41   36364.7    275.0   0.022433940   0.20310  -0.30293   0.23615   0.23571
  42   36502.7    274.0   0.030542518   0.27546   0.02951  -0.25790  -0.45615
  43   36598.4    273.2   0.122701816   1.10373   0.33646  -0.65990   0.74502
  44   36747.3    272.1   0.043449231   0.38925   0.28458  -0.25503  -0.49318
  45   36828.5    271.5   0.000483857   0.00433  -0.00679  -0.03286  -0.05656
  46   37072.3    269.7   0.418398686   3.71549  -0.33421   0.39553   1.85671
  47   37476.8    266.8   0.017516192   0.15387   0.08377  -0.28516  -0.25600
  48   37539.6    266.4   0.016304439   0.14299  -0.17854  -0.28049  -0.18010
  49   37758.5    264.8   0.002012487   0.01755   0.04324   0.09050   0.08653
  50   37959.4    263.4   0.013626024   0.11818   0.04590  -0.13429  -0.31310
  51   37999.9    263.2   0.245532081   2.12717  -0.15803  -0.16171   1.44085
  52   38556.8    259.4   0.014887949   0.12712   0.14769  -0.22655   0.23234
  53   38909.1    257.0   0.006662660   0.05637   0.08401   0.17193   0.14056
  54   39312.1    254.4   0.107713390   0.90203  -0.27776   0.53988   0.73035
  55   39437.2    253.6   0.036358278   0.30351  -0.21540  -0.39020   0.32381
  56   39637.1    252.3   0.011080607   0.09203  -0.05285  -0.09374  -0.28364
  57   39702.1    251.9   0.108051632   0.89597  -0.44405   0.24505   0.79921
  58   39897.9    250.6   0.021160772   0.17461  -0.14510   0.32526  -0.21853

FINAL SINGLE POINT ENERGY     -5791.833729134235

DIPOLE MOMENT
-------------
                                X             Y             Z
Electronic contribution:     11.23796      -4.81929      47.28505
Nuclear contribution   :    -12.45632       3.16562     -50.65336
                        -----------------------------------------
Total Dipole Moment    :     -1.21836      -1.65367      -3.36830
                        -----------------------------------------
Magnitude (a.u.)       :      3.94519
Magnitude (Debye)      :     10.02786

Rotational constants in cm-1:     0.001815     0.000163     0.000152
Rotational constants in MHz :    54.407540     4.894934     4.562036

                             ****ORCA TERMINATED NORMALLY****
TOTAL RUN TIME: 0 days 0 hours 9 minutes 46 seconds 690 msec
