                         Program Version 4.2.0 -  RELEASE  -
|  1> # ORCA input file
|  2> # SCF done       -188.642842948589          0.000468742583
|  3> ! CAM-B3LYP def2-SVP def2/J RIJCOSX Grid4 TightSCF
|  4> %maxcore 5000
|  5> %tddft
|  6>     Mode sTDDFT
|  7>     Ethresh 5.0
|  8>     maxcore 5000
|  9> end
| 10>
| 11> %pal
| 12>   nprocs 6
| 13>   end
| 14> * xyz 0 1
| 15>    C        3.63039         1.22977         8.53829
| 16>    C        4.36781         0.48313         7.64728
| 17>    C        4.55806        -0.90851         7.75166
| 18>    N        4.75402        -2.04062         7.77420
| 19>    C        5.02128         0.97652         6.50108
| 20>    N        5.57189         1.29190         5.54260
| 21>    C        2.92531         0.69143         9.70048
| 22>    C        2.24007         1.75888        10.34694
| 23>    C        1.48086         1.56004        11.46244
| 24>    C        1.37134         0.25644        11.99829
| 25>    C        2.05845        -0.81603        11.36203
| 26>    C        2.83647        -0.57787        10.20428
| 27>    C        1.94591        -2.11117        11.90579
| 28>    C        1.19007        -2.33859        13.02382
| 29>    C        0.51224        -1.28182        13.64853
| 30>    C        0.60124        -0.01162        13.14635
| 31>    C        2.50040         3.01498         9.61950
| 32>    O        2.06367         4.11538         9.90089
| 33>    C        3.38866         2.64905         8.49516
| 34>    C        3.88939         3.54448         7.57037
| 35>    C        3.61315         4.90743         7.55710
| 36>    C        4.09184         5.76991         6.58785
| 37>    C        3.81335         7.14973         6.48387
| 38>    C        4.37225         7.74991         5.39137
| 39>    C        5.12525         6.87043         4.58869
| 40>    S        5.11774         5.26067         5.26489
| 41>    C        5.77309         7.15932         3.39383
| 42>    C        5.75880         8.37202         2.67700
| 43>    C        6.42998         8.31329         1.49016
| 44>    C        7.02670         7.06014         1.21516
| 45>    S        6.70479         5.95880         2.53955
| 46>    C        7.69068         6.76074         0.04448
| 47>    C        8.35954         5.58691        -0.34109
| 48>    C        8.67819         4.49925         0.48647
| 49>    C        9.38173         3.40540         0.03184
| 50>    F        9.58244         2.41425         0.92064
| 51>    C        9.82527         3.22014        -1.29149
| 52>    C        9.44904         4.28095        -2.17277
| 53>    C        8.77166         5.45526        -1.70440
| 54>    N        8.56284         6.33197        -2.67894
| 55>    S        9.15874         5.73886        -4.05469
| 56>    N        9.71335         4.34084        -3.47283
| 57>    C       10.53336         2.12491        -1.82209
| 58>    C       11.36343         1.21040        -1.20951
| 59>    C       11.95027         0.10746        -1.87873
| 60>    C       12.83573        -0.60130        -1.12277
| 61>    C       13.01932        -0.06900         0.17104
| 62>    S       11.99123         1.31061         0.42116
| 63>    C       13.90839        -0.50762         1.14588
| 64>    C       14.75736        -1.63040         1.09321
| 65>    C       15.54644        -1.77168         2.19957
| 66>    C       15.36666        -0.75929         3.16645
| 67>    S       14.13325         0.36472         2.64107
| 68>    C       16.06852        -0.62501         4.35107
| 69>    C       15.89091         0.43806         5.22928
| 70>    C       16.60153         0.61684         6.40071
| 71>    C       16.48357         1.71896         7.31973
| 72>    C       15.69292         2.83769         7.18139
| 73>    C       15.63428         3.88393         8.12230
| 74>    N       15.53385         4.77135         8.84559
| 75>    C       14.85293         3.12403         6.08767
| 76>    N       14.15306         3.44497         5.23404
| 77>    C       17.39071         1.46760         8.43857
| 78>    C       18.07690         0.24394         8.19663
| 79>    C       17.61678        -0.32643         6.91674
| 80>    O       18.00521        -1.36103         6.40740
| 81>    C       19.00269        -0.25013         9.06785
| 82>    C       19.29175         0.47113        10.24886
| 83>    C       18.60814         1.69437        10.50038
| 84>    C       17.65276         2.18083         9.57659
| 85>    C       18.90346         2.40619        11.68006
| 86>    C       19.82999         1.93435        12.57007
| 87>    C       20.50257         0.72936        12.32135
| 88>    C       20.23881         0.01326        11.18506
| 89>    H        0.96887         2.38709        11.93185
| 90>    H        3.34317        -1.41269         9.74713
| 91>    H        2.46935        -2.92213        11.42063
| 92>    H        1.11051        -3.33491        13.43264
| 93>    H       -0.08057        -1.47852        14.52948
| 94>    H        0.08154         0.80678        13.62325
| 95>    H        4.53916         3.17002         6.78882
| 96>    H        2.97642         5.31873         8.32744
| 97>    H        3.20289         7.65360         7.21180
| 98>    H        4.26132         8.79194         5.15131
| 99>    H        5.24389         9.24390         3.03736
|100>    H        6.51447         9.13434         0.80053
|101>    H        7.67585         7.53575        -0.71213
|102>    H        8.39077         4.49897         1.52517
|103>    H       10.46028         2.03888        -2.90013
|104>    H       11.69242        -0.12987        -2.89570
|105>    H       13.36857        -1.46849        -1.46817
|106>    H       14.76514        -2.30432         0.25564
|107>    H       16.25767        -2.56499         2.34521
|108>    H       16.80680        -1.37835         4.58664
|109>    H       15.14549         1.17635         4.95977
|110>    H       19.51008        -1.18050         8.85955
|111>    H       17.15264         3.10994         9.79858
|112>    H       18.38295         3.33412        11.86707
|113>    H       20.04941         2.48786        13.47095
|114>    H       21.23062         0.37096        13.03395
|115>    H       20.75380        -0.91577        10.98785
|116> *
|117>
|118>                          ****END OF INPUT****

CARTESIAN COORDINATES (ANGSTROEM)
---------------------------------
  C      3.630390    1.229770    8.538290
  C      4.367810    0.483130    7.647280
  C      4.558060   -0.908510    7.751660
  N      4.754020   -2.040620    7.774200
  C      5.021280    0.976520    6.501080
  N      5.571890    1.291900    5.542600
  C      2.925310    0.691430    9.700480
  C      2.240070    1.758880   10.346940
  C      1.480860    1.560040   11.462440
  C      1.371340    0.256440   11.998290
  C      2.058450   -0.816030   11.362030
  C      2.836470   -0.577870   10.204280
  C      1.945910   -2.111170   11.905790
  C      1.190070   -2.338590   13.023820
  C      0.512240   -1.281820   13.648530
  C      0.601240   -0.011620   13.146350
  C      2.500400    3.014980    9.619500
  O      2.063670    4.115380    9.900890
  C      3.388660    2.649050    8.495160
  C      3.889390    3.544480    7.570370
  C      3.613150    4.907430    7.557100
  C      4.091840    5.769910    6.587850
  C      3.813350    7.149730    6.483870
  C      4.372250    7.749910    5.391370
  C      5.125250    6.870430    4.588690
  S      5.117740    5.260670    5.264890
  C      5.773090    7.159320    3.393830
  C      5.758800    8.372020    2.677000
  C      6.429980    8.313290    1.490160
  C      7.026700    7.060140    1.215160
  S      6.704790    5.958800    2.539550
  C      7.690680    6.760740    0.044480
  C      8.359540    5.586910   -0.341090
  C      8.678190    4.499250    0.486470
  C      9.381730    3.405400    0.031840
  F      9.582440    2.414250    0.920640
  C      9.825270    3.220140   -1.291490
  C      9.449040    4.280950   -2.172770
  C      8.771660    5.455260   -1.704400
  N      8.562840    6.331970   -2.678940
  S      9.158740    5.738860   -4.054690
  N      9.713350    4.340840   -3.472830
  C     10.533360    2.124910   -1.822090
  C     11.363430    1.210400   -1.209510
  C     11.950270    0.107460   -1.878730
  C     12.835730   -0.601300   -1.122770
  C     13.019320   -0.069000    0.171040
  S     11.991230    1.310610    0.421160
  C     13.908390   -0.507620    1.145880
  C     14.757360   -1.630400    1.093210
  C     15.546440   -1.771680    2.199570
  C     15.366660   -0.759290    3.166450
  S     14.133250    0.364720    2.641070
  C     16.068520   -0.625010    4.351070
  C     15.890910    0.438060    5.229280
  C     16.601530    0.616840    6.400710
  C     16.483570    1.718960    7.319730
  C     15.692920    2.837690    7.181390
  C     15.634280    3.883930    8.122300
  N     15.533850    4.771350    8.845590
  C     14.852930    3.124030    6.087670
  N     14.153060    3.444970    5.234040
  C     17.390710    1.467600    8.438570
  C     18.076900    0.243940    8.196630
  C     17.616780   -0.326430    6.916740
  O     18.005210   -1.361030    6.407400
  C     19.002690   -0.250130    9.067850
  C     19.291750    0.471130   10.248860
  C     18.608140    1.694370   10.500380
  C     17.652760    2.180830    9.576590
  C     18.903460    2.406190   11.680060
  C     19.829990    1.934350   12.570070
  C     20.502570    0.729360   12.321350
  C     20.238810    0.013260   11.185060
  H      0.968870    2.387090   11.931850
  H      3.343170   -1.412690    9.747130
  H      2.469350   -2.922130   11.420630
  H      1.110510   -3.334910   13.432640
  H     -0.080570   -1.478520   14.529480
  H      0.081540    0.806780   13.623250
  H      4.539160    3.170020    6.788820
  H      2.976420    5.318730    8.327440
  H      3.202890    7.653600    7.211800
  H      4.261320    8.791940    5.151310
  H      5.243890    9.243900    3.037360
  H      6.514470    9.134340    0.800530
  H      7.675850    7.535750   -0.712130
  H      8.390770    4.498970    1.525170
  H     10.460280    2.038880   -2.900130
  H     11.692420   -0.129870   -2.895700
  H     13.368570   -1.468490   -1.468170
  H     14.765140   -2.304320    0.255640
  H     16.257670   -2.564990    2.345210
  H     16.806800   -1.378350    4.586640
  H     15.145490    1.176350    4.959770
  H     19.510080   -1.180500    8.859550
  H     17.152640    3.109940    9.798580
  H     18.382950    3.334120   11.867070
  H     20.049410    2.487860   13.470950
  H     21.230620    0.370960   13.033950
  H     20.753800   -0.915770   10.987850

 Total Charge           Charge          ....    0
 Multiplicity           Mult            ....    1
 Number of Electrons    NEL             ....  534
 Basis Dimension        Dim             .... 1191

ORBITAL ENERGIES
----------------

  NO   OCC          E(Eh)            E(eV)
   0   2.0000     -89.030142     -2422.6333
   1   2.0000     -88.969029     -2420.9704
   2   2.0000     -88.962101     -2420.7818
   3   2.0000     -88.958850     -2420.6934
   4   2.0000     -88.956052     -2420.6172
   5   2.0000     -24.796420      -674.7449
   6   2.0000     -19.200644      -522.4761
   7   2.0000     -19.194835      -522.3180
   8   2.0000     -14.447728      -393.1427
   9   2.0000     -14.445288      -393.0763
  10   2.0000     -14.401182      -391.8761
  11   2.0000     -14.398208      -391.7951
  12   2.0000     -14.395854      -391.7311
  13   2.0000     -14.393279      -391.6610
  14   2.0000     -10.380015      -282.4546
  15   2.0000     -10.351031      -281.6659
  16   2.0000     -10.345280      -281.5094
  17   2.0000     -10.336502      -281.2705
  18   2.0000     -10.334942      -281.2281
  19   2.0000     -10.332882      -281.1720
  20   2.0000     -10.330136      -281.0973
  21   2.0000     -10.329004      -281.0665
  22   2.0000     -10.328727      -281.0589
  23   2.0000     -10.328546      -281.0540
  24   2.0000     -10.323641      -280.9206
  25   2.0000     -10.322904      -280.9005
  26   2.0000     -10.322812      -280.8980
  27   2.0000     -10.322768      -280.8968
  28   2.0000     -10.320647      -280.8391
  29   2.0000     -10.318166      -280.7716
  30   2.0000     -10.316747      -280.7330
  31   2.0000     -10.313780      -280.6522
  32   2.0000     -10.309074      -280.5242
  33   2.0000     -10.307637      -280.4851
  34   2.0000     -10.305943      -280.4390
  35   2.0000     -10.305289      -280.4212
  36   2.0000     -10.304706      -280.4053
  37   2.0000     -10.302246      -280.3384
  38   2.0000     -10.302034      -280.3326
  39   2.0000     -10.301977      -280.3310
  40   2.0000     -10.301806      -280.3264
  41   2.0000     -10.300954      -280.3032
  42   2.0000     -10.300423      -280.2888
  43   2.0000     -10.300065      -280.2790
  44   2.0000     -10.299675      -280.2684
  45   2.0000     -10.299399      -280.2609
  46   2.0000     -10.297669      -280.2138
  47   2.0000     -10.297410      -280.2068
  48   2.0000     -10.293790      -280.1083
  49   2.0000     -10.290221      -280.0112
  50   2.0000     -10.288447      -279.9629
  51   2.0000     -10.285131      -279.8727
  52   2.0000     -10.284771      -279.8628
  53   2.0000     -10.283828      -279.8372
  54   2.0000     -10.283022      -279.8153
  55   2.0000     -10.282327      -279.7963
  56   2.0000     -10.281126      -279.7637
  57   2.0000     -10.280900      -279.7575
  58   2.0000     -10.280772      -279.7540
  59   2.0000     -10.278980      -279.7053
  60   2.0000     -10.278579      -279.6944
  61   2.0000     -10.277893      -279.6757
  62   2.0000     -10.275803      -279.6188
  63   2.0000     -10.275209      -279.6026
  64   2.0000     -10.274820      -279.5921
  65   2.0000     -10.274241      -279.5763
  66   2.0000     -10.274206      -279.5754
  67   2.0000     -10.273577      -279.5582
  68   2.0000     -10.272276      -279.5229
  69   2.0000     -10.271682      -279.5067
  70   2.0000     -10.271418      -279.4995
  71   2.0000     -10.271286      -279.4959
  72   2.0000     -10.270783      -279.4822
  73   2.0000     -10.269658      -279.4516
  74   2.0000      -8.121894      -221.0080
  75   2.0000      -8.064932      -219.4579
  76   2.0000      -8.058231      -219.2756
  77   2.0000      -8.055096      -219.1903
  78   2.0000      -8.052108      -219.1090
  79   2.0000      -6.093203      -165.8045
  80   2.0000      -6.085512      -165.5952
  81   2.0000      -6.084054      -165.5555
  82   2.0000      -6.034595      -164.2097
  83   2.0000      -6.030435      -164.0965
  84   2.0000      -6.027827      -164.0255
  85   2.0000      -6.026109      -163.9788
  86   2.0000      -6.024747      -163.9417
  87   2.0000      -6.023767      -163.9150
  88   2.0000      -6.021669      -163.8580
  89   2.0000      -6.020530      -163.8270
  90   2.0000      -6.019378      -163.7956
  91   2.0000      -6.017642      -163.7484
  92   2.0000      -6.016163      -163.7081
  93   2.0000      -6.013325      -163.6309
  94   2.0000      -1.311737       -35.6942
  95   2.0000      -1.131958       -30.8021
  96   2.0000      -1.113770       -30.3072
  97   2.0000      -1.108086       -30.1525
  98   2.0000      -1.015947       -27.6453
  99   2.0000      -1.009324       -27.4651
 100   2.0000      -1.002456       -27.2782
 101   2.0000      -0.997331       -27.1387
 102   2.0000      -0.994342       -27.0574
 103   2.0000      -0.989941       -26.9377
 104   2.0000      -0.985632       -26.8204
 105   2.0000      -0.984327       -26.7849
 106   2.0000      -0.979641       -26.6574
 107   2.0000      -0.978107       -26.6156
 108   2.0000      -0.975010       -26.5314
 109   2.0000      -0.973229       -26.4829
 110   2.0000      -0.957959       -26.0674
 111   2.0000      -0.953380       -25.9428
 112   2.0000      -0.921000       -25.0617
 113   2.0000      -0.915137       -24.9021
 114   2.0000      -0.910178       -24.7672
 115   2.0000      -0.903932       -24.5972
 116   2.0000      -0.897826       -24.4311
 117   2.0000      -0.887808       -24.1585
 118   2.0000      -0.877251       -23.8712
 119   2.0000      -0.871912       -23.7259
 120   2.0000      -0.868565       -23.6349
 121   2.0000      -0.867737       -23.6123
 122   2.0000      -0.865888       -23.5620
 123   2.0000      -0.863456       -23.4958
 124   2.0000      -0.860777       -23.4229
 125   2.0000      -0.851933       -23.1823
 126   2.0000      -0.843092       -22.9417
 127   2.0000      -0.839843       -22.8533
 128   2.0000      -0.835541       -22.7362
 129   2.0000      -0.826258       -22.4836
 130   2.0000      -0.815461       -22.1898
 131   2.0000      -0.811438       -22.0803
 132   2.0000      -0.809614       -22.0307
 133   2.0000      -0.795440       -21.6450
 134   2.0000      -0.782545       -21.2941
 135   2.0000      -0.762920       -20.7601
 136   2.0000      -0.753103       -20.4930
 137   2.0000      -0.746883       -20.3237
 138   2.0000      -0.741948       -20.1894
 139   2.0000      -0.734097       -19.9758
 140   2.0000      -0.728963       -19.8361
 141   2.0000      -0.718478       -19.5508
 142   2.0000      -0.709300       -19.3010
 143   2.0000      -0.699109       -19.0237
 144   2.0000      -0.691542       -18.8178
 145   2.0000      -0.688806       -18.7434
 146   2.0000      -0.687260       -18.7013
 147   2.0000      -0.684345       -18.6220
 148   2.0000      -0.679826       -18.4990
 149   2.0000      -0.675209       -18.3734
 150   2.0000      -0.670291       -18.2395
 151   2.0000      -0.660338       -17.9687
 152   2.0000      -0.655547       -17.8383
 153   2.0000      -0.650085       -17.6897
 154   2.0000      -0.647289       -17.6136
 155   2.0000      -0.639858       -17.4114
 156   2.0000      -0.638461       -17.3734
 157   2.0000      -0.631553       -17.1854
 158   2.0000      -0.629723       -17.1356
 159   2.0000      -0.626447       -17.0465
 160   2.0000      -0.621701       -16.9174
 161   2.0000      -0.620670       -16.8893
 162   2.0000      -0.617372       -16.7995
 163   2.0000      -0.612181       -16.6583
 164   2.0000      -0.602437       -16.3931
 165   2.0000      -0.598275       -16.2799
 166   2.0000      -0.595763       -16.2115
 167   2.0000      -0.593603       -16.1528
 168   2.0000      -0.589477       -16.0405
 169   2.0000      -0.587552       -15.9881
 170   2.0000      -0.578635       -15.7455
 171   2.0000      -0.572577       -15.5806
 172   2.0000      -0.569224       -15.4894
 173   2.0000      -0.563273       -15.3274
 174   2.0000      -0.555751       -15.1227
 175   2.0000      -0.550372       -14.9764
 176   2.0000      -0.546261       -14.8645
 177   2.0000      -0.541707       -14.7406
 178   2.0000      -0.539615       -14.6837
 179   2.0000      -0.536627       -14.6024
 180   2.0000      -0.533765       -14.5245
 181   2.0000      -0.531254       -14.4562
 182   2.0000      -0.529511       -14.4087
 183   2.0000      -0.525491       -14.2993
 184   2.0000      -0.522351       -14.2139
 185   2.0000      -0.521664       -14.1952
 186   2.0000      -0.517185       -14.0733
 187   2.0000      -0.516925       -14.0662
 188   2.0000      -0.515891       -14.0381
 189   2.0000      -0.513410       -13.9706
 190   2.0000      -0.509262       -13.8577
 191   2.0000      -0.507776       -13.8173
 192   2.0000      -0.506110       -13.7719
 193   2.0000      -0.505755       -13.7623
 194   2.0000      -0.504327       -13.7234
 195   2.0000      -0.501497       -13.6464
 196   2.0000      -0.500740       -13.6258
 197   2.0000      -0.499802       -13.6003
 198   2.0000      -0.498558       -13.5665
 199   2.0000      -0.495877       -13.4935
 200   2.0000      -0.495121       -13.4729
 201   2.0000      -0.489198       -13.3118
 202   2.0000      -0.486726       -13.2445
 203   2.0000      -0.485151       -13.2016
 204   2.0000      -0.482000       -13.1159
 205   2.0000      -0.480328       -13.0704
 206   2.0000      -0.477742       -13.0000
 207   2.0000      -0.476420       -12.9641
 208   2.0000      -0.474786       -12.9196
 209   2.0000      -0.473023       -12.8716
 210   2.0000      -0.472271       -12.8511
 211   2.0000      -0.468064       -12.7367
 212   2.0000      -0.466603       -12.6969
 213   2.0000      -0.466140       -12.6843
 214   2.0000      -0.459636       -12.5073
 215   2.0000      -0.452743       -12.3198
 216   2.0000      -0.451822       -12.2947
 217   2.0000      -0.449554       -12.2330
 218   2.0000      -0.447795       -12.1851
 219   2.0000      -0.444655       -12.0997
 220   2.0000      -0.440370       -11.9831
 221   2.0000      -0.435465       -11.8496
 222   2.0000      -0.434136       -11.8134
 223   2.0000      -0.433315       -11.7911
 224   2.0000      -0.431064       -11.7298
 225   2.0000      -0.429177       -11.6785
 226   2.0000      -0.427031       -11.6201
 227   2.0000      -0.426940       -11.6176
 228   2.0000      -0.422713       -11.5026
 229   2.0000      -0.421021       -11.4566
 230   2.0000      -0.418593       -11.3905
 231   2.0000      -0.417783       -11.3685
 232   2.0000      -0.416837       -11.3427
 233   2.0000      -0.415563       -11.3080
 234   2.0000      -0.414004       -11.2656
 235   2.0000      -0.410813       -11.1788
 236   2.0000      -0.410548       -11.1716
 237   2.0000      -0.409235       -11.1359
 238   2.0000      -0.406753       -11.0683
 239   2.0000      -0.405513       -11.0346
 240   2.0000      -0.405371       -11.0307
 241   2.0000      -0.400724       -10.9043
 242   2.0000      -0.391211       -10.6454
 243   2.0000      -0.388458       -10.5705
 244   2.0000      -0.386576       -10.5193
 245   2.0000      -0.383279       -10.4295
 246   2.0000      -0.377499       -10.2723
 247   2.0000      -0.368802       -10.0356
 248   2.0000      -0.364026        -9.9056
 249   2.0000      -0.358508        -9.7555
 250   2.0000      -0.354804        -9.6547
 251   2.0000      -0.351172        -9.5559
 252   2.0000      -0.347101        -9.4451
 253   2.0000      -0.340083        -9.2541
 254   2.0000      -0.339313        -9.2332
 255   2.0000      -0.332159        -9.0385
 256   2.0000      -0.327151        -8.9022
 257   2.0000      -0.320610        -8.7242
 258   2.0000      -0.314916        -8.5693
 259   2.0000      -0.309666        -8.4264
 260   2.0000      -0.302793        -8.2394
 261   2.0000      -0.298328        -8.1179
 262   2.0000      -0.285980        -7.7819
 263   2.0000      -0.280179        -7.6240
 264   2.0000      -0.274969        -7.4823
 265   2.0000      -0.238697        -6.4953
 266   2.0000      -0.215531        -5.8649
 267   0.0000      -0.127144        -3.4598
 268   0.0000      -0.098626        -2.6837
 269   0.0000      -0.070823        -1.9272
 270   0.0000      -0.049888        -1.3575
 271   0.0000      -0.045597        -1.2408

MULLIKEN ATOMIC CHARGES
-----------------------
   0 C :    0.337573
   1 C :   -0.361619
   2 C :   -0.183057
   3 N :    0.134487
   4 C :   -0.190081
   5 N :    0.134571
   6 C :    0.044602
   7 C :    0.001447
   8 C :   -0.086533
   9 C :    0.099083
  10 C :    0.095791
  11 C :   -0.087401
  12 C :   -0.019471
  13 C :    0.034299
  14 C :    0.034194
  15 C :   -0.018289
  16 C :    0.141667
  17 O :   -0.164109
  18 C :   -0.088767
  19 C :   -0.041476
  20 C :   -0.020453
  21 C :    0.001991
  22 C :    0.032078
  23 C :    0.038651
  24 C :   -0.043683
  25 S :    0.121776
  26 C :   -0.029710
  27 C :    0.031742
  28 C :    0.042367
  29 C :   -0.012539
  30 S :    0.104088
  31 C :   -0.045826
  32 C :    0.087520
  33 C :   -0.095502
  34 C :    0.224621
  35 F :   -0.173462
  36 C :    0.012028
  37 C :   -0.003095
  38 C :    0.020644
  39 N :   -0.274270
  40 S :    0.504733
  41 N :   -0.280249
  42 C :   -0.054630
  43 C :   -0.018699
  44 C :    0.041677
  45 C :    0.031474
  46 C :   -0.042784
  47 S :    0.151693
  48 C :   -0.054268
  49 C :    0.041811
  50 C :    0.026263
  51 C :    0.005579
  52 S :    0.121985
  53 C :   -0.026711
  54 C :   -0.039893
  55 C :   -0.094317
  56 C :    0.335163
  57 C :   -0.367590
  58 C :   -0.182810
  59 N :    0.133894
  60 C :   -0.193384
  61 N :    0.131574
  62 C :    0.049499
  63 C :    0.000873
  64 C :    0.142446
  65 O :   -0.166391
  66 C :   -0.088709
  67 C :    0.099416
  68 C :    0.096231
  69 C :   -0.090098
  70 C :   -0.021056
  71 C :    0.035967
  72 C :    0.031757
  73 C :   -0.017138
  74 H :   -0.019017
  75 H :   -0.012732
  76 H :   -0.011708
  77 H :   -0.009343
  78 H :   -0.009393
  79 H :   -0.021572
  80 H :    0.016431
  81 H :    0.020474
  82 H :    0.003713
  83 H :   -0.002756
  84 H :   -0.005302
  85 H :    0.001643
  86 H :    0.010240
  87 H :    0.010968
  88 H :    0.016908
  89 H :   -0.000763
  90 H :   -0.006995
  91 H :   -0.004620
  92 H :    0.001696
  93 H :    0.018795
  94 H :    0.015940
  95 H :   -0.020369
  96 H :   -0.013502
  97 H :   -0.013481
  98 H :   -0.011001
  99 H :   -0.010570
 100 H :   -0.022872
Sum of atomic charges:   -0.0000000

LOEWDIN ATOMIC CHARGES
----------------------
   0 C :    0.072020
   1 C :   -0.151286
   2 C :   -0.017227
   3 N :   -0.066595
   4 C :   -0.020928
   5 N :   -0.064098
   6 C :   -0.022982
   7 C :   -0.052966
   8 C :    0.026646
   9 C :   -0.009958
  10 C :   -0.007548
  11 C :    0.015119
  12 C :   -0.006500
  13 C :   -0.017437
  14 C :   -0.016484
  15 C :   -0.011637
  16 C :    0.082269
  17 O :   -0.158140
  18 C :   -0.097371
  19 C :    0.047667
  20 C :   -0.060999
  21 C :   -0.108066
  22 C :   -0.032414
  23 C :   -0.011637
  24 C :   -0.180820
  25 S :    0.417823
  26 C :   -0.156445
  27 C :   -0.033872
  28 C :   -0.013443
  29 C :   -0.140655
  30 S :    0.417449
  31 C :   -0.027088
  32 C :   -0.028003
  33 C :   -0.038927
  34 C :    0.095398
  35 F :   -0.051039
  36 C :   -0.073314
  37 C :   -0.039069
  38 C :   -0.046959
  39 N :   -0.280782
  40 S :    0.637070
  41 N :   -0.287148
  42 C :   -0.022792
  43 C :   -0.147579
  44 C :   -0.012050
  45 C :   -0.036022
  46 C :   -0.154775
  47 S :    0.427128
  48 C :   -0.187359
  49 C :   -0.010513
  50 C :   -0.038305
  51 C :   -0.106302
  52 S :    0.418876
  53 C :   -0.066924
  54 C :    0.048000
  55 C :   -0.103008
  56 C :    0.072171
  57 C :   -0.155595
  58 C :   -0.017447
  59 N :   -0.071182
  60 C :   -0.021189
  61 N :   -0.067648
  62 C :   -0.022092
  63 C :   -0.051981
  64 C :    0.081531
  65 O :   -0.160197
  66 C :    0.024971
  67 C :   -0.010290
  68 C :   -0.007898
  69 C :    0.013635
  70 C :   -0.007238
  71 C :   -0.018537
  72 C :   -0.017940
  73 C :   -0.012008
  74 H :    0.036622
  75 H :    0.037933
  76 H :    0.033752
  77 H :    0.031357
  78 H :    0.030923
  79 H :    0.030232
  80 H :    0.032550
  81 H :    0.039844
  82 H :    0.040386
  83 H :    0.036042
  84 H :    0.035480
  85 H :    0.039269
  86 H :    0.044448
  87 H :    0.031206
  88 H :    0.045648
  89 H :    0.037884
  90 H :    0.034181
  91 H :    0.035161
  92 H :    0.039267
  93 H :    0.038956
  94 H :    0.032279
  95 H :    0.036047
  96 H :    0.037525
  97 H :    0.033163
  98 H :    0.030665
  99 H :    0.030355
 100 H :    0.029757

  Mayer bond orders larger than 0.100000
B(  0-C ,  1-C ) :   1.5873 B(  0-C ,  6-C ) :   0.9757 B(  0-C , 18-C ) :   1.1045
B(  1-C ,  2-C ) :   1.1536 B(  1-C ,  4-C ) :   1.1520 B(  2-C ,  3-N ) :   2.9547
B(  4-C ,  5-N ) :   2.9552 B(  6-C ,  7-C ) :   1.2164 B(  6-C , 11-C ) :   1.4608
B(  7-C ,  8-C ) :   1.4756 B(  7-C , 16-C ) :   0.9402 B(  8-C ,  9-C ) :   1.1729
B(  8-C , 74-H ) :   1.0164 B(  9-C , 10-C ) :   1.2617 B(  9-C , 15-C ) :   1.2441
B( 10-C , 11-C ) :   1.1955 B( 10-C , 12-C ) :   1.2440 B( 11-C , 75-H ) :   0.9897
B( 12-C , 13-C ) :   1.4852 B( 12-C , 76-H ) :   0.9975 B( 13-C , 14-C ) :   1.2607
B( 13-C , 77-H ) :   0.9889 B( 14-C , 15-C ) :   1.4866 B( 14-C , 78-H ) :   0.9891
B( 15-C , 79-H ) :   0.9977 B( 16-C , 17-O ) :   2.1858 B( 16-C , 18-C ) :   0.9603
B( 18-C , 19-C ) :   1.4902 B( 19-C , 20-C ) :   1.2469 B( 19-C , 80-H ) :   0.9446
B( 20-C , 21-C ) :   1.4230 B( 20-C , 81-H ) :   0.9764 B( 21-C , 22-C ) :   1.1779
B( 21-C , 25-S ) :   1.0798 B( 22-C , 23-C ) :   1.5402 B( 22-C , 82-H ) :   1.0025
B( 23-C , 24-C ) :   1.2163 B( 23-C , 83-H ) :   0.9955 B( 24-C , 25-S ) :   1.0585
B( 24-C , 26-C ) :   1.4512 B( 26-C , 27-C ) :   1.2060 B( 26-C , 30-S ) :   1.0741
B( 27-C , 28-C ) :   1.5612 B( 27-C , 84-H ) :   0.9939 B( 28-C , 29-C ) :   1.1658
B( 28-C , 85-H ) :   1.0007 B( 29-C , 30-S ) :   1.0454 B( 29-C , 31-C ) :   1.4977
B( 31-C , 32-C ) :   1.2250 B( 31-C , 86-H ) :   0.9691 B( 32-C , 33-C ) :   1.3091
B( 32-C , 38-C ) :   1.1394 B( 33-C , 34-C ) :   1.3159 B( 33-C , 87-H ) :   0.9783
B( 34-C , 35-F ) :   1.1189 B( 34-C , 36-C ) :   1.2986 B( 36-C , 37-C ) :   1.1382
B( 36-C , 42-C ) :   1.1963 B( 37-C , 38-C ) :   1.1548 B( 37-C , 41-N ) :   1.5805
B( 38-C , 39-N ) :   1.5780 B( 39-N , 40-S ) :   1.2548 B( 39-N , 41-N ) :   0.1434
B( 40-S , 41-N ) :   1.2461 B( 42-C , 43-C ) :   1.5271 B( 42-C , 88-H ) :   0.9571
B( 43-C , 44-C ) :   1.1558 B( 43-C , 47-S ) :   1.0500 B( 44-C , 45-C ) :   1.5721
B( 44-C , 89-H ) :   1.0000 B( 45-C , 46-C ) :   1.1953 B( 45-C , 90-H ) :   0.9955
B( 46-C , 47-S ) :   1.0893 B( 46-C , 48-C ) :   1.4452 B( 48-C , 49-C ) :   1.2233
B( 48-C , 52-S ) :   1.0567 B( 49-C , 50-C ) :   1.5328 B( 49-C , 91-H ) :   0.9947
B( 50-C , 51-C ) :   1.1852 B( 50-C , 92-H ) :   1.0024 B( 51-C , 52-S ) :   1.0851
B( 51-C , 53-C ) :   1.4084 B( 53-C , 54-C ) :   1.2630 B( 53-C , 93-H ) :   0.9767
B( 54-C , 55-C ) :   1.4747 B( 54-C , 94-H ) :   0.9454 B( 55-C , 56-C ) :   1.1129
B( 55-C , 64-C ) :   0.9644 B( 56-C , 57-C ) :   1.5813 B( 56-C , 62-C ) :   0.9745
B( 57-C , 58-C ) :   1.1530 B( 57-C , 60-C ) :   1.1546 B( 58-C , 59-N ) :   2.9556
B( 60-C , 61-N ) :   2.9571 B( 62-C , 63-C ) :   1.2172 B( 62-C , 69-C ) :   1.4610
B( 63-C , 64-C ) :   0.9381 B( 63-C , 66-C ) :   1.4806 B( 64-C , 65-O ) :   2.1824
B( 66-C , 67-C ) :   1.1702 B( 66-C , 95-H ) :   1.0157 B( 67-C , 68-C ) :   1.2633
B( 67-C , 73-C ) :   1.2460 B( 68-C , 69-C ) :   1.1955 B( 68-C , 70-C ) :   1.2436
B( 69-C , 96-H ) :   0.9892 B( 70-C , 71-C ) :   1.4864 B( 70-C , 97-H ) :   0.9968
B( 71-C , 72-C ) :   1.2620 B( 71-C , 98-H ) :   0.9884 B( 72-C , 73-C ) :   1.4848
B( 72-C , 99-H ) :   0.9892 B( 73-C ,100-H ) :   0.9975

-----------------------------------------------------------------------------
         ABSORPTION SPECTRUM VIA TRANSITION ELECTRIC DIPOLE MOMENTS
-----------------------------------------------------------------------------
State   Energy  Wavelength   fosc         T2         TX        TY        TZ
        (cm-1)    (nm)                  (au**2)     (au)      (au)      (au)
-----------------------------------------------------------------------------
   0    7012.3   1426.1   0.662843474  31.11902   5.45501  -0.84449  -0.80545
   1   12361.3    809.0   0.205969279   5.48545  -0.40770  -0.93646   2.10767
   2   13254.5    754.5   1.656790541  41.15080  -0.75563   1.89231  -6.08268
   3   18012.6    555.2   0.290011306   5.30047   0.18306   2.15565   0.78749
   4   19628.5    509.5   0.141633227   2.37550   0.04775  -1.47701  -0.43779
   5   20950.0    477.3   0.598769900   9.40916  -0.53909   2.83310   1.04504
   6   21791.3    458.9   0.013104475   0.19798   0.11130  -0.05651  -0.42708
   7   22813.3    438.3   0.365540088   5.27499   0.40554  -2.16853  -0.63877
   8   23682.2    422.3   0.131452919   1.82736   0.13754  -0.25923   1.31956
   9   23944.3    417.6   0.123634031   1.69985  -1.14903   0.54418   0.28890
  10   24400.1    409.8   0.030984749   0.41805   0.00914  -0.25640   0.59349
  11   25073.3    398.8   0.003016878   0.03961  -0.07014   0.08328   0.16660
  12   25159.2    397.5   0.016381750   0.21436   0.10776  -0.21431  -0.39600
  13   25253.8    396.0   0.003784017   0.04933   0.10605  -0.11368  -0.15862
  14   26009.9    384.5   0.091516323   1.15834   0.16187   1.01585   0.31652
  15   26356.8    379.4   0.046783365   0.58435   0.63943  -0.14576  -0.39272
  16   26619.6    375.7   0.017881003   0.22114  -0.16877   0.14160  -0.41546
  17   26853.9    372.4   0.081924430   1.00434   0.38426  -0.64870   0.66021
  18   27614.3    362.1   0.014819112   0.17667   0.10218  -0.24928   0.32263
  19   28595.3    349.7   0.009770894   0.11249   0.21960   0.11832   0.22420
  20   28903.0    346.0   0.040446828   0.46070   0.66016   0.14999   0.04884
  21   29305.5    341.2   0.068722133   0.77201  -0.00316  -0.51982   0.70837
  22   29698.7    336.7   0.048922249   0.54231  -0.53990  -0.25690   0.42991
  23   29991.8    333.4   0.055665943   0.61103   0.23786   0.71519  -0.20727
  24   30253.8    330.5   0.097984444   1.06624  -0.27368   0.09019   0.99157
  25   30889.0    323.7   0.066845132   0.71243   0.62123   0.11331   0.56006
  26   31132.2    321.2   0.006672603   0.07056   0.12073  -0.00616  -0.23653
  27   31410.4    318.4   0.123079942   1.29000   0.63798   0.38725   0.85617
  28   31910.1    313.4   0.171712659   1.77154  -0.62139  -0.30651   1.13642
  29   31937.7    313.1   0.219237992   2.25990   0.04274  -1.19506   0.91099
  30   32478.5    307.9   0.048498735   0.49160   0.54667  -0.41836   0.13313
  31   32528.5    307.4   0.054960491   0.55624   0.01844  -0.25117   0.70201
  32   32642.4    306.4   0.001334687   0.01346   0.02200  -0.05463   0.09996
  33   32944.3    303.5   0.030714645   0.30693   0.42858  -0.33747   0.09677
  34   33095.0    302.2   0.000170218   0.00169  -0.02446   0.00054  -0.03308
  35   33370.2    299.7   0.030068394   0.29664   0.11413  -0.08167   0.52625
  36   33571.8    297.9   0.048999781   0.48050  -0.43983   0.37928  -0.37841
  37   33847.9    295.4   0.149885304   1.45782  -0.79258   0.41344  -0.81160
  38   34278.1    291.7   0.264279073   2.53818  -0.37018   0.10111  -1.54626
  39   34617.4    288.9   0.002931614   0.02788  -0.08365   0.04163  -0.13838
  40   34744.4    287.8   0.017967758   0.17025   0.16702  -0.12510   0.35596
  41   34980.4    285.9   0.240196157   2.26057   1.16540   0.37869  -0.87121
  42   35402.1    282.5   0.029892960   0.27798  -0.21181   0.20022  -0.43935
  43   35607.9    280.8   0.024937592   0.23056  -0.27007   0.08336   0.38817
  44   36098.6    277.0   0.071579637   0.65279  -0.19246  -0.16794   0.76652
  45   36308.0    275.4   0.001222789   0.01109   0.05889   0.00291  -0.08724
  46   36445.2    274.4   0.026085125   0.23563   0.10157  -0.26842   0.39149
  47   36543.4    273.6   0.017664889   0.15914   0.00475  -0.14710   0.37078
  48   36691.8    272.5   0.004423789   0.03969   0.05181  -0.17449   0.08099
  49   37006.7    270.2   0.013544451   0.12049  -0.32231   0.10787   0.07053
  50   37280.9    268.2   0.155457091   1.37278  -0.84038   0.80563   0.13231
  51   37658.4    265.5   0.033425267   0.29221  -0.13984   0.08430   0.51531
  52   37784.1    264.7   0.062244060   0.54233  -0.10942   0.02738  -0.72774
  53   38069.4    262.7   0.020868063   0.18046   0.12011  -0.19735   0.35650
  54   38521.7    259.6   0.061613556   0.52656  -0.15564   0.19120  -0.68248
  55   38598.3    259.1   0.052502567   0.44780  -0.29555  -0.01852   0.60009
  56   38898.6    257.1   0.124940164   1.05741  -0.60470   0.82809   0.07756
  57   38964.6    256.6   0.005876330   0.04965  -0.09477  -0.10819  -0.17018
  58   39065.7    256.0   0.058857055   0.49600   0.52222  -0.06573  -0.46794
  59   39274.5    254.6   0.260485569   2.18348   1.02503  -1.01157  -0.33094
  60   39916.9    250.5   0.029884688   0.24647  -0.11289   0.06622  -0.47890
  61   40068.9    249.6   0.037499297   0.30810   0.02732  -0.15766   0.53150
  62   40216.6    248.7   0.241614874   1.97785  -0.53894   1.24727   0.36290

FINAL SINGLE POINT ENERGY     -4868.017834534288

DIPOLE MOMENT
-------------
                                X             Y             Z
Electronic contribution:     -3.64772      13.24318     -45.46278
Nuclear contribution   :      2.65178     -12.14986      43.09890
                        -----------------------------------------
Total Dipole Moment    :     -0.99593       1.09332      -2.36388
                        -----------------------------------------
Magnitude (a.u.)       :      2.78840
Magnitude (Debye)      :      7.08754

Rotational constants in cm-1:     0.000536     0.000396     0.000271
Rotational constants in MHz :    16.059430    11.860809     8.114319

                             ****ORCA TERMINATED NORMALLY****
TOTAL RUN TIME: 0 days 0 hours 11 minutes 7 seconds 217 msec
