                         Program Version 4.2.0 -  RELEASE  -
|  1> # ORCA input file
|  2> # SCF done       -160.021161679616          0.000753875735
|  3> ! CAM-B3LYP def2-SVP def2/J RIJCOSX Grid4 TightSCF
|  4> %maxcore 5000
|  5> %tddft
|  6>     Mode sTDDFT
|  7>     Ethresh 5.0
|  8>     maxcore 5000
|  9> end
| 10>
| 11> %pal
| 12>   nprocs 6
| 13>   end
| 14> * xyz 0 1
| 15>    C       -7.00412        -1.00596         2.55156
| 16>    C       -5.82063        -0.96312         3.22413
| 17>    C       -5.08782         0.19379         2.89779
| 18>    C       -5.75532         1.00481         1.97244
| 19>    S       -7.26264         0.35248         1.50860
| 20>    C       -4.94745         2.14757         1.70390
| 21>    C       -3.77244         2.04726         2.46080
| 22>    C       -3.82660         0.82230         3.24736
| 23>    C       -2.89357         0.38327         4.14055
| 24>    C       -1.72726         1.12407         4.42621
| 25>    N       -0.78379         1.72778         4.67251
| 26>    C       -3.03954        -0.83116         4.84350
| 27>    N       -3.15464        -1.82298         5.40713
| 28>    C       -2.89854         3.11575         2.25371
| 29>    C       -3.40455         4.03531         1.35737
| 30>    S       -4.98769         3.56223         0.75498
| 31>    C       -2.81078         5.27163         0.94567
| 32>    C       -3.47202         6.17404         0.13274
| 33>    C       -2.93218         7.42168        -0.18420
| 34>    F       -3.70930         8.24467        -0.91434
| 35>    C       -1.70877         7.87488         0.26971
| 36>    C       -0.97123         6.94129         1.03814
| 37>    C       -1.51699         5.65869         1.39356
| 38>    N       -0.67530         4.96408         2.15530
| 39>    S        0.66110         5.82462         2.38939
| 40>    N        0.24557         7.12512         1.54560
| 41>    C       -1.19520         9.21925        -0.00230
| 42>    S       -1.14052         9.55911        -1.73616
| 43>    C       -1.28736        11.31033        -1.76633
| 44>    C       -1.89043        11.99781        -2.77215
| 45>    S       -1.81198        13.69673        -2.52423
| 46>    C       -0.98113        13.47870        -1.03420
| 47>    C       -0.76376        12.16429        -0.76111
| 48>    S        0.08484        11.59192         0.66711
| 49>    C       -0.73740        10.03847         0.97306
| 50>    C       -0.77561         9.74736         2.38491
| 51>    C       -1.69424         8.97852         2.99451
| 52>    C       -1.64213         8.50711         4.35462
| 53>    C       -0.95477         9.07317         5.41250
| 54>    F       -0.29252        10.23072         5.25087
| 55>    C       -0.93001         8.51004         6.70346
| 56>    F       -0.26342         9.20530         7.64006
| 57>    C       -1.57268         7.33409         7.04017
| 58>    C       -2.27999         6.71412         5.97981
| 59>    C       -2.31915         7.29728         4.66642
| 60>    N       -3.01304         6.54962         3.80864
| 61>    S       -3.55136         5.24381         4.57597
| 62>    N       -2.94664         5.56081         6.02568
| 63>    C       -1.55113         6.76221         8.38791
| 64>    C       -0.40508         6.82059         9.18484
| 65>    C       -0.42316         6.26966        10.44516
| 66>    C       -1.57242         5.65512        10.93963
| 67>    C       -2.73708         5.59149        10.16304
| 68>    C       -2.69385         6.14701         8.89263
| 69>    C       -4.03055         4.97655        10.64053
| 70>    O       -5.13689         5.31074         9.84186
| 71>    N       -1.49386         5.09865        12.26133
| 72>    O       -0.57402         5.45846        12.96692
| 73>    O       -2.34317         4.29929        12.60350
| 74>    H       -7.75979        -1.76406         2.60072
| 75>    H       -5.49752        -1.72178         3.91278
| 76>    H       -1.93328         3.23514         2.70955
| 77>    H       -4.45662         5.94650        -0.24700
| 78>    H       -2.35940        11.59710        -3.64734
| 79>    H       -0.68315        14.32498        -0.44993
| 80>    H        0.02201        10.20633         2.95264
| 81>    H       -2.51961         8.56571         2.43318
| 82>    H        0.50010         7.27325         8.81486
| 83>    H        0.45419         6.29591        11.07342
| 84>    H       -3.57854         6.08568         8.27888
| 85>    H       -4.21360         5.23939        11.69083
| 86>    H       -3.94528         3.88626        10.59449
| 87>    H       -5.32801         6.24949         9.94630
| 88> *
| 89>
| 90>                          ****END OF INPUT****

CARTESIAN COORDINATES (ANGSTROEM)
---------------------------------
  C     -7.004120   -1.005960    2.551560
  C     -5.820630   -0.963120    3.224130
  C     -5.087820    0.193790    2.897790
  C     -5.755320    1.004810    1.972440
  S     -7.262640    0.352480    1.508600
  C     -4.947450    2.147570    1.703900
  C     -3.772440    2.047260    2.460800
  C     -3.826600    0.822300    3.247360
  C     -2.893570    0.383270    4.140550
  C     -1.727260    1.124070    4.426210
  N     -0.783790    1.727780    4.672510
  C     -3.039540   -0.831160    4.843500
  N     -3.154640   -1.822980    5.407130
  C     -2.898540    3.115750    2.253710
  C     -3.404550    4.035310    1.357370
  S     -4.987690    3.562230    0.754980
  C     -2.810780    5.271630    0.945670
  C     -3.472020    6.174040    0.132740
  C     -2.932180    7.421680   -0.184200
  F     -3.709300    8.244670   -0.914340
  C     -1.708770    7.874880    0.269710
  C     -0.971230    6.941290    1.038140
  C     -1.516990    5.658690    1.393560
  N     -0.675300    4.964080    2.155300
  S      0.661100    5.824620    2.389390
  N      0.245570    7.125120    1.545600
  C     -1.195200    9.219250   -0.002300
  S     -1.140520    9.559110   -1.736160
  C     -1.287360   11.310330   -1.766330
  C     -1.890430   11.997810   -2.772150
  S     -1.811980   13.696730   -2.524230
  C     -0.981130   13.478700   -1.034200
  C     -0.763760   12.164290   -0.761110
  S      0.084840   11.591920    0.667110
  C     -0.737400   10.038470    0.973060
  C     -0.775610    9.747360    2.384910
  C     -1.694240    8.978520    2.994510
  C     -1.642130    8.507110    4.354620
  C     -0.954770    9.073170    5.412500
  F     -0.292520   10.230720    5.250870
  C     -0.930010    8.510040    6.703460
  F     -0.263420    9.205300    7.640060
  C     -1.572680    7.334090    7.040170
  C     -2.279990    6.714120    5.979810
  C     -2.319150    7.297280    4.666420
  N     -3.013040    6.549620    3.808640
  S     -3.551360    5.243810    4.575970
  N     -2.946640    5.560810    6.025680
  C     -1.551130    6.762210    8.387910
  C     -0.405080    6.820590    9.184840
  C     -0.423160    6.269660   10.445160
  C     -1.572420    5.655120   10.939630
  C     -2.737080    5.591490   10.163040
  C     -2.693850    6.147010    8.892630
  C     -4.030550    4.976550   10.640530
  O     -5.136890    5.310740    9.841860
  N     -1.493860    5.098650   12.261330
  O     -0.574020    5.458460   12.966920
  O     -2.343170    4.299290   12.603500
  H     -7.759790   -1.764060    2.600720
  H     -5.497520   -1.721780    3.912780
  H     -1.933280    3.235140    2.709550
  H     -4.456620    5.946500   -0.247000
  H     -2.359400   11.597100   -3.647340
  H     -0.683150   14.324980   -0.449930
  H      0.022010   10.206330    2.952640
  H     -2.519610    8.565710    2.433180
  H      0.500100    7.273250    8.814860
  H      0.454190    6.295910   11.073420
  H     -3.578540    6.085680    8.278880
  H     -4.213600    5.239390   11.690830
  H     -3.945280    3.886260   10.594490
  H     -5.328010    6.249490    9.946300

 Total Charge           Charge          ....    0
 Multiplicity           Mult            ....    1
 Number of Electrons    NEL             ....  460
 Basis Dimension        Dim             ....  924

ORBITAL ENERGIES
----------------

  NO   OCC          E(Eh)            E(eV)
   0   2.0000     -89.033013     -2422.7114
   1   2.0000     -89.029025     -2422.6029
   2   2.0000     -88.991905     -2421.5928
   3   2.0000     -88.990087     -2421.5434
   4   2.0000     -88.960803     -2420.7465
   5   2.0000     -88.941954     -2420.2336
   6   2.0000     -88.940337     -2420.1896
   7   2.0000     -24.805491      -674.9917
   8   2.0000     -24.804671      -674.9694
   9   2.0000     -24.791790      -674.6189
  10   2.0000     -19.237784      -523.4867
  11   2.0000     -19.235376      -523.4212
  12   2.0000     -19.213287      -522.8201
  13   2.0000     -14.642340      -398.4383
  14   2.0000     -14.447906      -393.1475
  15   2.0000     -14.445205      -393.0740
  16   2.0000     -14.444319      -393.0499
  17   2.0000     -14.440188      -392.9375
  18   2.0000     -14.429147      -392.6370
  19   2.0000     -14.428838      -392.6286
  20   2.0000     -10.387852      -282.6678
  21   2.0000     -10.384231      -282.5693
  22   2.0000     -10.378130      -282.4033
  23   2.0000     -10.363956      -282.0176
  24   2.0000     -10.351036      -281.6660
  25   2.0000     -10.337060      -281.2857
  26   2.0000     -10.336360      -281.2667
  27   2.0000     -10.335391      -281.2403
  28   2.0000     -10.331974      -281.1473
  29   2.0000     -10.331131      -281.1244
  30   2.0000     -10.330620      -281.1105
  31   2.0000     -10.329373      -281.0765
  32   2.0000     -10.328977      -281.0658
  33   2.0000     -10.324364      -280.9402
  34   2.0000     -10.324340      -280.9396
  35   2.0000     -10.320678      -280.8399
  36   2.0000     -10.317849      -280.7629
  37   2.0000     -10.316707      -280.7319
  38   2.0000     -10.314616      -280.6750
  39   2.0000     -10.313682      -280.6495
  40   2.0000     -10.313038      -280.6320
  41   2.0000     -10.312469      -280.6165
  42   2.0000     -10.305565      -280.4287
  43   2.0000     -10.305383      -280.4237
  44   2.0000     -10.305123      -280.4167
  45   2.0000     -10.304521      -280.4003
  46   2.0000     -10.302173      -280.3364
  47   2.0000     -10.301328      -280.3134
  48   2.0000     -10.301149      -280.3085
  49   2.0000     -10.299905      -280.2747
  50   2.0000     -10.299401      -280.2609
  51   2.0000     -10.298973      -280.2493
  52   2.0000     -10.298639      -280.2402
  53   2.0000     -10.297087      -280.1980
  54   2.0000     -10.291259      -280.0394
  55   2.0000     -10.290037      -280.0061
  56   2.0000     -10.285391      -279.8797
  57   2.0000     -10.285296      -279.8771
  58   2.0000     -10.280027      -279.7337
  59   2.0000      -8.123913      -221.0629
  60   2.0000      -8.120616      -220.9732
  61   2.0000      -8.086378      -220.0415
  62   2.0000      -8.085044      -220.0052
  63   2.0000      -8.056921      -219.2400
  64   2.0000      -8.037396      -218.7087
  65   2.0000      -8.035935      -218.6689
  66   2.0000      -6.095122      -165.8567
  67   2.0000      -6.091875      -165.7683
  68   2.0000      -6.087399      -165.6466
  69   2.0000      -6.086394      -165.6192
  70   2.0000      -6.084081      -165.5563
  71   2.0000      -6.082972      -165.5261
  72   2.0000      -6.055577      -164.7806
  73   2.0000      -6.054278      -164.7453
  74   2.0000      -6.051426      -164.6677
  75   2.0000      -6.049856      -164.6250
  76   2.0000      -6.048872      -164.5982
  77   2.0000      -6.047695      -164.5662
  78   2.0000      -6.026269      -163.9831
  79   2.0000      -6.021944      -163.8654
  80   2.0000      -6.019026      -163.7860
  81   2.0000      -6.007814      -163.4809
  82   2.0000      -6.006305      -163.4399
  83   2.0000      -6.003599      -163.3662
  84   2.0000      -6.002337      -163.3319
  85   2.0000      -5.997130      -163.1902
  86   2.0000      -5.995543      -163.1470
  87   2.0000      -1.328601       -36.1531
  88   2.0000      -1.317334       -35.8465
  89   2.0000      -1.310416       -35.6582
  90   2.0000      -1.306399       -35.5489
  91   2.0000      -1.135378       -30.8952
  92   2.0000      -1.134516       -30.8717
  93   2.0000      -1.129813       -30.7438
  94   2.0000      -1.103401       -30.0251
  95   2.0000      -1.044493       -28.4221
  96   2.0000      -1.020840       -27.7785
  97   2.0000      -1.006501       -27.3883
  98   2.0000      -1.001213       -27.2444
  99   2.0000      -1.000678       -27.2298
 100   2.0000      -0.993573       -27.0365
 101   2.0000      -0.988451       -26.8971
 102   2.0000      -0.985639       -26.8206
 103   2.0000      -0.977081       -26.5877
 104   2.0000      -0.973175       -26.4814
 105   2.0000      -0.956390       -26.0247
 106   2.0000      -0.947119       -25.7724
 107   2.0000      -0.917146       -24.9568
 108   2.0000      -0.911201       -24.7950
 109   2.0000      -0.899042       -24.4642
 110   2.0000      -0.888239       -24.1702
 111   2.0000      -0.875150       -23.8140
 112   2.0000      -0.871277       -23.7087
 113   2.0000      -0.868375       -23.6297
 114   2.0000      -0.863519       -23.4975
 115   2.0000      -0.862277       -23.4638
 116   2.0000      -0.855138       -23.2695
 117   2.0000      -0.851847       -23.1799
 118   2.0000      -0.831360       -22.6225
 119   2.0000      -0.812402       -22.1066
 120   2.0000      -0.794274       -21.6133
 121   2.0000      -0.790408       -21.5081
 122   2.0000      -0.777049       -21.1446
 123   2.0000      -0.772772       -21.0282
 124   2.0000      -0.760003       -20.6807
 125   2.0000      -0.750895       -20.4329
 126   2.0000      -0.747582       -20.3427
 127   2.0000      -0.731358       -19.9013
 128   2.0000      -0.722947       -19.6724
 129   2.0000      -0.718471       -19.5506
 130   2.0000      -0.712800       -19.3963
 131   2.0000      -0.702662       -19.1204
 132   2.0000      -0.696481       -18.9522
 133   2.0000      -0.685844       -18.6628
 134   2.0000      -0.678869       -18.4730
 135   2.0000      -0.673816       -18.3355
 136   2.0000      -0.668063       -18.1789
 137   2.0000      -0.662531       -18.0284
 138   2.0000      -0.652870       -17.7655
 139   2.0000      -0.645057       -17.5529
 140   2.0000      -0.643349       -17.5064
 141   2.0000      -0.636666       -17.3246
 142   2.0000      -0.633104       -17.2276
 143   2.0000      -0.631803       -17.1922
 144   2.0000      -0.625844       -17.0301
 145   2.0000      -0.623649       -16.9703
 146   2.0000      -0.622144       -16.9294
 147   2.0000      -0.614059       -16.7094
 148   2.0000      -0.611919       -16.6512
 149   2.0000      -0.598951       -16.2983
 150   2.0000      -0.597121       -16.2485
 151   2.0000      -0.593906       -16.1610
 152   2.0000      -0.589785       -16.0489
 153   2.0000      -0.588725       -16.0200
 154   2.0000      -0.577710       -15.7203
 155   2.0000      -0.575733       -15.6665
 156   2.0000      -0.569794       -15.5049
 157   2.0000      -0.567966       -15.4552
 158   2.0000      -0.560945       -15.2641
 159   2.0000      -0.558002       -15.1840
 160   2.0000      -0.556202       -15.1350
 161   2.0000      -0.551796       -15.0151
 162   2.0000      -0.548167       -14.9164
 163   2.0000      -0.546364       -14.8673
 164   2.0000      -0.542531       -14.7630
 165   2.0000      -0.540299       -14.7023
 166   2.0000      -0.533761       -14.5244
 167   2.0000      -0.525369       -14.2960
 168   2.0000      -0.524211       -14.2645
 169   2.0000      -0.520340       -14.1592
 170   2.0000      -0.519433       -14.1345
 171   2.0000      -0.517322       -14.0771
 172   2.0000      -0.511580       -13.9208
 173   2.0000      -0.506498       -13.7825
 174   2.0000      -0.504223       -13.7206
 175   2.0000      -0.497904       -13.5486
 176   2.0000      -0.495747       -13.4900
 177   2.0000      -0.494431       -13.4541
 178   2.0000      -0.491118       -13.3640
 179   2.0000      -0.489838       -13.3292
 180   2.0000      -0.489015       -13.3068
 181   2.0000      -0.479518       -13.0484
 182   2.0000      -0.475790       -12.9469
 183   2.0000      -0.473071       -12.8729
 184   2.0000      -0.472375       -12.8540
 185   2.0000      -0.467232       -12.7140
 186   2.0000      -0.465729       -12.6731
 187   2.0000      -0.460111       -12.5203
 188   2.0000      -0.458240       -12.4694
 189   2.0000      -0.456559       -12.4236
 190   2.0000      -0.454570       -12.3695
 191   2.0000      -0.451560       -12.2876
 192   2.0000      -0.450630       -12.2623
 193   2.0000      -0.446223       -12.1423
 194   2.0000      -0.444336       -12.0910
 195   2.0000      -0.441802       -12.0220
 196   2.0000      -0.438893       -11.9429
 197   2.0000      -0.437299       -11.8995
 198   2.0000      -0.436075       -11.8662
 199   2.0000      -0.434183       -11.8147
 200   2.0000      -0.425906       -11.5895
 201   2.0000      -0.424337       -11.5468
 202   2.0000      -0.422500       -11.4968
 203   2.0000      -0.416762       -11.3407
 204   2.0000      -0.410408       -11.1678
 205   2.0000      -0.408230       -11.1085
 206   2.0000      -0.404939       -11.0189
 207   2.0000      -0.401084       -10.9140
 208   2.0000      -0.396916       -10.8006
 209   2.0000      -0.383362       -10.4318
 210   2.0000      -0.379818       -10.3354
 211   2.0000      -0.375548       -10.2192
 212   2.0000      -0.374511       -10.1910
 213   2.0000      -0.371789       -10.1169
 214   2.0000      -0.367262        -9.9937
 215   2.0000      -0.367017        -9.9870
 216   2.0000      -0.360518        -9.8102
 217   2.0000      -0.354424        -9.6444
 218   2.0000      -0.349937        -9.5223
 219   2.0000      -0.347266        -9.4496
 220   2.0000      -0.339491        -9.2380
 221   2.0000      -0.333871        -9.0851
 222   2.0000      -0.328679        -8.9438
 223   2.0000      -0.326245        -8.8776
 224   2.0000      -0.321543        -8.7496
 225   2.0000      -0.317137        -8.6297
 226   2.0000      -0.298207        -8.1146
 227   2.0000      -0.279106        -7.5949
 228   2.0000      -0.272202        -7.4070
 229   2.0000      -0.247424        -6.7327
 230   0.0000      -0.104506        -2.8438
 231   0.0000      -0.083582        -2.2744
 232   0.0000      -0.069911        -1.9024
 233   0.0000      -0.041977        -1.1423
 234   0.0000      -0.023700        -0.6449

MULLIKEN ATOMIC CHARGES
-----------------------
   0 C :   -0.077846
   1 C :    0.032968
   2 C :   -0.025178
   3 C :   -0.123957
   4 S :    0.184125
   5 C :   -0.080343
   6 C :    0.018169
   7 C :    0.300412
   8 C :   -0.298222
   9 C :   -0.185236
  10 N :    0.173051
  11 C :   -0.192681
  12 N :    0.177440
  13 C :   -0.060481
  14 C :   -0.151674
  15 S :    0.164855
  16 C :    0.199330
  17 C :   -0.148172
  18 C :    0.263476
  19 F :   -0.175141
  20 C :   -0.143588
  21 C :    0.003966
  22 C :    0.038005
  23 N :   -0.286130
  24 S :    0.519078
  25 N :   -0.247174
  26 C :   -0.072559
  27 S :    0.117681
  28 C :   -0.005116
  29 C :   -0.119903
  30 S :    0.122665
  31 C :   -0.120017
  32 C :   -0.005742
  33 S :    0.085813
  34 C :   -0.053055
  35 C :    0.060202
  36 C :    0.014731
  37 C :   -0.002725
  38 C :    0.146761
  39 F :   -0.169570
  40 C :    0.167110
  41 F :   -0.168450
  42 C :    0.013374
  43 C :    0.000672
  44 C :    0.017368
  45 N :   -0.293024
  46 S :    0.516933
  47 N :   -0.258977
  48 C :    0.096008
  49 C :   -0.003458
  50 C :   -0.015313
  51 C :    0.123129
  52 C :   -0.146222
  53 C :   -0.072415
  54 C :    0.320116
  55 O :   -0.302299
  56 N :    0.247415
  57 O :   -0.237362
  58 O :   -0.243409
  59 H :    0.038989
  60 H :    0.013373
  61 H :    0.024777
  62 H :   -0.006394
  63 H :    0.026744
  64 H :    0.026716
  65 H :    0.011591
  66 H :    0.015465
  67 H :   -0.008901
  68 H :    0.008849
  69 H :   -0.014919
  70 H :    0.019224
  71 H :    0.038972
  72 H :    0.166103
Sum of atomic charges:    0.0000000

LOEWDIN ATOMIC CHARGES
----------------------
   0 C :   -0.174553
   1 C :   -0.033648
   2 C :   -0.072021
   3 C :   -0.188182
   4 S :    0.479364
   5 C :   -0.171892
   6 C :   -0.078653
   7 C :    0.080895
   8 C :   -0.100768
   9 C :   -0.017572
  10 N :   -0.030709
  11 C :   -0.017276
  12 N :   -0.031156
  13 C :   -0.027687
  14 C :   -0.175919
  15 S :    0.475466
  16 C :   -0.022237
  17 C :   -0.049561
  18 C :    0.098568
  19 F :   -0.057682
  20 C :   -0.096520
  21 C :   -0.038252
  22 C :   -0.043355
  23 N :   -0.280391
  24 S :    0.651597
  25 N :   -0.274337
  26 C :   -0.164863
  27 S :    0.368634
  28 C :   -0.215015
  29 C :   -0.202529
  30 S :    0.446898
  31 C :   -0.202628
  32 C :   -0.213581
  33 S :    0.351385
  34 C :   -0.164495
  35 C :   -0.007255
  36 C :   -0.021760
  37 C :   -0.049437
  38 C :    0.067000
  39 F :   -0.043359
  40 C :    0.075384
  41 F :   -0.043147
  42 C :   -0.054466
  43 C :   -0.044495
  44 C :   -0.048505
  45 N :   -0.284004
  46 S :    0.672348
  47 N :   -0.276120
  48 C :    0.004172
  49 C :   -0.011682
  50 C :    0.004294
  51 C :   -0.036220
  52 C :   -0.020921
  53 C :   -0.005962
  54 C :    0.068135
  55 O :   -0.125584
  56 N :    0.284769
  57 O :   -0.203978
  58 O :   -0.199202
  59 H :    0.028604
  60 H :    0.043252
  61 H :    0.035112
  62 H :    0.032390
  63 H :    0.026276
  64 H :    0.026153
  65 H :    0.027318
  66 H :    0.036959
  67 H :    0.032091
  68 H :    0.041670
  69 H :    0.027476
  70 H :    0.017237
  71 H :    0.041644
  72 H :    0.076490

  Mayer bond orders larger than 0.100000
B(  0-C ,  1-C ) :   1.5467 B(  0-C ,  4-S ) :   1.1535 B(  0-C , 59-H ) :   0.9638
B(  1-C ,  2-C ) :   1.2783 B(  1-C , 60-H ) :   0.9969 B(  2-C ,  3-C ) :   1.4591
B(  2-C ,  7-C ) :   1.0112 B(  3-C ,  4-S ) :   1.1340 B(  3-C ,  5-C ) :   1.1759
B(  5-C ,  6-C ) :   1.4636 B(  5-C , 15-S ) :   1.1321 B(  6-C ,  7-C ) :   0.9950
B(  6-C , 13-C ) :   1.2272 B(  7-C ,  8-C ) :   1.7123 B(  8-C ,  9-C ) :   1.1358
B(  8-C , 11-C ) :   1.1306 B(  9-C , 10-N ) :   2.9836 B( 11-C , 12-N ) :   3.0027
B( 13-C , 14-C ) :   1.4729 B( 13-C , 61-H ) :   0.9846 B( 14-C , 15-S ) :   1.0905
B( 14-C , 16-C ) :   1.1278 B( 16-C , 17-C ) :   1.4049 B( 16-C , 20-C ) :   0.1024
B( 16-C , 22-C ) :   1.1721 B( 17-C , 18-C ) :   1.2052 B( 17-C , 62-H ) :   0.9958
B( 18-C , 19-F ) :   1.1379 B( 18-C , 20-C ) :   1.4514 B( 20-C , 21-C ) :   1.2012
B( 20-C , 26-C ) :   1.0156 B( 21-C , 22-C ) :   1.1629 B( 21-C , 25-N ) :   1.5691
B( 22-C , 23-N ) :   1.5319 B( 23-N , 24-S ) :   1.2578 B( 23-N , 25-N ) :   0.1440
B( 24-S , 25-N ) :   1.2641 B( 26-C , 27-S ) :   1.0434 B( 26-C , 34-C ) :   1.7488
B( 27-S , 28-C ) :   0.9787 B( 28-C , 29-C ) :   1.5970 B( 28-C , 32-C ) :   1.2661
B( 29-C , 30-S ) :   1.1735 B( 29-C , 63-H ) :   0.9699 B( 30-S , 31-C ) :   1.1737
B( 31-C , 32-C ) :   1.5934 B( 31-C , 64-H ) :   0.9704 B( 32-C , 33-S ) :   0.9834
B( 33-S , 34-C ) :   0.9932 B( 34-C , 35-C ) :   1.0904 B( 35-C , 36-C ) :   1.7654
B( 35-C , 65-H ) :   0.9410 B( 36-C , 37-C ) :   1.1447 B( 36-C , 66-H ) :   0.9312
B( 37-C , 38-C ) :   1.3795 B( 37-C , 42-C ) :   0.1280 B( 37-C , 44-C ) :   1.1672
B( 38-C , 39-F ) :   1.1454 B( 38-C , 40-C ) :   1.1250 B( 40-C , 41-F ) :   1.1461
B( 40-C , 42-C ) :   1.4474 B( 42-C , 43-C ) :   1.2032 B( 42-C , 48-C ) :   0.9753
B( 43-C , 44-C ) :   1.1464 B( 43-C , 47-N ) :   1.5441 B( 44-C , 45-N ) :   1.5284
B( 45-N , 46-S ) :   1.2631 B( 45-N , 47-N ) :   0.1452 B( 46-S , 47-N ) :   1.2769
B( 48-C , 49-C ) :   1.3451 B( 48-C , 53-C ) :   1.3327 B( 49-C , 50-C ) :   1.3722
B( 49-C , 67-H ) :   0.9962 B( 50-C , 51-C ) :   1.3709 B( 50-C , 68-H ) :   0.9869
B( 51-C , 52-C ) :   1.3810 B( 51-C , 56-N ) :   0.8939 B( 52-C , 53-C ) :   1.3981
B( 52-C , 54-C ) :   0.9934 B( 53-C , 69-H ) :   0.9834 B( 54-C , 55-O ) :   1.0459
B( 54-C , 70-H ) :   0.9379 B( 54-C , 71-H ) :   0.9128 B( 55-O , 72-H ) :   0.9794
B( 56-N , 57-O ) :   1.5621 B( 56-N , 58-O ) :   1.5170 B( 57-O , 58-O ) :   0.2625

-----------------------------------------------------------------------------
         ABSORPTION SPECTRUM VIA TRANSITION ELECTRIC DIPOLE MOMENTS
-----------------------------------------------------------------------------
State   Energy  Wavelength   fosc         T2         TX        TY        TZ
        (cm-1)    (nm)                  (au**2)     (au)      (au)      (au)
-----------------------------------------------------------------------------
   0   14933.4    669.6   0.097504519   2.14952  -0.71364  -1.27645   0.10448
   1   18036.7    554.4   0.093973303   1.71523   0.33486   1.06872   0.67893
   2   20744.1    482.1   0.065939932   1.04648  -0.03361  -0.35811   0.95765
   3   22479.7    444.8   0.081823920   1.19830   0.36982   0.83578  -0.60250
   4   25028.2    399.5   0.574343892   7.55471   0.95146   1.94253  -1.69588
   5   25077.7    398.8   0.052644715   0.69110   0.10624   0.48095  -0.66970
   6   26792.4    373.2   0.205503625   2.52513  -0.12235   0.28799  -1.55795
   7   27270.7    366.7   0.150798213   1.82044  -0.55167  -1.22269  -0.14538
   8   29090.4    343.8   0.123440105   1.39695  -0.11530  -0.75021   0.90600
   9   29576.9    338.1   0.006772208   0.07538   0.01796  -0.19812   0.18923
  10   30240.7    330.7   0.056355684   0.61351  -0.12776   0.49390   0.59435
  11   30655.1    326.2   0.093113203   0.99996   0.02107  -0.29309  -0.95583
  12   31557.4    316.9   0.656115810   6.84471  -1.77766   0.67821  -1.79574
  13   32836.8    304.5   0.160993270   1.61407   0.11291   0.74846  -1.02036
  14   33052.6    302.5   0.040629479   0.40468   0.46032   0.39102   0.19972
  15   33423.3    299.2   0.072695726   0.71604   0.46590   0.65082  -0.27460
  16   33968.3    294.4   0.025517197   0.24731  -0.39232  -0.30026  -0.05687
  17   34490.3    289.9   0.088178496   0.84167   0.71722  -0.16177   0.54872
  18   34713.7    288.1   0.019363070   0.18363  -0.02715   0.42089  -0.07582
  19   34838.9    287.0   0.133467477   1.26121  -0.38699  -1.00146   0.32943
  20   35142.1    284.6   0.359189932   3.36490  -0.49090  -1.73073   0.35847
  21   35276.0    283.5   0.066736481   0.62282  -0.26962  -0.52287   0.52605
  22   35504.6    281.7   0.088670517   0.82219  -0.45723  -0.77377   0.12006
  23   35815.0    279.2   0.063946439   0.58780  -0.63166  -0.43444  -0.00814
  24   36048.8    277.4   0.185802459   1.69682   0.63569   0.87777  -0.72266
  25   36147.4    276.6   0.074771285   0.68098   0.21652  -0.47342   0.64029
  26   36205.7    276.2   0.017784067   0.16171  -0.07974  -0.10605   0.37961
  27   36502.3    274.0   0.092437672   0.83369   0.77251   0.09692   0.47700
  28   36702.3    272.5   0.073850154   0.66242  -0.12912   0.19634  -0.77923
  29   36883.8    271.1   0.018238746   0.16279  -0.01777   0.17775  -0.36178
  30   37396.2    267.4   0.184364914   1.62303  -0.02275  -0.69539   1.06721
  31   37526.4    266.5   0.036361250   0.31899   0.35018  -0.44076   0.04576
  32   37858.2    264.1   0.020586396   0.17902   0.29060  -0.10779   0.28801
  33   37965.9    263.4   0.068299146   0.59224  -0.28648   0.02175  -0.71393
  34   38451.4    260.1   0.049355247   0.42257  -0.54107  -0.30530  -0.19132
  35   38895.4    257.1   0.026188413   0.22166   0.06465  -0.18283   0.42901
  36   39383.3    253.9   0.054740106   0.45758   0.07833   0.57955  -0.33996
  37   39536.8    252.9   0.038010303   0.31650  -0.37049  -0.42127   0.04210
  38   39789.5    251.3   0.091256868   0.75504  -0.62285   0.31790  -0.51580
  39   39852.5    250.9   0.025183082   0.20803   0.33186   0.22702  -0.21533
  40   39952.6    250.3   0.020956615   0.17268  -0.31997  -0.26308   0.03304

FINAL SINGLE POINT ENERGY     -5186.378528794638

DIPOLE MOMENT
-------------
                                X             Y             Z
Electronic contribution:      8.33257      10.30921     -21.94129
Nuclear contribution   :    -10.29882      -9.53342      19.22349
                        -----------------------------------------
Total Dipole Moment    :     -1.96625       0.77579      -2.71780
                        -----------------------------------------
Magnitude (a.u.)       :      3.44303
Magnitude (Debye)      :      8.75148

Rotational constants in cm-1:     0.001309     0.000829     0.000559
Rotational constants in MHz :    39.255037    24.842393    16.759733

                             ****ORCA TERMINATED NORMALLY****
TOTAL RUN TIME: 0 days 0 hours 6 minutes 38 seconds 625 msec
