                         Program Version 4.2.0 -  RELEASE  -
|  1> # ORCA input file
|  2> # SCF done       -192.073010750996          0.000749506797
|  3> ! CAM-B3LYP def2-SVP def2/J RIJCOSX Grid4 TightSCF
|  4> %maxcore 5000
|  5> %tddft
|  6>     Mode sTDDFT
|  7>     Ethresh 5.0
|  8>     maxcore 5000
|  9> end
| 10>
| 11> %pal
| 12>   nprocs 6
| 13>   end
| 14> * xyz 0 1
| 15>    C       -1.05418        -2.94813         0.09806
| 16>    C       -0.74163        -2.38686         1.29838
| 17>    C       -0.82310        -0.98194         1.24360
| 18>    C       -1.20260        -0.51801        -0.02182
| 19>    S       -1.45586        -1.79153        -1.12901
| 20>    C       -1.26212         0.90447         0.01418
| 21>    C       -0.91673         1.33022         1.30323
| 22>    C       -0.63251         0.15661         2.12150
| 23>    C       -0.27412         0.14336         3.43798
| 24>    C       -0.12864         1.32955         4.18702
| 25>    N       -0.01309         2.29312         4.79810
| 26>    C       -0.03071        -1.05597         4.13937
| 27>    N        0.16599        -2.02786         4.71509
| 28>    C       -0.94979         2.71812         1.44578
| 29>    C       -1.32304         3.34788         0.27344
| 30>    S       -1.63208         2.20649        -1.02692
| 31>    C       -1.48590         4.73949         0.05291
| 32>    C       -1.92305         5.36787        -1.09694
| 33>    C       -1.99228         6.75328        -0.94193
| 34>    C       -1.59627         7.18092         0.33802
| 35>    S       -1.14106         5.87968         1.34814
| 36>    C       -1.72660         8.58829         0.40418
| 37>    C       -2.21110         9.05350        -0.82995
| 38>    C       -2.38472         7.91407        -1.72022
| 39>    C       -2.82761         7.93596        -3.01071
| 40>    C       -3.18590         9.13530        -3.66044
| 41>    N       -3.47848        10.10939        -4.19013
| 42>    C       -2.95676         6.75986        -3.77850
| 43>    N       -3.06174         5.80636        -4.40694
| 44>    C       -2.40553        10.43210        -0.85532
| 45>    C       -2.07165        11.03057         0.34815
| 46>    S       -1.49593         9.85468         1.52873
| 47>    C       -2.17506        12.40775         0.69139
| 48>    C       -1.77800        12.90269         1.91199
| 49>    C       -1.90309        14.22911         2.31721
| 50>    C       -2.60325        15.20425         1.46775
| 51>    C       -3.03712        14.94754         0.21533
| 52>    S       -2.86817        13.42937        -0.56433
| 53>    C       -2.69501        16.39115         2.24530
| 54>    C       -2.08841        16.18570         3.48394
| 55>    C       -2.14550        17.33508         4.30263
| 56>    C       -2.78351        18.35899         3.67793
| 57>    S       -3.33284        17.97770         2.08003
| 58>    C       -1.55279        14.84936         3.53447
| 59>    C       -0.79181        14.38195         4.63051
| 60>    C        0.07456        13.33228         4.64276
| 61>    C        0.84773        12.95910         5.76733
| 62>    C        0.81603        13.45797         7.06333
| 63>    C        1.77380        12.86661         7.87891
| 64>    C        2.55210        11.90180         7.21304
| 65>    S        2.08476        11.71951         5.57927
| 66>    C        3.51014        11.39209         8.12101
| 67>    C        3.33518        12.02766         9.36458
| 68>    C        2.23855        12.97014         9.25607
| 69>    C        1.75052        13.79276        10.22966
| 70>    C        2.28361        13.80989        11.53520
| 71>    N        2.71566        13.82700        12.59744
| 72>    C        0.68466        14.68412         9.99074
| 73>    N       -0.17838        15.41415         9.79609
| 74>    C        4.25719        11.60796        10.32441
| 75>    C        5.13486        10.66661         9.82363
| 76>    S        4.80884        10.28137         8.13643
| 77>    C        6.21470        10.04476        10.50072
| 78>    C        7.13671         9.15246         9.98664
| 79>    C        8.07755         8.76720        10.94322
| 80>    C        7.86575         9.36667        12.19117
| 81>    S        6.51242        10.40828        12.19465
| 82>    C        8.87546         8.91340        13.08705
| 83>    C        9.72004         8.03274        12.40048
| 84>    C        9.25474         7.90980        11.03252
| 85>    C        9.80218         7.16169        10.03124
| 86>    C       10.95297         6.37009        10.22749
| 87>    N       11.88942         5.72606        10.38048
| 88>    C        9.25663         7.13320         8.73101
| 89>    N        8.81666         7.11466         7.67202
| 90>    C       10.75548         7.53620        13.21616
| 91>    C       10.67641         8.03948        14.47845
| 92>    S        9.34729         9.12808        14.71277
| 93>    H       -1.07690        -3.98928        -0.15427
| 94>    H       -0.46959        -2.95342         2.17004
| 95>    H       -0.72192         3.25578         2.34865
| 96>    H       -2.18197         4.83042        -1.99157
| 97>    H       -2.77477        10.98585        -1.69962
| 98>    H       -1.37650        12.18338         2.61242
| 99>    H       -3.52291        15.69233        -0.39497
|100>    H       -1.74443        17.40711         5.29718
|101>    H       -2.97416        19.34332         4.05857
|102>    H       -0.87146        14.98565         5.52476
|103>    H        0.25865        12.76879         3.74012
|104>    H        0.12437        14.21327         7.38653
|105>    H        4.30383        11.96668        11.33708
|106>    H        7.11331         8.81422         8.96620
|107>    H       11.51559         6.84824        12.89407
|108>    H       11.32515         7.84000        15.30760
|109> *
|110>
|111>                          ****END OF INPUT****

CARTESIAN COORDINATES (ANGSTROEM)
---------------------------------
  C     -1.054180   -2.948130    0.098060
  C     -0.741630   -2.386860    1.298380
  C     -0.823100   -0.981940    1.243600
  C     -1.202600   -0.518010   -0.021820
  S     -1.455860   -1.791530   -1.129010
  C     -1.262120    0.904470    0.014180
  C     -0.916730    1.330220    1.303230
  C     -0.632510    0.156610    2.121500
  C     -0.274120    0.143360    3.437980
  C     -0.128640    1.329550    4.187020
  N     -0.013090    2.293120    4.798100
  C     -0.030710   -1.055970    4.139370
  N      0.165990   -2.027860    4.715090
  C     -0.949790    2.718120    1.445780
  C     -1.323040    3.347880    0.273440
  S     -1.632080    2.206490   -1.026920
  C     -1.485900    4.739490    0.052910
  C     -1.923050    5.367870   -1.096940
  C     -1.992280    6.753280   -0.941930
  C     -1.596270    7.180920    0.338020
  S     -1.141060    5.879680    1.348140
  C     -1.726600    8.588290    0.404180
  C     -2.211100    9.053500   -0.829950
  C     -2.384720    7.914070   -1.720220
  C     -2.827610    7.935960   -3.010710
  C     -3.185900    9.135300   -3.660440
  N     -3.478480   10.109390   -4.190130
  C     -2.956760    6.759860   -3.778500
  N     -3.061740    5.806360   -4.406940
  C     -2.405530   10.432100   -0.855320
  C     -2.071650   11.030570    0.348150
  S     -1.495930    9.854680    1.528730
  C     -2.175060   12.407750    0.691390
  C     -1.778000   12.902690    1.911990
  C     -1.903090   14.229110    2.317210
  C     -2.603250   15.204250    1.467750
  C     -3.037120   14.947540    0.215330
  S     -2.868170   13.429370   -0.564330
  C     -2.695010   16.391150    2.245300
  C     -2.088410   16.185700    3.483940
  C     -2.145500   17.335080    4.302630
  C     -2.783510   18.358990    3.677930
  S     -3.332840   17.977700    2.080030
  C     -1.552790   14.849360    3.534470
  C     -0.791810   14.381950    4.630510
  C      0.074560   13.332280    4.642760
  C      0.847730   12.959100    5.767330
  C      0.816030   13.457970    7.063330
  C      1.773800   12.866610    7.878910
  C      2.552100   11.901800    7.213040
  S      2.084760   11.719510    5.579270
  C      3.510140   11.392090    8.121010
  C      3.335180   12.027660    9.364580
  C      2.238550   12.970140    9.256070
  C      1.750520   13.792760   10.229660
  C      2.283610   13.809890   11.535200
  N      2.715660   13.827000   12.597440
  C      0.684660   14.684120    9.990740
  N     -0.178380   15.414150    9.796090
  C      4.257190   11.607960   10.324410
  C      5.134860   10.666610    9.823630
  S      4.808840   10.281370    8.136430
  C      6.214700   10.044760   10.500720
  C      7.136710    9.152460    9.986640
  C      8.077550    8.767200   10.943220
  C      7.865750    9.366670   12.191170
  S      6.512420   10.408280   12.194650
  C      8.875460    8.913400   13.087050
  C      9.720040    8.032740   12.400480
  C      9.254740    7.909800   11.032520
  C      9.802180    7.161690   10.031240
  C     10.952970    6.370090   10.227490
  N     11.889420    5.726060   10.380480
  C      9.256630    7.133200    8.731010
  N      8.816660    7.114660    7.672020
  C     10.755480    7.536200   13.216160
  C     10.676410    8.039480   14.478450
  S      9.347290    9.128080   14.712770
  H     -1.076900   -3.989280   -0.154270
  H     -0.469590   -2.953420    2.170040
  H     -0.721920    3.255780    2.348650
  H     -2.181970    4.830420   -1.991570
  H     -2.774770   10.985850   -1.699620
  H     -1.376500   12.183380    2.612420
  H     -3.522910   15.692330   -0.394970
  H     -1.744430   17.407110    5.297180
  H     -2.974160   19.343320    4.058570
  H     -0.871460   14.985650    5.524760
  H      0.258650   12.768790    3.740120
  H      0.124370   14.213270    7.386530
  H      4.303830   11.966680   11.337080
  H      7.113310    8.814220    8.966200
  H     11.515590    6.848240   12.894070
  H     11.325150    7.840000   15.307600

 Total Charge           Charge          ....    0
 Multiplicity           Mult            ....    1
 Number of Electrons    NEL             ....  592
 Basis Dimension        Dim             .... 1212

ORBITAL ENERGIES
----------------

  NO   OCC          E(Eh)            E(eV)
   0   2.0000     -88.994255     -2421.6568
   1   2.0000     -88.994166     -2421.6544
   2   2.0000     -88.992601     -2421.6118
   3   2.0000     -88.988208     -2421.4923
   4   2.0000     -88.987726     -2421.4791
   5   2.0000     -88.987429     -2421.4710
   6   2.0000     -88.984343     -2421.3871
   7   2.0000     -88.983109     -2421.3535
   8   2.0000     -88.979870     -2421.2653
   9   2.0000     -88.957965     -2420.6693
  10   2.0000     -14.434702      -392.7882
  11   2.0000     -14.434213      -392.7749
  12   2.0000     -14.431144      -392.6914
  13   2.0000     -14.429672      -392.6513
  14   2.0000     -14.428632      -392.6230
  15   2.0000     -14.428503      -392.6195
  16   2.0000     -14.427339      -392.5879
  17   2.0000     -14.426245      -392.5581
  18   2.0000     -10.368999      -282.1548
  19   2.0000     -10.364291      -282.0267
  20   2.0000     -10.361469      -281.9499
  21   2.0000     -10.360178      -281.9148
  22   2.0000     -10.355843      -281.7968
  23   2.0000     -10.351968      -281.6914
  24   2.0000     -10.349039      -281.6117
  25   2.0000     -10.348073      -281.5854
  26   2.0000     -10.335639      -281.2470
  27   2.0000     -10.335305      -281.2379
  28   2.0000     -10.334939      -281.2280
  29   2.0000     -10.334411      -281.2136
  30   2.0000     -10.333051      -281.1766
  31   2.0000     -10.333016      -281.1757
  32   2.0000     -10.332393      -281.1587
  33   2.0000     -10.331722      -281.1405
  34   2.0000     -10.331547      -281.1357
  35   2.0000     -10.331226      -281.1270
  36   2.0000     -10.330897      -281.1180
  37   2.0000     -10.330344      -281.1030
  38   2.0000     -10.330156      -281.0978
  39   2.0000     -10.329987      -281.0932
  40   2.0000     -10.329294      -281.0744
  41   2.0000     -10.329217      -281.0723
  42   2.0000     -10.327999      -281.0391
  43   2.0000     -10.326906      -281.0094
  44   2.0000     -10.326727      -281.0045
  45   2.0000     -10.326416      -280.9961
  46   2.0000     -10.326297      -280.9928
  47   2.0000     -10.325062      -280.9592
  48   2.0000     -10.323246      -280.9098
  49   2.0000     -10.318050      -280.7684
  50   2.0000     -10.312055      -280.6053
  51   2.0000     -10.308085      -280.4973
  52   2.0000     -10.306770      -280.4615
  53   2.0000     -10.306513      -280.4545
  54   2.0000     -10.305465      -280.4260
  55   2.0000     -10.304410      -280.3973
  56   2.0000     -10.304119      -280.3893
  57   2.0000     -10.303689      -280.3776
  58   2.0000     -10.302918      -280.3567
  59   2.0000     -10.301452      -280.3168
  60   2.0000     -10.299798      -280.2718
  61   2.0000     -10.299234      -280.2564
  62   2.0000     -10.299006      -280.2502
  63   2.0000     -10.298825      -280.2453
  64   2.0000     -10.298173      -280.2275
  65   2.0000     -10.298149      -280.2269
  66   2.0000     -10.298026      -280.2235
  67   2.0000     -10.297799      -280.2174
  68   2.0000     -10.295393      -280.1519
  69   2.0000     -10.294273      -280.1214
  70   2.0000     -10.292363      -280.0694
  71   2.0000     -10.290448      -280.0173
  72   2.0000     -10.288325      -279.9596
  73   2.0000     -10.287465      -279.9361
  74   2.0000     -10.286203      -279.9018
  75   2.0000     -10.279973      -279.7323
  76   2.0000     -10.275875      -279.6208
  77   2.0000     -10.274919      -279.5948
  78   2.0000      -8.088675      -220.1040
  79   2.0000      -8.088459      -220.0982
  80   2.0000      -8.087094      -220.0610
  81   2.0000      -8.083250      -219.9564
  82   2.0000      -8.082043      -219.9236
  83   2.0000      -8.081825      -219.9176
  84   2.0000      -8.079349      -219.8503
  85   2.0000      -8.077753      -219.8068
  86   2.0000      -8.075140      -219.7357
  87   2.0000      -8.053339      -219.1425
  88   2.0000      -6.057992      -164.8463
  89   2.0000      -6.057778      -164.8405
  90   2.0000      -6.056395      -164.8029
  91   2.0000      -6.053807      -164.7325
  92   2.0000      -6.053678      -164.7290
  93   2.0000      -6.052502      -164.6970
  94   2.0000      -6.052234      -164.6897
  95   2.0000      -6.051359      -164.6658
  96   2.0000      -6.051124      -164.6595
  97   2.0000      -6.050887      -164.6530
  98   2.0000      -6.050694      -164.6477
  99   2.0000      -6.049340      -164.6109
 100   2.0000      -6.048601      -164.5908
 101   2.0000      -6.048051      -164.5758
 102   2.0000      -6.047207      -164.5529
 103   2.0000      -6.046981      -164.5467
 104   2.0000      -6.046954      -164.5460
 105   2.0000      -6.045858      -164.5161
 106   2.0000      -6.044804      -164.4875
 107   2.0000      -6.044307      -164.4739
 108   2.0000      -6.044155      -164.4698
 109   2.0000      -6.044094      -164.4682
 110   2.0000      -6.042848      -164.4343
 111   2.0000      -6.041967      -164.4103
 112   2.0000      -6.040197      -164.3621
 113   2.0000      -6.040194      -164.3620
 114   2.0000      -6.036865      -164.2714
 115   2.0000      -6.022804      -163.8888
 116   2.0000      -6.018533      -163.7726
 117   2.0000      -6.015363      -163.6863
 118   2.0000      -1.049019       -28.5452
 119   2.0000      -1.043798       -28.4032
 120   2.0000      -1.041491       -28.3404
 121   2.0000      -1.038410       -28.2566
 122   2.0000      -1.026212       -27.9247
 123   2.0000      -1.022173       -27.8147
 124   2.0000      -1.019972       -27.7549
 125   2.0000      -1.018060       -27.7028
 126   2.0000      -1.012626       -27.5549
 127   2.0000      -1.011237       -27.5172
 128   2.0000      -1.008031       -27.4299
 129   2.0000      -1.006268       -27.3819
 130   2.0000      -1.004826       -27.3427
 131   2.0000      -1.004435       -27.3321
 132   2.0000      -0.998955       -27.1829
 133   2.0000      -0.993127       -27.0244
 134   2.0000      -0.984944       -26.8017
 135   2.0000      -0.975285       -26.5389
 136   2.0000      -0.960884       -26.1470
 137   2.0000      -0.957955       -26.0673
 138   2.0000      -0.954967       -25.9860
 139   2.0000      -0.950216       -25.8567
 140   2.0000      -0.932400       -25.3719
 141   2.0000      -0.921561       -25.0770
 142   2.0000      -0.915874       -24.9222
 143   2.0000      -0.907256       -24.6877
 144   2.0000      -0.901729       -24.5373
 145   2.0000      -0.891308       -24.2537
 146   2.0000      -0.880437       -23.9579
 147   2.0000      -0.873430       -23.7672
 148   2.0000      -0.869043       -23.6479
 149   2.0000      -0.864270       -23.5180
 150   2.0000      -0.864118       -23.5139
 151   2.0000      -0.859757       -23.3952
 152   2.0000      -0.851400       -23.1678
 153   2.0000      -0.850690       -23.1484
 154   2.0000      -0.846829       -23.0434
 155   2.0000      -0.844783       -22.9877
 156   2.0000      -0.834687       -22.7130
 157   2.0000      -0.820387       -22.3239
 158   2.0000      -0.811300       -22.0766
 159   2.0000      -0.797997       -21.7146
 160   2.0000      -0.785174       -21.3657
 161   2.0000      -0.777446       -21.1554
 162   2.0000      -0.777133       -21.1469
 163   2.0000      -0.772943       -21.0329
 164   2.0000      -0.770897       -20.9772
 165   2.0000      -0.762110       -20.7381
 166   2.0000      -0.747006       -20.3271
 167   2.0000      -0.738855       -20.1053
 168   2.0000      -0.716702       -19.5024
 169   2.0000      -0.714853       -19.4521
 170   2.0000      -0.703908       -19.1543
 171   2.0000      -0.703344       -19.1390
 172   2.0000      -0.699567       -19.0362
 173   2.0000      -0.695884       -18.9360
 174   2.0000      -0.689463       -18.7612
 175   2.0000      -0.684638       -18.6299
 176   2.0000      -0.679170       -18.4811
 177   2.0000      -0.676809       -18.4169
 178   2.0000      -0.671421       -18.2703
 179   2.0000      -0.666145       -18.1267
 180   2.0000      -0.660960       -17.9856
 181   2.0000      -0.652189       -17.7470
 182   2.0000      -0.647915       -17.6307
 183   2.0000      -0.631961       -17.1965
 184   2.0000      -0.631089       -17.1728
 185   2.0000      -0.629314       -17.1245
 186   2.0000      -0.625061       -17.0088
 187   2.0000      -0.624507       -16.9937
 188   2.0000      -0.622445       -16.9376
 189   2.0000      -0.618663       -16.8347
 190   2.0000      -0.616525       -16.7765
 191   2.0000      -0.614062       -16.7095
 192   2.0000      -0.612986       -16.6802
 193   2.0000      -0.608112       -16.5476
 194   2.0000      -0.604132       -16.4393
 195   2.0000      -0.594141       -16.1674
 196   2.0000      -0.586030       -15.9467
 197   2.0000      -0.577602       -15.7174
 198   2.0000      -0.566881       -15.4256
 199   2.0000      -0.564133       -15.3508
 200   2.0000      -0.560891       -15.2626
 201   2.0000      -0.552726       -15.0404
 202   2.0000      -0.552021       -15.0213
 203   2.0000      -0.546155       -14.8616
 204   2.0000      -0.545848       -14.8533
 205   2.0000      -0.544829       -14.8255
 206   2.0000      -0.540645       -14.7117
 207   2.0000      -0.536825       -14.6077
 208   2.0000      -0.530806       -14.4440
 209   2.0000      -0.527772       -14.3614
 210   2.0000      -0.520857       -14.1732
 211   2.0000      -0.517795       -14.0899
 212   2.0000      -0.516152       -14.0452
 213   2.0000      -0.514922       -14.0117
 214   2.0000      -0.511079       -13.9072
 215   2.0000      -0.510492       -13.8912
 216   2.0000      -0.505581       -13.7576
 217   2.0000      -0.504644       -13.7320
 218   2.0000      -0.502396       -13.6709
 219   2.0000      -0.502154       -13.6643
 220   2.0000      -0.500434       -13.6175
 221   2.0000      -0.499592       -13.5946
 222   2.0000      -0.496461       -13.5094
 223   2.0000      -0.494129       -13.4459
 224   2.0000      -0.493786       -13.4366
 225   2.0000      -0.489474       -13.3193
 226   2.0000      -0.488978       -13.3058
 227   2.0000      -0.486929       -13.2500
 228   2.0000      -0.486448       -13.2369
 229   2.0000      -0.483888       -13.1673
 230   2.0000      -0.478727       -13.0268
 231   2.0000      -0.478587       -13.0230
 232   2.0000      -0.474861       -12.9216
 233   2.0000      -0.471732       -12.8365
 234   2.0000      -0.468231       -12.7412
 235   2.0000      -0.467019       -12.7082
 236   2.0000      -0.465490       -12.6666
 237   2.0000      -0.462094       -12.5742
 238   2.0000      -0.461708       -12.5637
 239   2.0000      -0.460719       -12.5368
 240   2.0000      -0.460329       -12.5262
 241   2.0000      -0.460009       -12.5175
 242   2.0000      -0.458460       -12.4753
 243   2.0000      -0.457800       -12.4574
 244   2.0000      -0.456342       -12.4177
 245   2.0000      -0.455841       -12.4041
 246   2.0000      -0.454307       -12.3623
 247   2.0000      -0.451539       -12.2870
 248   2.0000      -0.449716       -12.2374
 249   2.0000      -0.445870       -12.1327
 250   2.0000      -0.444438       -12.0938
 251   2.0000      -0.444080       -12.0840
 252   2.0000      -0.443871       -12.0784
 253   2.0000      -0.440676       -11.9914
 254   2.0000      -0.440598       -11.9893
 255   2.0000      -0.440291       -11.9809
 256   2.0000      -0.439087       -11.9482
 257   2.0000      -0.438404       -11.9296
 258   2.0000      -0.438032       -11.9195
 259   2.0000      -0.437465       -11.9040
 260   2.0000      -0.437191       -11.8966
 261   2.0000      -0.434975       -11.8363
 262   2.0000      -0.434616       -11.8265
 263   2.0000      -0.433065       -11.7843
 264   2.0000      -0.430779       -11.7221
 265   2.0000      -0.430633       -11.7181
 266   2.0000      -0.427358       -11.6290
 267   2.0000      -0.425961       -11.5910
 268   2.0000      -0.424197       -11.5430
 269   2.0000      -0.422177       -11.4880
 270   2.0000      -0.421490       -11.4693
 271   2.0000      -0.414575       -11.2812
 272   2.0000      -0.410708       -11.1759
 273   2.0000      -0.409928       -11.1547
 274   2.0000      -0.404086       -10.9957
 275   2.0000      -0.399660       -10.8753
 276   2.0000      -0.388537       -10.5726
 277   2.0000      -0.384247       -10.4559
 278   2.0000      -0.374363       -10.1869
 279   2.0000      -0.355047        -9.6613
 280   2.0000      -0.352677        -9.5968
 281   2.0000      -0.348703        -9.4887
 282   2.0000      -0.347566        -9.4577
 283   2.0000      -0.345734        -9.4079
 284   2.0000      -0.342384        -9.3168
 285   2.0000      -0.330296        -8.9878
 286   2.0000      -0.326255        -8.8779
 287   2.0000      -0.322000        -8.7621
 288   2.0000      -0.319208        -8.6861
 289   2.0000      -0.317559        -8.6412
 290   2.0000      -0.307641        -8.3713
 291   2.0000      -0.296446        -8.0667
 292   2.0000      -0.279786        -7.6134
 293   2.0000      -0.261212        -7.1079
 294   2.0000      -0.246951        -6.7199
 295   2.0000      -0.220443        -5.9986
 296   0.0000      -0.110989        -3.0202
 297   0.0000      -0.102784        -2.7969
 298   0.0000      -0.102500        -2.7892
 299   0.0000      -0.098036        -2.6677
 300   0.0000      -0.070204        -1.9104

MULLIKEN ATOMIC CHARGES
-----------------------
   0 C :   -0.082486
   1 C :    0.037349
   2 C :   -0.032978
   3 C :   -0.116286
   4 S :    0.185434
   5 C :   -0.099541
   6 C :    0.011549
   7 C :    0.299532
   8 C :   -0.295602
   9 C :   -0.186515
  10 N :    0.167505
  11 C :   -0.190039
  12 N :    0.174830
  13 C :   -0.063808
  14 C :   -0.053213
  15 S :    0.192010
  16 C :   -0.047929
  17 C :   -0.065155
  18 C :    0.010390
  19 C :   -0.096572
  20 S :    0.193805
  21 C :   -0.093822
  22 C :    0.015159
  23 C :    0.303543
  24 C :   -0.295643
  25 C :   -0.185434
  26 N :    0.174691
  27 C :   -0.189175
  28 N :    0.172390
  29 C :   -0.057227
  30 C :   -0.059444
  31 S :    0.168476
  32 C :   -0.023506
  33 C :   -0.099083
  34 C :    0.050673
  35 C :    0.056039
  36 C :   -0.123227
  37 S :    0.129275
  38 C :   -0.104942
  39 C :    0.048862
  40 C :    0.008972
  41 C :   -0.067213
  42 S :    0.130110
  43 C :    0.084436
  44 C :   -0.024115
  45 C :    0.023824
  46 C :   -0.077345
  47 C :   -0.040395
  48 C :    0.009070
  49 C :   -0.108336
  50 S :    0.179806
  51 C :   -0.096610
  52 C :    0.006646
  53 C :    0.305149
  54 C :   -0.297207
  55 C :   -0.188678
  56 N :    0.169493
  57 C :   -0.184719
  58 N :    0.163583
  59 C :   -0.063383
  60 C :   -0.052901
  61 S :    0.191262
  62 C :   -0.052174
  63 C :   -0.064538
  64 C :    0.013095
  65 C :   -0.102996
  66 S :    0.189365
  67 C :   -0.114692
  68 C :   -0.034340
  69 C :    0.299483
  70 C :   -0.295691
  71 C :   -0.192107
  72 N :    0.172667
  73 C :   -0.186414
  74 N :    0.166621
  75 C :    0.036276
  76 C :   -0.082331
  77 S :    0.182564
  78 H :    0.037663
  79 H :    0.012350
  80 H :    0.009694
  81 H :    0.009899
  82 H :    0.020589
  83 H :   -0.009636
  84 H :    0.039240
  85 H :   -0.010864
  86 H :    0.028156
  87 H :   -0.016971
  88 H :   -0.025709
  89 H :    0.004719
  90 H :    0.009129
  91 H :    0.008790
  92 H :    0.011257
  93 H :    0.035573
Sum of atomic charges:   -0.0000000

LOEWDIN ATOMIC CHARGES
----------------------
   0 C :   -0.177417
   1 C :   -0.033501
   2 C :   -0.077633
   3 C :   -0.183888
   4 S :    0.479962
   5 C :   -0.179571
   6 C :   -0.068929
   7 C :    0.083845
   8 C :   -0.103399
   9 C :   -0.015522
  10 N :   -0.036305
  11 C :   -0.017199
  12 N :   -0.031879
  13 C :   -0.039293
  14 C :   -0.182176
  15 S :    0.483348
  16 C :   -0.177640
  17 C :   -0.040068
  18 C :   -0.069450
  19 C :   -0.179592
  20 S :    0.483125
  21 C :   -0.179832
  22 C :   -0.068478
  23 C :    0.083387
  24 C :   -0.100307
  25 C :   -0.016402
  26 N :   -0.030882
  27 C :   -0.016051
  28 N :   -0.032441
  29 C :   -0.041164
  30 C :   -0.177897
  31 S :    0.474051
  32 C :   -0.182356
  33 C :   -0.033259
  34 C :   -0.021366
  35 C :   -0.046485
  36 C :   -0.139256
  37 S :    0.460075
  38 C :   -0.203794
  39 C :   -0.038978
  40 C :   -0.063041
  41 C :   -0.162370
  42 S :    0.422774
  43 C :   -0.049873
  44 C :   -0.004127
  45 C :   -0.062936
  46 C :   -0.155342
  47 C :   -0.035627
  48 C :   -0.064062
  49 C :   -0.196219
  50 S :    0.467790
  51 C :   -0.172094
  52 C :   -0.076521
  53 C :    0.085379
  54 C :   -0.105585
  55 C :   -0.016117
  56 N :   -0.036201
  57 C :   -0.014753
  58 N :   -0.038150
  59 C :   -0.039015
  60 C :   -0.183845
  61 S :    0.479693
  62 C :   -0.178954
  63 C :   -0.042184
  64 C :   -0.068779
  65 C :   -0.182794
  66 S :    0.481811
  67 C :   -0.182428
  68 C :   -0.079468
  69 C :    0.084704
  70 C :   -0.105027
  71 C :   -0.017016
  72 N :   -0.034081
  73 C :   -0.015673
  74 N :   -0.037204
  75 C :   -0.033839
  76 C :   -0.179441
  77 S :    0.478057
  78 H :    0.028079
  79 H :    0.042814
  80 H :    0.034832
  81 H :    0.035401
  82 H :    0.034800
  83 H :    0.025152
  84 H :    0.038100
  85 H :    0.032318
  86 H :    0.024269
  87 H :    0.032096
  88 H :    0.022951
  89 H :    0.037321
  90 H :    0.034661
  91 H :    0.034704
  92 H :    0.042353
  93 H :    0.027327

  Mayer bond orders larger than 0.100000
B(  0-C ,  1-C ) :   1.5493 B(  0-C ,  4-S ) :   1.1489 B(  0-C , 78-H ) :   0.9646
B(  1-C ,  2-C ) :   1.2767 B(  1-C , 79-H ) :   0.9960 B(  2-C ,  3-C ) :   1.4552
B(  2-C ,  7-C ) :   1.0192 B(  3-C ,  4-S ) :   1.1388 B(  3-C ,  5-C ) :   1.1803
B(  5-C ,  6-C ) :   1.4646 B(  5-C , 15-S ) :   1.1213 B(  6-C ,  7-C ) :   0.9925
B(  6-C , 13-C ) :   1.2963 B(  7-C ,  8-C ) :   1.7086 B(  8-C ,  9-C ) :   1.1334
B(  8-C , 11-C ) :   1.1303 B(  9-C , 10-N ) :   2.9890 B( 11-C , 12-N ) :   3.0026
B( 13-C , 14-C ) :   1.4650 B( 13-C , 80-H ) :   0.9866 B( 14-C , 15-S ) :   1.1104
B( 14-C , 16-C ) :   1.1650 B( 16-C , 17-C ) :   1.4658 B( 16-C , 20-S ) :   1.1073
B( 17-C , 18-C ) :   1.2956 B( 17-C , 81-H ) :   0.9868 B( 18-C , 19-C ) :   1.4433
B( 18-C , 23-C ) :   0.9976 B( 19-C , 20-S ) :   1.1168 B( 19-C , 21-C ) :   1.1881
B( 21-C , 22-C ) :   1.4475 B( 21-C , 31-S ) :   1.1192 B( 22-C , 23-C ) :   0.9973
B( 22-C , 29-C ) :   1.3045 B( 23-C , 24-C ) :   1.7109 B( 24-C , 25-C ) :   1.1329
B( 24-C , 27-C ) :   1.1351 B( 25-C , 26-N ) :   2.9899 B( 27-C , 28-N ) :   2.9912
B( 29-C , 30-C ) :   1.4550 B( 29-C , 82-H ) :   0.9787 B( 30-C , 31-S ) :   1.1009
B( 30-C , 32-C ) :   1.1738 B( 32-C , 33-C ) :   1.5165 B( 32-C , 37-S ) :   1.0563
B( 33-C , 34-C ) :   1.2514 B( 33-C , 83-H ) :   0.9586 B( 34-C , 35-C ) :   1.0536
B( 34-C , 43-C ) :   1.3737 B( 35-C , 36-C ) :   1.6115 B( 35-C , 38-C ) :   1.1748
B( 36-C , 37-S ) :   1.1339 B( 36-C , 84-H ) :   0.9412 B( 38-C , 39-C ) :   1.4444
B( 38-C , 42-S ) :   1.0760 B( 39-C , 40-C ) :   1.2198 B( 39-C , 43-C ) :   1.1007
B( 40-C , 41-C ) :   1.5874 B( 40-C , 85-H ) :   0.9974 B( 41-C , 42-S ) :   1.1553
B( 41-C , 86-H ) :   0.9656 B( 43-C , 44-C ) :   1.1701 B( 44-C , 45-C ) :   1.6368
B( 44-C , 87-H ) :   0.9591 B( 45-C , 46-C ) :   1.1349 B( 45-C , 88-H ) :   0.9570
B( 46-C , 47-C ) :   1.4371 B( 46-C , 50-S ) :   1.1083 B( 47-C , 48-C ) :   1.3104
B( 47-C , 89-H ) :   0.9897 B( 48-C , 49-C ) :   1.4343 B( 48-C , 53-C ) :   0.9925
B( 49-C , 50-S ) :   1.1087 B( 49-C , 51-C ) :   1.1972 B( 51-C , 52-C ) :   1.4402
B( 51-C , 61-S ) :   1.1235 B( 52-C , 53-C ) :   1.0030 B( 52-C , 59-C ) :   1.2942
B( 53-C , 54-C ) :   1.7065 B( 54-C , 55-C ) :   1.1323 B( 54-C , 57-C ) :   1.1339
B( 55-C , 56-N ) :   2.9920 B( 57-C , 58-N ) :   2.9853 B( 59-C , 60-C ) :   1.4697
B( 59-C , 90-H ) :   0.9855 B( 60-C , 61-S ) :   1.0986 B( 60-C , 62-C ) :   1.1644
B( 62-C , 63-C ) :   1.4659 B( 62-C , 66-S ) :   1.1117 B( 63-C , 64-C ) :   1.2947
B( 63-C , 91-H ) :   0.9869 B( 64-C , 65-C ) :   1.4680 B( 64-C , 69-C ) :   0.9912
B( 65-C , 66-S ) :   1.1187 B( 65-C , 67-C ) :   1.1794 B( 67-C , 68-C ) :   1.4562
B( 67-C , 77-S ) :   1.1394 B( 68-C , 69-C ) :   1.0173 B( 68-C , 75-C ) :   1.2760
B( 69-C , 70-C ) :   1.7084 B( 70-C , 71-C ) :   1.1295 B( 70-C , 73-C ) :   1.1325
B( 71-C , 72-N ) :   3.0029 B( 73-C , 74-N ) :   2.9901 B( 75-C , 76-C ) :   1.5507
B( 75-C , 92-H ) :   0.9967 B( 76-C , 77-S ) :   1.1470 B( 76-C , 93-H ) :   0.9641

-----------------------------------------------------------------------------
         ABSORPTION SPECTRUM VIA TRANSITION ELECTRIC DIPOLE MOMENTS
-----------------------------------------------------------------------------
State   Energy  Wavelength   fosc         T2         TX        TY        TZ
        (cm-1)    (nm)                  (au**2)     (au)      (au)      (au)
-----------------------------------------------------------------------------
   0    8999.2   1111.2   0.192323777   7.03563   1.30146   1.37402   1.85846
   1    9649.9   1036.3   0.134098431   4.57483   1.09154  -1.62234   0.86682
   2   12712.7    786.6   0.112284394   2.90775   1.25873  -0.45271   1.05755
   3   13264.8    753.9   0.101446425   2.51774   0.09656  -1.58180  -0.07948
   4   14910.1    670.7   0.056584582   1.24937  -0.51764   0.66173  -0.73725
   5   16933.2    590.6   0.382481552   7.43613  -1.10019  -1.37767  -2.08032
   6   18100.5    552.5   0.220969784   4.01899  -0.99711  -0.80179  -1.54334
   7   18541.4    539.3   0.125394604   2.22644   0.79910   0.44761   1.17793
   8   19948.3    501.3   0.013924788   0.22980   0.12142  -0.46146  -0.04601
   9   21547.4    464.1   0.027404072   0.41869   0.29713  -0.57457  -0.01671
  10   22546.9    443.5   0.180586788   2.63678  -0.63201  -1.21178  -0.87689
  11   22993.7    434.9   0.185185776   2.65139  -0.87101   1.03093  -0.91099
  12   23938.1    417.7   0.386135396   5.31038  -1.23660   1.61162  -1.08806
  13   24369.6    410.3   0.263985762   3.56621   0.79750  -1.60630   0.59163
  14   24948.8    400.8   0.963004980  12.70735  -1.77121   2.86239  -1.17342
  15   25814.0    387.4   0.039160051   0.49942  -0.10927   0.67322  -0.18507
  16   26349.7    379.5   0.179507534   2.24276  -1.00098   0.98879  -0.51292
  17   26817.4    372.9   0.482438186   5.92244  -1.69039   1.44294  -0.99144
  18   27495.9    363.7   0.062245658   0.74528  -0.59781  -0.62266  -0.01389
  19   27628.2    361.9   0.316347172   3.76952  -0.32711   1.80911  -0.62421
  20   27970.6    357.5   0.067058567   0.78927   0.33495  -0.80853   0.15283
  21   28676.3    348.7   0.095010275   1.09074  -0.45003  -0.57428   0.74727
  22   29219.0    342.2   0.058965472   0.66437  -0.08979   0.58843  -0.55682
  23   29564.3    338.2   0.022466289   0.25017   0.11285   0.27284  -0.40373
  24   30509.4    327.8   0.295868946   3.19257  -1.03189   1.41658   0.34793
  25   30839.9    324.3   0.080914096   0.86375   0.22034   0.24677   0.86851
  26   31284.9    319.6   0.189382868   1.99288   0.36188   0.15947   1.35517
  27   31423.0    318.2   0.256518534   2.68749   0.58518  -0.79761  -1.30724
  28   31722.1    315.2   0.954168359   9.90236  -0.77996  -0.38048  -3.02477
  29   31856.7    313.9   0.639010882   6.60363  -0.39665   0.91740   2.36742
  30   32156.0    311.0   0.265816208   2.72141   0.54312  -0.96139  -1.22563
  31   32380.2    308.8   0.025866332   0.26298   0.49914  -0.11734  -0.00869
  32   32645.8    306.3   0.474433469   4.78435  -0.68276  -1.53448  -1.40128
  33   32918.7    303.8   0.182181623   1.82195  -0.86087   0.76375  -0.70537
  34   33087.5    302.2   0.438664875   4.36460  -1.06182   1.77918  -0.26767
  35   33222.2    301.0   0.054752027   0.54256   0.61137  -0.39314   0.11929
  36   33752.5    296.3   0.055898877   0.54522  -0.43385   0.54926  -0.23517
  37   33851.6    295.4   0.041901945   0.40750   0.62441  -0.10962  -0.07479
  38   33982.2    294.3   0.303622674   2.94143  -0.36027   1.55856  -0.61849
  39   34061.7    293.6   0.107872168   1.04260  -0.42202   0.92596  -0.08426
  40   34220.5    292.2   0.062636324   0.60258   0.58644  -0.50566   0.05448
  41   34637.5    288.7   0.156399046   1.48650  -0.14391  -0.70280  -0.98583
  42   35030.0    285.5   0.028777558   0.27045  -0.10485   0.39069   0.32683
  43   35137.5    284.6   0.017551797   0.16445  -0.19558   0.30152   0.18783
  44   35263.7    283.6   0.098063335   0.91549  -0.44389  -0.23519  -0.81433
  45   35803.2    279.3   0.018021183   0.16571  -0.05871  -0.11436  -0.38624
  46   35871.8    278.8   0.038460154   0.35297  -0.23040   0.53282  -0.12642
  47   36000.5    277.8   0.029373427   0.26861  -0.20298   0.03602  -0.47551
  48   36225.2    276.1   0.109659674   0.99658   0.44576  -0.76632   0.45894
  49   36782.7    271.9   0.032099041   0.28729  -0.33016   0.28523  -0.31134
  50   36929.1    270.8   0.031892228   0.28431   0.05644   0.37822   0.37158
  51   37399.2    267.4   0.122126681   1.07504   0.23599  -0.82957  -0.57547
  52   37634.4    265.7   0.001661273   0.01453   0.03234   0.10774  -0.04335
  53   37761.1    264.8   0.028378399   0.24741  -0.14048   0.47671   0.02044
  54   38548.7    259.4   0.005985093   0.05111   0.10689   0.06296   0.18901
  55   38580.3    259.2   0.009229501   0.07876  -0.10353  -0.06171  -0.25344
  56   38733.7    258.2   0.005495445   0.04671   0.09035   0.07431   0.18172
  57   38830.0    257.5   0.012386839   0.10502  -0.15206  -0.08188  -0.27421
  58   38901.5    257.1   0.037449502   0.31692   0.05050   0.34895   0.43887
  59   39054.3    256.1   0.003768483   0.03177   0.02416  -0.14581  -0.09961
  60   39356.5    254.1   0.010039338   0.08398   0.10457  -0.02031   0.26950
  61   39575.7    252.7   0.009616352   0.07999  -0.25539   0.12072   0.01395
  62   39724.6    251.7   0.005165994   0.04281   0.02769   0.12702   0.16097
  63   39813.8    251.2   0.001162339   0.00961   0.02924  -0.06421  -0.06806
  64   40152.1    249.1   0.002035149   0.01669   0.00791   0.06554   0.11103
  65   40236.4    248.5   0.063540485   0.51988   0.09656   0.32030   0.63872
  66   40324.2    248.0   0.001820299   0.01486  -0.00730   0.10648   0.05891

FINAL SINGLE POINT ENERGY     -6710.965286858593

DIPOLE MOMENT
-------------
                                X             Y             Z
Electronic contribution:      3.19364     -13.92050      -3.93007
Nuclear contribution   :     -3.77721      13.99608       3.29508
                        -----------------------------------------
Total Dipole Moment    :     -0.58358       0.07557      -0.63499
                        -----------------------------------------
Magnitude (a.u.)       :      0.86572
Magnitude (Debye)      :      2.20050

Rotational constants in cm-1:     0.000481     0.000307     0.000197
Rotational constants in MHz :    14.432950     9.202333     5.919833

                             ****ORCA TERMINATED NORMALLY****
TOTAL RUN TIME: 0 days 0 hours 13 minutes 22 seconds 221 msec
