                         Program Version 4.2.0 -  RELEASE  -
|  1> # ORCA input file
|  2> # SCF done       -173.021665586079          0.000640975032
|  3> ! CAM-B3LYP def2-SVP def2/J RIJCOSX Grid4 TightSCF
|  4> %maxcore 5000
|  5> %tddft
|  6>     Mode sTDDFT
|  7>     Ethresh 5.0
|  8>     maxcore 5000
|  9> end
| 10>
| 11> %pal
| 12>   nprocs 6
| 13>   end
| 14> * xyz 0 1
| 15>    C       -1.77798        17.50648         3.55473
| 16>    C       -0.60517        17.43150         2.86944
| 17>    C       -0.57197        16.30175         2.02792
| 18>    C       -1.74796        15.54225         2.10668
| 19>    S       -2.87674        16.21030         3.20094
| 20>    C       -1.63140        14.43047         1.23094
| 21>    C       -0.37827        14.49193         0.59969
| 22>    C        0.32808        15.67358         1.08476
| 23>    C        1.57716        16.09150         0.72105
| 24>    C        2.36877        15.39245        -0.21246
| 25>    N        3.02648        14.83712        -0.97082
| 26>    C        2.16434        17.25483         1.25847
| 27>    N        2.64780        18.20222         1.68847
| 28>    C       -0.16334        13.44229        -0.28847
| 29>    C       -1.24912        12.58058        -0.33581
| 30>    S       -2.54743        13.07618         0.73146
| 31>    C       -1.34977        11.42460        -1.13902
| 32>    S       -2.80017        10.38099        -1.11342
| 33>    C       -2.02143         9.39787        -2.28414
| 34>    C       -0.75712         9.92022        -2.59573
| 35>    N       -0.41128        11.02830        -1.95699
| 36>    C       -0.06896         9.07434        -3.61827
| 37>    C       -1.09995         8.00979        -3.85222
| 38>    C       -2.22728         8.23452        -3.04910
| 39>    S       -3.43629         7.03921        -3.27881
| 40>    C       -2.42922         6.22467        -4.46978
| 41>    C       -1.21537         6.88284        -4.64693
| 42>    C       -2.91427         5.04897        -5.08151
| 43>    C       -2.26587         4.38639        -6.08105
| 44>    C       -2.67078         3.20542        -6.74689
| 45>    C       -2.09101         2.92102        -8.00054
| 46>    C       -2.55529         1.85852        -8.86777
| 47>    N       -1.87609         1.84642       -10.02034
| 48>    S       -0.78105         3.02068       -10.00886
| 49>    N       -1.10309         3.62559        -8.55998
| 50>    C       -3.62921         1.01139        -8.50783
| 51>    C       -4.08582         1.16540        -7.16020
| 52>    C       -4.94642         0.32789        -6.48304
| 53>    S       -5.17694         0.78551        -4.86054
| 54>    C       -4.14104         2.12671        -5.02849
| 55>    C       -3.61601         2.23653        -6.29700
| 56>    C       -4.18560         0.11030        -9.45118
| 57>    S       -5.76595        -0.64510        -9.23114
| 58>    C       -5.64197        -1.41031       -10.75964
| 59>    C       -4.44076        -1.10328       -11.40761
| 60>    C       -3.63428        -0.25134       -10.67987
| 61>    C       -4.36160        -1.80518       -12.74307
| 62>    C       -4.27449        -0.80066       -13.89488
| 63>    C       -3.18204        -2.78056       -12.78509
| 64>    C       -5.68268        -2.53905       -12.74691
| 65>    C       -6.39396        -2.28216       -11.57099
| 66>    S       -7.90169        -3.10174       -11.53021
| 67>    C       -7.58248        -3.79908       -13.10895
| 68>    C       -6.35320        -3.39076       -13.60998
| 69>    C       -8.55240        -4.66054       -13.68128
| 70>    C       -8.45267        -5.24935       -14.89612
| 71>    C       -9.43259        -6.11425       -15.45373
| 72>    S      -10.88815        -6.53076       -14.58092
| 73>    C      -11.41522        -7.53005       -15.87187
| 74>    C      -10.54032        -7.55080       -16.91708
| 75>    C       -9.40462        -6.73938       -16.68580
| 76>    C       -8.29142        -6.62051       -17.67892
| 77>    C       -8.73989        -7.06113       -19.07775
| 78>    C       -9.44940        -8.41968       -18.98033
| 79>    C      -10.75026        -8.31243       -18.18836
| 80>    C       -9.63317        -6.02470       -19.69429
| 81>    C       -9.55925        -5.63911       -20.95382
| 82>    H       -2.08083        18.25292         4.26134
| 83>    H        0.18925        18.14899         2.96495
| 84>    H        0.71596        13.28022        -0.88350
| 85>    H        0.86941         8.66622        -3.23843
| 86>    H        0.15809         9.63983        -4.52367
| 87>    H       -0.46042         6.53738        -5.32851
| 88>    H       -3.88345         4.71020        -4.74672
| 89>    H       -1.36784         4.82791        -6.49170
| 90>    H       -5.41496        -0.57075        -6.82426
| 91>    H       -3.91815         2.71745        -4.16516
| 92>    H       -2.67336         0.11200       -10.99026
| 93>    H       -3.35572        -0.22483       -13.81709
| 94>    H       -5.11885        -0.11572       -13.86294
| 95>    H       -4.28466        -1.32260       -14.84878
| 96>    H       -2.24565        -2.23561       -12.69568
| 97>    H       -3.18279        -3.32912       -13.72396
| 98>    H       -3.25130        -3.49227       -11.96535
| 99>    H       -5.97760        -3.71273       -14.56390
|100>    H       -9.43488        -4.84831       -13.08312
|101>    H       -7.57968        -5.07247       -15.50805
|102>    H      -12.34951        -8.04911       -15.78634
|103>    H       -7.45654        -7.25095       -17.35346
|104>    H       -7.92829        -5.59070       -17.72077
|105>    H       -7.85389        -7.18206       -19.71063
|106>    H       -8.77882        -9.12815       -18.48807
|107>    H       -9.66264        -8.79505       -19.98268
|108>    H      -11.13884        -9.30879       -17.96460
|109>    H      -11.50468        -7.79906       -18.79239
|110>    H      -10.36866        -5.58838       -19.03157
|111>    H       -8.82884        -6.05176       -21.63134
|112>    H      -10.21958        -4.89407       -21.36424
|113> *
|114>
|115>                          ****END OF INPUT****

CARTESIAN COORDINATES (ANGSTROEM)
---------------------------------
  C     -1.777980   17.506480    3.554730
  C     -0.605170   17.431500    2.869440
  C     -0.571970   16.301750    2.027920
  C     -1.747960   15.542250    2.106680
  S     -2.876740   16.210300    3.200940
  C     -1.631400   14.430470    1.230940
  C     -0.378270   14.491930    0.599690
  C      0.328080   15.673580    1.084760
  C      1.577160   16.091500    0.721050
  C      2.368770   15.392450   -0.212460
  N      3.026480   14.837120   -0.970820
  C      2.164340   17.254830    1.258470
  N      2.647800   18.202220    1.688470
  C     -0.163340   13.442290   -0.288470
  C     -1.249120   12.580580   -0.335810
  S     -2.547430   13.076180    0.731460
  C     -1.349770   11.424600   -1.139020
  S     -2.800170   10.380990   -1.113420
  C     -2.021430    9.397870   -2.284140
  C     -0.757120    9.920220   -2.595730
  N     -0.411280   11.028300   -1.956990
  C     -0.068960    9.074340   -3.618270
  C     -1.099950    8.009790   -3.852220
  C     -2.227280    8.234520   -3.049100
  S     -3.436290    7.039210   -3.278810
  C     -2.429220    6.224670   -4.469780
  C     -1.215370    6.882840   -4.646930
  C     -2.914270    5.048970   -5.081510
  C     -2.265870    4.386390   -6.081050
  C     -2.670780    3.205420   -6.746890
  C     -2.091010    2.921020   -8.000540
  C     -2.555290    1.858520   -8.867770
  N     -1.876090    1.846420  -10.020340
  S     -0.781050    3.020680  -10.008860
  N     -1.103090    3.625590   -8.559980
  C     -3.629210    1.011390   -8.507830
  C     -4.085820    1.165400   -7.160200
  C     -4.946420    0.327890   -6.483040
  S     -5.176940    0.785510   -4.860540
  C     -4.141040    2.126710   -5.028490
  C     -3.616010    2.236530   -6.297000
  C     -4.185600    0.110300   -9.451180
  S     -5.765950   -0.645100   -9.231140
  C     -5.641970   -1.410310  -10.759640
  C     -4.440760   -1.103280  -11.407610
  C     -3.634280   -0.251340  -10.679870
  C     -4.361600   -1.805180  -12.743070
  C     -4.274490   -0.800660  -13.894880
  C     -3.182040   -2.780560  -12.785090
  C     -5.682680   -2.539050  -12.746910
  C     -6.393960   -2.282160  -11.570990
  S     -7.901690   -3.101740  -11.530210
  C     -7.582480   -3.799080  -13.108950
  C     -6.353200   -3.390760  -13.609980
  C     -8.552400   -4.660540  -13.681280
  C     -8.452670   -5.249350  -14.896120
  C     -9.432590   -6.114250  -15.453730
  S    -10.888150   -6.530760  -14.580920
  C    -11.415220   -7.530050  -15.871870
  C    -10.540320   -7.550800  -16.917080
  C     -9.404620   -6.739380  -16.685800
  C     -8.291420   -6.620510  -17.678920
  C     -8.739890   -7.061130  -19.077750
  C     -9.449400   -8.419680  -18.980330
  C    -10.750260   -8.312430  -18.188360
  C     -9.633170   -6.024700  -19.694290
  C     -9.559250   -5.639110  -20.953820
  H     -2.080830   18.252920    4.261340
  H      0.189250   18.148990    2.964950
  H      0.715960   13.280220   -0.883500
  H      0.869410    8.666220   -3.238430
  H      0.158090    9.639830   -4.523670
  H     -0.460420    6.537380   -5.328510
  H     -3.883450    4.710200   -4.746720
  H     -1.367840    4.827910   -6.491700
  H     -5.414960   -0.570750   -6.824260
  H     -3.918150    2.717450   -4.165160
  H     -2.673360    0.112000  -10.990260
  H     -3.355720   -0.224830  -13.817090
  H     -5.118850   -0.115720  -13.862940
  H     -4.284660   -1.322600  -14.848780
  H     -2.245650   -2.235610  -12.695680
  H     -3.182790   -3.329120  -13.723960
  H     -3.251300   -3.492270  -11.965350
  H     -5.977600   -3.712730  -14.563900
  H     -9.434880   -4.848310  -13.083120
  H     -7.579680   -5.072470  -15.508050
  H    -12.349510   -8.049110  -15.786340
  H     -7.456540   -7.250950  -17.353460
  H     -7.928290   -5.590700  -17.720770
  H     -7.853890   -7.182060  -19.710630
  H     -8.778820   -9.128150  -18.488070
  H     -9.662640   -8.795050  -19.982680
  H    -11.138840   -9.308790  -17.964600
  H    -11.504680   -7.799060  -18.792390
  H    -10.368660   -5.588380  -19.031570
  H     -8.828840   -6.051760  -21.631340
  H    -10.219580   -4.894070  -21.364240

 Total Charge           Charge          ....    0
 Multiplicity           Mult            ....    1
 Number of Electrons    NEL             ....  528
 Basis Dimension        Dim             .... 1129

ORBITAL ENERGIES
----------------

  NO   OCC          E(Eh)            E(eV)
   0   2.0000     -89.019515     -2422.3442
   1   2.0000     -88.984114     -2421.3808
   2   2.0000     -88.981190     -2421.3013
   3   2.0000     -88.969756     -2420.9901
   4   2.0000     -88.968585     -2420.9583
   5   2.0000     -88.957204     -2420.6486
   6   2.0000     -88.954277     -2420.5689
   7   2.0000     -88.954134     -2420.5651
   8   2.0000     -88.940246     -2420.1871
   9   2.0000     -14.425633      -392.5414
  10   2.0000     -14.425545      -392.5390
  11   2.0000     -14.422526      -392.4569
  12   2.0000     -14.421047      -392.4166
  13   2.0000     -14.410911      -392.1408
  14   2.0000     -10.355655      -281.7917
  15   2.0000     -10.343286      -281.4551
  16   2.0000     -10.339502      -281.3522
  17   2.0000     -10.323605      -280.9196
  18   2.0000     -10.322986      -280.9027
  19   2.0000     -10.322769      -280.8968
  20   2.0000     -10.321270      -280.8560
  21   2.0000     -10.316281      -280.7203
  22   2.0000     -10.312295      -280.6118
  23   2.0000     -10.310131      -280.5529
  24   2.0000     -10.305251      -280.4201
  25   2.0000     -10.304393      -280.3968
  26   2.0000     -10.302075      -280.3337
  27   2.0000     -10.300260      -280.2843
  28   2.0000     -10.298308      -280.2312
  29   2.0000     -10.297047      -280.1969
  30   2.0000     -10.296299      -280.1765
  31   2.0000     -10.295398      -280.1520
  32   2.0000     -10.294383      -280.1244
  33   2.0000     -10.293822      -280.1091
  34   2.0000     -10.292783      -280.0809
  35   2.0000     -10.291864      -280.0559
  36   2.0000     -10.291280      -280.0400
  37   2.0000     -10.290616      -280.0219
  38   2.0000     -10.289219      -279.9839
  39   2.0000     -10.288151      -279.9548
  40   2.0000     -10.287166      -279.9280
  41   2.0000     -10.286397      -279.9071
  42   2.0000     -10.285188      -279.8742
  43   2.0000     -10.284218      -279.8478
  44   2.0000     -10.283655      -279.8325
  45   2.0000     -10.278558      -279.6938
  46   2.0000     -10.278027      -279.6793
  47   2.0000     -10.276918      -279.6492
  48   2.0000     -10.275334      -279.6061
  49   2.0000     -10.274673      -279.5881
  50   2.0000     -10.274321      -279.5785
  51   2.0000     -10.270432      -279.4727
  52   2.0000     -10.269179      -279.4386
  53   2.0000     -10.268293      -279.4144
  54   2.0000     -10.268172      -279.4112
  55   2.0000     -10.267901      -279.4038
  56   2.0000     -10.266981      -279.3788
  57   2.0000     -10.265678      -279.3433
  58   2.0000     -10.263423      -279.2819
  59   2.0000     -10.263110      -279.2734
  60   2.0000     -10.262898      -279.2676
  61   2.0000     -10.261191      -279.2212
  62   2.0000     -10.261008      -279.2162
  63   2.0000     -10.260348      -279.1983
  64   2.0000     -10.259440      -279.1736
  65   2.0000     -10.259050      -279.1629
  66   2.0000     -10.253623      -279.0153
  67   2.0000      -8.110662      -220.7023
  68   2.0000      -8.078830      -219.8361
  69   2.0000      -8.076187      -219.7642
  70   2.0000      -8.065234      -219.4662
  71   2.0000      -8.063680      -219.4239
  72   2.0000      -8.052258      -219.1131
  73   2.0000      -8.049425      -219.0360
  74   2.0000      -8.048722      -219.0169
  75   2.0000      -8.036105      -218.6735
  76   2.0000      -6.081718      -165.4919
  77   2.0000      -6.074042      -165.2831
  78   2.0000      -6.073531      -165.2692
  79   2.0000      -6.048085      -164.5768
  80   2.0000      -6.045458      -164.5053
  81   2.0000      -6.043973      -164.4649
  82   2.0000      -6.041131      -164.3875
  83   2.0000      -6.041034      -164.3849
  84   2.0000      -6.038756      -164.3229
  85   2.0000      -6.033877      -164.1901
  86   2.0000      -6.032965      -164.1653
  87   2.0000      -6.029552      -164.0724
  88   2.0000      -6.029049      -164.0588
  89   2.0000      -6.028985      -164.0570
  90   2.0000      -6.025674      -163.9669
  91   2.0000      -6.021599      -163.8560
  92   2.0000      -6.018686      -163.7768
  93   2.0000      -6.018120      -163.7614
  94   2.0000      -6.017601      -163.7472
  95   2.0000      -6.014724      -163.6689
  96   2.0000      -6.014289      -163.6571
  97   2.0000      -6.014009      -163.6495
  98   2.0000      -6.011516      -163.5817
  99   2.0000      -6.010731      -163.5603
 100   2.0000      -6.005324      -163.4132
 101   2.0000      -6.001222      -163.3015
 102   2.0000      -5.998338      -163.2231
 103   2.0000      -1.113209       -30.2919
 104   2.0000      -1.067489       -29.0479
 105   2.0000      -1.034811       -28.1586
 106   2.0000      -1.013214       -27.5710
 107   2.0000      -1.004065       -27.3220
 108   2.0000      -0.998961       -27.1831
 109   2.0000      -0.993149       -27.0249
 110   2.0000      -0.992056       -26.9952
 111   2.0000      -0.984723       -26.7957
 112   2.0000      -0.976258       -26.5653
 113   2.0000      -0.972062       -26.4511
 114   2.0000      -0.961496       -26.1636
 115   2.0000      -0.948824       -25.8188
 116   2.0000      -0.932284       -25.3687
 117   2.0000      -0.925055       -25.1720
 118   2.0000      -0.920318       -25.0431
 119   2.0000      -0.915136       -24.9021
 120   2.0000      -0.903904       -24.5965
 121   2.0000      -0.892429       -24.2842
 122   2.0000      -0.886512       -24.1232
 123   2.0000      -0.885336       -24.0912
 124   2.0000      -0.860731       -23.4217
 125   2.0000      -0.857841       -23.3430
 126   2.0000      -0.850485       -23.1429
 127   2.0000      -0.845093       -22.9962
 128   2.0000      -0.843912       -22.9640
 129   2.0000      -0.839869       -22.8540
 130   2.0000      -0.836478       -22.7617
 131   2.0000      -0.832810       -22.6619
 132   2.0000      -0.820389       -22.3239
 133   2.0000      -0.814745       -22.1703
 134   2.0000      -0.811529       -22.0828
 135   2.0000      -0.802024       -21.8242
 136   2.0000      -0.795278       -21.6406
 137   2.0000      -0.789432       -21.4815
 138   2.0000      -0.776961       -21.1422
 139   2.0000      -0.770702       -20.9719
 140   2.0000      -0.770444       -20.9649
 141   2.0000      -0.764918       -20.8145
 142   2.0000      -0.752111       -20.4660
 143   2.0000      -0.738197       -20.0874
 144   2.0000      -0.725392       -19.7389
 145   2.0000      -0.711587       -19.3633
 146   2.0000      -0.708780       -19.2869
 147   2.0000      -0.694939       -18.9103
 148   2.0000      -0.694767       -18.9056
 149   2.0000      -0.689171       -18.7533
 150   2.0000      -0.678579       -18.4651
 151   2.0000      -0.676731       -18.4148
 152   2.0000      -0.671020       -18.2594
 153   2.0000      -0.664511       -18.0823
 154   2.0000      -0.653108       -17.7720
 155   2.0000      -0.649248       -17.6669
 156   2.0000      -0.643730       -17.5168
 157   2.0000      -0.638842       -17.3838
 158   2.0000      -0.629909       -17.1407
 159   2.0000      -0.628053       -17.0902
 160   2.0000      -0.621035       -16.8992
 161   2.0000      -0.618517       -16.8307
 162   2.0000      -0.617427       -16.8010
 163   2.0000      -0.615561       -16.7503
 164   2.0000      -0.612416       -16.6647
 165   2.0000      -0.606207       -16.4957
 166   2.0000      -0.598502       -16.2861
 167   2.0000      -0.590352       -16.0643
 168   2.0000      -0.585821       -15.9410
 169   2.0000      -0.580343       -15.7919
 170   2.0000      -0.577012       -15.7013
 171   2.0000      -0.572602       -15.5813
 172   2.0000      -0.569330       -15.4923
 173   2.0000      -0.556192       -15.1347
 174   2.0000      -0.549246       -14.9457
 175   2.0000      -0.548845       -14.9348
 176   2.0000      -0.547314       -14.8932
 177   2.0000      -0.541525       -14.7356
 178   2.0000      -0.538602       -14.6561
 179   2.0000      -0.538169       -14.6443
 180   2.0000      -0.537385       -14.6230
 181   2.0000      -0.533839       -14.5265
 182   2.0000      -0.529512       -14.4087
 183   2.0000      -0.522232       -14.2107
 184   2.0000      -0.520025       -14.1506
 185   2.0000      -0.519186       -14.1278
 186   2.0000      -0.516874       -14.0648
 187   2.0000      -0.511952       -13.9309
 188   2.0000      -0.510522       -13.8920
 189   2.0000      -0.502866       -13.6837
 190   2.0000      -0.501392       -13.6436
 191   2.0000      -0.493087       -13.4176
 192   2.0000      -0.491711       -13.3801
 193   2.0000      -0.490221       -13.3396
 194   2.0000      -0.488847       -13.3022
 195   2.0000      -0.486493       -13.2381
 196   2.0000      -0.484837       -13.1931
 197   2.0000      -0.484466       -13.1830
 198   2.0000      -0.481082       -13.0909
 199   2.0000      -0.478914       -13.0319
 200   2.0000      -0.475138       -12.9292
 201   2.0000      -0.471587       -12.8325
 202   2.0000      -0.470852       -12.8125
 203   2.0000      -0.468477       -12.7479
 204   2.0000      -0.466534       -12.6950
 205   2.0000      -0.465770       -12.6743
 206   2.0000      -0.465112       -12.6563
 207   2.0000      -0.463704       -12.6180
 208   2.0000      -0.462831       -12.5943
 209   2.0000      -0.461604       -12.5609
 210   2.0000      -0.461120       -12.5477
 211   2.0000      -0.458577       -12.4785
 212   2.0000      -0.453431       -12.3385
 213   2.0000      -0.452008       -12.2998
 214   2.0000      -0.450853       -12.2683
 215   2.0000      -0.450355       -12.2548
 216   2.0000      -0.449347       -12.2274
 217   2.0000      -0.444975       -12.1084
 218   2.0000      -0.443222       -12.0607
 219   2.0000      -0.441632       -12.0174
 220   2.0000      -0.436767       -11.8850
 221   2.0000      -0.433483       -11.7957
 222   2.0000      -0.431785       -11.7495
 223   2.0000      -0.430341       -11.7102
 224   2.0000      -0.430265       -11.7081
 225   2.0000      -0.426230       -11.5983
 226   2.0000      -0.424094       -11.5402
 227   2.0000      -0.422492       -11.4966
 228   2.0000      -0.420477       -11.4418
 229   2.0000      -0.419004       -11.4017
 230   2.0000      -0.417271       -11.3545
 231   2.0000      -0.415464       -11.3053
 232   2.0000      -0.414083       -11.2678
 233   2.0000      -0.406553       -11.0629
 234   2.0000      -0.403327       -10.9751
 235   2.0000      -0.400905       -10.9092
 236   2.0000      -0.397153       -10.8071
 237   2.0000      -0.394120       -10.7245
 238   2.0000      -0.391872       -10.6634
 239   2.0000      -0.390769       -10.6334
 240   2.0000      -0.388817       -10.5802
 241   2.0000      -0.387009       -10.5310
 242   2.0000      -0.384480       -10.4622
 243   2.0000      -0.380285       -10.3481
 244   2.0000      -0.366158        -9.9637
 245   2.0000      -0.356419        -9.6986
 246   2.0000      -0.354268        -9.6401
 247   2.0000      -0.351066        -9.5530
 248   2.0000      -0.345831        -9.4105
 249   2.0000      -0.339253        -9.2315
 250   2.0000      -0.330229        -8.9860
 251   2.0000      -0.325185        -8.8487
 252   2.0000      -0.320706        -8.7269
 253   2.0000      -0.318679        -8.6717
 254   2.0000      -0.318183        -8.6582
 255   2.0000      -0.317007        -8.6262
 256   2.0000      -0.312556        -8.5051
 257   2.0000      -0.311432        -8.4745
 258   2.0000      -0.297699        -8.1008
 259   2.0000      -0.285270        -7.7626
 260   2.0000      -0.280079        -7.6213
 261   2.0000      -0.246726        -6.7138
 262   2.0000      -0.229875        -6.2552
 263   2.0000      -0.193765        -5.2726
 264   0.0000      -0.098590        -2.6828
 265   0.0000      -0.091973        -2.5027
 266   0.0000      -0.042358        -1.1526
 267   0.0000      -0.035855        -0.9757
 268   0.0000      -0.003550        -0.0966

MULLIKEN ATOMIC CHARGES
-----------------------
   0 C :   -0.084697
   1 C :    0.036467
   2 C :   -0.034632
   3 C :   -0.115519
   4 S :    0.175838
   5 C :   -0.101375
   6 C :    0.013793
   7 C :    0.298126
   8 C :   -0.299787
   9 C :   -0.189759
  10 N :    0.177164
  11 C :   -0.193908
  12 N :    0.174620
  13 C :   -0.040652
  14 C :   -0.041223
  15 S :    0.184446
  16 C :   -0.108810
  17 S :    0.119020
  18 C :   -0.052984
  19 C :   -0.228282
  20 N :   -0.007819
  21 C :    0.395375
  22 C :   -0.158183
  23 C :   -0.105418
  24 S :    0.140589
  25 C :   -0.080506
  26 C :   -0.019304
  27 C :    0.029612
  28 C :   -0.054552
  29 C :    0.085225
  30 C :    0.001937
  31 C :   -0.019898
  32 N :   -0.314511
  33 S :    0.515847
  34 N :   -0.300023
  35 C :    0.189324
  36 C :    0.039804
  37 C :   -0.195252
  38 S :    0.180865
  39 C :   -0.185965
  40 C :    0.058501
  41 C :   -0.189433
  42 S :    0.115924
  43 C :   -0.073353
  44 C :    0.031878
  45 C :   -0.039826
  46 C :   -0.107057
  47 C :    0.103036
  48 C :    0.104500
  49 C :    0.013864
  50 C :   -0.092767
  51 S :    0.142421
  52 C :   -0.075290
  53 C :   -0.044892
  54 C :    0.037442
  55 C :   -0.013609
  56 C :   -0.117709
  57 S :    0.094487
  58 C :   -0.126779
  59 C :   -0.048285
  60 C :   -0.079476
  61 C :    0.160694
  62 C :   -0.066805
  63 C :    0.082888
  64 C :    0.117268
  65 C :   -0.034700
  66 C :   -0.019840
  67 H :    0.034555
  68 H :    0.012309
  69 H :    0.018413
  70 H :    0.037295
  71 H :    0.037108
  72 H :   -0.018951
  73 H :   -0.018668
  74 H :   -0.002307
  75 H :    0.033401
  76 H :    0.021829
  77 H :   -0.010093
  78 H :    0.013459
  79 H :    0.021842
  80 H :    0.006865
  81 H :    0.012330
  82 H :    0.006875
  83 H :    0.021275
  84 H :   -0.031650
  85 H :   -0.015398
  86 H :   -0.018134
  87 H :    0.005753
  88 H :    0.013816
  89 H :    0.013301
  90 H :   -0.013040
  91 H :    0.001031
  92 H :   -0.002661
  93 H :    0.005414
  94 H :    0.018980
  95 H :    0.010984
  96 H :    0.008141
  97 H :    0.017848
Sum of atomic charges:   -0.0000000

LOEWDIN ATOMIC CHARGES
----------------------
   0 C :   -0.180213
   1 C :   -0.034260
   2 C :   -0.079903
   3 C :   -0.180984
   4 S :    0.471400
   5 C :   -0.185087
   6 C :   -0.068204
   7 C :    0.083364
   8 C :   -0.103645
   9 C :   -0.018229
  10 N :   -0.031649
  11 C :   -0.016214
  12 N :   -0.036131
  13 C :   -0.008687
  14 C :   -0.195650
  15 S :    0.466841
  16 C :   -0.147550
  17 S :    0.394982
  18 C :   -0.211051
  19 C :   -0.039085
  20 N :   -0.082177
  21 C :   -0.011255
  22 C :   -0.043474
  23 C :   -0.206019
  24 S :    0.428028
  25 C :   -0.158679
  26 C :   -0.054365
  27 C :   -0.054405
  28 C :   -0.009492
  29 C :   -0.043877
  30 C :   -0.044784
  31 C :   -0.048483
  32 N :   -0.296019
  33 S :    0.649592
  34 N :   -0.298413
  35 C :   -0.040354
  36 C :   -0.050856
  37 C :   -0.223872
  38 S :    0.518710
  39 C :   -0.215742
  40 C :   -0.040306
  41 C :   -0.162057
  42 S :    0.439963
  43 C :   -0.190128
  44 C :   -0.042182
  45 C :   -0.038616
  46 C :   -0.034328
  47 C :   -0.024630
  48 C :   -0.024349
  49 C :   -0.031186
  50 C :   -0.203046
  51 S :    0.432181
  52 C :   -0.160670
  53 C :   -0.059220
  54 C :   -0.055443
  55 C :   -0.035478
  56 C :   -0.178615
  57 S :    0.421649
  58 C :   -0.190873
  59 C :   -0.069004
  60 C :   -0.061358
  61 C :   -0.019570
  62 C :   -0.031268
  63 C :   -0.018167
  64 C :   -0.026823
  65 C :   -0.017820
  66 C :   -0.058460
  67 H :    0.026766
  68 H :    0.042327
  69 H :    0.046034
  70 H :    0.057119
  71 H :    0.056904
  72 H :    0.032245
  73 H :    0.023717
  74 H :    0.031850
  75 H :    0.006700
  76 H :    0.020785
  77 H :    0.027691
  78 H :    0.024954
  79 H :    0.030376
  80 H :    0.021822
  81 H :    0.024480
  82 H :    0.021916
  83 H :    0.030068
  84 H :    0.026390
  85 H :    0.020434
  86 H :    0.028821
  87 H :    0.019277
  88 H :    0.032938
  89 H :    0.029224
  90 H :    0.026543
  91 H :    0.020960
  92 H :    0.023893
  93 H :    0.031472
  94 H :    0.031930
  95 H :    0.026890
  96 H :    0.018765
  97 H :    0.022408

  Mayer bond orders larger than 0.100000
B(  0-C ,  1-C ) :   1.5538 B(  0-C ,  4-S ) :   1.1431 B(  0-C , 67-H ) :   0.9646
B(  1-C ,  2-C ) :   1.2727 B(  1-C , 68-H ) :   0.9951 B(  2-C ,  3-C ) :   1.4487
B(  2-C ,  7-C ) :   1.0243 B(  3-C ,  4-S ) :   1.1358 B(  3-C ,  5-C ) :   1.1966
B(  5-C ,  6-C ) :   1.4456 B(  5-C , 15-S ) :   1.1238 B(  6-C ,  7-C ) :   0.9842
B(  6-C , 13-C ) :   1.2717 B(  7-C ,  8-C ) :   1.7095 B(  8-C ,  9-C ) :   1.1349
B(  8-C , 11-C ) :   1.1340 B(  9-C , 10-N ) :   2.9972 B( 11-C , 12-N ) :   3.0025
B( 13-C , 14-C ) :   1.4668 B( 13-C , 69-H ) :   1.0097 B( 14-C , 15-S ) :   1.1047
B( 14-C , 16-C ) :   1.1049 B( 16-C , 17-S ) :   1.0693 B( 16-C , 20-N ) :   1.6945
B( 17-S , 18-C ) :   1.0833 B( 18-C , 19-C ) :   1.4766 B( 18-C , 23-C ) :   1.2050
B( 19-C , 20-N ) :   1.4396 B( 19-C , 21-C ) :   1.0419 B( 21-C , 22-C ) :   0.9824
B( 21-C , 70-H ) :   0.8595 B( 21-C , 71-H ) :   0.8602 B( 22-C , 23-C ) :   1.4980
B( 22-C , 26-C ) :   1.3282 B( 23-C , 24-S ) :   1.0796 B( 24-S , 25-C ) :   1.0980
B( 25-C , 26-C ) :   1.4394 B( 25-C , 27-C ) :   1.1501 B( 26-C , 72-H ) :   0.9968
B( 27-C , 28-C ) :   1.5826 B( 27-C , 73-H ) :   0.9578 B( 28-C , 29-C ) :   1.2314
B( 28-C , 74-H ) :   0.9567 B( 29-C , 30-C ) :   1.2344 B( 29-C , 35-C ) :   0.1140
B( 29-C , 40-C ) :   1.1650 B( 30-C , 31-C ) :   1.1062 B( 30-C , 34-N ) :   1.4855
B( 31-C , 32-N ) :   1.4589 B( 31-C , 35-C ) :   1.2747 B( 32-N , 33-S ) :   1.2750
B( 32-N , 34-N ) :   0.1662 B( 33-S , 34-N ) :   1.2832 B( 35-C , 36-C ) :   1.1822
B( 35-C , 41-C ) :   1.1829 B( 36-C , 37-C ) :   1.4063 B( 36-C , 40-C ) :   1.1592
B( 37-C , 38-S ) :   1.2416 B( 37-C , 39-C ) :   0.1118 B( 37-C , 75-H ) :   0.9414
B( 38-S , 39-C ) :   1.2273 B( 39-C , 40-C ) :   1.4105 B( 39-C , 76-H ) :   0.9588
B( 41-C , 42-S ) :   1.0740 B( 41-C , 45-C ) :   1.4186 B( 42-S , 43-C ) :   1.0846
B( 43-C , 44-C ) :   1.4861 B( 43-C , 50-C ) :   1.1903 B( 44-C , 45-C ) :   1.3068
B( 44-C , 46-C ) :   0.9385 B( 45-C , 77-H ) :   0.9886 B( 46-C , 47-C ) :   1.0340
B( 46-C , 48-C ) :   1.0351 B( 46-C , 49-C ) :   0.9434 B( 47-C , 78-H ) :   0.9649
B( 47-C , 79-H ) :   0.9645 B( 47-C , 80-H ) :   0.9644 B( 48-C , 81-H ) :   0.9647
B( 48-C , 82-H ) :   0.9644 B( 48-C , 83-H ) :   0.9644 B( 49-C , 50-C ) :   1.5044
B( 49-C , 53-C ) :   1.3274 B( 50-C , 51-S ) :   1.0746 B( 51-S , 52-C ) :   1.1084
B( 52-C , 53-C ) :   1.4482 B( 52-C , 54-C ) :   1.1252 B( 53-C , 84-H ) :   0.9998
B( 54-C , 55-C ) :   1.6767 B( 54-C , 85-H ) :   0.9602 B( 55-C , 56-C ) :   1.1634
B( 55-C , 86-H ) :   0.9667 B( 56-C , 57-S ) :   1.1184 B( 56-C , 60-C ) :   1.4972
B( 57-S , 58-C ) :   1.1490 B( 58-C , 59-C ) :   1.5740 B( 58-C , 87-H ) :   0.9709
B( 59-C , 60-C ) :   1.2924 B( 59-C , 64-C ) :   1.0265 B( 60-C , 61-C ) :   1.0435
B( 61-C , 62-C ) :   1.0473 B( 61-C , 88-H ) :   0.9070 B( 61-C , 89-H ) :   0.9146
B( 62-C , 63-C ) :   1.0398 B( 62-C , 65-C ) :   0.9969 B( 62-C , 90-H ) :   0.9154
B( 63-C , 64-C ) :   1.0962 B( 63-C , 91-H ) :   0.9441 B( 63-C , 92-H ) :   0.9313
B( 64-C , 93-H ) :   0.9214 B( 64-C , 94-H ) :   0.9115 B( 65-C , 66-C ) :   2.0275
B( 65-C , 95-H ) :   0.9628 B( 66-C , 96-H ) :   0.9532 B( 66-C , 97-H ) :   0.9547

-----------------------------------------------------------------------------
         ABSORPTION SPECTRUM VIA TRANSITION ELECTRIC DIPOLE MOMENTS
-----------------------------------------------------------------------------
State   Energy  Wavelength   fosc         T2         TX        TY        TZ
        (cm-1)    (nm)                  (au**2)     (au)      (au)      (au)
-----------------------------------------------------------------------------
   0    7834.7   1276.4   0.989328642  41.57158   1.92087   4.77927   3.87819
   1   10865.6    920.3   0.067503794   2.04527   0.08674  -1.21801  -0.74445
   2   16092.4    621.4   0.021646973   0.44285   0.45156   0.28578   0.39657
   3   17325.1    577.2   0.029904947   0.56825  -0.59793   0.44807  -0.09982
   4   19723.1    507.0   0.863022603  14.40534   0.98316   2.94598   2.18172
   5   20119.8    497.0   1.075042780  17.59047   1.17379   3.21628   2.42244
   6   21689.2    461.1   0.221292928   3.35893  -1.54460  -0.37862  -0.91093
   7   23611.4    423.5   0.011408122   0.15906   0.08601   0.28094   0.26970
   8   26744.7    373.9   0.036228328   0.44595  -0.28105  -0.47844  -0.37156
   9   26812.3    373.0   0.015242876   0.18716   0.05860   0.35649   0.23799
  10   27320.7    366.0   0.094938460   1.14400  -0.51794  -0.80587  -0.47572
  11   28203.0    354.6   0.056626133   0.66099  -0.11703  -0.67922  -0.43123
  12   28849.3    346.6   0.087711503   1.00091   0.23637   0.86974   0.43428
  13   29839.6    335.1   0.298961483   3.29836  -1.02532  -1.16267  -0.94620
  14   30154.4    331.6   0.015211488   0.16607   0.00856  -0.19148  -0.35963
  15   30655.1    326.2   0.095122071   1.02154  -0.22288  -0.90099  -0.40010
  16   31822.5    314.2   0.634210908   6.56109   2.36186   0.43959  -0.88853
  17   32071.0    311.8   0.021190048   0.21752   0.37205   0.12970  -0.24955
  18   32509.5    307.6   0.454786627   4.60546  -1.32248  -0.58058   1.58727
  19   33454.1    298.9   0.100222087   0.98626   0.29829   0.87118   0.37193
  20   34063.5    293.6   0.015864558   0.15333   0.32152   0.22329  -0.00955
  21   34190.4    292.5   0.081915937   0.78875   0.19667  -0.57634  -0.64645
  22   34285.3    291.7   0.001205179   0.01157   0.08372  -0.02310  -0.06347
  23   34376.4    290.9   0.001959198   0.01876  -0.07544   0.00756  -0.11408
  24   34682.9    288.3   0.009797859   0.09300   0.21858   0.18878   0.09791
  25   35155.5    284.5   0.022511353   0.21081  -0.41768  -0.18269   0.05454
  26   35206.7    284.0   0.000485627   0.00454  -0.06030  -0.02002   0.02244
  27   35330.5    283.0   0.042581890   0.39678   0.43109   0.02567  -0.45857
  28   35840.3    279.0   0.000550716   0.00506   0.01603  -0.06369  -0.02729
  29   35945.7    278.2   0.006739890   0.06173   0.21184   0.12978   0.00256
  30   36955.0    270.6   0.016771080   0.14940  -0.16854   0.26345   0.22715
  31   37052.6    269.9   0.006885950   0.06118  -0.08927  -0.18760  -0.13423
  32   37296.9    268.1   0.000216749   0.00191   0.02618  -0.02815   0.02087
  33   37414.8    267.3   0.029276612   0.25760  -0.44073  -0.20953   0.13949
  34   38129.9    262.3   0.049525467   0.42760   0.05213   0.55025   0.34944
  35   38484.0    259.8   0.035736768   0.30571  -0.47612  -0.13171   0.24835
  36   39201.7    255.1   0.028522217   0.23953  -0.46231  -0.13711   0.08368
  37   39548.4    252.9   0.003037664   0.02529   0.09082   0.12935   0.01754
  38   39880.2    250.8   0.066602272   0.54980  -0.31145   0.47880   0.47281
  39   40139.1    249.1   0.046011448   0.37738  -0.34581   0.22120   0.45701

FINAL SINGLE POINT ENERGY     -5891.581366805962

DIPOLE MOMENT
-------------
                                X             Y             Z
Electronic contribution:     40.09985     131.32983     140.82231
Nuclear contribution   :    -42.03584    -133.37276    -141.67224
                        -----------------------------------------
Total Dipole Moment    :     -1.93600      -2.04294      -0.84993
                        -----------------------------------------
Magnitude (a.u.)       :      2.94008
Magnitude (Debye)      :      7.47308

Rotational constants in cm-1:     0.003163     0.000139     0.000137
Rotational constants in MHz :    94.838858     4.163096     4.095054

                             ****ORCA TERMINATED NORMALLY****
TOTAL RUN TIME: 0 days 0 hours 9 minutes 33 seconds 351 msec
