                         Program Version 4.2.0 -  RELEASE  -
|  1> # ORCA input file
|  2> # SCF done       -203.070438144771          0.000717101025
|  3> ! CAM-B3LYP def2-SVP def2/J RIJCOSX Grid4 TightSCF
|  4> %maxcore 5000
|  5> %tddft
|  6>     Mode sTDDFT
|  7>     Ethresh 5.0
|  8>     maxcore 5000
|  9> end
| 10>
| 11> %pal
| 12>   nprocs 6
| 13>   end
| 14> * xyz 0 1
| 15>    C       -3.47763        -2.95592        -1.33428
| 16>    C       -4.69650        -3.35596        -1.88593
| 17>    C       -5.75349        -2.28484        -1.95965
| 18>    O       -5.45125        -1.12573        -1.90523
| 19>    O       -7.03199        -2.65298        -2.06688
| 20>    C       -4.85156        -4.66834        -2.36627
| 21>    C       -6.05553        -5.14801        -2.93221
| 22>    N       -7.01249        -5.59379        -3.38355
| 23>    C       -3.78537        -5.57715        -2.31630
| 24>    C       -2.59339        -5.15987        -1.77210
| 25>    C       -2.43164        -3.85784        -1.26565
| 26>    C       -1.07557        -3.74545        -0.73793
| 27>    C       -0.61124        -2.76000         0.09384
| 28>    C       -1.35498        -1.61951         0.46251
| 29>    N       -1.91632        -0.67646         0.79586
| 30>    C        0.62528        -2.84443         0.77098
| 31>    N        1.58695        -2.90747         1.39508
| 32>    C       -0.35659        -4.95469        -1.08488
| 33>    C       -1.32542        -5.92142        -1.63033
| 34>    O       -1.16651        -7.08144        -1.95026
| 35>    C        1.01965        -5.01348        -1.07000
| 36>    C        1.91563        -6.09300        -1.15459
| 37>    C        1.58244        -7.41883        -1.02487
| 38>    C        2.54341        -8.43755        -0.92389
| 39>    C        3.87804        -8.18361        -0.75410
| 40>    C        4.35476        -6.74765        -0.70287
| 41>    C        3.38405        -5.76058        -1.38296
| 42>    N        3.67197        -4.39075        -1.02409
| 43>    C        4.18911        -4.15471         0.10012
| 44>    C        4.54161        -5.23449         1.04734
| 45>    N        4.61128        -6.43955         0.68995
| 46>    F        4.77269        -4.91486         2.30962
| 47>    F        4.47957        -2.91005         0.43337
| 48>    C        4.82723        -9.19909        -0.50214
| 49>    C        6.18129        -9.06153        -0.22190
| 50>    C        6.80762       -10.28208        -0.01109
| 51>    C        5.92567       -11.38220        -0.12527
| 52>    S        4.33385       -10.89807        -0.49571
| 53>    C        6.65180       -12.56509         0.10963
| 54>    C        7.99465       -12.22844         0.37405
| 55>    C        8.13420       -10.78065         0.29825
| 56>    C        9.27686       -10.05208         0.46180
| 57>    C       10.51526       -10.65881         0.75698
| 58>    N       11.52030       -11.15660         0.99586
| 59>    C        9.29166        -8.64819         0.32504
| 60>    N        9.30539        -7.50889         0.19632
| 61>    C        8.79617       -13.33581         0.62020
| 62>    C        8.08474       -14.52627         0.54942
| 63>    S        6.38619       -14.25529         0.16818
| 64>    C        8.58113       -15.84213         0.74301
| 65>    C        7.78050       -16.96044         0.65248
| 66>    C        8.21660       -18.26690         0.82866
| 67>    C        9.61817       -18.56408         1.13567
| 68>    C       10.57981       -17.62584         1.27315
| 69>    S       10.30275       -15.94176         1.10687
| 70>    C        9.68518       -19.97978         1.24042
| 71>    C        8.42276       -20.54068         1.01787
| 72>    C        8.46196       -21.95116         1.11567
| 73>    C        9.71078       -22.40377         1.39993
| 74>    S       10.89420       -21.15287         1.56259
| 75>    C        7.48608       -19.47715         0.75770
| 76>    C        6.10605       -19.55648         0.48080
| 77>    C        5.35677       -20.68941         0.40274
| 78>    C        3.97350       -20.70946         0.12061
| 79>    C        3.16522       -21.83449         0.03095
| 80>    C        1.84306       -21.51324        -0.26249
| 81>    C        1.63220       -20.13249        -0.39979
| 82>    S        3.06134       -19.22876        -0.16719
| 83>    C        0.26008       -19.91364        -0.69736
| 84>    C       -0.39176       -21.15378        -0.74699
| 85>    C        0.57295       -22.20053        -0.47639
| 86>    C        0.35187       -23.54625        -0.42821
| 87>    C       -0.92293       -24.10749        -0.65075
| 88>    N       -1.95761       -24.56852        -0.82791
| 89>    C        1.38572       -24.46520        -0.15359
| 90>    N        2.22727       -25.21177         0.06968
| 91>    C       -1.76339       -21.02783        -1.03957
| 92>    C       -2.11807       -19.72357        -1.20252
| 93>    S       -0.80174       -18.61255        -1.00628
| 94>    H       -3.38865        -1.93730        -0.98897
| 95>    H       -7.18776        -3.60532        -2.15509
| 96>    H       -3.89872        -6.58008        -2.69966
| 97>    H        1.51748        -4.05271        -0.98452
| 98>    H        0.54312        -7.69862        -0.96739
| 99>    H        2.19686        -9.46112        -0.90489
|100>    H        5.32265        -6.67408        -1.21851
|101>    H        3.54255        -5.81501        -2.47023
|102>    H        6.67283        -8.10951        -0.15294
|103>    H        9.84733       -13.29858         0.84283
|104>    H        6.73660       -16.78596         0.42554
|105>    H       11.60494       -17.87194         1.50047
|106>    H        7.62799       -22.61558         0.98709
|107>    H       10.02333       -23.42157         1.52852
|108>    H        5.59852       -18.61382         0.31491
|109>    H        5.80856       -21.65626         0.55996
|110>    H        3.54110       -22.83101         0.17575
|111>    H       -2.45148       -21.84873        -1.12574
|112>    H       -3.08832       -19.32997        -1.43041
|113> *
|114>
|115>                          ****END OF INPUT****

CARTESIAN COORDINATES (ANGSTROEM)
---------------------------------
  C     -3.477630   -2.955920   -1.334280
  C     -4.696500   -3.355960   -1.885930
  C     -5.753490   -2.284840   -1.959650
  O     -5.451250   -1.125730   -1.905230
  O     -7.031990   -2.652980   -2.066880
  C     -4.851560   -4.668340   -2.366270
  C     -6.055530   -5.148010   -2.932210
  N     -7.012490   -5.593790   -3.383550
  C     -3.785370   -5.577150   -2.316300
  C     -2.593390   -5.159870   -1.772100
  C     -2.431640   -3.857840   -1.265650
  C     -1.075570   -3.745450   -0.737930
  C     -0.611240   -2.760000    0.093840
  C     -1.354980   -1.619510    0.462510
  N     -1.916320   -0.676460    0.795860
  C      0.625280   -2.844430    0.770980
  N      1.586950   -2.907470    1.395080
  C     -0.356590   -4.954690   -1.084880
  C     -1.325420   -5.921420   -1.630330
  O     -1.166510   -7.081440   -1.950260
  C      1.019650   -5.013480   -1.070000
  C      1.915630   -6.093000   -1.154590
  C      1.582440   -7.418830   -1.024870
  C      2.543410   -8.437550   -0.923890
  C      3.878040   -8.183610   -0.754100
  C      4.354760   -6.747650   -0.702870
  C      3.384050   -5.760580   -1.382960
  N      3.671970   -4.390750   -1.024090
  C      4.189110   -4.154710    0.100120
  C      4.541610   -5.234490    1.047340
  N      4.611280   -6.439550    0.689950
  F      4.772690   -4.914860    2.309620
  F      4.479570   -2.910050    0.433370
  C      4.827230   -9.199090   -0.502140
  C      6.181290   -9.061530   -0.221900
  C      6.807620  -10.282080   -0.011090
  C      5.925670  -11.382200   -0.125270
  S      4.333850  -10.898070   -0.495710
  C      6.651800  -12.565090    0.109630
  C      7.994650  -12.228440    0.374050
  C      8.134200  -10.780650    0.298250
  C      9.276860  -10.052080    0.461800
  C     10.515260  -10.658810    0.756980
  N     11.520300  -11.156600    0.995860
  C      9.291660   -8.648190    0.325040
  N      9.305390   -7.508890    0.196320
  C      8.796170  -13.335810    0.620200
  C      8.084740  -14.526270    0.549420
  S      6.386190  -14.255290    0.168180
  C      8.581130  -15.842130    0.743010
  C      7.780500  -16.960440    0.652480
  C      8.216600  -18.266900    0.828660
  C      9.618170  -18.564080    1.135670
  C     10.579810  -17.625840    1.273150
  S     10.302750  -15.941760    1.106870
  C      9.685180  -19.979780    1.240420
  C      8.422760  -20.540680    1.017870
  C      8.461960  -21.951160    1.115670
  C      9.710780  -22.403770    1.399930
  S     10.894200  -21.152870    1.562590
  C      7.486080  -19.477150    0.757700
  C      6.106050  -19.556480    0.480800
  C      5.356770  -20.689410    0.402740
  C      3.973500  -20.709460    0.120610
  C      3.165220  -21.834490    0.030950
  C      1.843060  -21.513240   -0.262490
  C      1.632200  -20.132490   -0.399790
  S      3.061340  -19.228760   -0.167190
  C      0.260080  -19.913640   -0.697360
  C     -0.391760  -21.153780   -0.746990
  C      0.572950  -22.200530   -0.476390
  C      0.351870  -23.546250   -0.428210
  C     -0.922930  -24.107490   -0.650750
  N     -1.957610  -24.568520   -0.827910
  C      1.385720  -24.465200   -0.153590
  N      2.227270  -25.211770    0.069680
  C     -1.763390  -21.027830   -1.039570
  C     -2.118070  -19.723570   -1.202520
  S     -0.801740  -18.612550   -1.006280
  H     -3.388650   -1.937300   -0.988970
  H     -7.187760   -3.605320   -2.155090
  H     -3.898720   -6.580080   -2.699660
  H      1.517480   -4.052710   -0.984520
  H      0.543120   -7.698620   -0.967390
  H      2.196860   -9.461120   -0.904890
  H      5.322650   -6.674080   -1.218510
  H      3.542550   -5.815010   -2.470230
  H      6.672830   -8.109510   -0.152940
  H      9.847330  -13.298580    0.842830
  H      6.736600  -16.785960    0.425540
  H     11.604940  -17.871940    1.500470
  H      7.627990  -22.615580    0.987090
  H     10.023330  -23.421570    1.528520
  H      5.598520  -18.613820    0.314910
  H      5.808560  -21.656260    0.559960
  H      3.541100  -22.831010    0.175750
  H     -2.451480  -21.848730   -1.125740
  H     -3.088320  -19.329970   -1.430410

 Total Charge           Charge          ....    0
 Multiplicity           Mult            ....    1
 Number of Electrons    NEL             ....  574
 Basis Dimension        Dim             .... 1225

ORBITAL ENERGIES
----------------

  NO   OCC          E(Eh)            E(eV)
   0   2.0000     -89.006054     -2421.9779
   1   2.0000     -89.005682     -2421.9677
   2   2.0000     -88.988433     -2421.4984
   3   2.0000     -88.988063     -2421.4883
   4   2.0000     -88.986698     -2421.4512
   5   2.0000     -88.968184     -2420.9474
   6   2.0000     -24.812376      -675.1791
   7   2.0000     -24.810451      -675.1267
   8   2.0000     -19.269200      -524.3416
   9   2.0000     -19.234395      -523.3945
  10   2.0000     -19.210465      -522.7433
  11   2.0000     -14.445647      -393.0860
  12   2.0000     -14.444024      -393.0419
  13   2.0000     -14.443758      -393.0346
  14   2.0000     -14.443626      -393.0310
  15   2.0000     -14.441319      -392.9683
  16   2.0000     -14.429629      -392.6502
  17   2.0000     -14.428843      -392.6288
  18   2.0000     -14.425156      -392.5284
  19   2.0000     -14.421323      -392.4242
  20   2.0000     -10.430436      -283.8266
  21   2.0000     -10.429546      -283.8024
  22   2.0000     -10.419013      -283.5158
  23   2.0000     -10.386004      -282.6175
  24   2.0000     -10.380109      -282.4571
  25   2.0000     -10.366460      -282.0857
  26   2.0000     -10.362672      -281.9826
  27   2.0000     -10.356235      -281.8075
  28   2.0000     -10.355191      -281.7791
  29   2.0000     -10.354943      -281.7723
  30   2.0000     -10.350289      -281.6457
  31   2.0000     -10.350180      -281.6427
  32   2.0000     -10.349824      -281.6330
  33   2.0000     -10.347144      -281.5601
  34   2.0000     -10.345145      -281.5057
  35   2.0000     -10.344298      -281.4827
  36   2.0000     -10.343852      -281.4705
  37   2.0000     -10.343437      -281.4592
  38   2.0000     -10.342664      -281.4382
  39   2.0000     -10.341988      -281.4198
  40   2.0000     -10.340404      -281.3767
  41   2.0000     -10.337492      -281.2975
  42   2.0000     -10.337280      -281.2917
  43   2.0000     -10.335560      -281.2449
  44   2.0000     -10.331245      -281.1275
  45   2.0000     -10.330326      -281.1025
  46   2.0000     -10.330095      -281.0962
  47   2.0000     -10.329777      -281.0875
  48   2.0000     -10.329258      -281.0734
  49   2.0000     -10.328452      -281.0515
  50   2.0000     -10.328427      -281.0508
  51   2.0000     -10.325798      -280.9792
  52   2.0000     -10.322702      -280.8950
  53   2.0000     -10.322632      -280.8931
  54   2.0000     -10.322072      -280.8779
  55   2.0000     -10.320450      -280.8337
  56   2.0000     -10.319444      -280.8064
  57   2.0000     -10.318264      -280.7742
  58   2.0000     -10.318207      -280.7727
  59   2.0000     -10.315888      -280.7096
  60   2.0000     -10.315825      -280.7079
  61   2.0000     -10.314372      -280.6683
  62   2.0000     -10.311628      -280.5937
  63   2.0000     -10.309992      -280.5491
  64   2.0000     -10.309310      -280.5306
  65   2.0000     -10.306879      -280.4644
  66   2.0000     -10.306447      -280.4527
  67   2.0000     -10.305336      -280.4224
  68   2.0000     -10.300550      -280.2922
  69   2.0000     -10.300165      -280.2817
  70   2.0000     -10.298767      -280.2437
  71   2.0000     -10.298456      -280.2352
  72   2.0000     -10.297657      -280.2135
  73   2.0000     -10.297300      -280.2038
  74   2.0000     -10.293232      -280.0931
  75   2.0000     -10.292680      -280.0781
  76   2.0000     -10.292131      -280.0631
  77   2.0000     -10.287769      -279.9444
  78   2.0000     -10.286260      -279.9034
  79   2.0000      -8.100208      -220.4179
  80   2.0000      -8.100140      -220.4160
  81   2.0000      -8.083578      -219.9653
  82   2.0000      -8.083078      -219.9517
  83   2.0000      -8.081168      -219.8998
  84   2.0000      -8.063686      -219.4241
  85   2.0000      -6.069546      -165.1607
  86   2.0000      -6.069433      -165.1577
  87   2.0000      -6.065392      -165.0477
  88   2.0000      -6.065239      -165.0435
  89   2.0000      -6.062533      -164.9699
  90   2.0000      -6.062357      -164.9651
  91   2.0000      -6.053283      -164.7182
  92   2.0000      -6.052332      -164.6923
  93   2.0000      -6.050338      -164.6381
  94   2.0000      -6.048677      -164.5929
  95   2.0000      -6.047908      -164.5720
  96   2.0000      -6.046368      -164.5300
  97   2.0000      -6.045685      -164.5115
  98   2.0000      -6.045249      -164.4996
  99   2.0000      -6.043563      -164.4537
 100   2.0000      -6.033100      -164.1690
 101   2.0000      -6.028825      -164.0527
 102   2.0000      -6.025777      -163.9697
 103   2.0000      -1.342858       -36.5410
 104   2.0000      -1.328632       -36.1539
 105   2.0000      -1.195463       -32.5302
 106   2.0000      -1.148889       -31.2629
 107   2.0000      -1.109503       -30.1911
 108   2.0000      -1.096843       -29.8466
 109   2.0000      -1.060913       -28.8689
 110   2.0000      -1.041362       -28.3369
 111   2.0000      -1.037391       -28.2288
 112   2.0000      -1.035862       -28.1872
 113   2.0000      -1.029547       -28.0154
 114   2.0000      -1.027677       -27.9645
 115   2.0000      -1.022214       -27.8159
 116   2.0000      -1.020766       -27.7764
 117   2.0000      -1.020474       -27.7685
 118   2.0000      -1.013501       -27.5788
 119   2.0000      -1.012308       -27.5463
 120   2.0000      -1.006925       -27.3998
 121   2.0000      -1.001146       -27.2426
 122   2.0000      -0.993028       -27.0217
 123   2.0000      -0.989690       -26.9308
 124   2.0000      -0.979344       -26.6493
 125   2.0000      -0.974100       -26.5066
 126   2.0000      -0.966526       -26.3005
 127   2.0000      -0.956513       -26.0280
 128   2.0000      -0.942339       -25.6423
 129   2.0000      -0.932664       -25.3791
 130   2.0000      -0.918597       -24.9963
 131   2.0000      -0.917736       -24.9729
 132   2.0000      -0.913447       -24.8562
 133   2.0000      -0.900498       -24.5038
 134   2.0000      -0.896169       -24.3860
 135   2.0000      -0.887239       -24.1430
 136   2.0000      -0.886200       -24.1147
 137   2.0000      -0.879910       -23.9436
 138   2.0000      -0.871832       -23.7237
 139   2.0000      -0.869294       -23.6547
 140   2.0000      -0.864066       -23.5124
 141   2.0000      -0.852007       -23.1843
 142   2.0000      -0.848759       -23.0959
 143   2.0000      -0.837608       -22.7925
 144   2.0000      -0.822208       -22.3734
 145   2.0000      -0.815164       -22.1817
 146   2.0000      -0.801750       -21.8167
 147   2.0000      -0.796761       -21.6810
 148   2.0000      -0.794698       -21.6248
 149   2.0000      -0.785773       -21.3820
 150   2.0000      -0.779255       -21.2046
 151   2.0000      -0.774904       -21.0862
 152   2.0000      -0.772706       -21.0264
 153   2.0000      -0.759506       -20.6672
 154   2.0000      -0.745289       -20.2804
 155   2.0000      -0.742931       -20.2162
 156   2.0000      -0.735298       -20.0085
 157   2.0000      -0.718718       -19.5573
 158   2.0000      -0.714852       -19.4521
 159   2.0000      -0.711091       -19.3498
 160   2.0000      -0.706008       -19.2114
 161   2.0000      -0.701615       -19.0919
 162   2.0000      -0.699962       -19.0469
 163   2.0000      -0.693534       -18.8720
 164   2.0000      -0.687098       -18.6969
 165   2.0000      -0.682886       -18.5823
 166   2.0000      -0.681790       -18.5524
 167   2.0000      -0.677704       -18.4413
 168   2.0000      -0.668757       -18.1978
 169   2.0000      -0.665309       -18.1040
 170   2.0000      -0.663407       -18.0522
 171   2.0000      -0.656228       -17.8569
 172   2.0000      -0.651504       -17.7283
 173   2.0000      -0.648243       -17.6396
 174   2.0000      -0.641929       -17.4678
 175   2.0000      -0.638171       -17.3655
 176   2.0000      -0.633115       -17.2279
 177   2.0000      -0.631131       -17.1740
 178   2.0000      -0.624955       -17.0059
 179   2.0000      -0.621624       -16.9153
 180   2.0000      -0.619199       -16.8493
 181   2.0000      -0.613815       -16.7027
 182   2.0000      -0.611693       -16.6450
 183   2.0000      -0.604709       -16.4550
 184   2.0000      -0.598329       -16.2814
 185   2.0000      -0.594793       -16.1852
 186   2.0000      -0.589786       -16.0489
 187   2.0000      -0.583976       -15.8908
 188   2.0000      -0.579398       -15.7662
 189   2.0000      -0.573323       -15.6009
 190   2.0000      -0.571963       -15.5639
 191   2.0000      -0.568213       -15.4618
 192   2.0000      -0.564697       -15.3662
 193   2.0000      -0.563062       -15.3217
 194   2.0000      -0.561765       -15.2864
 195   2.0000      -0.558340       -15.1932
 196   2.0000      -0.557046       -15.1580
 197   2.0000      -0.553688       -15.0666
 198   2.0000      -0.549122       -14.9424
 199   2.0000      -0.545593       -14.8463
 200   2.0000      -0.544072       -14.8049
 201   2.0000      -0.542288       -14.7564
 202   2.0000      -0.538025       -14.6404
 203   2.0000      -0.532875       -14.5003
 204   2.0000      -0.529577       -14.4105
 205   2.0000      -0.528150       -14.3717
 206   2.0000      -0.527727       -14.3602
 207   2.0000      -0.526881       -14.3372
 208   2.0000      -0.523616       -14.2483
 209   2.0000      -0.519865       -14.1462
 210   2.0000      -0.519035       -14.1236
 211   2.0000      -0.517951       -14.0942
 212   2.0000      -0.514530       -14.0011
 213   2.0000      -0.511679       -13.9235
 214   2.0000      -0.508740       -13.8435
 215   2.0000      -0.508114       -13.8265
 216   2.0000      -0.506177       -13.7738
 217   2.0000      -0.503061       -13.6890
 218   2.0000      -0.502484       -13.6733
 219   2.0000      -0.501934       -13.6583
 220   2.0000      -0.499838       -13.6013
 221   2.0000      -0.492812       -13.4101
 222   2.0000      -0.490985       -13.3604
 223   2.0000      -0.488030       -13.2800
 224   2.0000      -0.484825       -13.1928
 225   2.0000      -0.481572       -13.1043
 226   2.0000      -0.480183       -13.0665
 227   2.0000      -0.476479       -12.9656
 228   2.0000      -0.475133       -12.9290
 229   2.0000      -0.474140       -12.9020
 230   2.0000      -0.471595       -12.8328
 231   2.0000      -0.470214       -12.7952
 232   2.0000      -0.468492       -12.7483
 233   2.0000      -0.467878       -12.7316
 234   2.0000      -0.465734       -12.6733
 235   2.0000      -0.464516       -12.6401
 236   2.0000      -0.461175       -12.5492
 237   2.0000      -0.460767       -12.5381
 238   2.0000      -0.459650       -12.5077
 239   2.0000      -0.457167       -12.4401
 240   2.0000      -0.456407       -12.4195
 241   2.0000      -0.453570       -12.3423
 242   2.0000      -0.452878       -12.3234
 243   2.0000      -0.452666       -12.3177
 244   2.0000      -0.449795       -12.2395
 245   2.0000      -0.448916       -12.2156
 246   2.0000      -0.445952       -12.1350
 247   2.0000      -0.444157       -12.0861
 248   2.0000      -0.441005       -12.0003
 249   2.0000      -0.439995       -11.9729
 250   2.0000      -0.439876       -11.9696
 251   2.0000      -0.437978       -11.9180
 252   2.0000      -0.437710       -11.9107
 253   2.0000      -0.436057       -11.8657
 254   2.0000      -0.435540       -11.8516
 255   2.0000      -0.433300       -11.7907
 256   2.0000      -0.429681       -11.6922
 257   2.0000      -0.429385       -11.6842
 258   2.0000      -0.426493       -11.6055
 259   2.0000      -0.425400       -11.5757
 260   2.0000      -0.423071       -11.5124
 261   2.0000      -0.420968       -11.4551
 262   2.0000      -0.415958       -11.3188
 263   2.0000      -0.413882       -11.2623
 264   2.0000      -0.410767       -11.1775
 265   2.0000      -0.407881       -11.0990
 266   2.0000      -0.402821       -10.9613
 267   2.0000      -0.391373       -10.6498
 268   2.0000      -0.390677       -10.6309
 269   2.0000      -0.376382       -10.2419
 270   2.0000      -0.373556       -10.1650
 271   2.0000      -0.366924        -9.9845
 272   2.0000      -0.365432        -9.9439
 273   2.0000      -0.359965        -9.7951
 274   2.0000      -0.359508        -9.7827
 275   2.0000      -0.358920        -9.7667
 276   2.0000      -0.351871        -9.5749
 277   2.0000      -0.346336        -9.4243
 278   2.0000      -0.339122        -9.2280
 279   2.0000      -0.336802        -9.1648
 280   2.0000      -0.334883        -9.1126
 281   2.0000      -0.320243        -8.7143
 282   2.0000      -0.315647        -8.5892
 283   2.0000      -0.295304        -8.0356
 284   2.0000      -0.285021        -7.7558
 285   2.0000      -0.264552        -7.1988
 286   2.0000      -0.229855        -6.2547
 287   0.0000      -0.128411        -3.4942
 288   0.0000      -0.110419        -3.0047
 289   0.0000      -0.103080        -2.8049
 290   0.0000      -0.093561        -2.5459
 291   0.0000      -0.074956        -2.0397

MULLIKEN ATOMIC CHARGES
-----------------------
   0 C :   -0.074357
   1 C :    0.004864
   2 C :    0.170344
   3 O :   -0.155669
   4 O :   -0.133887
   5 C :   -0.048538
   6 C :   -0.221459
   7 N :    0.125660
   8 C :   -0.039595
   9 C :    0.007579
  10 C :    0.067425
  11 C :    0.269631
  12 C :   -0.313612
  13 C :   -0.188934
  14 N :    0.173881
  15 C :   -0.194294
  16 N :    0.144991
  17 C :   -0.093555
  18 C :    0.168031
  19 O :   -0.155477
  20 C :    0.005309
  21 C :   -0.065065
  22 C :    0.053639
  23 C :   -0.084159
  24 C :    0.093134
  25 C :    0.046267
  26 C :    0.131758
  27 N :   -0.118234
  28 C :    0.154165
  29 C :    0.131895
  30 N :   -0.094412
  31 F :   -0.126946
  32 F :   -0.125564
  33 C :   -0.077372
  34 C :   -0.020540
  35 C :    0.012026
  36 C :   -0.075471
  37 S :    0.181004
  38 C :   -0.102891
  39 C :    0.026964
  40 C :    0.304023
  41 C :   -0.287749
  42 C :   -0.185610
  43 N :    0.178524
  44 C :   -0.185251
  45 N :    0.174038
  46 C :   -0.060162
  47 C :   -0.056014
  48 S :    0.171870
  49 C :   -0.026568
  50 C :   -0.086721
  51 C :    0.051759
  52 C :    0.064028
  53 C :   -0.117173
  54 S :    0.129808
  55 C :   -0.111482
  56 C :    0.049634
  57 C :   -0.007602
  58 C :   -0.065224
  59 S :    0.137824
  60 C :    0.105189
  61 C :   -0.036086
  62 C :    0.015217
  63 C :   -0.040865
  64 C :   -0.048820
  65 C :    0.023134
  66 C :   -0.098900
  67 S :    0.146402
  68 C :   -0.113549
  69 C :   -0.034080
  70 C :    0.295663
  71 C :   -0.296562
  72 C :   -0.188891
  73 N :    0.172357
  74 C :   -0.185713
  75 N :    0.166847
  76 C :    0.036481
  77 C :   -0.083552
  78 S :    0.173723
  79 H :    0.033290
  80 H :    0.178506
  81 H :    0.012612
  82 H :    0.053464
  83 H :    0.016760
  84 H :   -0.003080
  85 H :    0.043535
  86 H :    0.042786
  87 H :    0.015491
  88 H :    0.025323
  89 H :   -0.008635
  90 H :    0.041431
  91 H :   -0.005658
  92 H :    0.030249
  93 H :   -0.033755
  94 H :   -0.032008
  95 H :    0.003019
  96 H :    0.013140
  97 H :    0.035046
Sum of atomic charges:   -0.0000000

LOEWDIN ATOMIC CHARGES
----------------------
   0 C :    0.037464
   1 C :   -0.034263
   2 C :    0.081900
   3 O :   -0.136716
   4 O :   -0.011246
   5 C :   -0.057422
   6 C :   -0.040902
   7 N :   -0.031678
   8 C :    0.043878
   9 C :   -0.029640
  10 C :    0.004816
  11 C :    0.067873
  12 C :   -0.126825
  13 C :   -0.026150
  14 N :   -0.032088
  15 C :   -0.016945
  16 N :   -0.052159
  17 C :   -0.108700
  18 C :    0.082329
  19 O :   -0.143463
  20 C :    0.074729
  21 C :   -0.063532
  22 C :    0.059642
  23 C :   -0.056494
  24 C :    0.011686
  25 C :    0.018339
  26 C :    0.022010
  27 N :   -0.081076
  28 C :    0.063130
  29 C :    0.057570
  30 N :   -0.080737
  31 F :   -0.016491
  32 F :   -0.010886
  33 C :   -0.168209
  34 C :    0.001228
  35 C :   -0.076247
  36 C :   -0.156685
  37 S :    0.481916
  38 C :   -0.193195
  39 C :   -0.051755
  40 C :    0.079506
  41 C :   -0.094327
  42 C :   -0.016698
  43 N :   -0.025771
  44 C :   -0.015734
  45 N :   -0.026830
  46 C :   -0.044063
  47 C :   -0.163977
  48 S :    0.474961
  49 C :   -0.190195
  50 C :   -0.022116
  51 C :   -0.025833
  52 C :   -0.050447
  53 C :   -0.136226
  54 S :    0.458688
  55 C :   -0.195354
  56 C :   -0.038212
  57 C :   -0.064760
  58 C :   -0.161159
  59 S :    0.432006
  60 C :   -0.037399
  61 C :   -0.029377
  62 C :   -0.044546
  63 C :   -0.156861
  64 C :   -0.032174
  65 C :   -0.070256
  66 C :   -0.184729
  67 S :    0.458276
  68 C :   -0.181929
  69 C :   -0.079330
  70 C :    0.084406
  71 C :   -0.104856
  72 C :   -0.017131
  73 N :   -0.034061
  74 C :   -0.015275
  75 N :   -0.037354
  76 C :   -0.033601
  77 C :   -0.180391
  78 S :    0.471402
  79 H :    0.051738
  80 H :    0.084762
  81 H :    0.050427
  82 H :    0.045735
  83 H :    0.038893
  84 H :    0.025485
  85 H :    0.041946
  86 H :    0.047861
  87 H :    0.042080
  88 H :    0.036266
  89 H :    0.025770
  90 H :    0.039069
  91 H :    0.030339
  92 H :    0.025908
  93 H :    0.016010
  94 H :    0.034978
  95 H :    0.039727
  96 H :    0.042720
  97 H :    0.027008

  Mayer bond orders larger than 0.100000
B(  0-C ,  1-C ) :   1.3695 B(  0-C , 10-C ) :   1.3284 B(  0-C , 79-H ) :   0.9903
B(  1-C ,  2-C ) :   0.8575 B(  1-C ,  5-C ) :   1.3496 B(  2-C ,  3-O ) :   2.1762
B(  2-C ,  4-O ) :   1.2758 B(  4-O , 80-H ) :   0.9391 B(  5-C ,  6-C ) :   1.0587
B(  5-C ,  8-C ) :   1.3487 B(  6-C ,  7-N ) :   2.9843 B(  8-C ,  9-C ) :   1.3783
B(  8-C , 81-H ) :   1.0118 B(  9-C , 10-C ) :   1.3319 B(  9-C , 18-C ) :   0.9291
B( 10-C , 11-C ) :   0.9740 B( 11-C , 12-C ) :   1.6482 B( 11-C , 17-C ) :   1.0898
B( 12-C , 13-C ) :   1.1367 B( 12-C , 15-C ) :   1.1435 B( 13-C , 14-N ) :   2.9871
B( 15-C , 16-N ) :   2.9794 B( 17-C , 18-C ) :   0.9747 B( 17-C , 20-C ) :   1.4655
B( 18-C , 19-O ) :   2.1717 B( 20-C , 21-C ) :   1.2887 B( 20-C , 82-H ) :   0.9292
B( 21-C , 22-C ) :   1.5574 B( 21-C , 26-C ) :   0.9318 B( 22-C , 23-C ) :   1.1984
B( 22-C , 83-H ) :   0.9542 B( 23-C , 24-C ) :   1.5703 B( 23-C , 84-H ) :   0.9757
B( 24-C , 25-C ) :   0.9917 B( 24-C , 33-C ) :   1.2070 B( 25-C , 26-C ) :   0.9841
B( 25-C , 30-N ) :   1.0325 B( 25-C , 85-H ) :   0.8884 B( 26-C , 27-N ) :   1.0421
B( 26-C , 86-H ) :   0.8836 B( 27-N , 28-C ) :   1.8940 B( 28-C , 29-C ) :   0.9271
B( 28-C , 32-F ) :   1.1787 B( 29-C , 30-N ) :   1.9390 B( 29-C , 31-F ) :   1.1865
B( 33-C , 34-C ) :   1.4227 B( 33-C , 37-S ) :   1.0717 B( 34-C , 35-C ) :   1.3027
B( 34-C , 87-H ) :   0.9826 B( 35-C , 36-C ) :   1.3965 B( 35-C , 40-C ) :   1.0025
B( 36-C , 37-S ) :   1.1470 B( 36-C , 38-C ) :   1.2163 B( 38-C , 39-C ) :   1.4291
B( 38-C , 48-S ) :   1.1024 B( 39-C , 40-C ) :   0.9937 B( 39-C , 46-C ) :   1.3221
B( 40-C , 41-C ) :   1.7131 B( 41-C , 42-C ) :   1.1340 B( 41-C , 44-C ) :   1.1348
B( 42-C , 43-N ) :   2.9880 B( 44-C , 45-N ) :   2.9856 B( 46-C , 47-C ) :   1.4303
B( 46-C , 88-H ) :   0.9785 B( 47-C , 48-S ) :   1.1160 B( 47-C , 49-C ) :   1.1847
B( 49-C , 50-C ) :   1.5085 B( 49-C , 54-S ) :   1.0484 B( 50-C , 51-C ) :   1.2710
B( 50-C , 89-H ) :   0.9574 B( 51-C , 52-C ) :   1.0441 B( 51-C , 60-C ) :   1.3612
B( 52-C , 53-C ) :   1.6130 B( 52-C , 55-C ) :   1.1818 B( 53-C , 54-S ) :   1.1341
B( 53-C , 90-H ) :   0.9406 B( 55-C , 56-C ) :   1.4428 B( 55-C , 59-S ) :   1.0855
B( 56-C , 57-C ) :   1.2080 B( 56-C , 60-C ) :   1.0828 B( 57-C , 58-C ) :   1.5929
B( 57-C , 91-H ) :   1.0003 B( 58-C , 59-S ) :   1.1551 B( 58-C , 92-H ) :   0.9642
B( 60-C , 61-C ) :   1.2012 B( 61-C , 62-C ) :   1.5870 B( 61-C , 93-H ) :   0.9512
B( 62-C , 63-C ) :   1.1721 B( 62-C , 94-H ) :   0.9828 B( 63-C , 64-C ) :   1.4258
B( 63-C , 67-S ) :   1.0879 B( 64-C , 65-C ) :   1.2778 B( 64-C , 95-H ) :   1.0049
B( 65-C , 66-C ) :   1.4539 B( 65-C , 70-C ) :   0.9911 B( 66-C , 67-S ) :   1.1173
B( 66-C , 68-C ) :   1.1881 B( 68-C , 69-C ) :   1.4514 B( 68-C , 78-S ) :   1.1349
B( 69-C , 70-C ) :   1.0212 B( 69-C , 76-C ) :   1.2743 B( 70-C , 71-C ) :   1.7108
B( 71-C , 72-C ) :   1.1277 B( 71-C , 74-C ) :   1.1323 B( 72-C , 73-N ) :   3.0029
B( 74-C , 75-N ) :   2.9908 B( 76-C , 77-C ) :   1.5503 B( 76-C , 96-H ) :   0.9966
B( 77-C , 78-S ) :   1.1448 B( 77-C , 97-H ) :   0.9644

-----------------------------------------------------------------------------
         ABSORPTION SPECTRUM VIA TRANSITION ELECTRIC DIPOLE MOMENTS
-----------------------------------------------------------------------------
State   Energy  Wavelength   fosc         T2         TX        TY        TZ
        (cm-1)    (nm)                  (au**2)     (au)      (au)      (au)
-----------------------------------------------------------------------------
   0    8444.4   1184.2   0.360122918  14.03968  -0.66665   3.67938  -0.23956
   1   11545.5    866.1   0.101570252   2.89621   1.58273   0.54918   0.29929
   2   14368.5    696.0   0.123036944   2.81902   0.17045  -1.67016   0.02322
   3   15102.0    662.2   1.064897238  23.21401  -3.02044   3.73340  -0.39078
   4   19106.3    523.4   0.576661809   9.93618   2.64817   1.69896   0.19213
   5   19641.7    509.1   0.382169923   6.40549   2.00979  -1.53620   0.07936
   6   21092.3    474.1   0.070742811   1.10417   0.92660  -0.05852   0.49210
   7   21186.8    472.0   0.001298568   0.02018  -0.11684  -0.03185   0.07424
   8   21955.8    455.5   0.020667682   0.30990  -0.34477   0.38289  -0.21077
   9   22792.1    438.7   0.314954807   4.54924  -1.60094  -1.38562  -0.25744
  10   24588.6    406.7   0.037592401   0.50332  -0.60010   0.02039  -0.37786
  11   24785.1    403.5   0.007813744   0.10379   0.21990   0.23248  -0.03724
  12   25794.8    387.7   0.217563123   2.77670   1.54538  -0.50740   0.36201
  13   26183.0    381.9   0.043763354   0.55026  -0.58491  -0.10576  -0.44380
  14   27130.7    368.6   0.009191193   0.11153   0.06335  -0.30710   0.11492
  15   27366.5    365.4   0.007267493   0.08743   0.04862   0.22818   0.18164
  16   28166.0    355.0   0.008203589   0.09589   0.10013  -0.29192  -0.02529
  17   28506.6    350.8   0.052726302   0.60892   0.59938  -0.49776   0.04344
  18   29419.1    339.9   0.360000535   4.02855   1.96938   0.08485   0.37803
  19   29539.9    338.5   0.050722019   0.56528   0.20910   0.71210  -0.12030
  20   30283.7    330.2   0.080851629   0.87893  -0.74414   0.29335  -0.48901
  21   30565.5    327.2   0.441618262   4.75654  -1.60442  -1.42557  -0.38746
  22   30637.3    326.4   0.046445986   0.49908   0.67631   0.17213  -0.10984
  23   30807.7    324.6   0.303023797   3.23812   1.48360   1.00358   0.17281
  24   31119.5    321.3   0.125250859   1.32502   0.64762   0.95159   0.00956
  25   31432.5    318.1   0.146974226   1.53935  -0.62232  -1.06596  -0.12566
  26   31469.2    317.8   0.390665762   4.08691   1.14079  -1.63379   0.34098
  27   32178.8    310.8   0.029538164   0.30220  -0.04885   0.54277  -0.07218
  28   32541.5    307.3   0.086801691   0.87814  -0.76340  -0.29025  -0.45947
  29   32746.4    305.4   0.000493613   0.00496  -0.07044   0.00113   0.00006
  30   32857.6    304.3   0.027150824   0.27203   0.41005  -0.15861   0.28059
  31   32957.5    303.4   0.117619101   1.17489   0.60747   0.88719   0.13695
  32   33169.9    301.5   0.177384691   1.76055   1.30526  -0.06383   0.22974
  33   33596.6    297.6   0.111540751   1.09298   0.57549  -0.82275   0.29132
  34   33783.7    296.0   0.314730428   3.06695  -0.05225   1.74894  -0.07372
  35   33905.0    294.9   0.257035969   2.49577   1.51962  -0.32543   0.28394
  36   34123.6    293.1   0.078186394   0.75431   0.76910  -0.07569   0.39633
  37   34530.6    289.6   0.206405360   1.96785  -0.97149  -0.93554  -0.38580
  38   34675.8    288.4   0.126203283   1.19817  -0.82388   0.61271  -0.37947
  39   34943.5    286.2   0.091517655   0.86221  -0.24655  -0.88647   0.12487
  40   35205.3    284.0   0.119956298   1.12174  -0.19008  -0.98410  -0.34227
  41   35507.8    281.6   0.178561727   1.65554  -0.19619   1.27024  -0.05957
  42   35823.0    279.2   0.194373084   1.78628   1.15601  -0.35630   0.56831
  43   36167.7    276.5   0.067239394   0.61204   0.16523   0.69746   0.31351
  44   36973.8    270.5   0.042571688   0.37906   0.52866  -0.19434   0.24860
  45   37031.1    270.0   0.000160115   0.00142  -0.00041   0.03151   0.02075
  46   37149.2    269.2   0.007608427   0.06742  -0.02710   0.25822  -0.00339
  47   37553.5    266.3   0.013442157   0.11784   0.11349  -0.32396   0.00352
  48   37610.3    265.9   0.000773535   0.00677   0.07765   0.00482   0.02679
  49   37973.4    263.3   0.053967130   0.46787   0.38695   0.41967   0.37685
  50   38382.0    260.5   0.047641370   0.40863  -0.29493  -0.52010  -0.22615
  51   38483.0    259.9   0.012424968   0.10629  -0.15193  -0.22890  -0.17554
  52   38708.4    258.3   0.016058930   0.13658   0.00923   0.27733   0.24410
  53   38916.2    257.0   0.036830354   0.31157   0.37642   0.31308   0.26807
  54   38985.3    256.5   0.064558554   0.54517  -0.67451   0.01766  -0.29981
  55   39016.1    256.3   0.015170869   0.12801   0.28432   0.18311   0.11680
  56   39307.6    254.4   0.106876416   0.89512   0.06228  -0.94397  -0.01287
  57   39465.8    253.4   0.027404494   0.22860   0.29015   0.37472   0.06324
  58   39639.9    252.3   0.019912703   0.16538  -0.22929   0.33381  -0.03699
  59   39953.8    250.3   0.022605792   0.18627  -0.21525  -0.26901  -0.25994
  60   39988.3    250.1   0.120817848   0.99466  -0.09759   0.99190  -0.03556
  61   40181.1    248.9   0.055740277   0.45669  -0.28818  -0.49057  -0.36467

FINAL SINGLE POINT ENERGY     -5562.054517865361

DIPOLE MOMENT
-------------
                                X             Y             Z
Electronic contribution:      7.39409      28.66443       6.98712
Nuclear contribution   :     -4.84720     -32.36768      -7.77341
                        -----------------------------------------
Total Dipole Moment    :      2.54690      -3.70325      -0.78630
                        -----------------------------------------
Magnitude (a.u.)       :      4.56279
Magnitude (Debye)      :     11.59768

Rotational constants in cm-1:     0.000745     0.000249     0.000189
Rotational constants in MHz :    22.321984     7.461366     5.651191

                             ****ORCA TERMINATED NORMALLY****
TOTAL RUN TIME: 0 days 0 hours 11 minutes 8 seconds 466 msec
