                         Program Version 4.2.0 -  RELEASE  -
|  1> # ORCA input file
|  2> # SCF done       -181.856715412100          0.000840524202
|  3> ! CAM-B3LYP def2-SVP def2/J RIJCOSX Grid4 TightSCF
|  4> %maxcore 5000
|  5> %tddft
|  6>     Mode sTDDFT
|  7>     Ethresh 5.0
|  8>     maxcore 5000
|  9> end
| 10>
| 11> %pal
| 12>   nprocs 6
| 13>   end
| 14> * xyz 0 1
| 15>    C       -2.65621         0.30325        -0.33466
| 16>    S       -3.61224        -0.84780         0.53003
| 17>    C       -2.18703        -1.67646         1.06657
| 18>    O       -2.25162        -2.76435         1.84991
| 19>    C       -1.03467        -1.08279         0.59421
| 20>    C       -1.33664         0.05708        -0.21126
| 21>    C        0.29449        -1.54445         0.87188
| 22>    C        0.67850        -2.62992         1.62966
| 23>    C        2.06914        -2.76981         1.67554
| 24>    C        2.74353        -1.78061         0.94587
| 25>    S        1.66773        -0.68015         0.20430
| 26>    C        4.13902        -2.00959         1.05402
| 27>    C        4.34766        -3.14664         1.85311
| 28>    C        3.05179        -3.66072         2.27247
| 29>    C        2.80961        -4.74562         3.06209
| 30>    C        1.50352        -5.15285         3.40731
| 31>    N        0.44753        -5.49496         3.69492
| 32>    C        3.85085        -5.53690         3.59199
| 33>    N        4.69425        -6.17998         4.02696
| 34>    C        5.69724        -3.45772         2.01785
| 35>    C        6.51903        -2.56515         1.35174
| 36>    S        5.60122        -1.32245         0.50867
| 37>    C        7.93633        -2.56534         1.29361
| 38>    C        8.80585        -3.47859         1.86833
| 39>    C       10.13844        -3.16491         1.60406
| 40>    C       10.28611        -2.00473         0.82431
| 41>    S        8.78323        -1.30239         0.41505
| 42>    C       11.66531        -1.77211         0.61483
| 43>    C       12.39700        -2.78462         1.26170
| 44>    C       11.46132        -3.69565         1.90130
| 45>    C       11.76351        -4.81488         2.61921
| 46>    C       10.76829        -5.63541         3.19142
| 47>    N        9.96419        -6.30673         3.65708
| 48>    C       13.09532        -5.22869         2.83245
| 49>    N       14.17714        -5.56728         3.00563
| 50>    C       13.77466        -2.63908         1.11175
| 51>    C       14.10403        -1.52756         0.35569
| 52>    S       12.67121        -0.64610        -0.17728
| 53>    C       15.40098        -1.06726        -0.00814
| 54>    C       15.59614         0.04728        -0.79316
| 55>    C       16.83611         0.53632        -1.18565
| 56>    C       18.07804        -0.11870        -0.77608
| 57>    C       18.12561        -1.22595        -0.00110
| 58>    S       16.73703        -2.02367         0.61145
| 59>    C       19.12017         0.65106        -1.36303
| 60>    C       18.58324         1.71397        -2.09376
| 61>    C       19.59442         2.49936        -2.69163
| 62>    C       20.83443         2.02196        -2.40508
| 63>    S       20.83616         0.61042        -1.40588
| 64>    C       17.14248         1.65859        -1.99340
| 65>    C       16.18544         2.51156        -2.56025
| 66>    C       16.43175         3.59536        -3.36214
| 67>    C       15.38432         4.37239        -3.86928
| 68>    C       15.53596         5.47277        -4.68226
| 69>    C       14.47944         6.29636        -5.21899
| 70>    C       13.12587         6.14619        -5.02654
| 71>    C       12.14780         6.99477        -5.58175
| 72>    N       11.30009         7.64769        -5.99996
| 73>    C       12.50941         5.13975        -4.25755
| 74>    N       11.92388         4.35503        -3.65508
| 75>    C       15.10014         7.34698        -6.02264
| 76>    C       16.50528         7.17690        -5.98530
| 77>    C       16.83192         6.00312        -5.14747
| 78>    O       17.94878         5.58428        -4.90797
| 79>    C       17.37076         8.01164        -6.64763
| 80>    C       16.82400         9.06883        -7.38360
| 81>    C       15.41978         9.23121        -7.41484
| 82>    C       14.54380         8.38529        -6.74497
| 83>    S       14.95557        10.59992        -8.38097
| 84>    C       16.63282        10.92970        -8.72421
| 85>    C       17.49707        10.06205        -8.14719
| 86>   Br       17.08470        12.39011        -9.81226
| 87>    H       -3.14819         1.08537        -0.87588
| 88>    H       -3.16483        -2.99853         2.05470
| 89>    H       -0.57359         0.65770        -0.67298
| 90>    H       -0.02595        -3.27677         2.11686
| 91>    H        6.07021        -4.28603         2.59111
| 92>    H        8.47564        -4.32291         2.44432
| 93>    H       14.51207        -3.30302         1.52581
| 94>    H       14.70620         0.56695        -1.12299
| 95>    H       19.05278        -1.69381         0.28959
| 96>    H       19.43918         3.37002        -3.30129
| 97>    H       21.77775         2.41902        -2.72549
| 98>    H       15.14839         2.28483        -2.34082
| 99>    H       17.43964         3.86970        -3.62056
|100>    H       14.38107         4.07455        -3.59261
|101>    H       18.43718         7.85556        -6.60006
|102>    H       13.48133         8.55257        -6.80135
|103>    H       18.56504        10.11815        -8.25396
|104> *
|105>
|106>                          ****END OF INPUT****

CARTESIAN COORDINATES (ANGSTROEM)
---------------------------------
  C     -2.656210    0.303250   -0.334660
  S     -3.612240   -0.847800    0.530030
  C     -2.187030   -1.676460    1.066570
  O     -2.251620   -2.764350    1.849910
  C     -1.034670   -1.082790    0.594210
  C     -1.336640    0.057080   -0.211260
  C      0.294490   -1.544450    0.871880
  C      0.678500   -2.629920    1.629660
  C      2.069140   -2.769810    1.675540
  C      2.743530   -1.780610    0.945870
  S      1.667730   -0.680150    0.204300
  C      4.139020   -2.009590    1.054020
  C      4.347660   -3.146640    1.853110
  C      3.051790   -3.660720    2.272470
  C      2.809610   -4.745620    3.062090
  C      1.503520   -5.152850    3.407310
  N      0.447530   -5.494960    3.694920
  C      3.850850   -5.536900    3.591990
  N      4.694250   -6.179980    4.026960
  C      5.697240   -3.457720    2.017850
  C      6.519030   -2.565150    1.351740
  S      5.601220   -1.322450    0.508670
  C      7.936330   -2.565340    1.293610
  C      8.805850   -3.478590    1.868330
  C     10.138440   -3.164910    1.604060
  C     10.286110   -2.004730    0.824310
  S      8.783230   -1.302390    0.415050
  C     11.665310   -1.772110    0.614830
  C     12.397000   -2.784620    1.261700
  C     11.461320   -3.695650    1.901300
  C     11.763510   -4.814880    2.619210
  C     10.768290   -5.635410    3.191420
  N      9.964190   -6.306730    3.657080
  C     13.095320   -5.228690    2.832450
  N     14.177140   -5.567280    3.005630
  C     13.774660   -2.639080    1.111750
  C     14.104030   -1.527560    0.355690
  S     12.671210   -0.646100   -0.177280
  C     15.400980   -1.067260   -0.008140
  C     15.596140    0.047280   -0.793160
  C     16.836110    0.536320   -1.185650
  C     18.078040   -0.118700   -0.776080
  C     18.125610   -1.225950   -0.001100
  S     16.737030   -2.023670    0.611450
  C     19.120170    0.651060   -1.363030
  C     18.583240    1.713970   -2.093760
  C     19.594420    2.499360   -2.691630
  C     20.834430    2.021960   -2.405080
  S     20.836160    0.610420   -1.405880
  C     17.142480    1.658590   -1.993400
  C     16.185440    2.511560   -2.560250
  C     16.431750    3.595360   -3.362140
  C     15.384320    4.372390   -3.869280
  C     15.535960    5.472770   -4.682260
  C     14.479440    6.296360   -5.218990
  C     13.125870    6.146190   -5.026540
  C     12.147800    6.994770   -5.581750
  N     11.300090    7.647690   -5.999960
  C     12.509410    5.139750   -4.257550
  N     11.923880    4.355030   -3.655080
  C     15.100140    7.346980   -6.022640
  C     16.505280    7.176900   -5.985300
  C     16.831920    6.003120   -5.147470
  O     17.948780    5.584280   -4.907970
  C     17.370760    8.011640   -6.647630
  C     16.824000    9.068830   -7.383600
  C     15.419780    9.231210   -7.414840
  C     14.543800    8.385290   -6.744970
  S     14.955570   10.599920   -8.380970
  C     16.632820   10.929700   -8.724210
  C     17.497070   10.062050   -8.147190
  Br    17.084700   12.390110   -9.812260
  H     -3.148190    1.085370   -0.875880
  H     -3.164830   -2.998530    2.054700
  H     -0.573590    0.657700   -0.672980
  H     -0.025950   -3.276770    2.116860
  H      6.070210   -4.286030    2.591110
  H      8.475640   -4.322910    2.444320
  H     14.512070   -3.303020    1.525810
  H     14.706200    0.566950   -1.122990
  H     19.052780   -1.693810    0.289590
  H     19.439180    3.370020   -3.301290
  H     21.777750    2.419020   -2.725490
  H     15.148390    2.284830   -2.340820
  H     17.439640    3.869700   -3.620560
  H     14.381070    4.074550   -3.592610
  H     18.437180    7.855560   -6.600060
  H     13.481330    8.552570   -6.801350
  H     18.565040   10.118150   -8.253960

 Total Charge           Charge          ....    0
 Multiplicity           Mult            ....    1
 Number of Electrons    NEL             ....  568
 Basis Dimension        Dim             .... 1143

ORBITAL ENERGIES
----------------

  NO   OCC          E(Eh)            E(eV)
   0   2.0000    -482.879643    -13139.8231
   1   2.0000     -88.997928     -2421.7567
   2   2.0000     -88.994607     -2421.6664
   3   2.0000     -88.994091     -2421.6523
   4   2.0000     -88.990444     -2421.5531
   5   2.0000     -88.982096     -2421.3259
   6   2.0000     -88.968344     -2420.9517
   7   2.0000     -88.967834     -2420.9379
   8   2.0000     -88.962581     -2420.7949
   9   2.0000     -62.557353     -1702.2721
  10   2.0000     -56.391297     -1534.4852
  11   2.0000     -56.388595     -1534.4117
  12   2.0000     -56.388557     -1534.4107
  13   2.0000     -19.280078      -524.6376
  14   2.0000     -19.204178      -522.5722
  15   2.0000     -14.435155      -392.8005
  16   2.0000     -14.432577      -392.7304
  17   2.0000     -14.425991      -392.5512
  18   2.0000     -14.425701      -392.5433
  19   2.0000     -14.405665      -391.9981
  20   2.0000     -14.402325      -391.9072
  21   2.0000     -10.369600      -282.1712
  22   2.0000     -10.369372      -282.1650
  23   2.0000     -10.360273      -281.9174
  24   2.0000     -10.356320      -281.8098
  25   2.0000     -10.354313      -281.7552
  26   2.0000     -10.351515      -281.6790
  27   2.0000     -10.348316      -281.5920
  28   2.0000     -10.347254      -281.5631
  29   2.0000     -10.341736      -281.4129
  30   2.0000     -10.341507      -281.4067
  31   2.0000     -10.335257      -281.2366
  32   2.0000     -10.335148      -281.2337
  33   2.0000     -10.334498      -281.2160
  34   2.0000     -10.333316      -281.1838
  35   2.0000     -10.332251      -281.1549
  36   2.0000     -10.332033      -281.1489
  37   2.0000     -10.328299      -281.0473
  38   2.0000     -10.327177      -281.0168
  39   2.0000     -10.326171      -280.9894
  40   2.0000     -10.326031      -280.9856
  41   2.0000     -10.326026      -280.9855
  42   2.0000     -10.321662      -280.8667
  43   2.0000     -10.319039      -280.7953
  44   2.0000     -10.316286      -280.7204
  45   2.0000     -10.312403      -280.6148
  46   2.0000     -10.311463      -280.5892
  47   2.0000     -10.311344      -280.5859
  48   2.0000     -10.310058      -280.5509
  49   2.0000     -10.309401      -280.5331
  50   2.0000     -10.308260      -280.5020
  51   2.0000     -10.307638      -280.4851
  52   2.0000     -10.306624      -280.4575
  53   2.0000     -10.303604      -280.3753
  54   2.0000     -10.301881      -280.3284
  55   2.0000     -10.300458      -280.2897
  56   2.0000     -10.300335      -280.2864
  57   2.0000     -10.300065      -280.2790
  58   2.0000     -10.299199      -280.2555
  59   2.0000     -10.298975      -280.2494
  60   2.0000     -10.298549      -280.2378
  61   2.0000     -10.297201      -280.2011
  62   2.0000     -10.295817      -280.1634
  63   2.0000     -10.295369      -280.1512
  64   2.0000     -10.295054      -280.1427
  65   2.0000     -10.291229      -280.0386
  66   2.0000     -10.289591      -279.9940
  67   2.0000     -10.288613      -279.9674
  68   2.0000     -10.286432      -279.9080
  69   2.0000     -10.285433      -279.8809
  70   2.0000     -10.285215      -279.8749
  71   2.0000     -10.283219      -279.8206
  72   2.0000     -10.281171      -279.7649
  73   2.0000     -10.278025      -279.6793
  74   2.0000     -10.277012      -279.6517
  75   2.0000     -10.268583      -279.4223
  76   2.0000      -8.786773      -239.1003
  77   2.0000      -8.092120      -220.1978
  78   2.0000      -8.089311      -220.1214
  79   2.0000      -8.089148      -220.1169
  80   2.0000      -8.085211      -220.0098
  81   2.0000      -8.076645      -219.7767
  82   2.0000      -8.065329      -219.4688
  83   2.0000      -8.063791      -219.4269
  84   2.0000      -8.058043      -219.2705
  85   2.0000      -6.623051      -180.2224
  86   2.0000      -6.608510      -179.8267
  87   2.0000      -6.608335      -179.8219
  88   2.0000      -6.061448      -164.9404
  89   2.0000      -6.058711      -164.8659
  90   2.0000      -6.058664      -164.8646
  91   2.0000      -6.057283      -164.8271
  92   2.0000      -6.054548      -164.7526
  93   2.0000      -6.054395      -164.7485
  94   2.0000      -6.054366      -164.7477
  95   2.0000      -6.054041      -164.7388
  96   2.0000      -6.051554      -164.6712
  97   2.0000      -6.051171      -164.6607
  98   2.0000      -6.050295      -164.6369
  99   2.0000      -6.047482      -164.5603
 100   2.0000      -6.045894      -164.5171
 101   2.0000      -6.041743      -164.4042
 102   2.0000      -6.039036      -164.3305
 103   2.0000      -6.034772      -164.2145
 104   2.0000      -6.033494      -164.1797
 105   2.0000      -6.030535      -164.0992
 106   2.0000      -6.029215      -164.0633
 107   2.0000      -6.027465      -164.0157
 108   2.0000      -6.027034      -164.0039
 109   2.0000      -6.025010      -163.9489
 110   2.0000      -6.023190      -163.8993
 111   2.0000      -6.020136      -163.8162
 112   2.0000      -2.738903       -74.5293
 113   2.0000      -2.734850       -74.4191
 114   2.0000      -2.734720       -74.4155
 115   2.0000      -2.723167       -74.1011
 116   2.0000      -2.723151       -74.1007
 117   2.0000      -1.176696       -32.0195
 118   2.0000      -1.117121       -30.3984
 119   2.0000      -1.050603       -28.5884
 120   2.0000      -1.039969       -28.2990
 121   2.0000      -1.026360       -27.9287
 122   2.0000      -1.020091       -27.7581
 123   2.0000      -1.017667       -27.6921
 124   2.0000      -1.012849       -27.5610
 125   2.0000      -1.011324       -27.5195
 126   2.0000      -1.007726       -27.4216
 127   2.0000      -1.003373       -27.3032
 128   2.0000      -1.003211       -27.2988
 129   2.0000      -0.995867       -27.0989
 130   2.0000      -0.985283       -26.8109
 131   2.0000      -0.983264       -26.7560
 132   2.0000      -0.978881       -26.6367
 133   2.0000      -0.978061       -26.6144
 134   2.0000      -0.962445       -26.1895
 135   2.0000      -0.951759       -25.8987
 136   2.0000      -0.940781       -25.5999
 137   2.0000      -0.933257       -25.3952
 138   2.0000      -0.923648       -25.1337
 139   2.0000      -0.911022       -24.7902
 140   2.0000      -0.905619       -24.6432
 141   2.0000      -0.898447       -24.4480
 142   2.0000      -0.894873       -24.3507
 143   2.0000      -0.877855       -23.8877
 144   2.0000      -0.876578       -23.8529
 145   2.0000      -0.873786       -23.7769
 146   2.0000      -0.869639       -23.6641
 147   2.0000      -0.862509       -23.4701
 148   2.0000      -0.855724       -23.2854
 149   2.0000      -0.852163       -23.1885
 150   2.0000      -0.848429       -23.0869
 151   2.0000      -0.835024       -22.7222
 152   2.0000      -0.826603       -22.4930
 153   2.0000      -0.820566       -22.3287
 154   2.0000      -0.819683       -22.3047
 155   2.0000      -0.809681       -22.0326
 156   2.0000      -0.797282       -21.6951
 157   2.0000      -0.782470       -21.2921
 158   2.0000      -0.773937       -21.0599
 159   2.0000      -0.772025       -21.0079
 160   2.0000      -0.759294       -20.6614
 161   2.0000      -0.747732       -20.3468
 162   2.0000      -0.742406       -20.2019
 163   2.0000      -0.727703       -19.8018
 164   2.0000      -0.718108       -19.5407
 165   2.0000      -0.711309       -19.3557
 166   2.0000      -0.701002       -19.0752
 167   2.0000      -0.697138       -18.9701
 168   2.0000      -0.693088       -18.8599
 169   2.0000      -0.687037       -18.6952
 170   2.0000      -0.681543       -18.5457
 171   2.0000      -0.676382       -18.4053
 172   2.0000      -0.672826       -18.3085
 173   2.0000      -0.668881       -18.2012
 174   2.0000      -0.663300       -18.0493
 175   2.0000      -0.656551       -17.8657
 176   2.0000      -0.650078       -17.6895
 177   2.0000      -0.648509       -17.6468
 178   2.0000      -0.645350       -17.5609
 179   2.0000      -0.632308       -17.2060
 180   2.0000      -0.630312       -17.1517
 181   2.0000      -0.626798       -17.0560
 182   2.0000      -0.621527       -16.9126
 183   2.0000      -0.615217       -16.7409
 184   2.0000      -0.613817       -16.7028
 185   2.0000      -0.609560       -16.5870
 186   2.0000      -0.601012       -16.3544
 187   2.0000      -0.596000       -16.2180
 188   2.0000      -0.591073       -16.0839
 189   2.0000      -0.584942       -15.9171
 190   2.0000      -0.579297       -15.7635
 191   2.0000      -0.572021       -15.5655
 192   2.0000      -0.570886       -15.5346
 193   2.0000      -0.565882       -15.3984
 194   2.0000      -0.559043       -15.2123
 195   2.0000      -0.553348       -15.0574
 196   2.0000      -0.553162       -15.0523
 197   2.0000      -0.543605       -14.7922
 198   2.0000      -0.543353       -14.7854
 199   2.0000      -0.538035       -14.6407
 200   2.0000      -0.530025       -14.4227
 201   2.0000      -0.529527       -14.4092
 202   2.0000      -0.528635       -14.3849
 203   2.0000      -0.527403       -14.3514
 204   2.0000      -0.525888       -14.3101
 205   2.0000      -0.525632       -14.3032
 206   2.0000      -0.523977       -14.2581
 207   2.0000      -0.518901       -14.1200
 208   2.0000      -0.516486       -14.0543
 209   2.0000      -0.512873       -13.9560
 210   2.0000      -0.510485       -13.8910
 211   2.0000      -0.504843       -13.7375
 212   2.0000      -0.501099       -13.6356
 213   2.0000      -0.500770       -13.6267
 214   2.0000      -0.499712       -13.5979
 215   2.0000      -0.499655       -13.5963
 216   2.0000      -0.495574       -13.4853
 217   2.0000      -0.494750       -13.4628
 218   2.0000      -0.489872       -13.3301
 219   2.0000      -0.487196       -13.2573
 220   2.0000      -0.483510       -13.1570
 221   2.0000      -0.482530       -13.1303
 222   2.0000      -0.479912       -13.0591
 223   2.0000      -0.479732       -13.0542
 224   2.0000      -0.475228       -12.9316
 225   2.0000      -0.473950       -12.8968
 226   2.0000      -0.467373       -12.7179
 227   2.0000      -0.465716       -12.6728
 228   2.0000      -0.464363       -12.6360
 229   2.0000      -0.463727       -12.6187
 230   2.0000      -0.461166       -12.5490
 231   2.0000      -0.457140       -12.4394
 232   2.0000      -0.456752       -12.4289
 233   2.0000      -0.455239       -12.3877
 234   2.0000      -0.454644       -12.3715
 235   2.0000      -0.450223       -12.2512
 236   2.0000      -0.449565       -12.2333
 237   2.0000      -0.449117       -12.2211
 238   2.0000      -0.444408       -12.0930
 239   2.0000      -0.443382       -12.0650
 240   2.0000      -0.442671       -12.0457
 241   2.0000      -0.440714       -11.9924
 242   2.0000      -0.440614       -11.9897
 243   2.0000      -0.439084       -11.9481
 244   2.0000      -0.438369       -11.9286
 245   2.0000      -0.436178       -11.8690
 246   2.0000      -0.434664       -11.8278
 247   2.0000      -0.434292       -11.8177
 248   2.0000      -0.433247       -11.7893
 249   2.0000      -0.432959       -11.7814
 250   2.0000      -0.432198       -11.7607
 251   2.0000      -0.429807       -11.6956
 252   2.0000      -0.428878       -11.6704
 253   2.0000      -0.427635       -11.6365
 254   2.0000      -0.426321       -11.6008
 255   2.0000      -0.421668       -11.4742
 256   2.0000      -0.419649       -11.4192
 257   2.0000      -0.416773       -11.3410
 258   2.0000      -0.412819       -11.2334
 259   2.0000      -0.409660       -11.1474
 260   2.0000      -0.408591       -11.1183
 261   2.0000      -0.403672       -10.9845
 262   2.0000      -0.396706       -10.7949
 263   2.0000      -0.390534       -10.6270
 264   2.0000      -0.387409       -10.5419
 265   2.0000      -0.377866       -10.2823
 266   2.0000      -0.369227       -10.0472
 267   2.0000      -0.365737        -9.9522
 268   2.0000      -0.359216        -9.7748
 269   2.0000      -0.355975        -9.6866
 270   2.0000      -0.344560        -9.3760
 271   2.0000      -0.340215        -9.2577
 272   2.0000      -0.334323        -9.0974
 273   2.0000      -0.326910        -8.8957
 274   2.0000      -0.324119        -8.8197
 275   2.0000      -0.317956        -8.6520
 276   2.0000      -0.310650        -8.4532
 277   2.0000      -0.307955        -8.3799
 278   2.0000      -0.306545        -8.3415
 279   2.0000      -0.292834        -7.9684
 280   2.0000      -0.285283        -7.7629
 281   2.0000      -0.275219        -7.4891
 282   2.0000      -0.246902        -6.7185
 283   2.0000      -0.231244        -6.2925
 284   0.0000      -0.112967        -3.0740
 285   0.0000      -0.097663        -2.6575
 286   0.0000      -0.094048        -2.5592
 287   0.0000      -0.059555        -1.6206
 288   0.0000      -0.044765        -1.2181

MULLIKEN ATOMIC CHARGES
-----------------------
   0 C :   -0.081385
   1 S :    0.070211
   2 C :   -0.066614
   3 O :   -0.156680
   4 C :    0.095442
   5 C :    0.024421
   6 C :   -0.069119
   7 C :   -0.056472
   8 C :    0.017520
   9 C :   -0.105094
  10 S :    0.161020
  11 C :   -0.093266
  12 C :    0.011843
  13 C :    0.303849
  14 C :   -0.302199
  15 C :   -0.183561
  16 N :    0.172797
  17 C :   -0.194698
  18 N :    0.178076
  19 C :   -0.052477
  20 C :   -0.059721
  21 S :    0.177903
  22 C :   -0.043760
  23 C :   -0.059447
  24 C :    0.022674
  25 C :   -0.103930
  26 S :    0.188905
  27 C :   -0.086537
  28 C :    0.010235
  29 C :    0.300760
  30 C :   -0.294278
  31 C :   -0.192694
  32 N :    0.186724
  33 C :   -0.184178
  34 N :    0.170925
  35 C :   -0.047284
  36 C :   -0.074104
  37 S :    0.178738
  38 C :   -0.008305
  39 C :   -0.097124
  40 C :    0.078300
  41 C :    0.061650
  42 C :   -0.118554
  43 S :    0.153572
  44 C :   -0.116031
  45 C :    0.058910
  46 C :   -0.011947
  47 C :   -0.062952
  48 S :    0.132789
  49 C :    0.104304
  50 C :   -0.005850
  51 C :   -0.020025
  52 C :   -0.028823
  53 C :   -0.082328
  54 C :    0.338267
  55 C :   -0.367123
  56 C :   -0.188899
  57 N :    0.137090
  58 C :   -0.184776
  59 N :    0.124362
  60 C :    0.010189
  61 C :   -0.005254
  62 C :    0.140293
  63 O :   -0.168615
  64 C :   -0.078728
  65 C :    0.117951
  66 C :   -0.091662
  67 C :   -0.025594
  68 S :    0.180432
  69 C :   -0.123586
  70 C :    0.036947
  71 Br:    0.016207
  72 H :    0.032168
  73 H :    0.200619
  74 H :   -0.000207
  75 H :    0.010114
  76 H :    0.011323
  77 H :    0.013116
  78 H :    0.021151
  79 H :    0.001403
  80 H :    0.043905
  81 H :    0.016348
  82 H :    0.029117
  83 H :   -0.019427
  84 H :    0.002523
  85 H :   -0.003216
  86 H :   -0.014625
  87 H :   -0.008765
  88 H :   -0.005181
Sum of atomic charges:   -0.0000000

LOEWDIN ATOMIC CHARGES
----------------------
   0 C :   -0.189264
   1 S :    0.395532
   2 C :   -0.094567
   3 O :   -0.031052
   4 C :   -0.132762
   5 C :   -0.052991
   6 C :   -0.144083
   7 C :   -0.039987
   8 C :   -0.064712
   9 C :   -0.196364
  10 S :    0.468247
  11 C :   -0.169786
  12 C :   -0.074917
  13 C :    0.083179
  14 C :   -0.101455
  15 C :   -0.015618
  16 N :   -0.033539
  17 C :   -0.018668
  18 N :   -0.030207
  19 C :   -0.020153
  20 C :   -0.193094
  21 S :    0.462227
  22 C :   -0.170344
  23 C :   -0.031429
  24 C :   -0.058833
  25 C :   -0.193535
  26 S :    0.469133
  27 C :   -0.165562
  28 C :   -0.074453
  29 C :    0.080835
  30 C :   -0.097063
  31 C :   -0.019841
  32 N :   -0.022092
  33 C :   -0.015265
  34 N :   -0.031703
  35 C :   -0.029971
  36 C :   -0.190853
  37 S :    0.484406
  38 C :   -0.164180
  39 C :   -0.038605
  40 C :    0.012103
  41 C :   -0.046518
  42 C :   -0.137243
  43 S :    0.484015
  44 C :   -0.204710
  45 C :   -0.031136
  46 C :   -0.059075
  47 C :   -0.159544
  48 S :    0.427194
  49 C :   -0.063045
  50 C :    0.040131
  51 C :   -0.052373
  52 C :    0.067451
  53 C :   -0.116206
  54 C :    0.077678
  55 C :   -0.157021
  56 C :   -0.018918
  57 N :   -0.067761
  58 C :   -0.017470
  59 N :   -0.072658
  60 C :   -0.019299
  61 C :   -0.048464
  62 C :    0.084238
  63 O :   -0.162625
  64 C :    0.017467
  65 C :   -0.034987
  66 C :   -0.145611
  67 C :   -0.012452
  68 S :    0.428075
  69 C :   -0.273901
  70 C :   -0.071139
  71 Br:    0.131028
  72 H :    0.026550
  73 H :    0.104422
  74 H :    0.026920
  75 H :    0.037369
  76 H :    0.042153
  77 H :    0.042597
  78 H :    0.035904
  79 H :    0.028612
  80 H :    0.040269
  81 H :    0.039458
  82 H :    0.025626
  83 H :    0.031105
  84 H :    0.029616
  85 H :    0.038498
  86 H :    0.038944
  87 H :    0.040271
  88 H :    0.037849

  Mayer bond orders larger than 0.100000
B(  0-C ,  1-S ) :   1.1151 B(  0-C ,  5-C ) :   1.6334 B(  0-C , 72-H ) :   0.9687
B(  1-S ,  2-C ) :   1.1261 B(  2-C ,  3-O ) :   1.2140 B(  2-C ,  4-C ) :   1.4670
B(  3-O , 73-H ) :   0.9451 B(  4-C ,  5-C ) :   1.2118 B(  4-C ,  6-C ) :   1.0921
B(  5-C , 74-H ) :   0.9903 B(  6-C ,  7-C ) :   1.4990 B(  6-C , 10-S ) :   1.1083
B(  7-C ,  8-C ) :   1.2495 B(  7-C , 75-H ) :   0.9942 B(  8-C ,  9-C ) :   1.4569
B(  8-C , 13-C ) :   0.9962 B(  9-C , 10-S ) :   1.1044 B(  9-C , 11-C ) :   1.1862
B( 11-C , 12-C ) :   1.4418 B( 11-C , 21-S ) :   1.1299 B( 12-C , 13-C ) :   0.9922
B( 12-C , 19-C ) :   1.2899 B( 13-C , 14-C ) :   1.7130 B( 14-C , 15-C ) :   1.1346
B( 14-C , 17-C ) :   1.1332 B( 15-C , 16-N ) :   2.9917 B( 17-C , 18-N ) :   2.9929
B( 19-C , 20-C ) :   1.4873 B( 19-C , 76-H ) :   0.9927 B( 20-C , 21-S ) :   1.0850
B( 20-C , 22-C ) :   1.1279 B( 22-C , 23-C ) :   1.4792 B( 22-C , 26-S ) :   1.1069
B( 23-C , 24-C ) :   1.2927 B( 23-C , 77-H ) :   0.9940 B( 24-C , 25-C ) :   1.4401
B( 24-C , 29-C ) :   0.9914 B( 25-C , 26-S ) :   1.1090 B( 25-C , 27-C ) :   1.1964
B( 27-C , 28-C ) :   1.4324 B( 27-C , 37-S ) :   1.1367 B( 28-C , 29-C ) :   1.0002
B( 28-C , 35-C ) :   1.3111 B( 29-C , 30-C ) :   1.7155 B( 30-C , 31-C ) :   1.1341
B( 30-C , 33-C ) :   1.1326 B( 31-C , 32-N ) :   2.9936 B( 33-C , 34-N ) :   2.9886
B( 35-C , 36-C ) :   1.4532 B( 35-C , 78-H ) :   0.9786 B( 36-C , 37-S ) :   1.0935
B( 36-C , 38-C ) :   1.1723 B( 38-C , 39-C ) :   1.4923 B( 38-C , 43-S ) :   1.0823
B( 39-C , 40-C ) :   1.2861 B( 39-C , 79-H ) :   0.9583 B( 40-C , 41-C ) :   1.0682
B( 40-C , 49-C ) :   1.3172 B( 41-C , 42-C ) :   1.5899 B( 41-C , 44-C ) :   1.1738
B( 42-C , 43-S ) :   1.1474 B( 42-C , 80-H ) :   0.9406 B( 44-C , 45-C ) :   1.4544
B( 44-C , 48-S ) :   1.0810 B( 45-C , 46-C ) :   1.2236 B( 45-C , 49-C ) :   1.0674
B( 46-C , 47-C ) :   1.5831 B( 46-C , 81-H ) :   0.9994 B( 47-C , 48-S ) :   1.1565
B( 47-C , 82-H ) :   0.9629 B( 49-C , 50-C ) :   1.1945 B( 50-C , 51-C ) :   1.4506
B( 50-C , 83-H ) :   0.9753 B( 51-C , 52-C ) :   1.2331 B( 51-C , 84-H ) :   0.9964
B( 52-C , 53-C ) :   1.4397 B( 52-C , 85-H ) :   0.9646 B( 53-C , 54-C ) :   1.1001
B( 53-C , 62-C ) :   0.9679 B( 54-C , 55-C ) :   1.5890 B( 54-C , 60-C ) :   0.9935
B( 55-C , 56-C ) :   1.1475 B( 55-C , 58-C ) :   1.1546 B( 56-C , 57-N ) :   2.9628
B( 58-C , 59-N ) :   2.9523 B( 60-C , 61-C ) :   1.2792 B( 60-C , 67-C ) :   1.4166
B( 61-C , 62-C ) :   0.9390 B( 61-C , 64-C ) :   1.4269 B( 62-C , 63-O ) :   2.1821
B( 64-C , 65-C ) :   1.2408 B( 64-C , 86-H ) :   1.0165 B( 65-C , 66-C ) :   1.3145
B( 65-C , 70-C ) :   1.1606 B( 66-C , 67-C ) :   1.3245 B( 66-C , 68-S ) :   1.0821
B( 67-C , 87-H ) :   0.9791 B( 68-S , 69-C ) :   1.0862 B( 69-C , 70-C ) :   1.6197
B( 69-C , 71-Br) :   1.0139 B( 70-C , 88-H ) :   1.0003

-----------------------------------------------------------------------------
         ABSORPTION SPECTRUM VIA TRANSITION ELECTRIC DIPOLE MOMENTS
-----------------------------------------------------------------------------
State   Energy  Wavelength   fosc         T2         TX        TY        TZ
        (cm-1)    (nm)                  (au**2)     (au)      (au)      (au)
-----------------------------------------------------------------------------
   0   10009.7    999.0   0.340246648  11.19050   2.99881   1.15200  -0.93303
   1   11871.9    842.3   0.031617969   0.87678  -0.79479   0.41909  -0.26354
   2   15153.6    659.9   1.083697518  23.54328  -0.83587  -3.88281   2.78718
   3   16551.5    604.2   0.069195787   1.37631  -1.11994  -0.26396   0.22883
   4   21071.7    474.6   0.023419776   0.36590  -0.56288   0.19029  -0.11335
   5   21576.2    463.5   0.851691301  12.99522  -3.40408   1.02054  -0.60491
   6   22073.6    453.0   0.167507210   2.49825   1.20311  -0.85090   0.57160
   7   22755.1    439.5   0.038384614   0.55533  -0.48606   0.47220  -0.31002
   8   24310.5    411.3   0.255677252   3.46238  -1.24089  -1.10620   0.83600
   9   25066.9    398.9   0.065502457   0.86027  -0.71164   0.49457  -0.33050
  10   25338.6    394.7   0.019420822   0.25233  -0.05831  -0.40275   0.29447
  11   26398.6    378.8   0.963491408  12.01550   3.46364  -0.00122  -0.13668
  12   27011.9    370.2   0.147678831   1.79986   0.87939   0.80095  -0.62049
  13   27194.1    367.7   0.160578128   1.94396  -0.37356   1.08556  -0.79118
  14   28605.3    349.6   0.274770087   3.16227   1.52208  -0.79001   0.47057
  15   28761.0    347.7   0.000006260   0.00007  -0.00427   0.00458  -0.00569
  16   29218.1    342.3   0.005637066   0.06352   0.25100  -0.01810  -0.01366
  17   29682.0    336.9   0.129919223   1.44097   0.27167   0.93684  -0.69964
  18   30252.1    330.6   0.168357991   1.83212  -0.29114  -1.08109   0.76065
  19   30383.5    329.1   0.005794430   0.06278  -0.24486   0.05020   0.01751
  20   30753.3    325.2   0.064363923   0.68901  -0.75195   0.30373  -0.17699
  21   30808.1    324.6   0.049749691   0.53162  -0.48442  -0.39844   0.37176
  22   31313.1    319.4   0.158135005   1.66256  -1.25796   0.25925  -0.11354
  23   31407.6    318.4   0.307189849   3.21994  -0.19681   1.47133  -1.00816
  24   31817.4    314.3   0.864536368   8.94529   0.29142   2.45023  -1.69019
  25   32088.0    311.6   0.000025668   0.00026  -0.00403  -0.00808  -0.01348
  26   32608.2    306.7   0.181660748   1.83405  -1.31804   0.26293  -0.16637
  27   32809.2    304.8   0.305007009   3.06048  -0.30742  -1.38596   1.02229
  28   32911.5    303.8   0.251166727   2.51240   1.07843   0.89885  -0.73583
  29   32989.5    303.1   0.098581358   0.98377   0.03446  -0.80876   0.57314
  30   33573.0    297.9   0.006362715   0.06239   0.21271   0.10862  -0.07311
  31   33624.3    297.4   0.229039419   2.24250  -1.29217  -0.59251   0.47088
  32   33993.9    294.2   0.081876681   0.79293  -0.68645  -0.45965   0.33233
  33   34747.6    287.8   0.066914575   0.63397  -0.66809  -0.34967   0.25564
  34   34964.4    286.0   0.003239426   0.03050   0.14503   0.08078  -0.05423
  35   35113.5    284.8   0.021496758   0.20155  -0.24664  -0.30932   0.21221
  36   35232.4    283.8   0.000008004   0.00007   0.00092  -0.00422   0.00749
  37   35436.8    282.2   0.052016470   0.48324  -0.67004   0.16912  -0.07539
  38   35620.1    280.7   0.156145293   1.44314   0.53824   0.86608  -0.63510
  39   36019.2    277.6   0.030468334   0.27848  -0.03955  -0.44366   0.28298
  40   36223.9    276.1   0.013360737   0.12143  -0.12089  -0.27877   0.17058
  41   36619.1    273.1   0.045042185   0.40494   0.63598   0.00347  -0.02128
  42   36781.0    271.9   0.042561174   0.38095   0.37316   0.39306  -0.29531
  43   37401.5    267.4   0.030838642   0.27144   0.38476   0.27731  -0.21565
  44   37546.9    266.3   0.080738575   0.70792   0.65634  -0.44670   0.27857
  45   37668.0    265.5   0.000020617   0.00018  -0.01065   0.00323  -0.00750
  46   37735.1    265.0   0.042264222   0.36873  -0.22554   0.46643  -0.31670
  47   37918.2    263.7   0.178815564   1.55251  -1.20738  -0.22266   0.21249
  48   37945.0    263.5   0.095812579   0.83127   0.87512  -0.22894   0.11412
  49   38327.6    260.9   0.045113876   0.38750  -0.30539  -0.43384   0.32561
  50   38423.6    260.3   0.251815960   2.15755  -1.44569   0.23619  -0.10834
  51   38699.1    258.4   0.035419138   0.30131  -0.22660  -0.40730   0.28995
  52   39059.4    256.0   0.070641961   0.59541   0.36395  -0.56482   0.37937
  53   39204.3    255.1   0.003719740   0.03124  -0.10908  -0.11021   0.08481
  54   39637.4    252.3   0.047162099   0.39171  -0.52953   0.28028  -0.18097
  55   40028.0    249.8   0.014153162   0.11640   0.27614   0.15800  -0.12323
  56   40044.7    249.7   0.012831382   0.10549  -0.28608  -0.12110   0.09477
  57   40187.9    248.8   0.142376888   1.16632   1.01303  -0.32407   0.18726

FINAL SINGLE POINT ENERGY     -8340.108456149359

DIPOLE MOMENT
-------------
                                X             Y             Z
Electronic contribution:     48.55512     101.46383     -75.26074
Nuclear contribution   :    -48.76496    -100.68498      74.74107
                        -----------------------------------------
Total Dipole Moment    :     -0.20984       0.77885      -0.51967
                        -----------------------------------------
Magnitude (a.u.)       :      0.95953
Magnitude (Debye)      :      2.43893

Rotational constants in cm-1:     0.000708     0.000210     0.000162
Rotational constants in MHz :    21.223995     6.286502     4.850282

                             ****ORCA TERMINATED NORMALLY****
TOTAL RUN TIME: 0 days 0 hours 9 minutes 14 seconds 618 msec
